Membrane in water
40344
    1TMC1    C1    1   1.645   1.837  11.848 -0.0343 -0.5534 -0.3832
    1TMC1    C2    2   1.726   1.793  11.747 -0.2469 -0.8610 -0.3512
    1TMC1    C3    3   1.820   1.883  11.690 -0.9605  0.4051  0.5133
    1TMC1    C4    4   1.637   1.968  11.878 -0.1647 -0.2290  0.6620
    1TMC1    C5    5   1.732   2.053  11.818  0.2036  0.2929 -0.8785
    1TMC1    C6    6   1.819   2.013  11.718 -0.4722 -0.2848 -0.8923
    1TMC1     C    7   1.564   1.743  11.922 -0.4818  0.0915  0.2901
    1TMC1     O    8   1.488   1.781  12.010  0.2515  0.4294  0.2803
    1TMC1     H    9   1.729   1.689  11.715  1.3128 -0.5092 -1.3371
    1TMC1    H1   10   1.571   2.008  11.954  0.5118  0.6054  0.8158
    1TMC1    H2   11   1.886   2.082  11.668 -0.3608  1.1782  1.2456
    1TMC1    C7   12   1.718   2.190  11.851 -0.1010 -0.2977 -0.4880
    1TMC1    C8   13   1.924   1.833  11.597 -0.1902  0.6615 -0.1593
    1TMC1    O1   14   1.617   2.237  11.900 -0.3340  0.1139  0.0830
    1TMC1    O2   15   1.987   1.908  11.524 -0.5556  0.3006 -1.0494
    1TMC1    O3   16   1.848   2.239  11.876  0.1496 -0.3676  0.3870
    1TMC1    H3   17   1.913   2.170  11.851  1.4402  0.2711  2.0244
    1TMC1    O5   18   1.982   1.733  11.672 -0.3836 -0.1359 -0.1388
    1TMC1    H5   19   1.975   1.730  11.770 -0.2492 -0.5821 -0.1428
    2MPD2     C   20   1.476   1.247  12.046 -0.2528  0.6778  0.0684
    2MPD2    C1   21   1.449   1.362  12.117 -0.1652  0.7962 -0.7778
    2MPD2    C2   22   1.489   1.482  12.062 -0.6396  1.2213 -0.1870
    2MPD2    C3   23   1.563   1.488  11.948 -0.1654 -0.3203 -0.2182
    2MPD2    C4   24   1.578   1.370  11.876  0.2713 -0.2736 -0.0434
    2MPD2    C5   25   1.529   1.252  11.920  0.3736  0.3331 -0.4299
    2MPD2     H   26   1.478   1.573  12.119  2.9269  0.5392  1.5989
    2MPD2    H1   27   1.626   1.370  11.779 -1.7225 -2.0222 -1.0331
    2MPD2    H2   28   1.458   1.147  12.084 -2.5240  0.5989 -1.1954
    2MPD2    H3   29   1.560   1.160  11.872  0.6995  1.1524 -1.7721
    2MPD2     N   30   1.605   1.612  11.892 -0.5064 -0.1116  0.1720
    2MPD2    H5   31   1.649   1.601  11.801 -0.8015  1.0789 -0.1077
    2MPD2    N1   32   1.380   1.377  12.237  0.2825  0.1702  0.1930
    2MPD2    H7   33   1.343   1.468  12.261  0.9672 -0.5773  4.1120
    3TMC1    C1   34   0.529   2.259  11.580  0.7131 -0.0684 -0.8819
    3TMC1    C2   35   0.642   2.297  11.508  0.3966  0.5687  0.1261
    3TMC1    C3   36   0.704   2.200  11.427  0.2108 -0.4219 -0.1301
    3TMC1    C4   37   0.486   2.126  11.596 -0.0821 -0.1043  0.0275
    3TMC1    C5   38   0.549   2.040  11.509 -0.4541 -0.1576 -0.5640
    3TMC1    C6   39   0.652   2.072  11.417  0.8304 -0.1673 -0.5389
    3TMC1     C   40   0.452   2.359  11.649 -0.4938  0.3405 -0.2629
    3TMC1     O   41   0.391   2.316  11.745 -0.2698  0.2602  0.2563
    3TMC1     H   42   0.664   2.403  11.501 -2.5999  1.2725  1.2862
    3TMC1    H1   43   0.399   2.094  11.651 -0.0642 -3.3856 -1.8454
    3TMC1    H2   44   0.708   1.997  11.363 -1.0993 -2.5326  0.7840
    3TMC1    C7   45   0.497   1.903  11.504 -0.4191 -0.4255 -0.2422
    3TMC1    C8   46   0.820   2.240  11.344  0.0204  0.3935 -0.5041
    3TMC1    O1   47   0.385   1.883  11.545 -0.0594  0.4085  0.3472
    3TMC1    O2   48   0.891   2.335  11.363  0.2839  0.7247  0.7506
    3TMC1    O3   49   0.606   1.831  11.529  0.8377 -0.0023 -0.2675
    3TMC1    H3   50   0.688   1.883  11.515  2.0387 -1.3241  1.8563
    3TMC1    O5   51   0.796   2.180  11.225  0.2761  0.1750  0.7151
    3TMC1    H5   52   0.710   2.133  11.219  0.9486 -0.8680 -0.7315
    4MPD2     C   53   0.176   2.792  11.686  0.6053  0.9776  0.1859
    4MPD2    C1   54   0.223   2.772  11.557 -0.3674  0.5056  0.0347
    4MPD2    C2   55   0.303   2.661  11.526  0.6079 -0.1892  0.4232
    4MPD2    C3   56   0.346   2.577  11.623  0.3367  0.5473  0.0858
    4MPD2    C4   57   0.298   2.593  11.747 -1.2429 -0.2343  0.2697
    4MPD2    C5   58   0.219   2.706  11.778  1.1985 -0.3053  0.2131
    4MPD2     H   59   0.333   2.645  11.423 -0.0935  1.1810 -0.0019
    4MPD2    H1   60   0.329   2.529  11.828  2.3555  0.3827 -0.5953
    4MPD2    H2   61   0.110   2.871  11.720 -1.2381 -0.2610 -0.4616
    4MPD2    H3   62   0.172   2.717  11.875 -0.9790  0.8136 -0.9678
    4MPD2     N   63   0.425   2.470  11.579 -0.0673  1.2104 -0.6585
    4MPD2    H5   64   0.467   2.475  11.487  0.8581  2.3212 -0.1900
    4MPD2    N1   65   0.174   2.858  11.449 -0.4298 -0.1077  0.1008
    4MPD2    H7   66   0.175   2.828  11.352  1.6144 -1.1242  0.4378
    5TCq1    O1   67   1.929   3.690  11.695  0.0281  0.2536  1.0444
    5TCq1    C1   68   1.943   3.750  11.817  0.4742  0.2775  0.2746
    5TCq1    O2   69   2.009   3.704  11.914 -0.2118 -0.3264 -0.2394
    5TCq1    C2   70   1.888   3.887  11.807 -0.0250 -0.2160  0.7033
    5TCq1    C3   71   1.914   3.958  11.917 -0.1677  0.3161  0.1593
    5TCq1    C4   72   1.828   4.052  11.960 -0.1650  0.6944 -0.2631
    5TCq1    C5   73   1.707   4.074  11.901 -0.0180 -0.4263 -0.0534
    5TCq1    C6   74   1.670   3.995  11.798  0.0428  0.1825  0.6014
    5TCq1    C7   75   1.761   3.897  11.751 -0.8613 -0.7691  0.3294
    5TCq1    C8   76   1.570   4.023  11.697  0.3237  0.3787  0.0220
    5TCq1    O4   77   1.569   3.961  11.594  0.3137 -0.1478  0.5372
    5TCq1    C9   78   1.865   4.142  12.070 -0.1029 -0.1504 -0.1027
    5TCq1    O5   79   1.786   4.230  12.099  1.1866 -0.1764  0.1536
    5TCq1    O6   80   1.971   4.106  12.134 -0.0704  0.2130 -0.3279
    5TCq1    H1   81   1.884   3.744  11.626  2.1260  1.1994  0.4188
    5TCq1    H2   82   2.014   3.957  11.960  0.1181  1.4797 -0.4946
    5TCq1    H3   83   1.646   4.155  11.940 -1.1799 -2.0070  1.3986
    5TCq1    H4   84   1.743   3.833  11.665 -1.4218 -0.5741  0.3008
    6MPD2     C   85   1.316   4.295  11.690 -0.4526 -0.9159  0.0332
    6MPD2    C1   86   1.374   4.179  11.648 -0.1183 -0.3638 -0.4177
    6MPD2    C2   87   1.332   4.118  11.535 -0.4557  0.0135 -0.4900
    6MPD2    C3   88   1.239   4.182  11.458  0.3072  0.1222  0.3896
    6MPD2    C4   89   1.179   4.298  11.502 -0.4985 -0.1720 -0.7666
    6MPD2    C5   90   1.212   4.351  11.623  1.0366 -0.5724  0.2045
    6MPD2     H   91   1.382   4.029  11.499  0.3096  0.6241 -0.9424
    6MPD2    H1   92   1.089   4.329  11.451 -0.0112  1.4358 -0.6490
    6MPD2    H2   93   1.338   4.333  11.789  1.0047  0.3306 -0.7666
    6MPD2    H3   94   1.151   4.425  11.674  0.9933  0.8900 -1.9759
    6MPD2     N   95   1.206   4.115  11.336 -0.0533 -0.6421  0.4121
    6MPD2    H5   96   1.288   4.073  11.293 -1.0104 -2.2133  0.1340
    6MPD2    N1   97   1.483   4.123  11.726  0.0907  0.6119  0.1544
    6MPD2    H7   98   1.495   4.162  11.819 -0.7871  2.9039 -0.6860
    7TCq1    O1   99   3.287   3.841  12.594 -0.0987  0.2413  0.6652
    7TCq1    C1  100   3.335   3.964  12.636 -0.8904 -0.3592 -0.0392
    7TCq1    O2  101   3.308   4.075  12.590  0.0670  0.3087  0.1915
    7TCq1    C2  102   3.367   3.963  12.775  0.3083  0.6391  0.6079
    7TCq1    C3  103   3.433   4.075  12.824  0.1445  0.1522 -0.3629
    7TCq1    C4  104   3.482   4.074  12.948 -0.3188 -0.0388  0.3546
    7TCq1    C5  105   3.476   3.963  13.031  0.2089  0.8325  0.5442
    7TCq1    C6  106   3.421   3.852  12.975  0.0719 -0.7521  0.2814
    7TCq1    C7  107   3.355   3.851  12.853  0.0671 -0.1680  0.6437
    7TCq1    C8  108   3.429   3.720  13.037  0.2021  0.2276  0.3338
    7TCq1    O4  109   3.411   3.630  12.956 -0.4992  0.0357  0.5048
    7TCq1    C9  110   3.555   4.195  12.983  0.4377 -0.4076 -0.5756
    7TCq1    O5  111   3.558   4.292  12.903 -0.5612 -0.3784  0.1393
    7TCq1    O6  112   3.585   4.211  13.108  0.3650 -0.2905 -0.8644
    7TCq1    H1  113   3.342   3.762  12.608 -3.0267 -1.8844  0.1965
    7TCq1    H2  114   3.448   4.155  12.753  2.3755 -0.8729 -1.0529
    7TCq1    H3  115   3.532   3.959  13.124 -0.5804  0.9892  1.0237
    7TCq1    H4  116   3.294   3.769  12.818  0.5167 -1.0217  1.8656
    8MPD2     C  117   3.552   3.367  13.379  0.0314  0.7060 -0.1123
    8MPD2    C1  118   3.487   3.351  13.260  0.2747  0.1391  0.2679
    8MPD2    C2  119   3.456   3.466  13.191 -0.9717 -0.1514  1.5629
    8MPD2    C3  120   3.494   3.591  13.239 -0.7040 -0.0697  0.3308
    8MPD2    C4  121   3.553   3.598  13.359 -0.3346  0.1528  0.5638
    8MPD2    C5  122   3.586   3.488  13.426  0.1421  0.3216  0.0292
    8MPD2     H  123   3.410   3.453  13.094  0.2282  0.5586  0.8974
    8MPD2    H1  124   3.589   3.692  13.400 -1.0741  0.7799 -0.2169
    8MPD2    H2  125   3.576   3.276  13.433  1.5537 -0.0093 -1.9980
    8MPD2    H3  126   3.640   3.499  13.519  1.2302  2.6111 -0.8663
    8MPD2     N  127   3.462   3.713  13.172 -0.3108  0.3248 -0.2544
    8MPD2    H5  128   3.472   3.797  13.228 -4.1675  0.7295 -0.1982
    8MPD2    N1  129   3.463   3.224  13.214  0.7072 -0.0527 -0.0052
    8MPD2    H7  130   3.516   3.153  13.264 -0.7456  0.3657  2.1513
    9TMC1    C1  131   0.590   3.211  11.793  0.6466 -0.7891 -0.3955
    9TMC1    C2  132   0.491   3.286  11.723 -0.4086  0.0219 -0.8549
    9TMC1    C3  133   0.533   3.326  11.600  0.0932 -0.3830 -0.0246
    9TMC1    C4  134   0.711   3.185  11.741  0.3206 -0.2966 -0.2629
    9TMC1    C5  135   0.748   3.234  11.619  0.0244  0.1721  0.0149
    9TMC1    C6  136   0.653   3.300  11.540 -0.2443 -0.2424  0.3837
    9TMC1     C  137   0.537   3.124  11.899 -0.0420 -0.0333  0.4907
    9TMC1     O  138   0.420   3.133  11.933 -0.1723  0.2805 -0.4684
    9TMC1     H  139   0.392   3.298  11.766 -0.2071 -0.8925 -0.1195
    9TMC1    H1  140   0.785   3.127  11.796 -0.2388 -0.8108 -0.0517
    9TMC1    H2  141   0.672   3.346  11.443  0.6857 -0.5200  0.4288
    9TMC1    C7  142   0.864   3.175  11.563  0.9175 -0.2333  0.0884
    9TMC1    C8  143   0.427   3.355  11.505  0.1382  0.4947 -0.3850
    9TMC1    O1  144   0.966   3.147  11.627 -0.2598 -0.0895 -0.1233
    9TMC1    O2  145   0.415   3.445  11.423  0.4159 -0.5107  0.0061
    9TMC1    O3  146   0.830   3.111  11.448  0.9241 -0.0910 -0.3003
    9TMC1    H3  147   0.744   3.150  11.421  0.7916  0.0830  0.3785
    9TMC1    O5  148   0.352   3.238  11.511  0.0075 -0.3531  0.5109
    9TMC1    H5  149   0.391   3.162  11.559  0.1362 -1.0945 -0.7658
   10MPD2     C  150   0.458   2.858  12.005  0.5651  0.1692  0.7986
   10MPD2    C1  151   0.588   2.897  11.983 -0.0485  0.6452  0.1123
   10MPD2    C2  152   0.690   2.813  12.025 -0.2781 -0.1241 -0.2739
   10MPD2    C3  153   0.665   2.700  12.093  0.0643 -0.1528  0.2652
   10MPD2    C4  154   0.535   2.667  12.127  0.2011 -0.2994  0.4959
   10MPD2    C5  155   0.435   2.749  12.087  0.0464  1.0365 -0.4673
   10MPD2     H  156   0.790   2.834  11.987 -0.5078  0.5439 -0.5171
   10MPD2    H1  157   0.509   2.586  12.195 -0.6168 -1.2370 -0.9379
   10MPD2    H2  158   0.369   2.919  11.990  0.9150  0.2369 -0.9914
   10MPD2    H3  159   0.335   2.741  12.127 -0.5301  1.0301 -1.9005
   10MPD2     N  160   0.753   2.595  12.125 -0.7868  0.3519  0.5835
   10MPD2    H5  161   0.703   2.519  12.171  0.0577 -1.3714 -1.3314
   10MPD2    N1  162   0.624   3.019  11.919 -0.1872  0.0792  0.3796
   10MPD2    H7  163   0.717   3.015  11.880 -0.7971  1.2980 -1.2630
   11TCq1    O1  164   1.281   1.601  14.610  0.2022 -0.0889  0.1956
   11TCq1    C1  165   1.279   1.566  14.483  0.0240  0.1397 -0.4204
   11TCq1    O2  166   1.382   1.551  14.418 -0.2039 -0.2896  0.5797
   11TCq1    C2  167   1.144   1.569  14.431 -0.3373  0.1844 -0.3253
   11TCq1    C3  168   1.063   1.672  14.473 -0.0731  0.7533 -0.0250
   11TCq1    C4  169   0.942   1.692  14.410 -0.2586  0.9073 -0.0556
   11TCq1    C5  170   0.896   1.607  14.310 -0.2779  0.1481  0.0471
   11TCq1    C6  171   0.984   1.513  14.259  0.6319 -0.7567 -0.6253
   11TCq1    C7  172   1.113   1.494  14.316  0.5153 -0.3104  0.4359
   11TCq1    C8  173   0.939   1.442  14.137 -0.4980 -0.2829 -0.6724
   11TCq1    O4  174   0.833   1.477  14.089 -0.5505  0.0661  0.3415
   11TCq1    C9  175   0.863   1.803  14.447 -0.5349 -0.0024  0.3620
   11TCq1    O5  176   0.772   1.846  14.369 -0.2577 -0.2243 -0.0197
   11TCq1    O6  177   0.882   1.843  14.565  0.1240  0.2162 -0.2224
   11TCq1    H1  178   1.188   1.610  14.642  0.0225 -0.2553 -0.2842
   11TCq1    H2  179   1.096   1.753  14.538  0.8465 -0.3276  0.8533
   11TCq1    H3  180   0.801   1.633  14.264  0.4949 -0.9223 -2.1378
   11TCq1    H4  181   1.183   1.421  14.277  3.1918  2.1428  0.7099
   12MPD2     C  182   0.875   1.254  13.914 -0.6564  0.3933  0.3111
   12MPD2    C1  183   0.989   1.248  13.994  0.5540 -0.1829 -0.7475
   12MPD2    C2  184   1.092   1.173  13.947 -0.4141  0.1693  0.2370
   12MPD2    C3  185   1.090   1.097  13.832 -0.1620 -0.2046 -0.3293
   12MPD2    C4  186   0.975   1.108  13.752 -0.1004  0.2975 -0.7815
   12MPD2    C5  187   0.871   1.187  13.796 -0.2175 -0.0260 -0.7229
   12MPD2     H  188   1.182   1.165  14.008  0.3731 -0.0991 -0.9622
   12MPD2    H1  189   0.957   1.066  13.654 -1.4090  0.6359 -0.6944
   12MPD2    H2  190   0.788   1.314  13.937 -1.3165 -1.0980  1.7198
   12MPD2    H3  191   0.781   1.202  13.737 -1.0768 -0.4740  0.4803
   12MPD2     N  192   1.200   1.030  13.785 -0.3612  0.3714 -0.3000
   12MPD2    H5  193   1.204   1.002  13.687  2.7239  1.2159 -0.4260
   12MPD2    N1  194   1.011   1.333  14.107 -0.0238 -0.1600 -0.0059
   12MPD2    H7  195   1.090   1.319  14.169  0.7056 -1.4866 -1.2361
   13TCq1    O1  196   1.747   2.456  10.939  0.0461 -0.1925  0.3182
   13TCq1    C1  197   1.722   2.384  10.824  0.2188 -0.4552 -0.6711
   13TCq1    O2  198   1.745   2.421  10.711 -0.3210  0.5680 -0.3986
   13TCq1    C2  199   1.665   2.254  10.848 -0.2040  0.0237 -0.6912
   13TCq1    C3  200   1.681   2.151  10.764 -0.0994  0.8349 -0.1918
   13TCq1    C4  201   1.613   2.036  10.774 -0.2159  0.0863 -0.1437
   13TCq1    C5  202   1.516   2.023  10.871  0.5486 -0.4171  0.3830
   13TCq1    C6  203   1.503   2.124  10.964  0.3512 -0.6386  0.5065
   13TCq1    C7  204   1.576   2.244  10.955 -0.7359  0.1730 -0.1193
   13TCq1    C8  205   1.401   2.124  11.064  0.3496  0.2046  0.0036
   13TCq1    O4  206   1.415   2.178  11.171  0.1446 -0.5134  0.3070
   13TCq1    C9  207   1.614   1.937  10.668 -0.1807  0.2812 -0.0419
   13TCq1    O5  208   1.561   1.821  10.694 -0.1548  0.5031 -0.1947
   13TCq1    O6  209   1.684   1.964  10.567  0.1351  0.3633 -0.4472
   13TCq1    H1  210   1.728   2.418  11.028  2.1498 -1.8358  0.0421
   13TCq1    H2  211   1.755   2.165  10.686 -1.9412  0.2082 -2.0346
   13TCq1    H3  212   1.458   1.932  10.880  0.0872 -0.3262 -1.7251
   13TCq1    H4  213   1.563   2.326  11.025 -2.7177 -0.5362  0.3545
   14MPD2     C  214   1.084   1.957  11.024 -0.1071  0.3169 -0.4687
   14MPD2    C1  215   1.187   2.006  11.096  0.0236  0.3048  0.0190
   14MPD2    C2  216   1.179   2.009  11.233 -0.5520  0.2240 -0.5071
   14MPD2    C3  217   1.067   1.965  11.299 -0.3654  0.0511 -0.6578
   14MPD2    C4  218   0.961   1.911  11.225 -0.4942  0.3744 -1.1818
   14MPD2    C5  219   0.965   1.925  11.088  0.2559  0.4231 -0.2472
   14MPD2     H  220   1.262   2.038  11.297  0.1368 -1.9167 -0.4531
   14MPD2    H1  221   0.874   1.877  11.278 -0.0681  0.6589 -0.2983
   14MPD2    H2  222   1.091   1.951  10.916  0.3430  3.1530 -0.5909
   14MPD2    H3  223   0.874   1.899  11.035 -0.7734  0.5048  1.4798
   14MPD2     N  224   1.063   1.992  11.441 -0.5384  0.0351 -0.4669
   14MPD2    H5  225   1.140   2.042  11.485  0.1349 -1.0515 -0.3967
   14MPD2    N1  226   1.296   2.052  11.018  0.2043  0.1086 -0.4655
   14MPD2    H7  227   1.279   2.056  10.918  0.5885 -2.6784 -0.6401
   15TCq1    O1  228   3.359   0.571   2.375 -0.1668  0.3622  0.3009
   15TCq1    C1  229   3.274   0.490   2.307  0.0885 -0.6283 -0.3551
   15TCq1    O2  230   3.161   0.517   2.269 -0.0103  0.7217  0.2442
   15TCq1    C2  231   3.354   0.407   2.222  0.7620 -0.0183  0.6155
   15TCq1    C3  232   3.470   0.356   2.261  0.2462  0.6483 -0.4474
   15TCq1    C4  233   3.556   0.303   2.170  0.4053 -0.0247  0.3354
   15TCq1    C5  234   3.535   0.297   2.039  0.0046 -0.7912  0.4788
   15TCq1    C6  235   3.416   0.351   2.002  0.1551  0.0257 -0.2187
   15TCq1    C7  236   3.323   0.411   2.092 -1.0322  0.5256 -0.0291
   15TCq1    C8  237   3.378   0.322   1.867  0.1758 -0.2264  0.0723
   15TCq1    O4  238   3.443   0.248   1.794 -0.7640 -0.8213 -0.1071
   15TCq1    C9  239   3.676   0.242   2.225 -0.0353 -0.2379  0.8853
   15TCq1    O5  240   3.763   0.188   2.154 -0.2830 -0.2246  0.1934
   15TCq1    O6  241   3.701   0.279   2.342  0.2823 -0.0200  0.8168
   15TCq1    H1  242   3.448   0.572   2.334  0.6878 -0.7580  2.0985
   15TCq1    H2  243   3.494   0.358   2.367 -0.7079  0.3888 -0.2331
   15TCq1    H3  244   3.612   0.254   1.976  1.1518 -1.1574  2.1323
   15TCq1    H4  245   3.231   0.456   2.057 -0.8896 -0.0446 -1.1559
   16MPD2     C  246   3.084   0.447   1.673  0.3205 -0.4373 -0.7593
   16MPD2    C1  247   3.206   0.389   1.698  0.2770 -0.4523  0.2113
   16MPD2    C2  248   3.259   0.317   1.598  0.2088  0.3667  0.0677
   16MPD2    C3  249   3.211   0.312   1.474  0.0311 -0.1439  0.4006
   16MPD2    C4  250   3.091   0.369   1.447 -0.5262  0.2806 -0.8516
   16MPD2    C5  251   3.033   0.445   1.548 -0.3352 -0.2736  0.3983
   16MPD2     H  252   3.357   0.273   1.609 -0.0649  0.8848  4.4933
   16MPD2    H1  253   3.041   0.370   1.350 -0.1151  2.3292 -1.0285
   16MPD2    H2  254   3.036   0.503   1.753  1.0035  0.0791 -0.7071
   16MPD2    H3  255   2.943   0.504   1.534  0.4375  0.2496 -2.4358
   16MPD2     N  256   3.295   0.262   1.378 -0.0937  0.0177  0.2335
   16MPD2    H5  257   3.386   0.226   1.404  0.8310  1.3487 -1.1693
   16MPD2    N1  258   3.266   0.392   1.824 -0.2217  0.1067 -0.1286
   16MPD2    H7  259   3.211   0.451   1.886 -1.3176 -0.4731 -0.5412
   17TMC1    C1  260   1.257   1.511  11.723 -0.3951 -0.4533 -1.0297
   17TMC1    C2  261   1.272   1.406  11.633 -0.2719  0.5447  0.1314
   17TMC1    C3  262   1.236   1.280  11.678  0.0023  0.1414 -0.8767
   17TMC1    C4  263   1.214   1.491  11.852  0.2624  0.3593  0.6623
   17TMC1    C5  264   1.172   1.361  11.895 -0.7955  1.3679 -0.7190
   17TMC1    C6  265   1.181   1.260  11.805  0.1746 -0.0597  0.2170
   17TMC1     C  266   1.282   1.650  11.683  0.3162  0.3106 -0.0529
   17TMC1     O  267   1.240   1.739  11.750 -0.4474 -0.0483 -0.4697
   17TMC1     H  268   1.278   1.417  11.526  1.2602  1.1475  0.2922
   17TMC1    H1  269   1.193   1.566  11.927  1.2293 -1.1629  2.4409
   17TMC1    H2  270   1.155   1.157  11.824 -0.4301  0.4102  1.9945
   17TMC1    C7  271   1.113   1.350  12.025 -0.3974  0.2586  0.0166
   17TMC1    C8  272   1.239   1.171  11.580 -0.7586  0.2935 -0.6189
   17TMC1    O1  273   1.071   1.448  12.081 -0.1266  0.1940 -0.0791
   17TMC1    O2  274   1.171   1.066  11.591  0.2480  0.4645  0.1125
   17TMC1    O3  275   1.141   1.230  12.083 -0.0258 -0.2320 -0.5789
   17TMC1    H3  276   1.189   1.169  12.023  0.4861 -1.7881  1.4078
   17TMC1    O5  277   1.363   1.166  11.526  0.4743 -0.0671  0.2394
   17TMC1    H5  278   1.420   1.246  11.530 -1.6524  1.3455  2.3644
   18MPD2     C  279   1.405   1.903  11.576  0.0582 -0.0543 -0.0772
   18MPD2    C1  280   1.438   1.775  11.524 -0.4709 -0.4709  0.0230
   18MPD2    C2  281   1.535   1.762  11.425 -0.5236  0.5414 -0.0361
   18MPD2    C3  282   1.602   1.871  11.381 -0.4150 -0.4906  0.3487
   18MPD2    C4  283   1.561   1.998  11.418 -0.4076 -0.3588  0.9129
   18MPD2    C5  284   1.467   2.012  11.517  0.3110 -0.8698  0.4309
   18MPD2     H  285   1.564   1.665  11.387 -0.0278  1.2902 -1.5691
   18MPD2    H1  286   1.614   2.086  11.383  0.4229 -0.8375  0.9699
   18MPD2    H2  287   1.342   1.926  11.662  0.6656  0.4224  0.2402
   18MPD2    H3  288   1.446   2.110  11.557  0.7473  0.2523 -2.1333
   18MPD2     N  289   1.696   1.861  11.278  0.0631 -0.3363  0.2482
   18MPD2    H5  290   1.734   1.948  11.243  2.4284 -2.1131 -1.5611
   18MPD2    N1  291   1.378   1.655  11.579 -0.0644  0.2133 -0.1685
   18MPD2    H7  292   1.405   1.565  11.540  1.9964  0.6609  0.2251
   19TMC2    C1  293   2.650   2.383  13.500  0.5124  0.7867 -0.0845
   19TMC2    C2  294   2.663   2.470  13.606  0.2255 -0.6967  0.2108
   19TMC2    C3  295   2.553   2.480  13.688  0.0982  0.5620  0.4520
   19TMC2    C4  296   2.542   2.304  13.498  0.0707  0.2634  0.0463
   19TMC2    C5  297   2.437   2.310  13.579 -0.0122  0.6742  0.5837
   19TMC2    C6  298   2.439   2.397  13.684  0.2872  0.2172 -0.3216
   19TMC2     C  299   2.776   2.310  13.484 -0.5551 -0.2276 -0.4427
   19TMC2     O  300   2.797   2.260  13.376  0.1699 -0.0889 -0.8613
   19TMC2     H  301   2.740   2.546  13.609 -1.4849  0.9533  2.0437
   19TMC2    H1  302   2.544   2.232  13.416 -0.8926 -1.0347  1.1517
   19TMC2    H2  303   2.362   2.403  13.761  0.1094 -0.8201 -0.4239
   19TMC2    C7  304   2.396   2.180  13.624 -0.0750  0.1213 -0.0339
   19TMC2    C8  305   2.543   2.609  13.747  0.1793  0.9140 -1.5880
   19TMC2    O1  306   2.435   2.090  13.558 -0.1062  0.0451  0.0583
   19TMC2    O2  307   2.636   2.669  13.795 -0.2726 -0.1619  0.1925
   19TMC2    O5  308   2.407   2.636  13.746  0.3169 -0.3730  0.8628
   19TMC2    H5  309   2.367   2.576  13.679 -1.0431  1.0360  0.4128
   20MPD2     C  310   3.024   2.162  13.529 -0.0736  0.2011 -0.2272
   20MPD2    C1  311   2.948   2.211  13.634  0.3083 -0.1719  0.2249
   20MPD2    C2  312   2.990   2.179  13.766  0.2565  0.4102 -0.2352
   20MPD2    C3  313   3.096   2.094  13.782  0.0121  0.0726  0.0533
   20MPD2    C4  314   3.165   2.038  13.672  0.0474  0.3818 -0.1157
   20MPD2    C5  315   3.128   2.075  13.545  0.1190  0.4079  0.1481
   20MPD2     H  316   2.943   2.213  13.857 -0.8532  1.2737 -1.1231
   20MPD2    H1  317   3.243   1.965  13.686  1.7223  2.5183  1.4917
   20MPD2    H2  318   3.003   2.195  13.427  1.6960 -0.9746 -0.9741
   20MPD2    H3  319   3.181   2.043  13.456  2.1972  2.1753  0.7672
   20MPD2     N  320   3.150   2.059  13.911 -0.6320 -0.4348  0.4233
   20MPD2    H5  321   3.236   2.006  13.909 -0.1254  0.4361 -0.8173
   20MPD2    N1  322   2.837   2.285  13.607 -0.3716  0.0155 -0.8845
   20MPD2    H7  323   2.780   2.307  13.688  1.1907  2.4636 -0.4644
   21TMC2    C1  324   0.398   2.076  14.080 -0.8515 -0.0103  0.1052
   21TMC2    C2  325   0.476   1.969  14.066 -0.4200 -0.6057  0.9414
   21TMC2    C3  326   0.475   1.887  14.173  0.1141 -0.4232  0.8458
   21TMC2    C4  327   0.293   2.089  14.171  0.5757  0.8090 -0.7612
   21TMC2    C5  328   0.300   2.001  14.276 -0.1037  0.6771 -0.1511
   21TMC2    C6  329   0.395   1.907  14.281 -0.1462 -0.1607  0.4061
   21TMC2     C  330   0.427   2.190  13.998 -0.7215  0.3066 -0.1028
   21TMC2     O  331   0.473   2.167  13.887  0.0713 -0.2319  0.4529
   21TMC2     H  332   0.538   1.948  13.980 -1.4591  1.2667 -0.2539
   21TMC2    H1  333   0.232   2.176  14.156  0.9919  1.1657 -0.4035
   21TMC2    H2  334   0.395   1.828  14.355  2.0164 -1.4926 -1.0389
   21TMC2    C7  335   0.234   2.043  14.399 -0.0106 -0.0074 -0.0678
   21TMC2    C8  336   0.551   1.762  14.156  0.8201 -0.3641 -0.5496
   21TMC2    O1  337   0.226   1.968  14.492  1.0301 -0.1182  0.6455
   21TMC2    O2  338   0.545   1.702  14.052 -0.1153  0.2296 -0.8253
   21TMC2    O5  339   0.566   1.713  14.284 -0.0181 -0.1417  0.0074
   21TMC2    H5  340   0.632   1.767  14.333 -0.9147 -0.0337  1.0819
   22MPD2     C  341   0.448   2.501  14.425 -0.1514  0.0423 -0.0898
   22MPD2    C1  342   0.502   2.378  14.387  0.0737  0.2613  0.2831
   22MPD2    C2  343   0.491   2.325  14.257  0.0571 -0.4020  0.3164
   22MPD2    C3  344   0.403   2.380  14.163 -0.4370  0.4922 -0.5982
   22MPD2    C4  345   0.346   2.497  14.202  0.0718  0.2237  0.7800
   22MPD2    C5  346   0.376   2.556  14.325  0.5270  0.5564  0.1199
   22MPD2     H  347   0.543   2.234  14.233  1.1076  0.2413  0.1799
   22MPD2    H1  348   0.286   2.555  14.133 -0.3507 -0.5551  0.4959
   22MPD2    H2  349   0.475   2.549  14.518 -0.8591  0.7480 -0.2567
   22MPD2    H3  350   0.335   2.655  14.342  0.8940  0.9670 -1.3868
   22MPD2     N  351   0.386   2.318  14.036  0.0144  0.1879 -0.0159
   22MPD2    H5  352   0.360   2.380  13.959  0.4754  0.4830  0.0647
   22MPD2    N1  353   0.563   2.295  14.483 -0.5883  0.6922 -0.0570
   22MPD2    H7  354   0.612   2.213  14.448 -0.3616  0.1187  1.6393
   23TMC2    C1  355   1.886   2.897  14.538 -0.0623 -0.4546  0.7041
   23TMC2    C2  356   1.902   2.956  14.412 -0.1668  0.1000 -0.6914
   23TMC2    C3  357   1.786   2.971  14.338 -0.6244  0.3714  1.0028
   23TMC2    C4  358   1.768   2.857  14.591  0.1588 -0.7121 -0.1913
   23TMC2    C5  359   1.658   2.868  14.501  0.6202  0.2911  0.3071
   23TMC2    C6  360   1.666   2.917  14.371 -0.4266  0.5129 -0.0866
   23TMC2     C  361   1.979   2.938  14.645  0.6637  0.0500 -0.7061
   23TMC2     O  362   1.932   2.976  14.751 -0.1959 -0.6414 -0.4345
   23TMC2     H  363   2.001   2.985  14.377  0.1252 -0.7555 -0.5607
   23TMC2    H1  364   1.755   2.818  14.692 -2.8221  3.0933  0.8839
   23TMC2    H2  365   1.583   2.916  14.301 -0.4470 -1.2460 -0.0300
   23TMC2    C7  366   1.530   2.809  14.536  0.7512  0.1365 -0.6569
   23TMC2    C8  367   1.797   3.004  14.201 -0.0249  0.1960 -0.4632
   23TMC2    O1  368   1.542   2.710  14.610 -0.5408  1.0495 -0.3556
   23TMC2    O2  369   1.714   2.984  14.113  0.0816 -0.2617  0.1488
   23TMC2    O5  370   1.877   3.111  14.192  0.3989  0.5751  0.1296
   23TMC2    H5  371   1.921   3.136  14.276  1.7907 -0.1257 -0.3997
   24MPD2     C  372   2.413   3.132  14.833 -0.3770 -0.7185 -0.7565
   24MPD2    C1  373   2.300   3.082  14.898  0.3333  0.6159 -0.2025
   24MPD2    C2  374   2.206   3.020  14.817  0.6777 -0.1931 -0.1496
   24MPD2    C3  375   2.214   3.000  14.681 -0.5955 -0.9209  0.5663
   24MPD2    C4  376   2.335   3.037  14.622 -0.0676  0.1780  0.4756
   24MPD2    C5  377   2.432   3.094  14.698  0.0732  1.0235 -0.1788
   24MPD2     H  378   2.122   2.991  14.879 -0.2278  0.0751 -1.2349
   24MPD2    H1  379   2.366   3.024  14.518  0.3835 -0.5203  0.7008
   24MPD2    H2  380   2.498   3.181  14.878 -0.7202  0.3195 -1.2240
   24MPD2    H3  381   2.535   3.113  14.668  0.3339  0.4202  0.3208
   24MPD2     N  382   2.106   2.946  14.601  0.8317 -0.0620  0.0164
   24MPD2    H5  383   2.117   2.925  14.502 -0.8847 -2.4098  0.3118
   24MPD2    N1  384   2.296   3.082  15.037  0.1857  0.2610 -0.4952
   24MPD2    H7  385   2.234   3.012  15.076  0.1927  0.0118 -0.9350
   25TMC2    C1  386   0.589   0.785  11.340  0.1052 -0.6158  0.2299
   25TMC2    C2  387   0.633   0.911  11.369 -0.7756  0.2223  0.0062
   25TMC2    C3  388   0.541   0.992  11.422 -0.1164  0.0320 -0.3593
   25TMC2    C4  389   0.466   0.732  11.383 -0.4529 -0.0620 -0.2415
   25TMC2    C5  390   0.380   0.821  11.444  0.0812  0.0046 -0.1661
   25TMC2    C6  391   0.414   0.952  11.460  0.2917 -0.2652  0.1421
   25TMC2     C  392   0.686   0.687  11.287  0.3541  0.2358  0.4929
   25TMC2     O  393   0.802   0.721  11.294 -0.5741  0.1791 -0.4342
   25TMC2     H  394   0.737   0.933  11.347 -1.3363  2.5391 -0.3492
   25TMC2    H1  395   0.444   0.626  11.378  0.0321 -0.0533 -2.5079
   25TMC2    H2  396   0.349   1.026  11.505  1.5953  1.5135 -0.9154
   25TMC2    C7  397   0.251   0.768  11.488 -0.3492 -0.2693 -0.4341
   25TMC2    C8  398   0.581   1.128  11.451 -0.2815 -0.8141 -0.3966
   25TMC2    O1  399   0.260   0.645  11.502 -0.1333  0.8132  0.3977
   25TMC2    O2  400   0.508   1.227  11.435 -0.2557  0.3893 -0.4235
   25TMC2    O5  401   0.680   1.109  11.546 -0.2459  0.0068 -0.9136
   25TMC2    H5  402   0.697   1.015  11.568 -0.4367  0.4260  0.9939
   26MPD2     C  403   0.749   0.261  10.999  0.4970  0.1476  0.7883
   26MPD2    C1  404   0.622   0.313  10.984  0.6813  0.5381 -0.0481
   26MPD2    C2  405   0.588   0.427  11.049 -0.3162  0.4645 -0.2046
   26MPD2    C3  406   0.672   0.493  11.132 -0.1229 -0.3274 -0.4575
   26MPD2    C4  407   0.796   0.443  11.154  0.0002  0.9680  0.1831
   26MPD2    C5  408   0.834   0.325  11.088  0.0231 -0.1564 -0.3436
   26MPD2     H  409   0.489   0.469  11.038 -0.3873  0.6075  0.9537
   26MPD2    H1  410   0.865   0.487  11.225  0.8646 -0.2633  0.1065
   26MPD2    H2  411   0.766   0.167  10.948  0.4881  1.2388 -1.2189
   26MPD2    H3  412   0.937   0.293  11.088  0.3061  0.7350  2.6243
   26MPD2     N  413   0.617   0.603  11.202  0.2019 -0.1540 -0.0386
   26MPD2    H5  414   0.521   0.633  11.193 -0.1258 -0.9706  0.7615
   26MPD2    N1  415   0.544   0.257  10.880 -0.5449  0.0000  0.1940
   26MPD2    H7  416   0.557   0.161  10.850  0.2180 -0.1787  1.0787
   27TMC2    C1  417   4.546   3.116  11.878  0.4987 -0.0773  0.1097
   27TMC2    C2  418   4.656   3.171  11.810  0.0814  0.1219 -0.0428
   27TMC2    C3  419   0.029   3.211  11.887  0.3820 -0.0355 -0.1605
   27TMC2    C4  420   4.544   3.097  12.014  0.5976  0.4010  0.7354
   27TMC2    C5  421   4.655   3.130  12.089 -0.1011  0.0708 -0.4343
   27TMC2    C6  422   0.025   3.197  12.024  0.2620 -0.1386  0.1556
   27TMC2     C  423   4.431   3.082  11.800  0.0581 -0.4092  0.0748
   27TMC2     O  424   4.446   3.046  11.686 -0.8279 -0.3946 -0.1019
   27TMC2     H  425   4.644   3.196  11.705  2.0770  1.1234 -0.0290
   27TMC2    H1  426   4.472   3.026  12.052  1.1933 -0.6811 -0.1607
   27TMC2    H2  427   0.102   3.227  12.094  0.2577  1.4142 -0.5022
   27TMC2    C7  428   4.645   3.101  12.230  0.2645  0.7395 -1.0242
   27TMC2    C8  429   0.115   3.315  11.837  0.2443 -0.4388 -0.2299
   27TMC2    O1  430   4.529   3.084  12.270 -0.0870  0.0599  0.3869
   27TMC2    O2  431   0.156   3.411  11.902  0.1296  0.4930  0.4360
   27TMC2    O5  432   0.129   3.291  11.704  0.4764  0.2535  0.0378
   27TMC2    H5  433   0.107   3.199  11.679 -1.6255  0.4257  1.3009
   28MPD2     C  434   3.928   2.967  11.807 -0.7151 -0.3284 -0.8090
   28MPD2    C1  435   3.958   3.029  11.929 -0.4771  0.0480 -0.7635
   28MPD2    C2  436   4.087   3.080  11.950 -0.6672 -0.0637 -0.2614
   28MPD2    C3  437   4.188   3.055  11.856  0.5984  0.5337  0.7553
   28MPD2    C4  438   4.157   2.987  11.745 -0.2325 -0.5172 -0.6576
   28MPD2    C5  439   4.031   2.946  11.724  0.0445  0.3328 -0.6679
   28MPD2     H  440   4.109   3.143  12.035 -1.9516  0.6676 -0.4631
   28MPD2    H1  441   4.227   2.950  11.671  1.9009  0.8658  0.6725
   28MPD2    H2  442   3.832   2.925  11.780 -1.4183  1.0934 -0.5371
   28MPD2    H3  443   4.001   2.905  11.629 -0.5927  1.7731 -1.0822
   28MPD2     N  444   4.314   3.116  11.873 -0.3260  0.0437 -0.1497
   28MPD2    H5  445   4.321   3.163  11.962  0.0051  1.3033 -0.8437
   28MPD2    N1  446   3.860   3.042  12.027 -0.1476  0.2331 -0.4498
   28MPD2    H7  447   3.765   3.023  11.996 -0.4166 -1.6287  1.5199
   29TMC2    C1  448   4.169   0.702  14.117 -0.0037 -0.2727 -0.5887
   29TMC2    C2  449   4.122   0.730  14.242 -0.0863 -0.1502  0.2844
   29TMC2    C3  450   4.174   0.842  14.296 -0.0172  0.0346  0.5804
   29TMC2    C4  451   4.252   0.790  14.048 -0.6040 -0.2450  0.1427
   29TMC2    C5  452   4.293   0.908  14.105  0.1225 -0.5689  0.0332
   29TMC2    C6  453   4.257   0.936  14.231  0.2889 -0.3122  0.2974
   29TMC2     C  454   4.118   0.583  14.054  0.5440  0.7608  0.5213
   29TMC2     O  455   4.194   0.513  13.989 -0.0759  0.3919  0.1319
   29TMC2     H  456   4.070   0.648  14.289  0.4059 -1.1499 -0.9335
   29TMC2    H1  457   4.276   0.765  13.946  1.6449  0.9463  0.3574
   29TMC2    H2  458   4.282   1.026  14.286  0.5413  0.9995 -1.9826
   29TMC2    C7  459   4.362   1.018  14.030  0.9411  0.0830 -0.4844
   29TMC2    C8  460   4.147   0.874  14.442 -0.6437 -0.4992  0.5733
   29TMC2    O1  461   4.360   1.002  13.910  0.6553 -0.1593 -0.3421
   29TMC2    O2  462   4.207   0.967  14.493  0.4229 -0.1923 -0.2072
   29TMC2    O5  463   4.013   0.855  14.458  0.6177 -0.0667  0.3859
   29TMC2    H5  464   3.986   0.765  14.431  0.0393 -0.2196  1.4798
   30MPD2     C  465   3.718   0.259  14.047  0.0309  0.0177  0.5079
   30MPD2    C1  466   3.857   0.229  14.041 -0.9243 -0.5996 -0.1126
   30MPD2    C2  467   3.942   0.335  14.041  0.9315 -0.1795  0.5259
   30MPD2    C3  468   3.902   0.466  14.038  1.1319  0.2287  0.0079
   30MPD2    C4  469   3.768   0.491  14.041  0.4747 -0.8517  1.0784
   30MPD2    C5  470   3.679   0.390  14.041  0.1770  0.4399  0.1816
   30MPD2     H  471   4.050   0.324  14.034  1.0684  0.9561  0.9009
   30MPD2    H1  472   3.731   0.593  14.048  1.3014 -0.4914  0.1708
   30MPD2    H2  473   3.636   0.190  14.067  1.1762 -1.3762  0.3826
   30MPD2    H3  474   3.573   0.406  14.025 -0.1949 -0.5100  1.7565
   30MPD2     N  475   3.984   0.577  14.063  0.8914  0.4602 -0.0446
   30MPD2    H5  476   3.939   0.660  14.099 -2.3987 -0.4430 -2.0565
   30MPD2    N1  477   3.908   0.098  14.061 -0.0205  0.0452  0.3899
   30MPD2    H7  478   4.009   0.087  14.061  0.0654  0.7926 -1.6085
   31TMC2    C1  479   1.732   3.674  15.034 -0.3439 -0.6669  0.7364
   31TMC2    C2  480   1.839   3.611  14.976  0.4947 -0.1991 -0.2708
   31TMC2    C3  481   1.914   3.525  15.057  0.0068 -0.5310  0.5597
   31TMC2    C4  482   1.700   3.659  15.167 -0.5822  0.5134  0.3402
   31TMC2    C5  483   1.772   3.570  15.243 -0.5919 -0.1348 -0.5964
   31TMC2    C6  484   1.880   3.504  15.189 -0.6227 -0.1711  0.1554
   31TMC2     C  485   1.697   3.792  14.959 -0.3364 -0.4974  0.5778
   31TMC2     O  486   1.784   3.835  14.880 -0.0168  0.1524  0.0934
   31TMC2     H  487   1.860   3.636  14.873 -0.2242  0.3099 -0.2929
   31TMC2    H1  488   1.622   3.721  15.209  0.7141  2.4859 -0.2020
   31TMC2    H2  489   1.943   3.446  15.254 -3.4677 -3.5092 -0.0621
   31TMC2    C7  490   1.753   3.541  15.382  0.8652  0.0135 -0.2467
   31TMC2    C8  491   2.059   3.496  15.027 -0.1477 -0.5607 -0.1102
   31TMC2    O1  492   1.835   3.483  15.453 -0.0847 -0.0026  0.0138
   31TMC2    O2  493   2.128   3.580  14.969 -0.3427  0.3734 -0.1249
   31TMC2    O5  494   2.102   3.393  15.098  0.0408  0.2346 -0.0312
   31TMC2    H5  495   2.022   3.341  15.122 -0.1566  1.0145  1.0067
   32MPD2     C  496   1.386   4.155  14.777  0.0239 -0.3856  0.0813
   32MPD2    C1  497   1.515   4.125  14.739 -0.2512 -0.2134 -0.3291
   32MPD2    C2  498   1.579   4.027  14.809  0.4137  0.1642  0.4080
   32MPD2    C3  499   1.511   3.954  14.910 -0.0026  0.0811  0.7706
   32MPD2    C4  500   1.384   3.982  14.947 -0.5902  0.2199 -0.4031
   32MPD2    C5  501   1.320   4.087  14.879  0.0831  0.3397  0.1550
   32MPD2     H  502   1.681   3.998  14.786 -0.1323 -0.9948 -0.5712
   32MPD2    H1  503   1.324   3.920  15.012 -1.4315 -0.1053 -1.5022
   32MPD2    H2  504   1.333   4.240  14.737 -0.6766 -0.8108  0.0976
   32MPD2    H3  505   1.216   4.108  14.904  0.3110  0.5169  0.9475
   32MPD2     N  506   1.568   3.845  14.976 -0.9141  0.7460 -0.3365
   32MPD2    H5  507   1.515   3.796  15.047 -0.2563  0.1917 -0.2260
   32MPD2    N1  508   1.566   4.205  14.633  0.1423  0.3518  0.6053
   32MPD2    H7  509   1.499   4.272  14.596 -0.2522 -0.0228  0.6358
   33TMC2    C1  510   1.897   2.691  10.582  0.6036 -0.1815  0.1783
   33TMC2    C2  511   1.821   2.700  10.697  0.3195 -0.0228  0.0300
   33TMC2    C3  512   1.693   2.754  10.674  0.2868  0.0701 -0.2919
   33TMC2    C4  513   1.862   2.726  10.456  0.2305  0.7413  0.4816
   33TMC2    C5  514   1.738   2.774  10.443  0.6613  0.2577  0.6917
   33TMC2    C6  515   1.653   2.788  10.550 -0.4306  0.1461 -0.4422
   33TMC2     C  516   2.019   2.614  10.597  0.4200 -0.6769 -0.0684
   33TMC2     O  517   2.106   2.637  10.511 -0.5123  0.2215 -0.3276
   33TMC2     H  518   1.843   2.676  10.801 -0.8773 -0.4951  0.1785
   33TMC2    H1  519   1.932   2.710  10.374  0.0343  2.8091 -0.1073
   33TMC2    H2  520   1.560   2.842  10.545  0.1307  1.4740  3.3818
   33TMC2    C7  521   1.712   2.845  10.318 -0.2828 -0.1117 -0.5982
   33TMC2    C8  522   1.591   2.748  10.779  0.2354 -0.6119 -0.0776
   33TMC2    O1  523   1.805   2.874  10.242 -0.1926 -0.3382  0.1501
   33TMC2    O2  524   1.473   2.745  10.750 -0.2135 -0.1284  0.4511
   33TMC2    O5  525   1.643   2.762  10.905  0.1881 -0.4248 -0.4725
   33TMC2    H5  526   1.738   2.786  10.908  0.8787 -3.0703 -1.2564
   34MPD2     C  527   2.269   2.189  10.740 -0.6887 -0.8999  0.9263
   34MPD2    C1  528   2.149   2.192  10.806  0.4675 -0.0537 -0.7544
   34MPD2    C2  529   2.069   2.303  10.792  0.1380 -0.2286 -0.0497
   34MPD2    C3  530   2.103   2.408  10.707 -0.1629 -0.2976 -0.8946
   34MPD2    C4  531   2.223   2.409  10.638  0.1192 -0.4646  0.3334
   34MPD2    C5  532   2.306   2.299  10.660  0.2584  0.1780  1.2289
   34MPD2     H  533   1.973   2.318  10.840  0.7096 -1.3128  1.3985
   34MPD2    H1  534   2.258   2.488  10.572 -1.2045 -0.1221  0.0357
   34MPD2    H2  535   2.332   2.101  10.734 -0.4056 -0.6379  0.0581
   34MPD2    H3  536   2.398   2.296  10.603  1.4929 -1.2821  3.3087
   34MPD2     N  537   2.005   2.509  10.684  0.4217 -0.1283  0.7582
   34MPD2    H5  538   1.909   2.507  10.716  0.6500 -2.4249  1.3390
   34MPD2    N1  539   2.108   2.068  10.874  0.4399  0.3247 -0.2269
   34MPD2    H7  540   2.158   1.985  10.843 -0.8648 -0.5689  0.0491
   35TMC2    C1  541   2.535   3.140  11.250 -0.0179 -0.6908  0.6595
   35TMC2    C2  542   2.446   3.245  11.237 -0.2091 -0.3401 -1.0622
   35TMC2    C3  543   2.342   3.246  11.327 -0.1339  0.5503 -0.2723
   35TMC2    C4  544   2.513   3.044  11.340 -0.3767  1.0074 -0.4285
   35TMC2    C5  545   2.403   3.038  11.416  0.3816  0.4625 -1.0494
   35TMC2    C6  546   2.319   3.141  11.418  0.0170 -0.0744 -0.2345
   35TMC2     C  547   2.665   3.160  11.188  0.5916  0.5615  0.6552
   35TMC2     O  548   2.668   3.228  11.085  0.2816 -0.4876 -0.4309
   35TMC2     H  549   2.470   3.328  11.171  0.3627 -0.6313 -1.2105
   35TMC2    H1  550   2.574   2.955  11.333  2.1210  2.6289  0.9250
   35TMC2    H2  551   2.234   3.143  11.485  0.4347  1.6948  0.2254
   35TMC2    C7  552   2.388   2.922  11.500 -0.6395  0.4963 -0.3328
   35TMC2    C8  553   2.272   3.365  11.359  0.0779 -0.1092  0.1025
   35TMC2    O1  554   2.290   2.848  11.494 -0.1476 -0.5603  0.2305
   35TMC2    O2  555   2.214   3.381  11.465  0.0198 -0.7192  0.7048
   35TMC2    O5  556   2.246   3.421  11.238 -0.0145  0.1000  0.8187
   35TMC2    H5  557   2.259   3.354  11.168 -1.1033  0.5556  0.1962
   36MPD2     C  558   3.158   3.030  11.107  0.2344  1.0042  0.4947
   36MPD2    C1  559   3.109   2.952  11.217  0.0057 -1.1749 -0.3356
   36MPD2    C2  560   2.985   2.976  11.264  0.3189  0.0605 -0.0883
   36MPD2    C3  561   2.901   3.065  11.201  0.2568 -0.2252 -0.7132
   36MPD2    C4  562   2.957   3.150  11.107 -0.2012  0.9773  0.0108
   36MPD2    C5  563   3.083   3.127  11.052 -0.8813 -0.0780  0.7116
   36MPD2     H  564   2.958   2.919  11.352  0.7845  2.1398  1.3780
   36MPD2    H1  565   2.913   3.242  11.072 -2.0103  0.1326  0.0335
   36MPD2    H2  566   3.264   3.017  11.093 -0.3041  0.1563 -2.8125
   36MPD2    H3  567   3.117   3.192  10.972  2.1679  0.0437  2.0804
   36MPD2     N  568   2.767   3.083  11.250 -0.7139  0.7264  0.9504
   36MPD2    H5  569   2.748   3.041  11.340 -1.0092  1.2233  1.1236
   36MPD2    N1  570   3.196   2.862  11.272 -0.1720  0.1724  0.0929
   36MPD2    H7  571   3.290   2.861  11.234  0.1935  2.6450  0.9285
   37TMC2    C1  572   1.137   3.374  12.300  0.0976  0.9152 -0.6078
   37TMC2    C2  573   1.257   3.303  12.299 -0.3596  0.4812  0.6193
   37TMC2    C3  574   1.334   3.316  12.190  0.2106 -0.6302  0.3654
   37TMC2    C4  575   1.111   3.460  12.191 -0.2321  0.0882 -0.7943
   37TMC2    C5  576   1.188   3.472  12.084  0.1748 -0.3340  0.1220
   37TMC2    C6  577   1.303   3.397  12.080  0.3543  0.0053  0.1236
   37TMC2     C  578   1.039   3.377  12.413  0.3528 -0.5955 -0.0399
   37TMC2     O  579   0.923   3.390  12.377  0.0156  0.2090  1.0520
   37TMC2     H  580   1.286   3.239  12.381 -0.7007 -0.2970  0.1234
   37TMC2    H1  581   1.013   3.505  12.202 -0.9761 -2.3227  2.3998
   37TMC2    H2  582   1.365   3.400  11.991 -1.3592  1.2382 -1.0344
   37TMC2    C7  583   1.139   3.555  11.971 -0.0102  0.2598 -0.0408
   37TMC2    C8  584   1.476   3.283  12.199  0.2582  0.9351  0.2741
   37TMC2    O1  585   1.019   3.591  11.988  0.0812 -0.4930  0.1806
   37TMC2    O2  586   1.540   3.313  12.300 -0.5546 -0.0822  0.5457
   37TMC2    O5  587   1.512   3.199  12.104  0.1578  0.1926  0.3942
   37TMC2    H5  588   1.440   3.162  12.049  1.2120 -0.8724 -0.2750
   38MPD2     C  589   0.861   3.374  12.886 -0.0020  0.6158  0.2112
   38MPD2    C1  590   0.992   3.325  12.889  0.2503 -0.5865 -0.5287
   38MPD2    C2  591   1.065   3.315  12.776  0.4868  0.1364 -0.2638
   38MPD2    C3  592   1.010   3.355  12.656 -0.0319  0.3869 -0.0090
   38MPD2    C4  593   0.891   3.423  12.654  0.1456 -0.4718 -0.5388
   38MPD2    C5  594   0.816   3.429  12.768 -0.6955  0.3958 -0.4476
   38MPD2     H  595   1.165   3.274  12.775  0.5627  0.2781  0.9966
   38MPD2    H1  596   0.852   3.479  12.570 -1.5272  2.7582  2.3634
   38MPD2    H2  597   0.798   3.388  12.973 -0.4025  1.8532 -0.2731
   38MPD2    H3  598   0.717   3.469  12.745 -0.5886  0.8829 -0.0422
   38MPD2     N  599   1.081   3.349  12.540 -0.0829  0.1342 -0.2866
   38MPD2    H5  600   1.178   3.317  12.541  0.4537  1.7151 -1.1351
   38MPD2    N1  601   1.038   3.261  13.004  0.2630  0.2148  0.3682
   38MPD2    H7  602   1.113   3.194  12.989 -1.0699 -1.2358  0.1765
   39TMC2    C1  603   3.920   4.679   1.606  0.4906 -0.6166  0.0146
   39TMC2    C2  604   3.890   0.036   1.702 -0.3017 -0.2426  0.1555
   39TMC2    C3  605   3.987   0.111   1.759  0.1733 -0.3214  0.1630
   39TMC2    C4  606   4.049   4.654   1.572  0.6732  0.3610 -0.3854
   39TMC2    C5  607   4.151   4.734   1.621  0.4008 -0.6442  0.2894
   39TMC2    C6  608   4.115   0.094   1.720 -0.4393  0.0064  0.1337
   39TMC2     C  609   3.810   4.628   1.531  0.3598 -0.6303 -0.2489
   39TMC2     O  610   3.696   4.663   1.564 -0.0878  0.5432 -0.2628
   39TMC2     H  611   3.785   0.060   1.711 -0.0028  1.5504 -1.0902
   39TMC2    H1  612   4.071   4.580   1.496  2.7850  0.5349  0.0302
   39TMC2    H2  613   4.190   0.138   1.785 -0.8436  0.6907  0.1333
   39TMC2    C7  614   4.280   4.714   1.573  0.6556 -0.1536  0.8948
   39TMC2    C8  615   3.965   0.186   1.876  0.0658  0.0859 -0.3499
   39TMC2    O1  616   4.297   4.609   1.521  0.3645 -0.0692  0.1140
   39TMC2    O2  617   4.057   0.220   1.949 -0.2143  0.0443  0.3195
   39TMC2    O5  618   3.838   0.146   1.916  0.5237 -0.6176  0.0547
   39TMC2    H5  619   3.815   0.161   2.010  3.1325 -1.8823  0.8956
   40MPD2     C  620   3.838   4.498   1.185  0.3658  0.2934  0.3843
   40MPD2    C1  621   3.775   4.541   1.301 -0.3927  0.2415 -0.2182
   40MPD2    C2  622   3.639   4.558   1.300 -0.2049 -0.0511  0.0342
   40MPD2    C3  623   3.564   4.517   1.187  0.1290  0.3146 -0.3533
   40MPD2    C4  624   3.627   4.469   1.073 -0.0593 -0.0372 -0.2173
   40MPD2    C5  625   3.760   4.465   1.073  0.0215 -0.5753 -0.6160
   40MPD2     H  626   3.576   4.569   1.387  1.9427 -0.1127  1.5681
   40MPD2    H1  627   3.581   4.455   0.976  0.2719  0.1733 -0.4034
   40MPD2    H2  628   3.940   4.463   1.181 -0.0618 -0.4730 -4.3259
   40MPD2    H3  629   3.812   4.426   0.987 -0.9739 -0.4164 -1.2925
   40MPD2     N  630   3.426   4.519   1.181 -0.3258  1.0021 -0.0823
   40MPD2    H5  631   3.381   4.487   1.096  3.2895 -1.4076 -1.1040
   40MPD2    N1  632   3.852   4.574   1.414 -0.7699  0.3038 -0.0416
   40MPD2    H7  633   3.953   4.563   1.404 -0.8360 -0.9136  0.6723
   41TMC2    C1  634   2.033   3.486  13.434  0.6874  0.1094  0.1729
   41TMC2    C2  635   1.921   3.435  13.495 -0.1786  0.1644  0.3643
   41TMC2    C3  636   1.802   3.446  13.430 -0.2332  1.0018 -0.2897
   41TMC2    C4  637   2.025   3.546  13.312 -0.3981 -0.4910  0.1828
   41TMC2    C5  638   1.900   3.557  13.252  0.1492  0.1526 -0.1221
   41TMC2    C6  639   1.785   3.507  13.313  0.0895 -0.5217  0.1949
   41TMC2     C  640   2.173   3.449  13.485 -0.5140 -0.1649 -0.7327
   41TMC2     O  641   2.264   3.466  13.405 -0.2979  0.1359 -0.4943
   41TMC2     H  642   1.937   3.375  13.584 -0.8004 -0.4449  0.0722
   41TMC2    H1  643   2.115   3.586  13.267  0.2802 -2.1116  0.1120
   41TMC2    H2  644   1.685   3.524  13.275 -0.3650 -2.4546  0.4865
   41TMC2    C7  645   1.886   3.599  13.119  0.0100 -0.4844 -0.2553
   41TMC2    C8  646   1.683   3.408  13.500  0.0507 -0.2886 -0.0689
   41TMC2    O1  647   1.771   3.606  13.079  0.2005 -0.0942  0.2455
   41TMC2    O2  648   1.571   3.399  13.447 -0.2815 -0.3225  0.5124
   41TMC2    O5  649   1.698   3.431  13.633  0.4088  0.3369  0.2579
   41TMC2    H5  650   1.791   3.436  13.664 -0.2143  0.1636  2.1335
   42MPD2     C  651   2.379   3.280  13.598 -0.3722  0.7867  0.6528
   42MPD2    C1  652   2.280   3.338  13.678 -0.0366 -0.7446 -0.0982
   42MPD2    C2  653   2.279   3.331  13.813  0.7620  0.3829  0.0398
   42MPD2    C3  654   2.390   3.264  13.874 -0.3898 -0.3330 -0.2129
   42MPD2    C4  655   2.489   3.206  13.790 -0.3652  0.4403 -0.0859
   42MPD2    C5  656   2.477   3.211  13.656  0.7079 -0.5640  0.1251
   42MPD2     H  657   2.196   3.369  13.871 -0.1463  0.2385 -1.1598
   42MPD2    H1  658   2.564   3.144  13.838 -0.9252 -0.7962 -0.7822
   42MPD2    H2  659   2.377   3.292  13.490 -0.1623 -1.3761  0.4142
   42MPD2    H3  660   2.557   3.169  13.595  1.3405  0.7600  0.0574
   42MPD2     N  661   2.413   3.250  14.013  0.4424  0.2569 -0.9991
   42MPD2    H5  662   2.491   3.194  14.045  0.0988  0.6597  0.5918
   42MPD2    N1  663   2.186   3.421  13.616 -0.7534  0.5462  0.2649
   42MPD2    H7  664   2.109   3.452  13.674 -1.4752  0.2069 -0.5116
   43TMC2    C1  665   3.662   0.819   0.924  0.1208  0.6686  0.7504
   43TMC2    C2  666   3.556   0.879   0.998  0.9834  0.1314  0.4663
   43TMC2    C3  667   3.559   0.863   1.139  0.3617  0.2846  0.3566
   43TMC2    C4  668   3.765   0.763   0.985  0.3105 -0.6040  0.4642
   43TMC2    C5  669   3.758   0.747   1.117  0.3173  0.2539 -0.2152
   43TMC2    C6  670   3.661   0.796   1.199 -0.1094 -0.6460 -0.2584
   43TMC2     C  671   3.653   0.794   0.781 -0.5863  0.1636 -0.0804
   43TMC2     O  672   3.751   0.740   0.732  0.4722  0.0103 -0.7317
   43TMC2     H  673   3.486   0.948   0.954  0.8460  0.6765  1.5375
   43TMC2    H1  674   3.853   0.729   0.932 -0.8594 -0.2935 -1.6740
   43TMC2    H2  675   3.680   0.808   1.305  0.4803  0.1548 -0.4546
   43TMC2    C7  676   3.869   0.684   1.178 -0.6822 -0.1928  0.2456
   43TMC2    C8  677   3.453   0.913   1.228  0.7400 -0.1083  0.0588
   43TMC2    O1  678   3.964   0.654   1.107 -0.0274 -0.1398 -0.3959
   43TMC2    O2  679   3.462   0.925   1.348  0.1429  0.2662  0.2833
   43TMC2    O5  680   3.345   0.927   1.158 -0.4539  0.2553  0.8166
   43TMC2    H5  681   3.367   0.899   1.066  0.8379  1.4119  0.7732
   44MPD2     C  682   3.448   0.719   0.333  0.4820 -0.4661 -0.9893
   44MPD2    C1  683   3.578   0.738   0.369 -0.1467 -0.0433 -0.0075
   44MPD2    C2  684   3.602   0.778   0.495 -0.1384 -0.6514 -0.8035
   44MPD2    C3  685   3.503   0.782   0.588 -0.5011 -0.2506  0.2600
   44MPD2    C4  686   3.376   0.751   0.555 -0.1176  0.8047  0.6337
   44MPD2    C5  687   3.349   0.729   0.428  0.4663 -0.5832 -0.0130
   44MPD2     H  688   3.705   0.795   0.525  0.2970  0.2816 -2.8828
   44MPD2    H1  689   3.301   0.752   0.633  0.0117 -0.0867  0.7614
   44MPD2    H2  690   3.412   0.698   0.233 -0.5189 -0.2858 -0.6645
   44MPD2    H3  691   3.246   0.720   0.397 -0.2729  0.1599  2.2407
   44MPD2     N  692   3.528   0.803   0.729 -0.0125 -0.6647 -0.5218
   44MPD2    H5  693   3.455   0.830   0.794 -0.3667 -2.1005 -0.3171
   44MPD2    N1  694   3.687   0.718   0.282 -0.1160 -0.1215  0.3693
   44MPD2    H7  695   3.780   0.717   0.323 -0.3132 -0.4015  0.8174
   45TMC2    C1  696   4.619   3.888   8.938  0.4471 -0.3167 -0.0317
   45TMC2    C2  697   4.720   3.821   8.882 -0.0041 -0.3161 -0.0699
   45TMC2    C3  698   0.051   3.734   8.969  0.7719 -0.2531  0.4451
   45TMC2    C4  699   4.587   3.887   9.077  0.3876  0.3794 -0.6578
   45TMC2    C5  700   4.655   3.796   9.154 -0.4027  0.3134 -0.1436
   45TMC2    C6  701   0.022   3.720   9.102  0.7422 -0.1141  0.4864
   45TMC2     C  702   4.551   3.982   8.857  0.4883 -0.5341  0.4652
   45TMC2     O  703   4.597   4.001   8.742 -0.0857  0.4886  0.3698
   45TMC2     H  704   4.731   3.814   8.774  2.5588 -0.5688  0.2143
   45TMC2    H1  705   4.515   3.957   9.120  0.2427 -1.1802  1.6191
   45TMC2    H2  706   0.081   3.648   9.158  0.3292  0.7295  1.9777
   45TMC2    C7  707   4.641   3.800   9.303  0.1614 -0.1449  0.3650
   45TMC2    C8  708   0.148   3.635   8.922 -0.2020 -0.0330 -0.2295
   45TMC2    O1  709   4.565   3.886   9.348 -0.1354  0.3552 -0.0630
   45TMC2    O2  710   0.184   3.540   8.989 -0.4290  0.8026 -0.0281
   45TMC2    O5  711   0.193   3.665   8.799  0.2669 -0.3395  0.7445
   45TMC2    H5  712   0.167   3.754   8.767  1.2341  0.2765  1.6495
   46MPD2     C  713   4.343   4.152   8.716  0.2551 -0.3653 -1.3871
   46MPD2    C1  714   4.318   4.067   8.820  0.3141  0.0526  0.3156
   46MPD2    C2  715   4.185   4.064   8.859 -0.0648  0.2221  0.0188
   46MPD2    C3  716   4.082   4.124   8.780  0.4907  0.1439  0.0683
   46MPD2    C4  717   4.123   4.195   8.669 -0.5055 -0.0464 -0.1037
   46MPD2    C5  718   4.249   4.214   8.634 -0.5869 -0.5289  0.4128
   46MPD2     H  719   4.161   3.999   8.942 -2.3135  0.4004 -0.4923
   46MPD2    H1  720   4.051   4.241   8.603  0.7734  1.6271 -0.3325
   46MPD2    H2  721   4.447   4.172   8.691  0.1540  0.9882 -0.7212
   46MPD2    H3  722   4.282   4.281   8.556 -2.0272  0.0363  0.2895
   46MPD2     N  723   3.948   4.110   8.824  0.4222  0.1430 -0.0427
   46MPD2    H5  724   3.940   4.040   8.898  2.1205  0.1442  0.1302
   46MPD2    N1  725   4.416   4.000   8.895 -0.8508  0.3072  0.2357
   46MPD2    H7  726   4.380   3.945   8.973 -1.4408 -0.7671 -0.8037
   47TMC2    C1  727   0.988   0.163   9.249  0.7523 -0.0418 -0.2918
   47TMC2    C2  728   0.898   0.247   9.202 -0.6772  0.3683  0.4227
   47TMC2    C3  729   0.768   0.206   9.205 -0.0459  0.4440 -0.6134
   47TMC2    C4  730   0.949   0.038   9.292  1.0137 -0.0760 -0.3812
   47TMC2    C5  731   0.816   4.736   9.290 -0.1498 -0.0260 -0.2346
   47TMC2    C6  732   0.719   0.087   9.240 -0.1777  0.6421  0.2129
   47TMC2     C  733   1.125   0.207   9.225 -0.0089  0.0474 -0.1001
   47TMC2     O  734   1.140   0.304   9.153 -0.2761 -0.0528  0.5869
   47TMC2     H  735   0.930   0.342   9.162 -1.3425  1.3650  2.2434
   47TMC2    H1  736   1.015   4.700   9.335 -0.7569 -1.1870  0.4003
   47TMC2    H2  737   0.615   0.058   9.229  0.4342 -1.4332  0.0594
   47TMC2    C7  738   0.777   4.615   9.358  1.1686  0.2573  0.4935
   47TMC2    C8  739   0.658   0.288   9.160 -0.4551 -0.5743  0.7372
   47TMC2    O1  740   0.825   4.592   9.466  0.4251 -0.4009 -0.6073
   47TMC2    O2  741   0.550   0.243   9.126  0.1359 -0.3893 -0.2092
   47TMC2    O5  742   0.696   0.417   9.146 -0.2466  0.4935 -0.0684
   47TMC2    H5  743   0.772   0.448   9.199  0.8641  0.6868 -1.8074
   48MPD2     C  744   1.411   0.195   9.131 -0.1107  0.5392 -0.3952
   48MPD2    C1  745   1.352   0.096   9.208 -0.1311  0.0309  0.3354
   48MPD2    C2  746   1.432   4.727   9.249 -0.3286 -0.0952 -0.3216
   48MPD2    C3  747   1.568   4.723   9.226  0.0600  1.0159 -0.2474
   48MPD2    C4  748   1.626   0.092   9.151 -0.3047 -0.5568 -0.1347
   48MPD2    C5  749   1.546   0.196   9.105 -0.0488  0.4064  0.2622
   48MPD2     H  750   1.380   4.648   9.302 -1.9709  1.1180 -0.1250
   48MPD2    H1  751   1.728   0.085   9.115 -0.2307 -0.8192  0.1262
   48MPD2    H2  752   1.353   0.280   9.095  1.0574  0.9020 -1.4213
   48MPD2    H3  753   1.589   0.270   9.039  2.1392 -1.5678 -0.5155
   48MPD2     N  754   1.640   4.612   9.279 -0.0894  0.1009 -0.5619
   48MPD2    H5  755   1.576   4.536   9.304 -0.0425 -0.7178 -2.9657
   48MPD2    N1  756   1.213   0.100   9.249 -0.3669 -0.4884 -0.1823
   48MPD2    H7  757   1.179   0.034   9.318  1.6261 -2.0182 -0.6668
   49TMC2    C1  758   0.922   1.255   9.968  0.3431 -0.4508 -0.6662
   49TMC2    C2  759   0.925   1.168   9.865 -0.2667  0.8442 -0.0906
   49TMC2    C3  760   0.834   1.071   9.864  0.1695  0.2376 -0.2911
   49TMC2    C4  761   0.836   1.238  10.076  1.2039 -0.0941 -0.7032
   49TMC2    C5  762   0.746   1.130  10.070 -0.5845 -0.0507  0.1938
   49TMC2    C6  763   0.739   1.047   9.964 -0.0233  0.1809 -0.5259
   49TMC2     C  764   1.036   1.352   9.971  0.8323  0.2793 -0.1939
   49TMC2     O  765   1.096   1.361   9.869 -0.6838 -0.1247 -0.1589
   49TMC2     H  766   0.997   1.175   9.784 -0.5650 -3.0639 -0.6918
   49TMC2    H1  767   0.836   1.299  10.166 -0.9423  0.8603 -1.3504
   49TMC2    H2  768   0.669   0.964   9.966  0.1833 -0.0235 -1.9020
   49TMC2    C7  769   0.734   1.060  10.201  0.0421  0.0540  0.0599
   49TMC2    C8  770   0.824   0.979   9.749  0.4299  0.3948  0.5791
   49TMC2    O1  771   0.625   1.010  10.220  0.4231 -0.0952  0.2375
   49TMC2    O2  772   0.791   0.863   9.751 -0.0258  0.1981  0.2185
   49TMC2    O5  773   0.824   1.062   9.641  0.5237  0.4104 -0.3437
   49TMC2    H5  774   0.832   1.155   9.671 -0.2459  0.0529  0.9519
   50MPD2     C  775   1.283   1.542  10.042  0.2454 -0.0269  0.3797
   50MPD2    C1  776   1.174   1.509  10.122  0.2416 -0.2868 -0.3058
   50MPD2    C2  777   1.179   1.553  10.252 -0.0306 -0.0569 -0.5473
   50MPD2    C3  778   1.271   1.639  10.304  0.9270 -0.4869  0.2818
   50MPD2    C4  779   1.371   1.675  10.217 -0.2246  0.2952  0.2261
   50MPD2    C5  780   1.371   1.632  10.091 -0.4890  0.6139  0.1495
   50MPD2     H  781   1.104   1.521  10.323  2.9873 -3.2300  1.1876
   50MPD2    H1  782   1.451   1.744  10.242  0.7470 -1.3201  1.5857
   50MPD2    H2  783   1.287   1.495   9.944 -1.0927 -2.5749  1.5413
   50MPD2    H3  784   1.460   1.652  10.032 -0.4416 -2.4958 -0.8360
   50MPD2     N  785   1.283   1.670  10.439 -0.2478 -0.1583 -0.5103
   50MPD2    H5  786   1.373   1.712  10.463 -1.2533 -0.0178  2.9745
   50MPD2    N1  787   1.063   1.425  10.090 -0.7240  0.0647  0.2687
   50MPD2    H7  788   0.998   1.410  10.167 -2.1230 -0.8764 -1.1067
   51TMC2    C1  789   0.434   4.321   1.067  0.1920  0.7530 -0.0732
   51TMC2    C2  790   0.308   4.370   1.065  0.7348  0.0529 -0.1603
   51TMC2    C3  791   0.291   4.507   1.084  0.3683  0.2724  0.0146
   51TMC2    C4  792   0.541   4.401   1.093  0.6815 -0.6589 -1.0230
   51TMC2    C5  793   0.521   4.541   1.082  0.1367 -0.0432 -0.1569
   51TMC2    C6  794   0.397   4.597   1.080 -0.0832 -0.9144 -0.1123
   51TMC2     C  795   0.464   4.187   1.028 -0.4033 -0.2094 -0.5132
   51TMC2     O  796   0.559   4.127   1.078 -0.1608  0.4273 -0.3186
   51TMC2     H  797   0.217   4.311   1.057  1.5462 -1.3559  1.0083
   51TMC2    H1  798   0.637   4.352   1.078  0.3612 -1.5292 -0.2099
   51TMC2    H2  799   0.387   4.703   1.061 -1.4772 -0.7741  1.3742
   51TMC2    C7  800   0.638   4.624   1.060 -0.4492  0.4042 -0.5287
   51TMC2    C8  801   0.160   4.565   1.065  0.7814  0.5620  0.5268
   51TMC2    O1  802   0.732   4.560   1.015 -0.4629  0.4314  0.3769
   51TMC2    O2  803   0.068   4.520   1.000 -0.4084 -0.3998 -0.5138
   51TMC2    O5  804   0.158   4.681   1.136  0.3028 -0.1449  0.1930
   51TMC2    H5  805   0.229   4.693   1.203  1.3759 -3.0748 -0.4155
   52MPD2     C  806   0.403   3.792   0.717 -0.1483  0.6429  0.2203
   52MPD2    C1  807   0.517   3.832   0.784  0.5087  0.0196  0.9873
   52MPD2    C2  808   0.520   3.956   0.845  0.0628  0.1374  0.2831
   52MPD2    C3  809   0.404   4.031   0.843  0.9623  0.4288 -0.3846
   52MPD2    C4  810   0.297   3.992   0.764  0.7050 -0.3805 -0.9220
   52MPD2    C5  811   0.294   3.872   0.704 -0.5182 -0.8804  0.1014
   52MPD2     H  812   0.606   3.983   0.905  2.8340 -1.8303 -2.7857
   52MPD2    H1  813   0.202   4.043   0.753  0.7687  0.4371  2.6227
   52MPD2    H2  814   0.404   3.707   0.649  0.0037  0.8926 -0.0924
   52MPD2    H3  815   0.216   3.838   0.637  0.2329 -0.6429 -0.8881
   52MPD2     N  816   0.375   4.146   0.929 -0.4440  0.4351 -0.1544
   52MPD2    H5  817   0.286   4.193   0.913 -1.7200 -2.2082 -0.8242
   52MPD2    N1  818   0.637   3.758   0.787  1.0474  0.3615  0.0399
   52MPD2    H7  819   0.709   3.788   0.852 -0.9240 -0.0937  2.3920
   53TMC2    C1  820   0.716   3.790  11.468 -0.1948 -0.6147  0.3115
   53TMC2    C2  821   0.652   3.779  11.347  0.8455  0.2393  0.8086
   53TMC2    C3  822   0.529   3.736  11.360  1.3739  0.5245 -1.4605
   53TMC2    C4  823   0.655   3.794  11.588 -0.2435  0.5904  0.2316
   53TMC2    C5  824   0.521   3.760  11.600  0.4122  0.5386  0.4907
   53TMC2    C6  825   0.458   3.731  11.479  0.4659  1.2175  0.1581
   53TMC2     C  826   0.856   3.800  11.455  0.3931 -0.1180  0.5653
   53TMC2     O  827   0.909   3.834  11.354  0.6495  0.2119  0.4472
   53TMC2     H  828   0.706   3.797  11.254 -0.0890 -0.2156  0.1733
   53TMC2    H1  829   0.712   3.811  11.678  0.1201  0.0638  0.0982
   53TMC2    H2  830   0.355   3.701  11.469  0.6037  0.5020  0.9185
   53TMC2    C7  831   0.463   3.706  11.719 -0.6709  0.0860 -1.0277
   53TMC2    C8  832   0.466   3.725  11.231  0.1426 -0.0749  0.5240
   53TMC2    O1  833   0.341   3.678  11.717  0.4405 -0.4798  0.5445
   53TMC2    O2  834   0.499   3.788  11.132 -0.0492 -0.4925  0.3625
   53TMC2    O5  835   0.365   3.634  11.230  0.0525  0.0002  0.2327
   53TMC2    H5  836   0.379   3.572  11.304 -2.0187  0.3100  0.8717
   54MPD2     C  837   1.158   3.801  11.533  0.4613  0.3549  0.1578
   54MPD2    C1  838   1.050   3.754  11.605  0.2842  0.4079 -0.2732
   54MPD2    C2  839   1.078   3.700  11.728 -0.1111  0.1764 -0.4370
   54MPD2    C3  840   1.202   3.676  11.773 -0.5345 -0.6318 -0.0333
   54MPD2    C4  841   1.306   3.720  11.698  0.0419 -0.0912 -0.2292
   54MPD2    C5  842   1.286   3.789  11.580  0.6289 -0.0204 -0.2589
   54MPD2     H  843   0.987   3.665  11.776 -0.6341 -1.8679 -2.9276
   54MPD2    H1  844   1.407   3.702  11.735 -0.3001 -0.6226  0.4408
   54MPD2    H2  845   1.142   3.857  11.441 -2.0429 -0.5204  0.0508
   54MPD2    H3  846   1.367   3.822  11.516  1.9325  0.2359  1.5159
   54MPD2     N  847   1.236   3.613  11.891 -0.3779  0.0001 -0.2468
   54MPD2    H5  848   1.334   3.591  11.905 -0.4137 -0.8121 -1.2781
   54MPD2    N1  849   0.911   3.759  11.573 -0.2348 -0.4850  0.4236
   54MPD2    H7  850   0.851   3.704  11.633 -1.3398 -0.5724 -0.7654
   55TMC2    C1  851   1.973   1.222  17.731 -0.6308 -0.6245 -0.6719
   55TMC2    C2  852   2.012   1.230  17.600 -0.2096 -0.3705  0.7802
   55TMC2    C3  853   2.051   1.113  17.542  0.1172 -0.7340  0.0758
   55TMC2    C4  854   1.960   1.102   0.053  0.2545  0.2186  0.6924
   55TMC2    C5  855   1.998   0.991  17.735  0.4386 -0.3473  0.1954
   55TMC2    C6  856   2.044   0.991  17.610 -0.3715 -0.7739  0.7404
   55TMC2     C  857   1.924   1.342   0.061  0.2948 -0.1830  0.0517
   55TMC2     O  858   1.849   1.321   0.152 -0.0517  0.4495 -0.1856
   55TMC2     H  859   2.029   1.323  17.546 -1.7692 -0.4439  0.1639
   55TMC2    H1  860   1.928   1.107   0.156  0.1656  0.2034  0.6654
   55TMC2    H2  861   2.075   0.904  17.555 -3.0077  0.0546 -2.0733
   55TMC2    C7  862   1.965   0.862   0.040 -0.2369 -0.4613  0.5125
   55TMC2    C8  863   2.122   1.132  17.418 -0.0447 -1.2254  0.4367
   55TMC2    O1  864   2.023   0.766  17.733  0.4443  0.1053  0.2295
   55TMC2    O2  865   2.222   1.071  17.391 -0.4157  0.3004  0.0502
   55TMC2    O5  866   2.028   1.170  17.327  0.7370 -0.3624  0.6528
   55TMC2    H5  867   1.939   1.172  17.369 -0.3960  1.5761 -1.8139
   56MPD2     C  868   2.023   1.696  17.737 -0.0483 -0.4804 -0.6845
   56MPD2    C1  869   1.956   1.591   0.059  0.4054  0.6061  0.2738
   56MPD2    C2  870   1.887   1.620   0.180  0.0721  0.0550  0.2584
   56MPD2    C3  871   1.870   1.747   0.220 -0.5389 -0.3419  0.3387
   56MPD2    C4  872   1.934   1.849   0.160  0.7540 -0.4098  0.3310
   56MPD2    C5  873   2.015   1.821   0.050 -0.0642  0.4263  0.0174
   56MPD2     H  874   1.830   1.546   0.234  0.5459 -0.8140 -0.4326
   56MPD2    H1  875   1.929   1.952   0.192 -2.6269 -0.8300  1.1201
   56MPD2    H2  876   2.092   1.686  17.654  0.7833 -0.0402 -0.0524
   56MPD2    H3  877   2.047   1.904  17.733  3.3667 -0.2268  0.9095
   56MPD2     N  878   1.776   1.772   0.319 -0.0926  0.2280  0.2435
   56MPD2    H5  879   1.731   1.688   0.356  1.6539 -0.8893 -0.1540
   56MPD2    N1  880   1.976   1.453   0.009  0.3394 -0.6369 -0.1431
   56MPD2    H7  881   2.032   1.447  17.669  0.0015 -0.2603 -0.3958
   57TMC2    C1  882   0.860   1.652  13.722  0.2398  0.4730 -0.5093
   57TMC2    C2  883   0.842   1.654  13.591 -0.6502  0.6423  0.8857
   57TMC2    C3  884   0.923   1.569  13.520 -1.1954 -0.4627  1.0652
   57TMC2    C4  885   0.956   1.582  13.789 -0.7129 -0.3925  0.2274
   57TMC2    C5  886   1.041   1.511  13.710  0.0594 -0.3705  0.5549
   57TMC2    C6  887   1.027   1.507  13.573  0.9238  0.1480  0.9839
   57TMC2     C  888   0.802   1.766  13.791  0.3067 -0.3478 -0.3745
   57TMC2     O  889   0.708   1.816  13.733 -0.0541  0.1468  0.1391
   57TMC2     H  890   0.771   1.721  13.543 -2.6262 -0.4343  2.2875
   57TMC2    H1  891   0.959   1.585  13.898  0.3846 -0.3432  0.1999
   57TMC2    H2  892   1.096   1.451  13.511 -0.4538  0.4157 -0.8138
   57TMC2    C7  893   1.163   1.459  13.769  0.3180 -0.0201  0.6365
   57TMC2    C8  894   0.944   1.591  13.377 -0.7779  0.5810  0.2296
   57TMC2    O1  895   1.183   1.489  13.883  0.3176  0.1446 -0.6250
   57TMC2    O2  896   1.055   1.587  13.332  0.8529  0.3808 -0.0903
   57TMC2    O5  897   0.830   1.635  13.319 -0.4029  0.5698  0.3179
   57TMC2    H5  898   0.755   1.611  13.377  0.6345 -2.3703  0.4122
   58MPD2     C  899   0.865   2.190  14.070  0.1087  0.2072  0.1869
   58MPD2    C1  900   0.799   2.171  13.951  1.1468 -0.5346  0.1686
   58MPD2    C2  901   0.785   2.044  13.908 -0.4690 -0.3807 -0.0237
   58MPD2    C3  902   0.843   1.933  13.971 -0.3339  0.0787 -0.4260
   58MPD2    C4  903   0.914   1.953  14.084 -0.0738  0.5926 -0.3427
   58MPD2    C5  904   0.925   2.083  14.138  0.4386 -0.0629  1.0063
   58MPD2     H  905   0.731   2.028  13.816 -2.0272 -1.6763  1.1112
   58MPD2    H1  906   0.950   1.867  14.139  0.4500  1.4412  0.6626
   58MPD2    H2  907   0.873   2.285  14.123  0.1055 -0.3028  1.1084
   58MPD2    H3  908   0.983   2.095  14.229  1.3117  1.2044  0.2834
   58MPD2     N  909   0.862   1.804  13.907 -0.3004  0.1580  0.1436
   58MPD2    H5  910   0.929   1.735  13.942  0.0135 -0.6497 -2.0829
   58MPD2    N1  911   0.747   2.271  13.866  0.3918  0.1544 -0.5007
   58MPD2    H7  912   0.703   2.240  13.780  1.9659  0.1814 -1.3216
   59TMC2    C1  913   3.480   2.389  12.695  0.0328 -0.3792  0.1702
   59TMC2    C2  914   3.469   2.275  12.766  1.0186 -0.7028 -0.0957
   59TMC2    C3  915   3.412   2.165  12.710  0.1173 -0.3722 -0.6873
   59TMC2    C4  916   3.434   2.395  12.568 -0.9717  0.1937 -0.3533
   59TMC2    C5  917   3.389   2.282  12.511 -0.0714  0.4475 -0.6424
   59TMC2    C6  918   3.382   2.158  12.576 -0.0012  0.1009 -1.4104
   59TMC2     C  919   3.497   2.508  12.765 -0.1086 -0.1826  0.4353
   59TMC2     O  920   3.502   2.615  12.708 -0.3096  0.1752  0.4268
   59TMC2     H  921   3.479   2.262  12.873 -2.8349  0.8636  0.4590
   59TMC2    H1  922   3.446   2.485  12.508 -1.8862  0.0053 -0.8214
   59TMC2    H2  923   3.348   2.064  12.533  2.2487 -0.1566 -2.6496
   59TMC2    C7  924   3.292   2.286  12.407  0.3603  0.3828  0.3348
   59TMC2    C8  925   3.349   2.073  12.797 -0.2800  1.1717  0.5570
   59TMC2    O1  926   3.218   2.188  12.391  1.0385 -0.1108  0.2099
   59TMC2    O2  927   3.292   2.101  12.900 -1.0943 -0.4174  0.4742
   59TMC2    O5  928   3.388   1.947  12.763 -0.0652 -0.6945  0.1231
   59TMC2    H5  929   3.443   1.956  12.682  1.7874  1.2002  1.5840
   60MPD2     C  930   3.584   2.725  12.975  1.1854  0.3610  0.0884
   60MPD2    C1  931   3.575   2.590  12.990 -0.1442  0.0802 -0.2608
   60MPD2    C2  932   3.615   2.542  13.115  0.2330  0.6987  0.0816
   60MPD2    C3  933   3.673   2.617  13.218  0.2284  0.4217 -0.0710
   60MPD2    C4  934   3.675   2.756  13.194  0.5186  0.6213  0.1918
   60MPD2    C5  935   3.645   2.802  13.073 -0.8276  0.3209 -0.2379
   60MPD2     H  936   3.598   2.436  13.127  1.0093  0.3793 -1.6709
   60MPD2    H1  937   3.711   2.827  13.268  1.1874 -0.1901  0.6456
   60MPD2    H2  938   3.570   2.768  12.877 -1.0853  0.6253  0.5345
   60MPD2    H3  939   3.656   2.908  13.054  1.0690  0.4017  1.2993
   60MPD2     N  940   3.740   2.573  13.332  0.0159 -0.0204  0.0032
   60MPD2    H5  941   3.771   2.645  13.397  1.3792  0.9089 -1.6953
   60MPD2    N1  942   3.539   2.488  12.898 -0.8596 -0.6343  0.2102
   60MPD2    H7  943   3.552   2.391  12.926  1.0088 -1.1011 -2.2937
   61TMC2    C1  944   2.911   4.139  15.988 -0.0219  0.2447  0.0512
   61TMC2    C2  945   2.822   4.141  16.093 -0.4857  0.4187 -0.5097
   61TMC2    C3  946   2.736   4.246  16.095 -0.0652 -0.0490  0.5304
   61TMC2    C4  947   2.913   4.223  15.881  0.2458 -0.4736 -0.9125
   61TMC2    C5  948   2.823   4.324  15.893  0.2476  0.1719 -0.2031
   61TMC2    C6  949   2.730   4.344  15.996  0.3469 -0.8718  0.1022
   61TMC2     C  950   2.981   4.016  15.966 -0.3437 -0.2337 -0.3565
   61TMC2     O  951   3.004   3.948  16.065 -0.1360 -0.5538  0.6373
   61TMC2     H  952   2.810   4.053  16.156  1.4158  0.3436 -0.2519
   61TMC2    H1  953   2.971   4.215  15.791  0.5202  1.3961 -0.9081
   61TMC2    H2  954   2.660   4.425  16.010  0.7482 -0.6421  0.8032
   61TMC2    C7  955   2.829   4.411  15.773 -0.1015  0.2936  0.9656
   61TMC2    C8  956   2.612   4.237  16.163 -0.0707  0.4797  0.4111
   61TMC2    O1  957   2.934   4.416  15.711 -0.5681  0.1003  0.2777
   61TMC2    O2  958   2.569   4.310  16.247  0.3281  0.2030  0.4101
   61TMC2    O5  959   2.568   4.109  16.141  1.0466 -0.1329 -0.1102
   61TMC2    H5  960   2.599   4.087  16.051 -1.1817  0.3956 -0.9929
   62MPD2     C  961   3.178   3.831  15.857 -0.7057 -0.1348  0.2533
   62MPD2    C1  962   3.075   3.890  15.783  0.5485 -0.2221  1.1673
   62MPD2    C2  963   3.062   3.857  15.648  0.6674  0.3071 -0.4204
   62MPD2    C3  964   3.153   3.767  15.591 -0.4927  0.6273 -0.4249
   62MPD2    C4  965   3.250   3.709  15.665  0.1497 -0.0518  0.2973
   62MPD2    C5  966   3.261   3.738  15.798  0.0244 -0.3729 -0.5106
   62MPD2     H  967   2.991   3.916  15.592  1.0125  0.1458 -1.0352
   62MPD2    H1  968   3.322   3.638  15.626  1.6102  0.2296  2.4281
   62MPD2    H2  969   3.198   3.845  15.963 -0.5932 -0.1626  0.2369
   62MPD2    H3  970   3.339   3.693  15.859 -1.2092 -1.0604  0.5682
   62MPD2     N  971   3.158   3.769  15.456  0.3166 -0.3949  1.0302
   62MPD2    H5  972   3.093   3.834  15.413  1.2322 -1.5883 -2.1599
   62MPD2    N1  973   2.984   3.983  15.832 -0.0507  0.3469  0.3563
   62MPD2    H7  974   2.922   4.022  15.761  0.2578  0.5661  0.2067
   63TMC2    C1  975   2.229   4.238  10.138  0.1921  0.1337 -0.7624
   63TMC2    C2  976   2.349   4.208  10.195 -0.2012 -0.6772 -0.4703
   63TMC2    C3  977   2.461   4.264  10.141  0.3167  0.1527  0.2705
   63TMC2    C4  978   2.215   4.331  10.034 -0.5152  0.2205 -0.5330
   63TMC2    C5  979   2.333   4.382   9.982 -0.1015  0.1912 -0.1043
   63TMC2    C6  980   2.457   4.350  10.034 -0.8497  0.0192  0.2192
   63TMC2     C  981   2.106   4.197  10.207 -0.3098  0.8304 -0.4846
   63TMC2     O  982   1.996   4.243  10.171 -0.0319  0.1061  0.5859
   63TMC2     H  983   2.365   4.142  10.280  0.1835  1.5132  1.1687
   63TMC2    H1  984   2.120   4.347   9.986  0.6514  2.2092 -2.1218
   63TMC2    H2  985   2.544   4.402   9.995 -2.7779  2.1399 -1.2723
   63TMC2    C7  986   2.316   4.466   9.863  0.7144  0.5475 -0.2517
   63TMC2    C8  987   2.592   4.211  10.187 -0.5473 -0.1024 -0.5236
   63TMC2    O1  988   2.206   4.509   9.844 -0.0544 -0.7426 -0.2742
   63TMC2    O2  989   2.596   4.144  10.288 -0.3797  0.3865  0.4220
   63TMC2    O5  990   2.656   4.174  10.068  0.3499 -0.0785 -0.5222
   63TMC2    H5  991   2.631   4.230   9.992 -0.2181  0.6683  0.2242
   64MPD2     C  992   1.883   3.890  10.552  0.0962  0.2109  0.0642
   64MPD2    C1  993   2.015   3.851  10.538  0.0752  0.1632  0.5657
   64MPD2    C2  994   2.100   3.915  10.446  0.5432  0.2273  0.6423
   64MPD2    C3  995   2.052   4.025  10.372  0.6430 -0.6419 -0.0084
   64MPD2    C4  996   1.917   4.063  10.390  0.0895  0.6720 -1.0986
   64MPD2    C5  997   1.834   3.997  10.479 -0.9444 -0.3990 -0.5457
   64MPD2     H  998   2.206   3.896  10.437  0.5197  0.5621 -0.3581
   64MPD2    H1  999   1.864   4.145  10.343 -0.8262  1.1091  0.6702
   64MPD2    H2 1000   1.815   3.834  10.615  0.6932  0.2038  0.7054
   64MPD2    H3 1001   1.730   4.026  10.487 -1.2899 -2.1483  1.3734
   64MPD2     N 1002   2.134   4.087  10.277 -0.4209 -0.2159  0.4977
   64MPD2    H5 1003   2.230   4.056  10.268  0.2107  1.2083  2.2535
   64MPD2    N1 1004   2.080   3.739  10.607  0.0318 -0.0891 -0.6324
   64MPD2    H7 1005   2.172   3.726  10.566 -0.3126 -3.5011 -0.2964
   65TMC2    C1 1006   4.027   3.346  15.675 -0.1917 -0.1679 -0.1959
   65TMC2    C2 1007   4.143   3.418  15.680  0.5877  0.8599  0.8098
   65TMC2    C3 1008   4.146   3.541  15.622  0.5299 -0.2161 -0.1823
   65TMC2    C4 1009   3.912   3.394  15.625  0.7551  0.0209 -0.3756
   65TMC2    C5 1010   3.923   3.511  15.556 -0.0558 -0.2626  0.4496
   65TMC2    C6 1011   4.038   3.588  15.551 -0.0630 -0.1776 -0.4840
   65TMC2     C 1012   4.032   3.223  15.746 -0.8389  0.3532  0.7453
   65TMC2     O 1013   4.125   3.213  15.824 -0.8164 -0.3078  0.1410
   65TMC2     H 1014   4.234   3.369  15.712  0.7953  0.3693 -0.5450
   65TMC2    H1 1015   3.822   3.333  15.623  1.9183 -1.7130  0.7204
   65TMC2    H2 1016   4.047   3.683  15.500  1.7241  0.1641  0.4849
   65TMC2    C7 1017   3.800   3.571  15.529 -0.6904 -0.0912  0.6824
   65TMC2    C8 1018   4.267   3.616  15.625  0.0356 -0.4671 -0.5304
   65TMC2    O1 1019   3.704   3.502  15.493 -0.0338 -0.2876 -0.3942
   65TMC2    O2 1020   4.302   3.631  15.740 -0.1973  0.3653  0.2791
   65TMC2    O5 1021   4.343   3.554  15.533  0.0612  0.1234 -0.2491
   65TMC2    H5 1022   4.284   3.537  15.456  1.4100  0.1019 -1.2942
   66MPD2     C 1023   3.978   2.973  15.895  0.3642 -0.9115  0.0742
   66MPD2    C1 1024   3.912   3.004  15.775 -0.2613  0.4363  0.4646
   66MPD2    C2 1025   3.823   2.916  15.722 -0.0621 -0.2384 -0.3801
   66MPD2    C3 1026   3.795   2.797  15.786 -0.7590 -0.0373  0.2554
   66MPD2    C4 1027   3.857   2.771  15.903 -0.3151 -0.0857 -0.2679
   66MPD2    C5 1028   3.948   2.860  15.956  0.1326  0.3128 -0.0192
   66MPD2     H 1029   3.760   2.936  15.635  0.4394 -1.1126 -0.9379
   66MPD2    H1 1030   3.862   2.674  15.952 -2.8619  0.3714  0.9088
   66MPD2    H2 1031   4.058   3.030  15.942  1.8276 -1.8334 -1.3149
   66MPD2    H3 1032   4.004   2.832  16.045 -1.4229 -2.9086 -0.0494
   66MPD2     N 1033   3.718   2.693  15.734  0.3495 -0.0541 -0.4135
   66MPD2    H5 1034   3.721   2.607  15.788 -0.3731  1.4227  1.9376
   66MPD2    N1 1035   3.929   3.131  15.708  0.0639  0.6982 -0.6357
   66MPD2    H7 1036   3.872   3.158  15.629 -2.1525 -1.0977  0.3749
   67TMC2    C1 1037   4.041   2.357  14.128  0.2168 -0.8504  0.2053
   67TMC2    C2 1038   3.966   2.467  14.138  0.5538  0.1817  0.1053
   67TMC2    C3 1039   3.928   2.510  14.261  1.1880 -0.5839 -0.3949
   67TMC2    C4 1040   4.087   2.299  14.242 -0.2601  0.5359 -0.0945
   67TMC2    C5 1041   4.051   2.346  14.371  0.0373 -0.8277  0.2600
   67TMC2    C6 1042   3.963   2.453  14.383 -0.3322  0.2866 -0.5727
   67TMC2     C 1043   4.009   2.275  14.010  0.1327  0.3109  0.3509
   67TMC2     O 1044   4.068   2.173  13.994  0.4345  0.1673  0.2339
   67TMC2     H 1045   3.932   2.519  14.048  1.9820  0.1186 -0.4690
   67TMC2    H1 1046   4.151   2.213  14.231  0.2407  0.7521  1.1661
   67TMC2    H2 1047   3.920   2.490  14.475  1.0763 -0.5924  0.4360
   67TMC2    C7 1048   4.119   2.300  14.489  0.3863 -0.2051 -0.0952
   67TMC2    C8 1049   3.832   2.616  14.270 -0.4550  0.4330  0.2825
   67TMC2    O1 1050   4.199   2.210  14.467 -0.3006  0.1819  0.0979
   67TMC2    O2 1051   3.743   2.621  14.190  0.6843 -0.4079 -0.3491
   67TMC2    O5 1052   3.865   2.712  14.361 -0.3244 -0.2947  0.4446
   67TMC2    H5 1053   3.954   2.693  14.398 -0.0321  1.8185  0.8374
   68MPD2     C 1054   3.905   2.178  13.744  0.5025 -0.3256 -0.3472
   68MPD2    C1 1055   3.845   2.266  13.830  0.6269  0.1520  0.5706
   68MPD2    C2 1056   3.715   2.302  13.806  0.4495 -0.3101 -0.6518
   68MPD2    C3 1057   3.649   2.261  13.694 -0.3464 -0.2557 -0.1215
   68MPD2    C4 1058   3.712   2.175  13.607 -0.0296 -0.3671 -0.7550
   68MPD2    C5 1059   3.841   2.128  13.633 -0.0514  0.0425  0.0303
   68MPD2     H 1060   3.667   2.380  13.864  1.7031 -0.2237  0.2714
   68MPD2    H1 1061   3.654   2.130  13.527 -2.3762 -0.5968  1.0794
   68MPD2    H2 1062   4.004   2.137  13.762  0.5949 -0.5584 -1.3844
   68MPD2    H3 1063   3.886   2.045  13.580  0.0139  0.1831 -0.1361
   68MPD2     N 1064   3.512   2.295  13.668 -0.2440  0.0314 -0.0248
   68MPD2    H5 1065   3.479   2.252  13.582 -0.6560 -0.5349  0.4230
   68MPD2    N1 1066   3.899   2.323  13.944 -0.2682 -0.1217 -0.6745
   68MPD2    H7 1067   3.842   2.391  13.992 -0.1784  0.7193 -1.7624
   69TMC2    C1 1068   1.189   3.653  12.676  0.1925  0.0504  0.4532
   69TMC2    C2 1069   1.069   3.727  12.650 -0.0578  0.1567 -0.7533
   69TMC2    C3 1070   1.044   3.779  12.523  0.3182 -0.0803  0.0630
   69TMC2    C4 1071   1.280   3.645  12.573 -0.9007 -0.3557 -0.6397
   69TMC2    C5 1072   1.251   3.700  12.456 -0.3474  0.3324 -0.4835
   69TMC2    C6 1073   1.136   3.766  12.421 -0.5664 -0.0921 -0.3783
   69TMC2     C 1074   1.216   3.610  12.810  0.2002  0.9708 -0.2140
   69TMC2     O 1075   1.149   3.657  12.901 -0.3303 -0.0536 -0.1911
   69TMC2     H 1076   0.996   3.741  12.729  1.3071 -0.8276  0.6989
   69TMC2    H1 1077   1.378   3.600  12.588  0.0679  0.8960 -3.2011
   69TMC2    H2 1078   1.119   3.809  12.324 -2.5933 -1.9941 -0.8671
   69TMC2    C7 1079   1.353   3.711  12.353  0.0948  0.6742 -0.2982
   69TMC2    C8 1080   0.911   3.837  12.505 -0.7122  0.0396 -0.3040
   69TMC2    O1 1081   1.319   3.731  12.236  0.8038  0.1638 -0.1094
   69TMC2    O2 1082   0.814   3.824  12.582  0.1764 -0.4140  0.0925
   69TMC2    O5 1083   0.928   3.945  12.427 -0.2787  0.2662  0.9864
   69TMC2    H5 1084   1.017   3.957  12.387 -0.9258 -0.9695 -0.8049
   70MPD2     C 1085   1.502   3.412  12.915 -0.2842  0.1466  0.1772
   70MPD2    C1 1086   1.389   3.484  12.929  0.4731 -0.4451  0.7707
   70MPD2    C2 1087   1.320   3.486  13.052 -0.3072  0.3630 -0.0660
   70MPD2    C3 1088   1.378   3.426  13.164  0.8581 -0.1859 -0.0152
   70MPD2    C4 1089   1.497   3.354  13.141 -0.9027  0.5092 -0.4203
   70MPD2    C5 1090   1.558   3.351  13.020  0.9274  0.2745  0.3368
   70MPD2     H 1091   1.230   3.543  13.069  0.1979  0.8698  0.9339
   70MPD2    H1 1092   1.545   3.305  13.225  1.0886  1.2407 -1.1309
   70MPD2    H2 1093   1.545   3.395  12.817 -1.3511 -2.6342  0.2040
   70MPD2    H3 1094   1.648   3.292  13.011  0.0288 -1.2505  1.2001
   70MPD2     N 1095   1.327   3.425  13.303 -0.0073  0.0132 -0.0139
   70MPD2    H5 1096   1.394   3.385  13.369  0.3438  0.2945 -0.2012
   70MPD2    N1 1097   1.331   3.544  12.812  0.5746 -0.2794 -0.0163
   70MPD2    H7 1098   1.386   3.534  12.726 -0.9146 -1.3993 -0.8315
   71TMC2    C1 1099   3.137   4.246   1.302  0.2364  0.6035  0.3864
   71TMC2    C2 1100   3.267   4.244   1.335  0.6893 -0.2982 -0.4776
   71TMC2    C3 1101   3.309   4.288   1.459 -1.3674  0.5914 -1.3278
   71TMC2    C4 1102   3.044   4.295   1.389 -0.0245 -0.4406 -0.1690
   71TMC2    C5 1103   3.086   4.337   1.514 -0.4624  0.0564 -0.1833
   71TMC2    C6 1104   3.221   4.340   1.543  0.3063 -0.5214 -0.0978
   71TMC2     C 1105   3.104   4.225   1.157  0.2581  0.0461  0.4969
   71TMC2     O 1106   3.195   4.250   1.074  0.1271 -0.2710 -0.0008
   71TMC2     H 1107   3.339   4.200   1.267 -0.0435  0.4067 -1.7054
   71TMC2    H1 1108   2.945   4.305   1.346 -1.0016  0.5575  2.3292
   71TMC2    H2 1109   3.252   4.396   1.631 -2.6208  1.1091 -0.0906
   71TMC2    C7 1110   2.990   4.386   1.611  0.2871 -0.4568 -0.1083
   71TMC2    C8 1111   3.402   4.194   1.521  0.1052 -0.5575  0.3068
   71TMC2    O1 1112   3.034   4.418   1.719  0.3896 -0.1151  0.3075
   71TMC2    O2 1113   3.410   4.081   1.471 -0.3577 -0.5687 -0.1466
   71TMC2    O5 1114   3.405   4.225   1.653  0.2044  0.5002 -0.6552
   71TMC2    H5 1115   3.437   4.317   1.665 -0.4840  0.4515  1.6148
   72MPD2     C 1116   2.772   4.175   0.767  0.1727 -0.1452  0.6232
   72MPD2    C1 1117   2.905   4.204   0.764 -0.1699  0.4644 -0.4316
   72MPD2    C2 1118   2.972   4.219   0.884  0.2237  0.3397  0.1693
   72MPD2    C3 1119   2.909   4.197   1.009 -0.0307  0.5218  0.6020
   72MPD2    C4 1120   2.779   4.173   1.011  0.5170 -0.3982  0.1332
   72MPD2    C5 1121   2.709   4.175   0.890 -0.2450 -0.2049  0.1886
   72MPD2     H 1122   3.080   4.235   0.881  0.4363 -0.7988  1.8449
   72MPD2    H1 1123   2.725   4.171   1.105 -0.4418 -1.3461 -0.4285
   72MPD2    H2 1124   2.709   4.156   0.681  0.2057  0.4110  0.4763
   72MPD2    H3 1125   2.603   4.158   0.896 -0.3404 -0.0193 -0.9059
   72MPD2     N 1126   2.968   4.203   1.135 -0.0876  0.5488 -0.1812
   72MPD2    H5 1127   2.904   4.190   1.213 -0.3142  0.6300 -0.3533
   72MPD2    N1 1128   2.971   4.218   0.645  0.2773 -0.6858  0.6136
   72MPD2    H7 1129   3.070   4.236   0.661  0.8603 -3.4904  0.0856
   73TMC2    C1 1130   2.772   1.837  13.596 -0.5721  0.3015  0.0419
   73TMC2    C2 1131   2.719   1.954  13.646  0.4047 -0.3004 -0.4508
   73TMC2    C3 1132   2.735   1.975  13.781 -0.6139 -0.8108 -0.1158
   73TMC2    C4 1133   2.823   1.748  13.683  0.0454  0.6164  0.1145
   73TMC2    C5 1134   2.868   1.783  13.808  0.5360 -0.2474  0.0820
   73TMC2    C6 1135   2.814   1.902  13.862  0.2530  0.3113 -0.0953
   73TMC2     C 1136   2.863   1.862  13.481  0.0470  1.1092 -0.5043
   73TMC2     O 1137   2.971   1.811  13.480  0.0924 -0.0931 -0.0027
   73TMC2     H 1138   2.676   2.035  13.588  1.5777 -1.7238 -3.3087
   73TMC2    H1 1139   2.859   1.655  13.642  0.8326  0.4583  1.1760
   73TMC2    H2 1140   2.842   1.933  13.962  0.3276  0.0841 -0.0452
   73TMC2    C7 1141   3.001   1.741  13.833  0.3152  0.0401 -0.1775
   73TMC2    C8 1142   2.655   2.075  13.849 -0.9489  0.0525 -0.5884
   73TMC2    O1 1143   3.023   1.699  13.947 -0.0163  0.2788 -0.0874
   73TMC2    O2 1144   2.675   2.195  13.828 -0.2737  0.6948 -0.2333
   73TMC2    O5 1145   2.611   2.024  13.961 -0.2701 -0.5463 -0.3267
   73TMC2    H5 1146   2.606   1.927  13.957  1.9439 -0.6388 -0.9680
   74MPD2     C 1147   2.963   1.973  12.991 -1.0440  0.7215  0.3418
   74MPD2    C1 1148   3.045   1.919  13.088 -0.3184 -0.1890 -0.2466
   74MPD2    C2 1149   2.987   1.901  13.215 -0.3530 -0.8758 -0.3483
   74MPD2    C3 1150   2.854   1.940  13.246 -0.9417 -0.2338  1.1236
   74MPD2    C4 1151   2.787   2.004  13.148  0.2912 -0.3037 -0.8181
   74MPD2    C5 1152   2.834   2.013  13.018  0.4587 -0.5326 -0.3194
   74MPD2     H 1153   3.043   1.839  13.283  1.2367  0.5993 -0.2918
   74MPD2    H1 1154   2.688   2.042  13.173  0.5122  0.2535 -0.7961
   74MPD2    H2 1155   2.996   1.988  12.889 -1.4448 -0.1461  0.0873
   74MPD2    H3 1156   2.769   2.059  12.944  0.2544 -1.0889 -0.4915
   74MPD2     N 1157   2.798   1.926  13.373  0.8322 -0.1185  0.1735
   74MPD2    H5 1158   2.699   1.947  13.368  0.8565  0.1805  0.9273
   74MPD2    N1 1159   3.179   1.872  13.058  0.0312  0.5281  0.0570
   74MPD2    H7 1160   3.202   1.844  12.963  0.8220  2.6386 -0.3870
   75TMC2    C1 1161   3.289   2.384  13.707 -0.0548  0.9952  0.1572
   75TMC2    C2 1162   3.212   2.433  13.808 -0.1229 -0.1560 -0.1567
   75TMC2    C3 1163   3.115   2.520  13.782 -0.2236 -0.1568 -0.5872
   75TMC2    C4 1164   3.262   2.412  13.578 -0.0161  0.2115  0.0286
   75TMC2    C5 1165   3.169   2.511  13.552 -0.7504 -0.7796  0.7961
   75TMC2    C6 1166   3.091   2.562  13.657  0.0931 -0.4683 -0.5146
   75TMC2     C 1167   3.426   2.357  13.755 -0.4907 -0.1208  0.1311
   75TMC2     O 1168   3.446   2.372  13.878 -0.1468 -0.3792  0.1674
   75TMC2     H 1169   3.216   2.390  13.907 -2.2216 -1.6008 -0.6773
   75TMC2    H1 1170   3.321   2.370  13.497 -1.4443 -0.0987 -0.8404
   75TMC2    H2 1171   3.007   2.626  13.635 -0.5971 -1.1730  0.0731
   75TMC2    C7 1172   3.116   2.537  13.418  0.4124 -0.1990 -0.3941
   75TMC2    C8 1173   2.997   2.507  13.865  0.2931  0.5619  0.3844
   75TMC2    O1 1174   3.125   2.452  13.330  0.5967 -0.6371  0.3044
   75TMC2    O2 1175   2.882   2.519  13.828  0.0634  0.1656  0.3389
   75TMC2    O5 1176   3.040   2.562  13.978 -0.3914  0.4439  0.1547
   75TMC2    H5 1177   3.138   2.566  13.981 -0.3459 -1.5399  1.1340
   76TMC2    C1 1178   2.611   3.149  12.015 -0.1074  0.6413  0.2412
   76TMC2    C2 1179   2.592   3.087  12.137 -0.4193 -0.5071 -0.4573
   76TMC2    C3 1180   2.668   3.133  12.243  0.0679 -0.2597  0.0433
   76TMC2    C4 1181   2.699   3.259  12.009 -0.2041  0.2028  0.3781
   76TMC2    C5 1182   2.770   3.296  12.118  0.1722  0.0548  0.5546
   76TMC2    C6 1183   2.764   3.231  12.237  0.3498  0.2228 -1.0223
   76TMC2     C 1184   2.499   3.146  11.925  0.2906 -0.7275 -0.1016
   76TMC2     O 1185   2.484   3.250  11.864 -0.7196 -0.1810  0.1094
   76TMC2     H 1186   2.532   2.998  12.151  0.8430 -1.3005 -0.0363
   76TMC2    H1 1187   2.709   3.309  11.913  4.5217  0.4593  0.9894
   76TMC2    H2 1188   2.820   3.265  12.322 -0.0573 -1.0675 -0.2388
   76TMC2    C7 1189   2.835   3.427  12.105 -0.7723  0.8641  0.1831
   76TMC2    C8 1190   2.650   3.078  12.378  0.2729  0.1514 -0.5960
   76TMC2    O1 1191   2.855   3.466  11.990 -0.2616 -0.1788  0.6262
   76TMC2    O2 1192   2.622   2.959  12.391  0.3957 -0.6225 -0.5167
   76TMC2    O5 1193   2.595   3.177  12.446  0.0483  0.1146 -0.3031
   76TMC2    H5 1194   2.624   3.263  12.409 -0.5660  1.1504  1.6315
   77MPD2     C 1195   2.042   2.938  11.772  0.5322  1.0038  0.0161
   77MPD2    C1 1196   2.086   3.069  11.770 -0.2632  0.5921  0.2841
   77MPD2    C2 1197   2.215   3.106  11.819  0.0676 -0.2692  0.4553
   77MPD2    C3 1198   2.298   3.004  11.867 -0.3213 -0.1396 -0.5779
   77MPD2    C4 1199   2.247   2.875  11.875 -0.7828  0.1921  0.0324
   77MPD2    C5 1200   2.127   2.844  11.814 -0.3884  0.8658 -0.5739
   77MPD2     H 1201   2.246   3.210  11.815 -0.1519 -0.3217 -3.2969
   77MPD2    H1 1202   2.313   2.798  11.914 -2.6990 -0.0228  2.8626
   77MPD2    H2 1203   1.945   2.901  11.740  1.8266 -1.2946 -1.2467
   77MPD2    H3 1204   2.075   2.749  11.816 -0.0960  0.7519  1.6340
   77MPD2     N 1205   2.426   3.026  11.921  0.2874  0.1938  0.6136
   77MPD2    H5 1206   2.477   2.943  11.948  0.8204  0.0491 -0.8324
   77MPD2    N1 1207   2.003   3.178  11.733 -0.2366  1.3832  0.0068
   77MPD2    H7 1208   2.049   3.268  11.728 -0.1708  1.3981  0.8612
   78TMC2    C1 1209   3.709   4.610   2.075  0.0669 -0.3400  0.0221
   78TMC2    C2 1210   3.794   4.647   2.179 -0.1158  0.6208 -0.2867
   78TMC2    C3 1211   3.926   4.621   2.160  0.1657 -0.1762  0.2255
   78TMC2    C4 1212   3.757   4.540   1.965  0.5173  0.5153 -0.1687
   78TMC2    C5 1213   3.887   4.495   1.971 -0.3608  0.3160  0.0209
   78TMC2    C6 1214   3.978   4.532   2.062 -0.0741 -0.6952 -0.0515
   78TMC2     C 1215   3.565   4.654   2.064  0.2440  0.6808  0.1934
   78TMC2     O 1216   3.505   4.623   1.956 -0.0970 -0.2886 -0.1508
   78TMC2     H 1217   3.764   4.708   2.263  1.3976  2.0741 -0.7984
   78TMC2    H1 1218   3.687   4.524   1.885 -0.3255 -1.5293  0.9730
   78TMC2    H2 1219   4.084   4.514   2.046  0.0323  0.3242 -0.5414
   78TMC2    C7 1220   3.948   4.414   1.867 -0.4226  0.1030  0.3508
   78TMC2    C8 1221   4.020   4.702   2.239 -0.5751 -0.2499  0.2580
   78TMC2    O1 1222   4.068   4.428   1.833  0.7957 -0.4095  0.0176
   78TMC2    O2 1223   4.137   4.663   2.261  0.5180 -0.3356  0.8367
   78TMC2    O5 1224   3.984   0.100   2.247 -0.3105  0.7108 -0.5557
   78TMC2    H5 1225   3.894   0.124   2.215 -0.6782 -0.0472 -0.0886
   79MPD1     C 1226   3.138   0.114   2.260  0.0733 -0.7108  0.6477
   79MPD1    C1 1227   3.177   0.097   2.132 -0.3320 -0.4711 -0.3311
   79MPD1    C2 1228   3.297   0.037   2.106 -0.0841 -0.0397 -0.1744
   79MPD1    C3 1229   3.380   0.002   2.212 -0.7701  0.2966  0.4456
   79MPD1    C4 1230   3.334   0.030   2.345 -0.4958  0.7800 -0.2420
   79MPD1    C5 1231   3.212   0.081   2.368  0.1920 -0.8742  0.7975
   79MPD1     H 1232   3.326   0.019   2.003 -1.3000 -1.7097 -0.2229
   79MPD1    H1 1233   3.394   0.009   2.432 -0.1105  3.1797  0.0652
   79MPD1    H2 1234   3.045   0.163   2.287  0.4604  0.0332  0.6290
   79MPD1    H3 1235   3.184   0.109   2.469  0.6344 -1.9940  1.2341
   79MPD1     N 1236   3.511   4.682   2.191  0.5281  0.0131 -0.1650
   79MPD1    H5 1237   3.567   4.681   2.276 -2.5872  1.8190  1.9322
   79MPD1    N1 1238   3.087   0.085   2.030 -0.2788 -0.7212 -0.5789
   79MPD1    H6 1239   3.003   0.141   2.044 -2.1886 -3.7738  0.2737
   79MPD1    H7 1240   3.124   0.113   1.940  1.3331 -0.8675  0.0477
   80TMC2    C1 1241   1.578   2.597  12.583 -0.4073  0.8887 -0.1033
   80TMC2    C2 1242   1.672   2.585  12.488 -0.3500 -0.1688  0.0972
   80TMC2    C3 1243   1.635   2.593  12.353  0.1446 -0.3787  0.3042
   80TMC2    C4 1244   1.449   2.613  12.556  0.0370  0.0555 -0.1619
   80TMC2    C5 1245   1.411   2.603  12.425 -0.7581 -0.8049 -0.7502
   80TMC2    C6 1246   1.501   2.593  12.318 -0.0911 -0.5168 -0.1782
   80TMC2     C 1247   1.633   2.591  12.720 -0.3495  0.1893 -0.6439
   80TMC2     O 1248   1.734   2.530  12.738 -0.0675 -0.0881 -0.4816
   80TMC2     H 1249   1.776   2.568  12.512 -0.0930 -0.7160 -1.3991
   80TMC2    H1 1250   1.369   2.602  12.629 -0.5725  0.4865 -0.7600
   80TMC2    H2 1251   1.464   2.574  12.218  1.1510 -1.1490 -0.5208
   80TMC2    C7 1252   1.273   2.582  12.392  0.1031  0.1088  0.5097
   80TMC2    C8 1253   1.732   2.589  12.253 -1.2532 -0.2025 -0.0426
   80TMC2    O1 1254   1.236   2.637  12.289  0.5531  0.4231 -0.1796
   80TMC2    O2 1255   1.832   2.523  12.277  0.3201  0.6128 -0.7131
   80TMC2    O5 1256   1.675   2.598  12.130  0.4883 -0.2764  0.0194
   80TMC2    H5 1257   1.607   2.668  12.136  0.2274 -0.6011  0.8353
   81MPD2     C 1258   1.658   2.597  13.017  0.1529  0.2635  0.5908
   81MPD2    C1 1259   1.575   2.677  12.947  0.4678  0.1487 -0.1468
   81MPD2    C2 1260   1.490   2.767  13.009 -0.2633  0.1769  0.4905
   81MPD2    C3 1261   1.503   2.794  13.144  0.1711  0.5266 -0.4519
   81MPD2    C4 1262   1.599   2.719  13.204  1.3800  0.2309  0.2913
   81MPD2    C5 1263   1.675   2.619  13.149 -0.4080 -0.1124 -0.2745
   81MPD2     H 1264   1.408   2.814  12.956  0.7079  2.8035  1.3594
   81MPD2    H1 1265   1.620   2.726  13.310  3.6894 -2.0544 -0.0089
   81MPD2    H2 1266   1.718   2.520  12.971  1.8213  2.4760 -0.9731
   81MPD2    H3 1267   1.760   2.579  13.203 -0.2390 -0.5730 -0.8808
   81MPD2     N 1268   1.426   2.887  13.217 -0.3768  0.0390  0.5071
   81MPD2    H5 1269   1.438   2.882  13.318 -2.5948 -0.5762  0.7507
   81MPD2    N1 1270   1.560   2.671  12.799 -0.0822 -0.0153  0.1696
   81MPD2    H7 1271   1.482   2.720  12.756 -1.2161 -1.2474  0.8252
   82TMC2    C1 1272   3.705   2.342  11.245 -0.0957  0.2198  0.0009
   82TMC2    C2 1273   3.696   2.419  11.358 -0.1856 -0.3912 -0.5595
   82TMC2    C3 1274   3.689   2.347  11.479 -0.0977 -0.1816  0.4438
   82TMC2    C4 1275   3.700   2.204  11.246  0.1745 -0.1084 -0.2696
   82TMC2    C5 1276   3.690   2.141  11.369  0.2467 -0.0222  0.7091
   82TMC2    C6 1277   3.687   2.209  11.487 -0.0193 -0.4355 -0.6158
   82TMC2     C 1278   3.671   2.414  11.119  0.1332  0.1109  0.1862
   82TMC2     O 1279   3.602   2.352  11.033 -0.2132 -0.1105 -0.0430
   82TMC2     H 1280   3.670   2.525  11.352 -1.8757 -0.7040  1.3395
   82TMC2    H1 1281   3.674   2.149  11.157 -0.7844  1.5909 -1.0350
   82TMC2    H2 1282   3.679   2.153  11.579  2.3737 -1.6315 -1.1302
   82TMC2    C7 1283   3.696   1.997  11.381 -0.2182 -0.0796  0.8079
   82TMC2    C8 1284   3.738   2.425  11.593  0.2717 -0.2242  0.2713
   82TMC2    O1 1285   3.664   1.952  11.490  0.2329 -0.3874  0.4105
   82TMC2    O2 1286   3.801   2.529  11.587  0.6290  0.4613  0.0696
   82TMC2    O5 1287   3.655   2.400  11.690  0.2287 -0.0455 -0.1088
   82TMC2    H5 1288   3.611   2.315  11.671  1.1212 -0.4849 -0.1984
   83MPD2     C 1289   3.809   2.751  10.759 -0.5154  0.5635 -1.0851
   83MPD2    C1 1290   3.716   2.649  10.751  0.3324  0.2823  0.1321
   83MPD2    C2 1291   3.700   2.576  10.868 -0.3346 -0.5048  0.4563
   83MPD2    C3 1292   3.755   2.610  10.990  0.3363 -0.0948  0.3485
   83MPD2    C4 1293   3.842   2.710  10.997 -0.6060  0.5848 -0.9029
   83MPD2    C5 1294   3.874   2.779  10.878  0.5067 -0.6029  0.6977
   83MPD2     H 1295   3.623   2.500  10.866  0.4471 -1.2165 -2.5227
   83MPD2    H1 1296   3.895   2.739  11.088 -1.4535  1.3844 -0.6673
   83MPD2    H2 1297   3.842   2.800  10.668  0.4946 -0.5237 -1.3165
   83MPD2    H3 1298   3.949   2.857  10.877 -0.6607  0.4859 -1.2391
   83MPD2     N 1299   3.733   2.536  11.109 -0.0350 -0.0763 -0.1970
   83MPD2    H5 1300   3.791   2.562  11.188  0.6622 -1.7614 -0.1559
   83MPD2    N1 1301   3.655   2.631  10.623  0.6168 -0.2164  0.0220
   83MPD2    H7 1302   3.699   2.693  10.556  1.3633  0.8500  1.5100
   84TMC2    C1 1303   1.125   1.640  10.887 -0.3275 -0.1365  0.8202
   84TMC2    C2 1304   1.251   1.619  10.932 -0.0548 -0.2086  0.2664
   84TMC2    C3 1305   1.362   1.623  10.849  0.2052 -0.5974  0.2275
   84TMC2    C4 1306   1.103   1.663  10.750  0.0534  0.1506 -0.4271
   84TMC2    C5 1307   1.214   1.669  10.667 -0.5049 -0.2773 -0.4074
   84TMC2    C6 1308   1.346   1.647  10.709  0.1243  0.1081  0.1388
   84TMC2     C 1309   1.019   1.601  10.980 -0.1615  0.7445 -0.2578
   84TMC2     O 1310   1.053   1.559  11.091 -0.3273 -0.2596  0.7920
   84TMC2     H 1311   1.273   1.608  11.038  0.5596  0.2452  0.1890
   84TMC2    H1 1312   1.007   1.635  10.710 -0.2434  0.4643  0.0670
   84TMC2    H2 1313   1.429   1.631  10.642  2.2911 -0.1634  2.8914
   84TMC2    C7 1314   1.177   1.658  10.523 -0.6924  0.4836 -0.1056
   84TMC2    C8 1315   1.489   1.605  10.915 -0.7973 -0.4081 -0.3845
   84TMC2    O1 1316   1.059   1.676  10.495  0.0239  0.6896 -0.4929
   84TMC2    O2 1317   1.496   1.563  11.028 -0.0063  0.3208  0.2371
   84TMC2    O5 1318   1.593   1.612  10.825  0.1045  0.7775  0.0124
   84TMC2    H5 1319   1.576   1.690  10.770  0.3887  0.1448 -0.9761
   85TMC2    C1 1320   0.981   4.062  15.977  0.3448  0.2985 -0.1827
   85TMC2    C2 1321   0.907   3.995  15.887 -0.5363  0.2132 -0.1672
   85TMC2    C3 1322   0.893   4.047  15.758  1.1947 -0.1240  0.2354
   85TMC2    C4 1323   1.052   4.177  15.945  0.7844 -0.0176 -0.1487
   85TMC2    C5 1324   1.041   4.217  15.811  0.0673 -0.0218  0.0083
   85TMC2    C6 1325   0.945   4.167  15.720  0.3689  0.1484 -0.6282
   85TMC2     C 1326   0.990   4.018  16.113  0.3946 -0.0741 -0.1825
   85TMC2     O 1327   1.009   4.101  16.201  0.0756 -0.3952  0.4328
   85TMC2     H 1328   0.870   3.899  15.920  0.2024  1.0013  2.9185
   85TMC2    H1 1329   1.116   4.219  16.023 -1.6172 -0.0369  1.8503
   85TMC2    H2 1330   0.949   4.196  15.616 -2.4121 -2.6598 -1.4938
   85TMC2    C7 1331   1.129   4.323  15.752 -0.0222  0.4684  0.1267
   85TMC2    C8 1332   0.800   3.985  15.660  0.2931 -0.0231  0.4125
   85TMC2    O1 1333   1.136   4.316  15.632  0.2443 -0.1144  0.0271
   85TMC2    O2 1334   0.798   4.012  15.544  0.2597 -0.1088 -0.4300
   85TMC2    O5 1335   0.699   3.920  15.724 -0.2940 -0.2244  0.2880
   85TMC2    H5 1336   0.708   3.884  15.815  1.8853 -1.5503 -0.4545
   86MPD2     C 1337   0.797   3.668  16.449  0.0064  0.6496  0.0526
   86MPD2    C1 1338   0.822   3.611  16.325  0.7857  0.1368  0.1412
   86MPD2    C2 1339   0.883   3.684  16.230  0.5443  0.8866  0.3017
   86MPD2    C3 1340   0.913   3.819  16.247  0.1142 -0.2147 -0.0095
   86MPD2    C4 1341   0.881   3.879  16.368  0.5380  0.4544  0.7942
   86MPD2    C5 1342   0.824   3.806  16.467  0.3164 -0.6469  0.6817
   86MPD2     H 1343   0.902   3.646  16.130 -1.6520  0.1177  0.1789
   86MPD2    H1 1344   0.898   3.985  16.387 -0.4556  0.7720 -0.0724
   86MPD2    H2 1345   0.727   3.631  16.523  2.1943 -0.2570  1.6802
   86MPD2    H3 1346   0.801   3.857  16.560  1.1649  1.3973 -0.2171
   86MPD2     N 1347   0.974   3.882  16.133  0.0655  0.4133  0.8428
   86MPD2    H5 1348   0.998   3.823  16.054  0.9320 -0.2793  1.6164
   86MPD2    N1 1349   0.776   3.486  16.277  0.1238  0.3586 -0.1694
   86MPD2    H7 1350   0.796   3.460  16.181 -0.5684  0.2100 -0.2660
   87TMC2    C1 1351   2.930   2.270   1.002 -0.4327 -0.3896  0.7520
   87TMC2    C2 1352   2.990   2.219   1.115  0.5249 -0.0167 -0.3760
   87TMC2    C3 1353   2.982   2.283   1.235  0.4385  0.0252  0.6223
   87TMC2    C4 1354   2.867   2.392   1.013  0.7671  0.0018 -0.1965
   87TMC2    C5 1355   2.859   2.453   1.137 -0.5457 -0.7769  0.8739
   87TMC2    C6 1356   2.915   2.402   1.251 -0.5460  0.3739  0.2164
   87TMC2     C 1357   2.943   2.212   0.872 -0.3236  0.3921 -0.3726
   87TMC2     O 1358   2.943   2.278   0.771  0.4119 -0.0620  0.2250
   87TMC2     H 1359   3.057   2.133   1.111 -0.8426 -1.0782 -0.7282
   87TMC2    H1 1360   2.823   2.433   0.923  0.0781  0.3792  0.3018
   87TMC2    H2 1361   2.887   2.441   1.348  2.0618  1.1972  0.6164
   87TMC2    C7 1362   2.765   2.560   1.145 -0.5917  0.6478 -0.2524
   87TMC2    C8 1363   3.049   2.219   1.343 -0.4977 -0.2495 -0.2397
   87TMC2    O1 1364   2.665   2.551   1.069 -0.1263 -0.2527  0.0218
   87TMC2    O2 1365   3.099   2.108   1.337 -0.0937  0.3112 -0.6753
   87TMC2    O5 1366   3.111   2.314   1.417  0.3211 -0.0866  0.7289
   87TMC2    H5 1367   3.092   2.409   1.405 -2.5945 -0.9303 -1.3539
   88MPD2     C 1368   2.798   2.882   1.312  0.0696 -0.0149  0.4843
   88MPD2    C1 1369   2.747   2.792   1.228  0.1612  0.0248  0.4266
   88MPD2    C2 1370   2.653   2.834   1.129 -0.5164 -0.0148 -0.2075
   88MPD2    C3 1371   2.630   2.967   1.112  0.2195  0.6130  0.1237
   88MPD2    C4 1372   2.705   3.065   1.182  0.3137  0.1631  0.8336
   88MPD2    C5 1373   2.780   3.018   1.289  0.2330 -0.3505 -0.7441
   88MPD2     H 1374   2.600   2.765   1.064 -0.8699 -0.4469  0.5386
   88MPD2    H1 1375   2.690   3.171   1.167 -2.1769 -0.2767  0.2843
   88MPD2    H2 1376   2.861   2.848   1.393 -0.6571 -0.2632  0.9448
   88MPD2    H3 1377   2.830   3.087   1.355  1.0248 -0.8062 -0.8668
   88MPD2     N 1378   2.547   3.023   1.011 -0.2645 -0.4014 -0.4252
   88MPD2    H5 1379   2.520   3.120   1.020  4.1228  0.6286  1.5459
   88MPD2    N1 1380   2.797   2.657   1.242  0.0550 -0.3218 -0.3070
   88MPD2    H7 1381   2.877   2.645   1.303  0.6595  1.2238 -0.7795
   89TMC2    C1 1382   0.127   0.555   1.451 -0.1859 -0.5985 -0.5674
   89TMC2    C2 1383   0.258   0.595   1.474 -0.3804  0.9144  0.2745
   89TMC2    C3 1384   0.288   0.723   1.487 -0.0625 -0.0232 -0.5681
   89TMC2    C4 1385   0.025   0.650   1.466  0.1069  0.3592  0.4504
   89TMC2    C5 1386   0.060   0.782   1.480 -0.2985  0.3525 -0.7928
   89TMC2    C6 1387   0.190   0.823   1.488  0.6956 -0.1841 -0.6246
   89TMC2     C 1388   0.095   0.423   1.411  0.0608  0.3985 -0.3499
   89TMC2     O 1389   0.187   0.365   1.357 -0.2078  0.2205  0.1506
   89TMC2     H 1390   0.334   0.519   1.488  0.4070  0.7572 -4.8222
   89TMC2    H1 1391   4.659   0.634   1.436 -0.1544  0.0741  1.5231
   89TMC2    H2 1392   0.221   0.927   1.486 -3.4910  1.0683 -1.3208
   89TMC2    C7 1393   4.692   0.870   1.513 -0.2350 -0.0642 -0.1136
   89TMC2    C8 1394   0.428   0.760   1.446  0.6812 -0.4603  0.1889
   89TMC2    O1 1395   4.599   0.824   1.577  0.3456 -0.4833 -0.3283
   89TMC2    O2 1396   0.491   0.684   1.368 -0.4550  0.1034  0.6427
   89TMC2    O5 1397   0.470   0.873   1.519 -0.1527 -0.2524  0.0004
   89TMC2    H5 1398   0.393   0.911   1.567 -0.1867 -1.6728  1.0867
   90MPD2     C 1399   4.540   0.001   1.443  0.0585  0.3285 -0.1623
   90MPD2    C1 1400   4.475   0.107   1.499  0.4620  0.1910 -0.7907
   90MPD2    C2 1401   4.527   0.230   1.507 -0.6334 -0.0393  0.6687
   90MPD2    C3 1402   4.660   0.249   1.453 -0.1736 -0.0022  0.1533
   90MPD2    C4 1403   4.726   0.144   1.404  0.0864 -0.5974 -0.2468
   90MPD2    C5 1404   4.671   0.025   1.398 -0.0607  0.1203 -0.6978
   90MPD2     H 1405   4.468   0.310   1.550 -1.3871 -0.2288 -0.0194
   90MPD2    H1 1406   0.083   0.159   1.352 -0.2322  1.0051 -0.3601
   90MPD2    H2 1407   4.505   4.635   1.438  1.6439 -0.1306 -1.7881
   90MPD2    H3 1408   4.720   4.679   1.347  0.9204  1.0071 -1.2111
   90MPD2     N 1409   4.711   0.378   1.458 -0.5954  0.4207 -0.5486
   90MPD2    H5 1410   4.654   0.445   1.509 -1.0729 -0.8318  0.5729
   90MPD2    N1 1411   4.350   0.095   1.563 -0.1706 -0.9318  0.0274
   90MPD2    H7 1412   4.316   0.175   1.614 -0.3791 -0.1762 -1.2800
   91TMC2    C1 1413   1.181   0.461  16.879  0.0483  0.0501 -0.3279
   91TMC2    C2 1414   1.209   0.573  16.954  0.0995 -0.0239  0.8361
   91TMC2    C3 1415   1.103   0.640  17.005 -0.3123  0.3608  0.2758
   91TMC2    C4 1416   1.052   0.420  16.864  0.4901  0.4631 -0.1124
   91TMC2    C5 1417   0.956   0.495  16.912 -0.7474  1.0424  0.3044
   91TMC2    C6 1418   0.977   0.605  16.986  0.5531  0.0711 -0.3024
   91TMC2     C 1419   1.281   0.361  16.866 -0.4024 -0.5697  0.1866
   91TMC2     O 1420   1.243   0.253  16.826  0.3413 -0.3625  0.4806
   91TMC2     H 1421   1.310   0.588  16.990  1.6574 -2.2276 -2.6529
   91TMC2    H1 1422   1.031   0.322  16.823 -0.8420  0.3304  0.8620
   91TMC2    H2 1423   0.891   0.661  17.023  0.9413  0.0171  0.6575
   91TMC2    C7 1424   0.821   0.442  16.923 -0.5535 -0.9030 -0.7130
   91TMC2    C8 1425   1.119   0.773  17.031 -0.3726 -0.0715 -0.3628
   91TMC2    O1 1426   0.743   0.497  16.995 -0.5204  0.1822  0.2463
   91TMC2    O2 1427   1.030   0.850  17.072 -0.3939 -0.6983  0.2338
   91TMC2    O5 1428   1.237   0.806  16.982  0.1574  0.2291  0.3858
   91TMC2    H5 1429   1.278   0.752  16.912  1.2763  0.9862  0.4635
   92MPD2     C 1430   1.525   0.181  16.849  0.2597 -0.5183  0.2689
   92MPD2    C1 1431   1.531   0.325  16.854 -0.1254 -0.5022 -0.1933
   92MPD2    C2 1432   1.657   0.391  16.837  0.2555 -0.2024  1.0686
   92MPD2    C3 1433   1.770   0.313  16.819 -0.3482 -0.0559 -0.8134
   92MPD2    C4 1434   1.761   0.176  16.811 -0.2450  0.8559 -0.1901
   92MPD2    C5 1435   1.641   0.112  16.829 -0.6904  0.0514 -0.4809
   92MPD2     H 1436   1.664   0.497  16.856 -0.8174  0.1101 -0.3383
   92MPD2    H1 1437   1.839   0.110  16.775  0.4835  2.6112 -1.7775
   92MPD2    H2 1438   1.428   0.133  16.850 -0.3911  0.7984  0.5017
   92MPD2    H3 1439   1.645   0.007  16.801 -2.1333  0.2693 -1.4985
   92MPD2     N 1440   1.894   0.379  16.803 -0.2035 -0.3394  0.2366
   92MPD2    H5 1441   1.896   0.479  16.815  1.5087 -0.2138 -1.1164
   92MPD2    N1 1442   1.413   0.407  16.862 -0.2914 -0.0470 -0.4988
   92MPD2    H7 1443   1.427   0.507  16.878 -1.5015  0.0874 -0.2936
   93TMC2    C1 1444   3.035   0.465  13.933 -0.1645  0.9043 -0.3181
   93TMC2    C2 1445   3.016   0.571  14.020 -0.6961 -1.1918  0.3113
   93TMC2    C3 1446   3.118   0.662  14.038 -0.1357 -0.3065 -0.3301
   93TMC2    C4 1447   3.154   0.450  13.857  0.7158 -0.4583  0.1675
   93TMC2    C5 1448   3.252   0.546  13.876  0.6154 -0.0255 -0.5529
   93TMC2    C6 1449   3.238   0.649  13.973  0.6990 -0.4606  0.4501
   93TMC2     C 1450   2.933   0.365  13.914  0.3831 -0.1636  0.8444
   93TMC2     O 1451   2.964   0.251  13.886 -0.1084  0.7105  0.2402
   93TMC2     H 1452   2.926   0.579  14.080 -0.7401  1.8854 -0.1854
   93TMC2    H1 1453   3.169   0.383  13.773 -1.7882  1.4521 -1.8084
   93TMC2    H2 1454   3.319   0.718  13.993  0.0783  0.2230  0.5961
   93TMC2    C7 1455   3.381   0.528  13.804 -0.7749  0.3071  0.0377
   93TMC2    C8 1456   3.078   0.791  14.091 -0.1240  0.1605  0.5848
   93TMC2    O1 1457   3.416   0.414  13.778 -0.1316 -0.4219  0.4698
   93TMC2    O2 1458   2.961   0.798  14.133 -0.0363  0.0948  0.0792
   93TMC2    O5 1459   3.127   0.868  13.993 -0.0161  0.1038  0.2977
   93TMC2    H5 1460   3.223   0.858  13.977 -0.0895  0.0348 -0.0878
   94MPD2     C 1461   2.678   0.216  13.940  1.0954  0.0366  0.1807
   94MPD2    C1 1462   2.689   0.354  13.928 -0.0485 -0.6825 -0.6703
   94MPD2    C2 1463   2.571   0.438  13.921 -0.0439  0.1515  0.3661
   94MPD2    C3 1464   2.446   0.377  13.926 -0.6853  0.3895  0.9884
   94MPD2    C4 1465   2.441   0.239  13.933  0.1722  0.6168 -0.3688
   94MPD2    C5 1466   2.555   0.159  13.944 -0.0950 -0.2140  0.1917
   94MPD2     H 1467   2.595   0.543  13.908  1.9047 -0.4799 -1.0727
   94MPD2    H1 1468   2.342   0.195  13.940  1.2473 -1.4455  1.4925
   94MPD2    H2 1469   2.761   0.148  13.956 -0.4776 -1.6442  1.1421
   94MPD2    H3 1470   2.549   0.054  13.967  0.9995 -0.3409 -0.0845
   94MPD2     N 1471   2.325   0.448  13.925  0.8187  0.7564 -0.4136
   94MPD2    H5 1472   2.242   0.390  13.915  0.6609  0.8040  0.6036
   94MPD2    N1 1473   2.815   0.417  13.927 -0.0417 -0.1404  0.4475
   94MPD2    H7 1474   2.818   0.519  13.927  1.2234 -0.1698  2.8174
   95TMC2    C1 1475   2.932   2.636  16.284  0.0154  0.0705 -0.0196
   95TMC2    C2 1476   2.913   2.548  16.391  0.7062 -0.5943  0.2319
   95TMC2    C3 1477   2.913   2.599  16.516 -0.4914  0.3732 -0.6186
   95TMC2    C4 1478   2.947   2.771  16.298 -0.1184  0.4418 -0.0915
   95TMC2    C5 1479   2.943   2.814  16.428  0.0733 -0.7567  0.4069
   95TMC2    C6 1480   2.925   2.729  16.537  0.3986 -0.3208 -0.0778
   95TMC2     C 1481   2.961   2.582  16.155 -0.2839 -0.6309 -0.5506
   95TMC2     O 1482   3.013   2.660  16.072  0.3046  0.1657 -0.5571
   95TMC2     H 1483   2.910   2.440  16.385  0.7959 -0.5681 -0.3296
   95TMC2    H1 1484   2.962   2.833  16.210 -0.0376 -0.7807 -0.9351
   95TMC2    H2 1485   2.920   2.764  16.639  0.4527 -0.9875  0.1544
   95TMC2    C7 1486   2.900   2.950  16.443  0.1344 -0.2677 -0.1189
   95TMC2    C8 1487   2.835   2.517  16.602  0.0350 -0.0391 -0.4486
   95TMC2    O1 1488   2.871   2.972  16.556  0.1483 -0.3976  0.2380
   95TMC2    O2 1489   2.862   2.404  16.643 -0.7983 -0.2957  0.0374
   95TMC2    O5 1490   2.705   2.553  16.569 -0.6711  0.3883 -0.3429
   95TMC2    H5 1491   2.700   2.638  16.520  2.1814  1.5329  1.3470
   96MPD2     C 1492   3.019   2.201  15.811 -0.5648  0.0123 -0.6017
   96MPD2    C1 1493   3.092   2.312  15.830  0.9025 -0.3474 -0.5139
   96MPD2    C2 1494   3.051   2.401  15.929 -0.6044  0.1692  0.7521
   96MPD2    C3 1495   2.956   2.372  16.019  0.1841 -0.0480 -0.4885
   96MPD2    C4 1496   2.895   2.248  16.010 -0.1587  0.1435  0.5205
   96MPD2    C5 1497   2.926   2.167  15.908  0.3129  0.1094 -0.1276
   96MPD2     H 1498   3.091   2.502  15.928 -0.8755  0.3122  4.1041
   96MPD2    H1 1499   2.825   2.213  16.085  0.6674 -2.5413  0.0672
   96MPD2    H2 1500   3.050   2.131  15.734 -1.1907 -0.9387 -0.0003
   96MPD2    H3 1501   2.897   2.062  15.904  1.3245 -0.1003 -1.8399
   96MPD2     N 1502   2.928   2.451  16.139 -0.1556  0.1873 -0.6076
   96MPD2    H5 1503   2.870   2.413  16.213 -0.1479 -1.6077 -1.5258
   96MPD2    N1 1504   3.198   2.354  15.735  0.2357 -0.4703  0.2310
   96MPD2    H7 1505   3.219   2.295  15.656  0.5526 -1.1823  0.8410
   97TMC2    C1 1506   0.184   0.094  17.584  0.3864 -0.1213  0.2101
   97TMC2    C2 1507   0.048   0.080  17.599 -0.1869  0.3787 -0.0853
   97TMC2    C3 1508   4.710   0.195  17.599 -0.5186 -0.0176  0.1258
   97TMC2    C4 1509   0.236   0.219  17.578 -0.1728 -0.3854 -0.7477
   97TMC2    C5 1510   0.159   0.333  17.586 -0.3224  0.7275 -0.4293
   97TMC2    C6 1511   0.026   0.322  17.592  0.6862  0.2825 -0.3163
   97TMC2     C 1512   0.272   4.724  17.639  0.0588  0.1913  0.0271
   97TMC2     O 1513   0.219   4.638  17.712 -0.0043  0.5369  0.4827
   97TMC2     H 1514   4.736   4.720  17.604  2.9376 -1.0774  2.0171
   97TMC2    H1 1515   0.343   0.238  17.567 -0.7221  3.1396  0.1690
   97TMC2    H2 1516   4.692   0.403  17.576  0.5432  0.1299 -0.4584
   97TMC2    C7 1517   0.229   0.458  17.614 -0.2200  0.6681 -0.2687
   97TMC2    C8 1518   4.579   0.159  17.550 -0.4160 -0.0595 -0.2418
   97TMC2    O1 1519   0.337   0.449  17.677 -0.3902  0.3554  0.3388
   97TMC2    O2 1520   4.560   0.073  17.469  0.9381 -0.1423  0.3620
   97TMC2    O5 1521   4.495   0.261  17.568  0.5115  0.0374  0.2378
   97TMC2    H5 1522   4.522   0.319  17.642 -1.1236  1.3485 -0.1775
   98MPD2     C 1523   0.722   4.484  17.676 -0.3212  0.4718 -0.1807
   98MPD2    C1 1524   0.621   4.488   0.027 -0.0668  0.2934  0.5328
   98MPD2    C2 1525   0.504   4.556  17.726  0.1702 -0.9045  0.6756
   98MPD2    C3 1526   0.491   4.625  17.606 -0.9136  0.4569 -0.0570
   98MPD2    C4 1527   0.599   4.613  17.521  0.2875  0.6583  0.5150
   98MPD2    C5 1528   0.712   4.544  17.557  0.2057 -0.2341  0.0383
   98MPD2     H 1529   0.419   4.563   0.048 -1.2888 -2.2868 -1.0424
   98MPD2    H1 1530   0.606   4.658  17.423  1.6886 -2.7401 -0.9468
   98MPD2    H2 1531   0.820   4.443  17.699 -1.7194 -0.4812  4.2215
   98MPD2    H3 1532   0.794   4.539  17.487  1.8163  1.3864  1.8291
   98MPD2     N 1533   0.386   4.711  17.568 -0.4541 -0.0556 -0.1587
   98MPD2    H5 1534   0.403   0.040  17.493 -1.2684 -0.3551 -0.6006
   98MPD2    N1 1535   0.612   4.430   0.154  1.7746  0.4010 -0.1304
   98MPD2    H7 1536   0.529   4.451   0.208  1.2082  1.6813 -1.4956
   99TMC2    C1 1537   3.968   0.539   1.998  0.2036  0.1858 -0.1010
   99TMC2    C2 1538   4.023   0.461   2.094 -0.6889  0.5284  0.6253
   99TMC2    C3 1539   3.963   0.465   2.217  0.4706  0.1919 -0.4139
   99TMC2    C4 1540   3.846   0.598   2.012  0.2997  0.5421 -0.9065
   99TMC2    C5 1541   3.785   0.586   2.131 -0.0330 -0.3938  0.4507
   99TMC2    C6 1542   3.839   0.518   2.238  0.2437  0.1352 -0.1151
   99TMC2     C 1543   4.039   0.534   1.875 -0.1707 -0.4372  0.5232
   99TMC2     O 1544   4.160   0.514   1.880 -0.3914  0.6348  0.4978
   99TMC2     H 1545   4.124   0.423   2.093 -0.4214  1.2391  1.0289
   99TMC2    H1 1546   3.803   0.662   1.936 -0.9494 -1.5259 -1.9413
   99TMC2    H2 1547   3.798   0.529   2.338  0.7879 -4.3507  0.5817
   99TMC2    C7 1548   3.649   0.635   2.143 -0.2681 -0.5482 -0.4455
   99TMC2    C8 1549   4.029   0.405   2.332  0.3634 -0.5473  0.2708
   99TMC2    O1 1550   3.605   0.650   2.256 -0.6792 -0.3847  0.4223
   99TMC2    O2 1551   4.150   0.400   2.349  0.7036  0.0343 -0.5252
   99TMC2    O5 1552   3.934   0.363   2.423  0.2720  0.2192  0.0574
   99TMC2    H5 1553   3.853   0.352   2.369 -0.0902 -0.7870  0.8079
  100MPD2     C 1554   4.134   0.589   1.593  0.2193 -0.3123 -0.5246
  100MPD2    C1 1555   4.004   0.575   1.635  0.7307 -0.6380 -0.0541
  100MPD2    C2 1556   3.913   0.595   1.537  0.0116 -0.2020 -0.3820
  100MPD2    C3 1557   3.942   0.626   1.404 -0.1213 -0.4365  0.9013
  100MPD2    C4 1558   4.080   0.645   1.370  0.2138  0.6787 -0.4617
  100MPD2    C5 1559   4.173   0.625   1.468  0.1051  0.6051 -0.2953
  100MPD2     H 1560   3.807   0.589   1.558 -0.2787 -2.8465 -2.4995
  100MPD2    H1 1561   4.115   0.675   1.272  0.0641  0.5984 -0.5406
  100MPD2    H2 1562   4.211   0.576   1.669  0.7468 -1.7592 -1.3150
  100MPD2    H3 1563   4.279   0.631   1.444  0.2022  0.4320  0.1057
  100MPD2     N 1564   3.845   0.654   1.314 -0.2799  0.0232  0.0948
  100MPD2    H5 1565   3.747   0.643   1.335 -0.3211 -1.4149 -0.8032
  100MPD2    N1 1566   3.961   0.561   1.769  0.5284  0.2902 -0.5073
  100MPD2    H7 1567   3.863   0.575   1.789  0.8310  1.7804 -0.0846
  101TMC2    C1 1568   4.514   3.114  13.444  0.1663  0.6088  0.3914
  101TMC2    C2 1569   4.446   3.184  13.543  0.1776 -0.4152 -0.5755
  101TMC2    C3 1570   4.383   3.297  13.509  0.2503  0.5102 -0.1363
  101TMC2    C4 1571   4.493   3.143  13.316 -0.0649 -0.6983 -1.2001
  101TMC2    C5 1572   4.423   3.256  13.282 -0.3882 -0.2344  0.4965
  101TMC2    C6 1573   4.376   3.341  13.375  0.6064  0.0277  0.3634
  101TMC2     C 1574   4.519   2.975  13.468 -1.1226 -0.1812  0.4103
  101TMC2     O 1575   4.449   2.936  13.561  0.5512 -0.1001 -0.3098
  101TMC2     H 1576   4.426   3.147  13.643 -0.2859  0.0143 -0.5106
  101TMC2    H1 1577   4.536   3.087  13.233 -0.6579  0.4339 -2.2689
  101TMC2    H2 1578   4.309   3.420  13.342  0.8365  1.3614  3.0985
  101TMC2    C7 1579   4.463   3.317  13.157  0.1554  0.2855 -0.5752
  101TMC2    C8 1580   4.306   3.374  13.604 -0.6086 -0.1950 -0.4527
  101TMC2    O1 1581   4.462   3.254  13.054 -0.5865 -0.3686 -0.0049
  101TMC2    O2 1582   4.248   3.335  13.707  0.1143  0.1884 -0.8941
  101TMC2    O5 1583   4.300   3.503  13.558  0.3263 -0.2482  0.7313
  101TMC2    H5 1584   4.344   3.529  13.474  0.8156 -1.2739  0.6696
  102MPD2     C 1585   4.639   2.699  13.254  1.0432 -0.0236 -0.1996
  102MPD2    C1 1586   4.554   2.768  13.341 -0.2674  0.0475  0.2856
  102MPD2    C2 1587   4.448   2.695  13.395  0.5941 -0.0479  0.1928
  102MPD2    C3 1588   4.415   2.569  13.351 -1.0292 -0.5503 -0.0601
  102MPD2    C4 1589   4.496   2.506  13.260  0.2240 -0.4025 -0.2435
  102MPD2    C5 1590   4.607   2.570  13.219 -0.1551  0.0797 -0.2394
  102MPD2     H 1591   4.396   2.743  13.477  1.8543 -0.3200  1.1436
  102MPD2    H1 1592   4.477   2.414  13.206 -2.2339  0.5468 -1.0343
  102MPD2    H2 1593   4.714   2.749  13.193  1.6531 -2.2871 -1.3297
  102MPD2    H3 1594   4.661   2.510  13.147 -0.0923 -2.1770  1.7244
  102MPD2     N 1595   4.295   2.518  13.403  0.4972  0.1851  0.2373
  102MPD2    H5 1596   4.240   2.583  13.459 -1.8201 -1.6544  0.1199
  102MPD2    N1 1597   4.586   2.902  13.375 -0.6743 -0.3175  0.2527
  102MPD2    H7 1598   4.660   2.941  13.317 -2.3930  0.6358 -1.2843
  103TMC2    C1 1599   2.702   3.949  12.643 -0.5563 -0.6194 -0.6670
  103TMC2    C2 1600   2.676   4.072  12.582 -0.1772  0.0107  0.2418
  103TMC2    C3 1601   2.550   4.136  12.610  0.0185 -0.5999  0.0226
  103TMC2    C4 1602   2.613   3.894  12.731  0.3209 -0.2947  0.4054
  103TMC2    C5 1603   2.489   3.960  12.750 -0.0758  0.1505  0.1588
  103TMC2    C6 1604   2.458   4.082  12.695 -0.2638 -0.1944 -0.3996
  103TMC2     C 1605   2.790   3.850  12.582 -0.5837 -0.0145 -0.4069
  103TMC2     O 1606   2.790   3.736  12.634 -0.4507  0.5949  0.4999
  103TMC2     H 1607   2.748   4.105  12.508  0.4652  0.7469  1.1894
  103TMC2    H1 1608   2.631   3.800  12.781 -2.1359 -1.5687 -1.0826
  103TMC2    H2 1609   2.357   4.123  12.690  0.5575  1.9568  0.5882
  103TMC2    C7 1610   2.386   3.888  12.813  0.6739 -0.0844 -0.3117
  103TMC2    C8 1611   2.490   4.234  12.524  0.2609  0.5098  0.1532
  103TMC2    O1 1612   2.412   3.833  12.924 -0.4008  0.2292 -0.3730
  103TMC2    O2 1613   2.420   4.323  12.574 -0.2780  0.4247 -0.1312
  103TMC2    O5 1614   2.503   4.185  12.400 -0.3291 -0.4645 -0.2017
  103TMC2    H5 1615   2.541   4.094  12.398 -1.8810 -1.0998 -0.9638
  104MPD2     C 1616   2.987   3.898  12.277  0.0215 -0.0459  0.5298
  104MPD2    C1 1617   2.912   3.833  12.373 -0.5346 -0.2202  0.2833
  104MPD2    C2 1618   2.873   3.703  12.350  0.5078 -0.0098 -0.1713
  104MPD2    C3 1619   2.888   3.636  12.232 -0.8000 -0.4365  0.3822
  104MPD2    C4 1620   2.966   3.702  12.137 -0.8210  0.1398 -0.6508
  104MPD2    C5 1621   3.012   3.825  12.159 -0.7409 -0.2908  0.4147
  104MPD2     H 1622   2.806   3.655  12.420 -0.8644 -0.2894 -1.6695
  104MPD2    H1 1623   2.991   3.659  12.041 -0.9302  0.5015 -0.8431
  104MPD2    H2 1624   3.009   4.004  12.283  2.8166 -0.6972  2.0335
  104MPD2    H3 1625   3.077   3.866  12.083  0.0700 -0.3109  1.0969
  104MPD2     N 1626   2.835   3.504  12.217  0.0408  0.4759  0.3367
  104MPD2    H5 1627   2.777   3.462  12.289 -0.5080 -0.1976 -0.4956
  104MPD2    N1 1628   2.872   3.896  12.490 -0.3438  0.2656 -0.0377
  104MPD2    H7 1629   2.883   3.997  12.480 -0.1669  0.3472  1.0317
  105TMC2    C1 1630   3.182   1.944   0.009  0.1542  0.6989  0.5187
  105TMC2    C2 1631   3.160   2.076  17.728 -0.9034 -0.6395 -0.1332
  105TMC2    C3 1632   3.047   2.130   0.040 -0.1173  0.9529  0.1110
  105TMC2    C4 1633   3.114   1.862   0.091 -0.7383  0.6636 -0.1515
  105TMC2    C5 1634   3.031   1.935   0.170 -0.9066  0.1689 -0.7324
  105TMC2    C6 1635   2.993   2.067   0.145  0.3968  0.4331  0.1028
  105TMC2     C 1636   3.288   1.876  17.682  0.3804 -0.5220 -1.0678
  105TMC2     O 1637   3.281   1.756  17.676 -0.1139  0.0696 -0.5314
  105TMC2     H 1638   3.220   2.136  17.661 -0.1679  0.6581  1.6867
  105TMC2    H1 1639   3.133   1.758   0.118  0.2833  1.4117  2.0339
  105TMC2    H2 1640   2.903   2.100   0.196  0.3601 -0.3933  0.5749
  105TMC2    C7 1641   2.988   1.881   0.296  0.2329 -0.3486  0.3012
  105TMC2    C8 1642   3.033   2.276   0.038  0.3054  0.2362 -0.5675
  105TMC2    O1 1643   2.960   1.762   0.294 -0.1246  0.0876 -0.0695
  105TMC2    O2 1644   3.113   2.349  17.718 -0.4574  0.1382  0.2378
  105TMC2    O5 1645   2.947   2.328   0.121  0.0360  0.1501 -0.0120
  105TMC2    H5 1646   2.894   2.260   0.168  0.8537  0.2779  1.0986
  106MPD2     C 1647   3.742   1.875  17.430 -0.4566 -0.2498 -0.5381
  106MPD2    C1 1648   3.723   1.997  17.496 -0.9821 -0.0251  0.9971
  106MPD2    C2 1649   3.605   2.019  17.566  0.3135  0.5282  0.1090
  106MPD2    C3 1650   3.514   1.914  17.583  0.1727  0.1168 -0.3287
  106MPD2    C4 1651   3.538   1.797  17.523 -0.2144 -0.6086  0.6263
  106MPD2    C5 1652   3.652   1.780  17.445  0.0806 -0.4552  0.4041
  106MPD2     H 1653   3.576   2.112  17.614 -1.1593  0.6351 -0.9676
  106MPD2    H1 1654   3.463   1.718  17.526 -1.1585  0.2394 -0.5267
  106MPD2    H2 1655   3.817   1.851  17.355  0.6739  0.0017  0.5089
  106MPD2    H3 1656   3.656   1.687  17.389  2.1697 -1.8434  2.8386
  106MPD2     N 1657   3.391   1.953  17.643  0.3851  0.0358 -0.0370
  106MPD2    H5 1658   3.392   2.049  17.676  3.3475  0.3184 -1.0002
  106MPD2    N1 1659   3.808   2.104  17.469  0.4115  0.0176  0.1520
  106MPD2    H7 1660   3.786   2.196  17.508  0.2063  0.9873 -2.2459
  107TMC2    C1 1661   0.463   1.592  11.751 -0.0400 -0.6719  0.3409
  107TMC2    C2 1662   0.586   1.582  11.806 -0.3096  0.2396 -0.4466
  107TMC2    C3 1663   0.687   1.550  11.719  0.3012 -0.7561 -0.4112
  107TMC2    C4 1664   0.441   1.572  11.613 -0.2686 -0.5069  0.5550
  107TMC2    C5 1665   0.542   1.530  11.530 -0.0492  0.1646 -0.0866
  107TMC2    C6 1666   0.666   1.522  11.586  0.3093  0.7352 -0.2895
  107TMC2     C 1667   0.353   1.633  11.827  0.2593  0.3768  0.5508
  107TMC2     O 1668   0.355   1.597  11.946  0.0140 -0.1476 -0.7577
  107TMC2     H 1669   0.593   1.624  11.906  0.2303 -0.9084 -0.0003
  107TMC2    H1 1670   0.341   1.572  11.570 -0.5195  1.1121  1.1277
  107TMC2    H2 1671   0.750   1.489  11.527  1.0732 -0.4427  1.4441
  107TMC2    C7 1672   0.520   1.547  11.386  0.3240  0.0065 -0.2184
  107TMC2    C8 1673   0.817   1.527  11.762 -0.3380 -0.4343 -0.0709
  107TMC2    O1 1674   0.407   1.584  11.351  0.5175 -0.3859 -0.4347
  107TMC2    O2 1675   0.914   1.528  11.690 -0.1531  0.0153  0.0627
  107TMC2    O5 1676   0.804   1.442  11.870  0.2575  0.5575  0.2781
  107TMC2    H5 1677   0.712   1.451  11.903  0.3932  1.3012  0.4502
  108MPD2     C 1678   0.091   1.868  11.725 -0.2472 -0.0105 -0.1053
  108MPD2    C1 1679   0.151   1.770  11.804 -0.3236 -0.5243 -0.2998
  108MPD2    C2 1680   0.098   1.741  11.931 -0.3877  0.2890 -0.0462
  108MPD2    C3 1681   4.712   1.800  11.969  0.4248 -0.1256  0.0449
  108MPD2    C4 1682   4.650   1.895  11.886 -0.2201 -0.7802 -0.4822
  108MPD2    C5 1683   4.709   1.929  11.764  1.2124  0.3175 -0.6281
  108MPD2     H 1684   0.141   1.661  11.990 -2.8506 -0.4803  0.7232
  108MPD2    H1 1685   4.568   1.959  11.916 -1.5276 -4.2290  3.3258
  108MPD2    H2 1686   0.140   1.892  11.632  1.7304 -0.1198  0.9096
  108MPD2    H3 1687   4.661   2.006  11.705 -0.9023  0.8521  1.8300
  108MPD2     N 1688   4.649   1.775  12.093  0.3273 -0.1940  0.3490
  108MPD2    H5 1689   4.553   1.808  12.102  1.0834  1.6911  1.8035
  108MPD2    N1 1690   0.273   1.716  11.759 -0.0228 -0.4729  0.5955
  108MPD2    H7 1691   0.310   1.743  11.668 -1.4016 -1.5096 -0.2779
  109TMC2    C1 1692   4.440   3.657   0.401  0.5442  0.4942  0.1122
  109TMC2    C2 1693   4.414   3.563   0.308  0.1848  0.3852  0.1834
  109TMC2    C3 1694   4.523   3.526   0.235  0.2742  0.9183 -0.8904
  109TMC2    C4 1695   4.566   3.699   0.439  0.6495 -0.3373  0.9099
  109TMC2    C5 1696   4.667   3.635   0.372 -0.3786 -0.0517  0.6349
  109TMC2    C6 1697   4.647   3.557   0.264 -0.0077  0.0649  0.1828
  109TMC2     C 1698   4.334   3.676   0.496  0.4413 -0.1384 -0.4446
  109TMC2     O 1699   4.242   3.595   0.480  0.2073  0.5343  0.1149
  109TMC2     H 1700   4.313   3.540   0.277  0.5583  0.6320 -1.1971
  109TMC2    H1 1701   4.585   3.755   0.529  1.7422  1.8385 -0.6845
  109TMC2    H2 1702   4.722   3.537   0.189 -0.4426 -1.7967  0.2491
  109TMC2    C7 1703   0.062   3.695   0.392  0.2487 -0.5291 -0.0245
  109TMC2    C8 1704   4.492   3.461   0.109 -0.4268 -0.0957 -0.3431
  109TMC2    O1 1705   0.065   3.796   0.460  0.5019 -0.0063 -0.2118
  109TMC2    O2 1706   4.573   3.471   0.017 -0.8072 -0.3270 -0.0729
  109TMC2    O5 1707   4.361   3.416   0.091  0.7344  0.2117 -0.1567
  109TMC2    H5 1708   4.316   3.396   0.176  1.2777 -1.0642 -0.1699
  110MPD2     C 1709   4.107   3.905   0.881  0.0880 -0.5124 -0.0803
  110MPD2    C1 1710   4.237   3.951   0.873  0.0630  0.2188 -0.7854
  110MPD2    C2 1711   4.315   3.918   0.767  0.7753 -0.5650  0.5579
  110MPD2    C3 1712   4.267   3.828   0.674 -0.0706 -0.2913  0.4492
  110MPD2    C4 1713   4.144   3.764   0.694 -0.8180  0.7261  0.0005
  110MPD2    C5 1714   4.068   3.803   0.799  0.4221 -0.4530  0.8978
  110MPD2     H 1715   4.422   3.937   0.767  0.4463  1.1609 -2.2103
  110MPD2    H1 1716   4.100   3.697   0.620  1.3926 -1.5419  0.7340
  110MPD2    H2 1717   4.040   3.934   0.962  0.1608 -0.2739 -0.1035
  110MPD2    H3 1718   3.974   3.749   0.804  0.6441 -0.8454  0.8708
  110MPD2     N 1719   4.346   3.791   0.571 -0.4409  0.3563  0.0718
  110MPD2    H5 1720   4.427   3.849   0.550  0.2639 -1.2103 -1.5903
  110MPD2    N1 1721   4.271   4.044   0.969  0.0765 -0.4910  0.7113
  110MPD2    H7 1722   4.191   4.068   1.027  0.5202 -1.5815  1.7711
  111TMC2    C1 1723   3.803   3.517  11.645  0.1674 -0.2233  0.7296
  111TMC2    C2 1724   3.701   3.494  11.730  0.0612 -0.5253 -0.4091
  111TMC2    C3 1725   3.736   3.431  11.846  0.2545  0.2369  0.5920
  111TMC2    C4 1726   3.933   3.494  11.672  0.4950 -0.6904 -0.3392
  111TMC2    C5 1727   3.957   3.420  11.784  0.1023 -0.2048  0.1109
  111TMC2    C6 1728   3.858   3.382  11.870  0.6873 -1.6712 -0.5433
  111TMC2     C 1729   3.797   3.617  11.547  0.3424  0.1880 -0.7653
  111TMC2     O 1730   3.859   3.593  11.443 -0.3470 -0.1325  1.0647
  111TMC2     H 1731   3.599   3.517  11.701 -0.1707 -0.3315  0.5771
  111TMC2    H1 1732   4.016   3.530  11.614  0.3877  0.9533  0.5415
  111TMC2    H2 1733   3.877   3.303  11.942  0.9095 -0.2102  0.9891
  111TMC2    C7 1734   4.088   3.401  11.840 -0.2674 -0.3431 -0.2384
  111TMC2    C8 1735   3.626   3.364  11.915 -0.0694  0.3546  0.3494
  111TMC2    O1 1736   4.091   3.393  11.961  0.4656 -0.1381 -0.2821
  111TMC2    O2 1737   3.518   3.332  11.863 -0.5251  0.2774 -0.2615
  111TMC2    O5 1738   3.666   3.352  12.043 -0.6362 -0.1451 -0.1449
  111TMC2    H5 1739   3.740   3.408  12.072  0.6699 -2.8750  1.8555
  112MPD2     C 1740   3.786   4.123  11.452  0.5233 -0.3355  0.4774
  112MPD2    C1 1741   3.871   4.027  11.399  0.1525 -0.0795  0.2106
  112MPD2    C2 1742   3.858   3.899  11.446  0.2856 -0.2264  0.6944
  112MPD2    C3 1743   3.748   3.857  11.527 -0.4575  0.3036  0.0033
  112MPD2    C4 1744   3.668   3.956  11.574 -0.2818 -0.0671  0.2266
  112MPD2    C5 1745   3.688   4.083  11.545  0.1867 -0.6819 -0.4055
  112MPD2     H 1746   3.924   3.819  11.414  0.1367  1.0555 -2.7509
  112MPD2    H1 1747   3.588   3.935  11.644  0.6640 -0.4919  1.1755
  112MPD2    H2 1748   3.794   4.231  11.439 -0.4426 -0.2638  0.5197
  112MPD2    H3 1749   3.616   4.161  11.564  0.9072 -0.2810  0.6678
  112MPD2     N 1750   3.726   3.729  11.585  0.8243 -0.3814  0.4976
  112MPD2    H5 1751   3.673   3.718  11.671 -0.6760 -2.3316 -0.6842
  112MPD2    N1 1752   3.975   4.068  11.307 -0.0751  0.0486 -0.6203
  112MPD2    H7 1753   3.965   4.166  11.283 -0.2390  0.6526  1.8851
  113TMC2    C1 1754   2.489   1.380   0.742  0.2014 -0.3575 -0.5020
  113TMC2    C2 1755   2.402   1.474   0.701 -0.0447  1.1186  0.0099
  113TMC2    C3 1756   2.288   1.447   0.630 -0.2358  0.1674 -0.0796
  113TMC2    C4 1757   2.474   1.247   0.712  0.1536 -0.0927 -0.5758
  113TMC2    C5 1758   2.367   1.221   0.633 -0.9242 -0.5306  0.4110
  113TMC2    C6 1759   2.274   1.317   0.594  0.2579 -0.2807  0.2961
  113TMC2     C 1760   2.601   1.420   0.834  0.5115 -0.0156  0.4484
  113TMC2     O 1761   2.592   1.541   0.860 -0.2564  0.6332  0.1277
  113TMC2     H 1762   2.408   1.576   0.738 -0.1826  0.8832  0.6784
  113TMC2    H1 1763   2.549   1.173   0.738 -0.2476 -0.1743  0.3567
  113TMC2    H2 1764   2.178   1.286   0.554  0.6155 -0.4175 -0.4637
  113TMC2    C7 1765   2.322   1.082   0.606 -0.6250  0.2851  0.1389
  113TMC2    C8 1766   2.189   1.543   0.635 -0.2964 -0.3233 -0.1911
  113TMC2    O1 1767   2.255   1.064   0.503 -0.1755  0.3908  0.3897
  113TMC2    O2 1768   2.173   1.618   0.727 -0.7764 -0.2236  0.1843
  113TMC2    O5 1769   2.087   1.508   0.547  0.1446  0.5246 -0.3795
  113TMC2    H5 1770   2.123   1.462   0.468  1.2293 -2.0911  1.6480
  114MPD2     C 1771   2.982   1.335   1.153 -0.7305 -0.8212 -0.0245
  114MPD2    C1 1772   2.909   1.450   1.137 -0.1118  0.6977  0.7635
  114MPD2    C2 1773   2.820   1.451   1.033  0.3630  0.5654 -0.8382
  114MPD2    C3 1774   2.795   1.333   0.964  0.5567 -0.5887  0.5953
  114MPD2    C4 1775   2.869   1.217   0.979  0.7841 -0.4287  0.8161
  114MPD2    C5 1776   2.966   1.229   1.071  0.2782  0.0514 -0.1378
  114MPD2     H 1777   2.756   1.535   1.007 -2.9449 -0.9792  2.2948
  114MPD2    H1 1778   2.858   1.124   0.924 -0.3510  0.0770  0.1911
  114MPD2    H2 1779   3.056   1.313   1.229 -0.4799  0.9287  0.2443
  114MPD2    H3 1780   3.028   1.142   1.088 -0.1275 -0.0216  0.9368
  114MPD2     N 1781   2.692   1.319   0.869  0.2420 -0.1699 -0.5871
  114MPD2    H5 1782   2.673   1.229   0.828  0.5916 -1.2041  1.5290
  114MPD2    N1 1783   2.924   1.561   1.224 -0.1908 -0.0566 -0.6858
  114MPD2    H7 1784   2.855   1.635   1.222 -1.0997 -0.9135 -0.8524
  115TMC2    C1 1785   3.895   4.413  17.380  0.8531 -0.4457  0.0581
  115TMC2    C2 1786   4.028   4.399  17.422 -0.7142 -0.3754 -0.3246
  115TMC2    C3 1787   4.103   4.512  17.419 -0.5134 -0.8148 -0.7612
  115TMC2    C4 1788   3.846   4.521  17.321 -0.1077 -0.5492  0.4630
  115TMC2    C5 1789   3.931   4.629  17.312  0.4520 -0.0921  0.0004
  115TMC2    C6 1790   4.060   4.627  17.359 -0.4175  0.7098  0.1592
  115TMC2     C 1791   3.806   4.304  17.397 -0.3252 -1.4633 -0.6958
  115TMC2     O 1792   3.692   4.319  17.364  0.1724 -0.4476 -0.0038
  115TMC2     H 1793   4.070   4.319  17.483  1.5499  0.7283 -0.4316
  115TMC2    H1 1794   3.740   4.525  17.297 -0.2326 -2.9881  0.5594
  115TMC2    H2 1795   4.127   4.712  17.355 -0.3227  0.6600  0.6393
  115TMC2    C7 1796   3.870   0.009  17.258  0.2173  0.1574 -0.4237
  115TMC2    C8 1797   4.229   4.507  17.491 -0.2202  0.1894  0.5247
  115TMC2    O1 1798   3.767   4.730  17.192 -0.1055 -0.9435  0.1507
  115TMC2    O2 1799   4.298   4.399  17.503 -0.5794 -0.3437  0.3753
  115TMC2    O5 1800   4.212   4.600  17.587  0.1103  0.1651 -0.2376
  115TMC2    H5 1801   4.143   4.666  17.565 -0.5014  0.1967  1.7597
  116MPD2     C 1802   3.687   3.870  17.642 -0.2685 -0.6561 -0.4543
  116MPD2    C1 1803   3.615   3.938  17.545 -0.1162  0.1480  0.2496
  116MPD2    C2 1804   3.674   4.048  17.486  0.4132 -0.1938  0.6361
  116MPD2    C3 1805   3.797   4.087  17.530 -0.1196  0.4707 -0.0094
  116MPD2    C4 1806   3.864   4.015  17.628  0.2557 -0.1890 -0.4587
  116MPD2    C5 1807   3.806   3.911  17.692  0.5580 -0.1885  0.8511
  116MPD2     H 1808   3.627   4.102  17.405 -0.8457 -1.0492  0.8020
  116MPD2    H1 1809   3.961   4.048  17.662  0.5485  0.2313 -1.7056
  116MPD2    H2 1810   3.643   3.786  17.694 -2.2413 -0.3952 -1.7054
  116MPD2    H3 1811   3.862   3.862   0.026 -1.7611  1.2045  3.3643
  116MPD2     N 1812   3.862   4.207  17.478  0.1614  0.0843 -0.4732
  116MPD2    H5 1813   3.950   4.231  17.523  0.7454 -1.7566 -0.6602
  116MPD2    N1 1814   3.479   3.893  17.510 -0.1164  0.5375 -0.2869
  116MPD2    H7 1815   3.449   3.810  17.559  2.6042  1.1462  2.3903
  117TMC2    C1 1816   2.443   1.324  13.909  0.0535  0.9541  0.0283
  117TMC2    C2 1817   2.579   1.303  13.922  0.5544  0.5312 -0.2368
  117TMC2    C3 1818   2.658   1.389  13.850  0.5777 -0.2782 -0.8009
  117TMC2    C4 1819   2.386   1.420  13.837 -0.1732 -0.0121 -0.4048
  117TMC2    C5 1820   2.476   1.503  13.772 -0.3523 -1.0624 -0.4234
  117TMC2    C6 1821   2.607   1.489  13.772  0.1873  0.3102 -1.6045
  117TMC2     C 1822   2.366   1.236  13.996  0.3811  0.0961 -0.5922
  117TMC2     O 1823   2.410   1.221  14.105 -0.3594  0.0396 -0.6907
  117TMC2     H 1824   2.620   1.232  13.993  2.5418  0.1149 -1.7805
  117TMC2    H1 1825   2.278   1.428  13.841 -0.0548  0.9279  0.9811
  117TMC2    H2 1826   2.671   1.551  13.710  0.5175  1.7828  0.2336
  117TMC2    C7 1827   2.426   1.640  13.735 -0.5492  0.0639 -0.2126
  117TMC2    C8 1828   2.793   1.348  13.823 -0.0476  0.2544 -0.4318
  117TMC2    O1 1829   2.497   1.705  13.659 -0.0484  0.0384  0.3651
  117TMC2    O2 1830   2.860   1.423  13.756  0.4975  0.0182  0.2791
  117TMC2    O5 1831   2.819   1.219  13.848 -0.2588  0.1460  0.0778
  117TMC2    H5 1832   2.751   1.169  13.899 -0.4623  0.5608  0.2203
  118MPD2     C 1833   2.230   1.829  13.978  0.7088 -0.6689 -0.4793
  118MPD2    C1 1834   2.301   1.811  13.861  0.0924 -0.5817 -0.3089
  118MPD2    C2 1835   2.334   1.922  13.780 -0.4896 -0.2321 -0.1042
  118MPD2    C3 1836   2.298   2.052  13.818  0.1519  0.5301 -0.8097
  118MPD2    C4 1837   2.233   2.069  13.939 -0.0060 -0.7251  0.1151
  118MPD2    C5 1838   2.191   1.957  14.016  0.0345  0.4830  0.4411
  118MPD2     H 1839   2.385   1.904  13.686 -0.3690  0.2066 -0.1211
  118MPD2    H1 1840   2.209   2.169  13.972  2.3327  0.8467 -2.9677
  118MPD2    H2 1841   2.185   1.748  14.035 -0.5439 -0.1486 -0.7463
  118MPD2    H3 1842   2.133   1.959  14.108  0.8628 -2.3974  1.0386
  118MPD2     N 1843   2.332   2.175  13.742  0.1403  0.0299 -0.1207
  118MPD2    H5 1844   2.292   2.262  13.774 -1.0827 -0.5636 -0.0182
  118MPD2    N1 1845   2.341   1.681  13.834  0.2565  0.1954 -0.3203
  118MPD2    H7 1846   2.306   1.621  13.908  0.8973  3.7873  2.8507
  119TMC2    C1 1847   1.049   2.240  13.651 -0.3865 -0.1762 -0.3322
  119TMC2    C2 1848   1.125   2.134  13.679  0.1152 -0.0506 -0.6018
  119TMC2    C3 1849   1.072   2.007  13.643 -0.1154  0.2224  0.4101
  119TMC2    C4 1850   0.921   2.230  13.595 -0.7264  0.3054 -0.1662
  119TMC2    C5 1851   0.877   2.104  13.553 -0.5651  0.5048 -0.3345
  119TMC2    C6 1852   0.949   1.987  13.583 -0.2825  0.4247  0.2418
  119TMC2     C 1853   1.106   2.372  13.684  0.1594 -0.0550 -0.0749
  119TMC2     O 1854   1.177   2.378  13.783  0.2444  0.1291 -0.1478
  119TMC2     H 1855   1.227   2.153  13.710 -0.8826  1.0876  1.9492
  119TMC2    H1 1856   0.860   2.319  13.584 -0.2847  0.4087 -1.6817
  119TMC2    H2 1857   0.932   1.894  13.530  1.6344  0.2643 -0.0924
  119TMC2    C7 1858   0.742   2.085  13.502 -0.0529 -0.2728  0.1420
  119TMC2    C8 1859   1.165   1.898  13.639  0.4256 -0.8724 -0.5233
  119TMC2    O1 1860   0.669   2.182  13.523 -0.6173 -0.8257  0.0299
  119TMC2    O2 1861   1.141   1.777  13.634 -0.0600 -0.6388 -0.1453
  119TMC2    O5 1862   1.268   1.950  13.570  0.1690 -0.2445 -0.1657
  119TMC2    H5 1863   1.290   2.045  13.565  0.5856 -0.4346 -1.8399
  120MPD2     C 1864   1.054   2.873  13.718 -0.1270 -0.5899 -0.0351
  120MPD2    C1 1865   0.944   2.812  13.662 -0.1361  0.0798  0.6376
  120MPD2    C2 1866   0.948   2.683  13.613 -0.6262  0.2850  0.1178
  120MPD2    C3 1867   1.059   2.609  13.644 -0.4160 -0.1994 -0.7197
  120MPD2    C4 1868   1.169   2.668  13.701 -0.5587 -0.0596 -0.0232
  120MPD2    C5 1869   1.171   2.804  13.715  0.3668  0.3311  0.8792
  120MPD2     H 1870   0.857   2.640  13.573 -0.9180  1.1042 -0.0876
  120MPD2    H1 1871   1.252   2.603  13.725 -0.3524  0.1795 -0.0777
  120MPD2    H2 1872   1.054   2.976  13.754  2.0415 -0.8303  0.6731
  120MPD2    H3 1873   1.263   2.845  13.756  0.0069  2.3065 -0.3067
  120MPD2     N 1874   1.047   2.474  13.614 -0.2252  0.3935 -0.2609
  120MPD2    H5 1875   0.997   2.442  13.532  1.0242 -1.6538 -0.2244
  120MPD2    N1 1876   0.825   2.884  13.673 -0.0197  0.0607 -0.5934
  120MPD2    H7 1877   0.834   2.985  13.668 -0.1090  0.0664 -0.6386
  121TMC2    C1 1878   1.888   3.989  14.135  0.8959 -0.1813 -0.5285
  121TMC2    C2 1879   1.815   3.997  14.250 -0.0002 -0.2791  0.1883
  121TMC2    C3 1880   1.682   4.007  14.236  0.1673  0.2413  0.7240
  121TMC2    C4 1881   1.831   4.011  14.011 -0.6829 -1.0495  0.5757
  121TMC2    C5 1882   1.697   4.032  14.005  0.2688  0.1155  0.3962
  121TMC2    C6 1883   1.619   4.045  14.120  0.6680  0.8842 -0.2782
  121TMC2     C 1884   2.031   4.002  14.143 -0.3633 -0.6691 -0.0998
  121TMC2     O 1885   2.082   3.996  14.250 -0.9323 -0.0119 -0.2916
  121TMC2     H 1886   1.872   3.971  14.339  1.5077  1.8594 -0.1506
  121TMC2    H1 1887   1.884   4.002  13.918 -0.3967  0.3530  0.6055
  121TMC2    H2 1888   1.512   4.056  14.110  0.3824  0.2686  2.0591
  121TMC2    C7 1889   1.637   4.016  13.868 -0.4369 -0.3382  0.3316
  121TMC2    C8 1890   1.590   3.955  14.332  0.5859  0.0782 -0.1661
  121TMC2    O1 1891   1.714   4.009  13.773  0.0048  0.1489  0.1235
  121TMC2    O2 1892   1.477   3.994  14.344  0.0335  0.4538 -0.5486
  121TMC2    O5 1893   1.661   3.873  14.418 -0.1405 -0.2650 -0.3758
  121TMC2    H5 1894   1.606   3.832  14.488  0.9984 -3.2607 -1.2420
  122MPD2     C 1895   2.322   3.990  14.090  0.4007 -0.3747  0.5774
  122MPD2    C1 1896   2.232   4.033  13.999  0.2606 -0.3211 -0.0936
  122MPD2    C2 1897   2.273   4.077  13.876  0.3453  0.1868  0.1695
  122MPD2    C3 1898   2.399   4.047  13.832  0.2630  0.2067 -0.1630
  122MPD2    C4 1899   2.490   3.995  13.921  0.7235  0.0290  0.1506
  122MPD2    C5 1900   2.451   3.986  14.051 -0.3187  0.2387  0.5152
  122MPD2     H 1901   2.208   4.134  13.810 -0.0347 -0.3954  0.0446
  122MPD2    H1 1902   2.595   3.978  13.897  0.8570 -1.1451  1.6010
  122MPD2    H2 1903   2.300   3.959  14.192  1.6885 -2.1471  0.3083
  122MPD2    H3 1904   2.514   3.952  14.132  1.3985  0.7145 -0.6247
  122MPD2     N 1905   2.443   4.102  13.711 -0.6229  0.0936 -0.6842
  122MPD2    H5 1906   2.381   4.166  13.664 -1.8238 -1.2150 -0.8681
  122MPD2    N1 1907   2.094   4.031  14.020  0.3431  0.2532 -0.3610
  122MPD2    H7 1908   2.030   4.070  13.950 -0.1347 -0.9863 -0.6186
  123TMC2    C1 1909   0.720   2.505  11.095  0.0794 -0.1060 -0.4013
  123TMC2    C2 1910   0.766   2.635  11.122 -0.9636 -0.8518  0.3590
  123TMC2    C3 1911   0.883   2.673  11.059  0.2272  0.3175  0.3986
  123TMC2    C4 1912   0.794   2.415  11.027 -0.1086 -0.0039 -0.9153
  123TMC2    C5 1913   0.918   2.462  10.977  0.2994  0.4576  1.1086
  123TMC2    C6 1914   0.960   2.592  10.981 -0.6539  0.0037 -0.1373
  123TMC2     C 1915   0.609   2.456  11.170 -0.3029  0.1765  1.0262
  123TMC2     O 1916   0.568   2.537  11.255  0.2037  0.2003  0.1214
  123TMC2     H 1917   0.723   2.703  11.195  1.9343  3.4980 -1.9641
  123TMC2    H1 1918   0.767   2.311  11.019 -0.8860  0.1997 -1.0060
  123TMC2    H2 1919   1.041   2.627  10.919  1.4084  0.8746  3.0247
  123TMC2    C7 1920   0.979   2.371  10.875 -0.6331  0.0806 -0.4812
  123TMC2    C8 1921   0.934   2.809  11.080  0.2563 -0.6124  0.6062
  123TMC2    O1 1922   0.928   2.263  10.857  0.0693 -0.3576 -0.3239
  123TMC2    O2 1923   0.859   2.901  11.115  0.2848  0.2548  0.6362
  123TMC2    O5 1924   1.068   2.803  11.100 -0.2083 -0.2025 -0.1589
  123TMC2    H5 1925   1.110   2.716  11.086 -1.9516 -0.8951 -1.0570
  124MPD2     C 1926   0.225   2.122  11.251 -0.3027  0.3899 -0.2236
  124MPD2    C1 1927   0.302   2.081  11.142 -0.0191  0.3120  0.0309
  124MPD2    C2 1928   0.401   2.161  11.105  0.4517 -0.7826  0.6275
  124MPD2    C3 1929   0.438   2.283  11.163  0.4311  0.5426 -0.0539
  124MPD2    C4 1930   0.356   2.323  11.271 -0.3199  0.0395 -0.0061
  124MPD2    C5 1931   0.253   2.239  11.311 -0.2444  0.1795 -0.0785
  124MPD2     H 1932   0.452   2.133  11.014 -1.9003 -2.7320 -0.0628
  124MPD2    H1 1933   0.372   2.415  11.325 -1.5434 -1.2305  2.5237
  124MPD2    H2 1934   0.143   2.063  11.291 -1.6669  2.5882  0.1860
  124MPD2    H3 1935   0.185   2.259  11.393  0.1518  3.0595 -0.4468
  124MPD2     N 1936   0.561   2.339  11.120 -0.0266  0.0765  0.2174
  124MPD2    H5 1937   0.605   2.311  11.033 -1.4265  0.0090 -0.4713
  124MPD2    N1 1938   0.265   1.961  11.086 -0.4297  0.5854 -0.2242
  124MPD2    H7 1939   0.187   1.908  11.124  1.2270 -1.2900  0.5664
  125TMC2    C1 1940   0.772   3.787   9.834  0.0064  0.3173 -0.3664
  125TMC2    C2 1941   0.866   3.862   9.904  0.1602 -0.2880  0.5342
  125TMC2    C3 1942   0.881   3.994   9.870  0.4387 -0.7263  0.2577
  125TMC2    C4 1943   0.702   3.837   9.724 -0.4642 -0.1866 -0.1741
  125TMC2    C5 1944   0.718   3.973   9.699  0.3235  0.6216 -0.1110
  125TMC2    C6 1945   0.803   4.051   9.770 -0.0042  0.4325  0.2103
  125TMC2     C 1946   0.758   3.648   9.875 -0.4914  0.2441 -0.1684
  125TMC2     O 1947   0.831   3.615   9.967  0.2891 -0.2025 -0.3079
  125TMC2     H 1948   0.918   3.813   9.986 -1.6003 -0.2012  1.7194
  125TMC2    H1 1949   0.635   3.777   9.664  0.2188 -1.3283  0.2013
  125TMC2    H2 1950   0.825   4.154   9.744 -0.5967  0.0157 -2.0032
  125TMC2    C7 1951   0.653   4.026   9.581  0.4586  0.2816  0.8682
  125TMC2    C8 1952   0.952   4.087   9.962 -0.5457  0.2160 -0.0679
  125TMC2    O1 1953   0.645   3.935   9.497 -0.4399 -0.2490 -0.3591
  125TMC2    O2 1954   0.920   4.197  10.001 -0.1703  0.3367  0.3276
  125TMC2    O5 1955   1.055   4.015  10.010  0.0152 -0.1432  0.2460
  125TMC2    H5 1956   1.070   3.936   9.955  0.6554 -0.4226  0.8288
  126MPD1     C 1957   0.483   3.223   9.935 -0.4820 -1.2984 -0.3061
  126MPD1    C1 1958   0.449   3.271   9.813 -0.2132 -0.5324  1.0108
  126MPD1    C2 1959   0.511   3.388   9.776 -0.5961  0.6449 -0.1402
  126MPD1    C3 1960   0.623   3.445   9.846 -0.4516  0.2068  0.1061
  126MPD1    C4 1961   0.671   3.367   9.949  0.2941  0.1916 -0.4717
  126MPD1    C5 1962   0.591   3.265  10.001  0.3843  0.3576 -0.0305
  126MPD1     H 1963   0.472   3.445   9.692 -1.6859 -0.2917 -0.2734
  126MPD1    H1 1964   0.753   3.405  10.009 -1.9733  0.8312  2.2423
  126MPD1    H2 1965   0.412   3.158   9.984 -2.8200  0.6624 -1.1385
  126MPD1    H3 1966   0.611   3.226  10.100  2.0145  1.3676  0.0475
  126MPD1     N 1967   0.668   3.569   9.810 -0.0011 -0.8135 -0.1370
  126MPD1    H5 1968   0.630   3.611   9.725 -3.3350  0.4834  1.9916
  126MPD1    N1 1969   0.329   3.230   9.757  0.1209 -0.2308 -0.2355
  126MPD1    H6 1970   0.337   3.230   9.655 -1.0771  1.3959 -0.3217
  126MPD1    H7 1971   0.312   3.137   9.794  0.4030 -0.5048 -0.7936
  127TMC2    C1 1972   1.742   3.503   9.633  0.2195  1.1223  0.2933
  127TMC2    C2 1973   1.870   3.478   9.663 -0.4492  0.1060  0.3560
  127TMC2    C3 1974   1.900   3.372   9.740  0.5176  0.3729 -0.4048
  127TMC2    C4 1975   1.638   3.432   9.689  0.2153 -0.6379 -0.2120
  127TMC2    C5 1976   1.672   3.334   9.773 -0.1231 -0.1870 -0.0603
  127TMC2    C6 1977   1.800   3.294   9.795 -0.6091 -0.2433 -0.4038
  127TMC2     C 1978   1.715   3.635   9.578 -0.1372  0.4050  0.7366
  127TMC2     O 1979   1.803   3.717   9.582  0.4382 -0.2091  0.0245
  127TMC2     H 1980   1.944   3.545   9.621  0.4301 -0.6019  0.7875
  127TMC2    H1 1981   1.535   3.453   9.663  0.7948 -0.7276 -2.6114
  127TMC2    H2 1982   1.835   3.222   9.868  3.1999  2.9723  0.9288
  127TMC2    C7 1983   1.556   3.263   9.830  0.2940 -0.2225  0.2091
  127TMC2    C8 1984   2.033   3.354   9.787 -0.7498  0.3607  1.3381
  127TMC2    O1 1985   1.448   3.279   9.779  0.4216  0.4145 -0.0729
  127TMC2    O2 1986   2.067   3.342   9.903 -0.5211 -0.4619  0.0518
  127TMC2    O5 1987   2.122   3.401   9.693 -0.1507 -0.1230  0.0533
  127TMC2    H5 1988   2.096   3.378   9.601 -2.7168  1.2320  0.4341
  128MPD2     C 1989   1.389   3.780   9.455 -0.4828 -0.0137  0.0356
  128MPD2    C1 1990   1.517   3.784   9.508 -0.5434  0.1068 -0.5363
  128MPD2    C2 1991   1.591   3.902   9.500 -0.0948  0.5652  0.4378
  128MPD2    C3 1992   1.542   4.011   9.431 -0.3754  0.0465  0.0474
  128MPD2    C4 1993   1.412   4.015   9.392  0.7348  0.3298  0.5880
  128MPD2    C5 1994   1.338   3.899   9.398 -0.2741  0.6662 -0.2967
  128MPD2     H 1995   1.693   3.905   9.537 -0.2506 -0.2873  0.9351
  128MPD2    H1 1996   1.363   4.102   9.349 -0.4066 -0.4567  0.2638
  128MPD2    H2 1997   1.330   3.689   9.462 -0.7517  0.0183 -1.9586
  128MPD2    H3 1998   1.236   3.897   9.361 -0.5891 -0.5194  0.6459
  128MPD2     N 1999   1.619   4.129   9.410  0.9416  0.4125  0.9226
  128MPD2    H5 2000   1.565   4.208   9.376 -1.0962 -1.2782  0.1986
  128MPD2    N1 2001   1.580   3.660   9.556 -0.6741  0.6095 -0.5623
  128MPD2    H7 2002   1.514   3.586   9.575 -1.0978  1.5663  1.6748
  129TMC2    C1 2003   1.328   2.749   1.312  0.3799  0.0750  0.9998
  129TMC2    C2 2004   1.446   2.692   1.338 -0.1515 -0.7718 -0.0681
  129TMC2    C3 2005   1.451   2.559   1.320 -0.2954 -0.7608  0.4591
  129TMC2    C4 2006   1.212   2.678   1.284 -0.2734 -0.5120  0.4004
  129TMC2    C5 2007   1.225   2.546   1.259  0.0828 -0.9537  0.3673
  129TMC2    C6 2008   1.349   2.484   1.271  0.3771 -1.1177  0.0023
  129TMC2     C 2009   1.334   2.888   1.338 -0.8674  0.3803  0.6852
  129TMC2     O 2010   1.423   2.940   1.404  0.0858  0.1684 -0.7237
  129TMC2     H 2011   1.535   2.748   1.362 -0.1327 -0.1441 -1.6167
  129TMC2    H1 2012   1.110   2.714   1.293  1.0145  2.3876  3.1826
  129TMC2    H2 2013   1.364   2.384   1.230  0.2865 -0.8342 -0.7336
  129TMC2    C7 2014   1.102   2.474   1.222 -0.3939 -0.5090  0.7656
  129TMC2    C8 2015   1.584   2.496   1.300 -0.2943 -0.1327 -0.0082
  129TMC2    O1 2016   1.005   2.537   1.178  0.2649 -0.0472 -0.2337
  129TMC2    O2 2017   1.595   2.389   1.243  0.0892 -0.5052 -0.4048
  129TMC2    O5 2018   1.668   2.538   1.400  0.4405 -0.2103  0.1795
  129TMC2    H5 2019   1.655   2.627   1.439 -1.1878 -0.2691 -0.2020
  130MPD2     C 2020   1.253   3.178   1.374 -0.5486 -0.7068 -0.1658
  130MPD2    C1 2021   1.226   3.098   1.269 -0.1118  1.1642  0.1700
  130MPD2    C2 2022   1.157   3.158   1.167 -0.1746  0.4507 -0.0352
  130MPD2    C3 2023   1.111   3.288   1.173 -0.3800 -0.7510 -0.0724
  130MPD2    C4 2024   1.146   3.368   1.277 -0.2843  0.1819  0.0308
  130MPD2    C5 2025   1.233   3.308   1.366 -0.3573  0.6231 -0.4618
  130MPD2     H 2026   1.131   3.099   1.080 -0.2294  0.8952 -0.3209
  130MPD2    H1 2027   1.124   3.474   1.283  0.6868  0.4633 -1.4620
  130MPD2    H2 2028   1.320   3.147   1.454  1.8484  2.3576 -0.9692
  130MPD2    H3 2029   1.280   3.371   1.441 -0.2723  0.7891 -0.6534
  130MPD2     N 2030   1.049   3.339   1.059 -0.2043 -0.1556  0.5917
  130MPD2    H5 2031   1.048   3.278   0.978 -0.6860 -0.1098  0.5615
  130MPD2    N1 2032   1.249   2.960   1.260 -0.8856 -0.2018  0.0691
  130MPD2    H7 2033   1.202   2.914   1.182 -1.2013 -0.5773  0.4801
  131TMC2    C1 2034   0.121   2.628  10.493  0.2983  0.4515  0.5869
  131TMC2    C2 2035   0.026   2.709  10.447  0.3631  0.1013 -0.2159
  131TMC2    C3 2036   0.059   2.842  10.422  0.3295  0.0676  0.2440
  131TMC2    C4 2037   0.244   2.687  10.519  0.3501  0.7323  0.3137
  131TMC2    C5 2038   0.272   2.826  10.509  0.3574  0.1168  0.0558
  131TMC2    C6 2039   0.176   2.905  10.464 -0.3671 -0.1174  0.6858
  131TMC2     C 2040   0.103   2.485  10.509 -0.5069  0.0934  0.1073
  131TMC2     O 2041   0.196   2.429  10.565  0.3625  0.4316 -0.2544
  131TMC2     H 2042   4.667   2.672  10.411  0.3095  0.8058 -0.7948
  131TMC2    H1 2043   0.333   2.630  10.545  1.5082  2.7325  0.7272
  131TMC2    H2 2044   0.195   3.012  10.461 -0.2099 -0.1406  0.8692
  131TMC2    C7 2045   0.417   2.859  10.503 -0.0279 -0.0408 -0.4426
  131TMC2    C8 2046   4.677   2.926  10.400 -0.5680 -0.2218 -0.2737
  131TMC2    O1 2047   0.495   2.763  10.507  0.0449 -0.5877  0.6773
  131TMC2    O2 2048   4.564   2.873  10.414  0.8534  0.3668  0.3573
  131TMC2    O5 2049   4.713   3.031  10.328  0.9339 -0.1406  0.1710
  131TMC2    H5 2050   0.069   3.025  10.295  0.4746 -1.5041 -0.8480
  132MPD2     C 2051   4.562   2.267  10.409  0.1613 -0.1520  0.8592
  132MPD2    C1 2052   4.682   2.298  10.467 -0.3825 -0.4554  0.6154
  132MPD2    C2 2053   0.018   2.202  10.535  0.0827 -0.0059  0.3904
  132MPD2    C3 2054   4.696   2.081  10.556  0.1953  0.3883 -0.0668
  132MPD2    C4 2055   4.566   2.057  10.508  0.5295  0.7754  0.6361
  132MPD2    C5 2056   4.501   2.152  10.429 -0.7211 -0.1994 -0.6130
  132MPD2     H 2057   0.118   2.218  10.574 -0.4850  0.8337  1.4987
  132MPD2    H1 2058   4.518   1.960  10.521  1.0649  1.0251  4.5147
  132MPD2    H2 2059   4.523   2.338  10.337  1.8884  0.0384  0.1097
  132MPD2    H3 2060   4.413   2.117  10.376 -1.4411 -0.5817  0.8221
  132MPD2     N 2061   0.026   1.986  10.637 -0.6806  0.1531  0.6178
  132MPD2    H5 2062   0.117   2.013  10.673  0.1204 -1.8236  0.0581
  132MPD2    N1 2063   4.726   2.432  10.455 -0.4312  0.5229 -0.3182
  132MPD2    H7 2064   4.684   2.501  10.393 -2.6436 -0.7966 -0.2700
  133TMC2    C1 2065   3.208   0.278   9.036 -0.4987  0.0117  0.1216
  133TMC2    C2 2066   3.285   0.388   9.087 -0.0654  0.3785 -0.3464
  133TMC2    C3 2067   3.243   0.508   9.062 -0.0877 -0.5666  0.2531
  133TMC2    C4 2068   3.086   0.295   8.969 -0.4494  0.2744 -0.6069
  133TMC2    C5 2069   3.048   0.424   8.952  0.8513  0.0122  0.1284
  133TMC2    C6 2070   3.125   0.525   8.993  0.0326 -0.2699 -0.3324
  133TMC2     C 2071   3.248   0.143   9.079 -0.2565 -0.8771  0.5235
  133TMC2     O 2072   3.357   0.130   9.128  0.5916 -0.1419  0.0408
  133TMC2     H 2073   3.377   0.371   9.142 -1.1846  0.7989  1.6665
  133TMC2    H1 2074   3.036   0.211   8.921  2.3159 -1.8760  0.2430
  133TMC2    H2 2075   3.100   0.630   8.983  0.5559  0.1377  2.4114
  133TMC2    C7 2076   2.915   0.446   8.882 -0.0418 -0.1254  0.3648
  133TMC2    C8 2077   3.336   0.617   9.105 -0.2970 -0.3237 -0.3229
  133TMC2    O1 2078   2.832   0.354   8.892 -0.4132  0.3446  0.4231
  133TMC2    O2 2079   3.425   0.602   9.190 -0.0263 -0.5822  0.3514
  133TMC2    O5 2080   3.351   0.686   8.988  0.3441 -0.4411 -0.2761
  133TMC2    H5 2081   3.279   0.677   8.922  0.8427 -0.8206 -0.7706
  134MPD2     C 2082   3.032   4.581   9.108 -0.3585  0.5002  0.6423
  134MPD2    C1 2083   3.155   4.653   9.097  0.4147 -0.0426  0.9057
  134MPD2    C2 2084   3.276   4.590   9.098 -0.1327 -0.0777  0.0039
  134MPD2    C3 2085   3.280   4.455   9.124  0.2882  0.2230 -0.4172
  134MPD2    C4 2086   3.162   4.388   9.151  0.0027  0.6257 -0.4143
  134MPD2    C5 2087   3.035   4.447   9.141 -0.0397  0.3629 -0.0677
  134MPD2     H 2088   3.367   4.642   9.075  0.8956 -2.3157 -1.0341
  134MPD2    H1 2089   3.170   4.283   9.177  1.9882  0.8996  0.0247
  134MPD2    H2 2090   2.942   4.636   9.087 -0.9699 -0.5926  0.3966
  134MPD2    H3 2091   2.947   4.388   9.164 -0.9504  1.0547 -1.7298
  134MPD2     N 2092   3.394   4.378   9.112  0.3302  0.6182  0.4987
  134MPD2    H5 2093   3.369   4.280   9.108 -0.6654  0.8645  0.5540
  134MPD2    N1 2094   3.144   0.057   9.088  0.5646 -0.1304  0.1636
  134MPD2    H7 2095   3.054   0.105   9.089  0.9479  0.5620  1.0072
  135TMC2    C1 2096   0.711   0.401   8.747  0.0497 -0.2505  0.0654
  135TMC2    C2 2097   0.652   0.512   8.803  0.2878 -0.0165  0.3885
  135TMC2    C3 2098   0.529   0.494   8.861 -0.2117  0.0718 -0.4703
  135TMC2    C4 2099   0.634   0.288   8.730 -0.4423  0.1498  0.2053
  135TMC2    C5 2100   0.504   0.274   8.784 -0.2682 -0.5378  0.5275
  135TMC2    C6 2101   0.454   0.375   8.860 -0.2873 -0.5859  0.7301
  135TMC2     C 2102   0.856   0.399   8.736 -0.1868 -0.7972 -0.2884
  135TMC2     O 2103   0.913   0.508   8.720 -0.1318 -0.2143 -0.0789
  135TMC2     H 2104   0.696   0.611   8.791 -2.4826  1.4810  2.5823
  135TMC2    H1 2105   0.678   0.203   8.678 -1.2981 -0.4697  0.5002
  135TMC2    H2 2106   0.359   0.369   8.912 -0.2934  2.5652  1.1192
  135TMC2    C7 2107   0.437   0.150   8.779  0.1824  0.4753 -0.2836
  135TMC2    C8 2108   0.452   0.613   8.892  0.4036  0.4013 -0.0646
  135TMC2    O1 2109   0.452   0.076   8.684  0.0607  0.0074 -0.0589
  135TMC2    O2 2110   0.340   0.612   8.937 -0.7152  0.5380  0.5428
  135TMC2    O5 2111   0.540   0.716   8.901 -0.0045  0.5207 -0.0331
  135TMC2    H5 2112   0.627   0.681   8.929  0.4958 -0.0495 -2.2778
  136MPD2     C 2113   1.148   0.336   8.720  0.7992  0.0893  0.7287
  136MPD2    C1 2114   1.059   0.253   8.774 -0.4114  0.5356 -0.3820
  136MPD2    C2 2115   1.106   0.126   8.830  0.3555  0.1089  0.2442
  136MPD2    C3 2116   1.238   0.093   8.824  0.1148 -0.3340  0.0425
  136MPD2    C4 2117   1.322   0.182   8.764 -0.1569  0.4583 -0.1331
  136MPD2    C5 2118   1.277   0.298   8.710 -0.1124 -0.7523 -0.2457
  136MPD2     H 2119   1.030   0.063   8.875  0.5350  0.2623  0.7556
  136MPD2    H1 2120   1.428   0.158   8.766  0.4190  2.9591 -0.9918
  136MPD2    H2 2121   1.122   0.433   8.680  0.2174  0.6170  2.4070
  136MPD2    H3 2122   1.352   0.369   8.675  0.8087 -3.0898 -2.9964
  136MPD2     N 2123   1.292   4.712   8.883 -0.0444 -0.3856 -0.1141
  136MPD2    H5 2124   1.392   4.717   8.866 -0.4557 -0.1640 -2.4181
  136MPD2    N1 2125   0.914   0.279   8.768 -0.2969 -0.1447  0.7513
  136MPD2    H7 2126   0.864   0.200   8.806 -0.0534 -0.1531  1.0521
  137TMC2    C1 2127   1.496   4.442  10.252  0.3094 -0.9989 -0.0594
  137TMC2    C2 2128   1.574   4.476  10.150  1.2128  0.4268 -0.3703
  137TMC2    C3 2129   1.681   4.394  10.116 -0.6767 -0.2379  0.1555
  137TMC2    C4 2130   1.501   4.310  10.306  0.2807  0.1777  0.9567
  137TMC2    C5 2131   1.588   4.218  10.242  1.5107  0.7180 -1.1531
  137TMC2    C6 2132   1.691   4.263  10.162 -0.0212 -0.2906 -0.2021
  137TMC2     C 2133   1.404   4.533  10.304  0.0294  0.1314 -0.2610
  137TMC2     O 2134   1.361   4.513  10.418  0.0064  0.4434  0.4465
  137TMC2     H 2135   1.574   4.574  10.104 -2.7130  1.0456  0.9967
  137TMC2    H1 2136   1.426   4.269  10.373 -0.3438 -0.5599 -0.1835
  137TMC2    H2 2137   1.758   4.188  10.122  0.0599 -0.4200  0.1802
  137TMC2    C7 2138   1.571   4.071  10.249 -0.7166 -0.2854  0.3535
  137TMC2    C8 2139   1.746   4.424   9.987  0.3637  0.0448  0.0629
  137TMC2    O1 2140   1.660   4.006  10.195  0.0096  0.1235  0.6028
  137TMC2    O2 2141   1.696   4.495   9.897 -0.3791  0.4398 -0.0575
  137TMC2    O5 2142   1.873   4.377   9.982  0.5058 -0.6648  0.1375
  137TMC2    H5 2143   1.910   4.331  10.060  1.4012 -0.3833 -0.1232
  138MPD2     C 2144   1.269   0.048  10.365  0.6026 -0.4917 -0.6800
  138MPD2    C1 2145   1.296   0.007  10.235 -0.4398  0.2906 -0.4182
  138MPD2    C2 2146   1.247   0.080  10.128 -0.3306  0.0991  0.5638
  138MPD2    C3 2147   1.158   0.187  10.153  0.1176  0.8070 -0.0005
  138MPD2    C4 2148   1.119   0.209  10.284 -0.1995 -0.1887 -0.0492
  138MPD2    C5 2149   1.178   0.144  10.394 -0.1671 -0.2082 -0.4220
  138MPD2     H 2150   1.260   0.053  10.024  1.2725 -3.0379  1.5805
  138MPD2    H1 2151   1.048   0.287  10.311  2.2010  1.5056  1.3453
  138MPD2    H2 2152   1.320   4.736  10.448  1.7732 -1.0486 -1.7177
  138MPD2    H3 2153   1.149   0.167  10.496  0.8688 -1.2293  0.1093
  138MPD2     N 2154   1.098   0.251  10.039  0.3382 -0.2116 -0.1599
  138MPD2    H5 2155   1.126   0.212   9.950 -2.3481 -1.4194 -0.4660
  138MPD2    N1 2156   1.380   4.632  10.213 -0.1173  0.5528 -0.5918
  138MPD2    H7 2157   1.408   4.622  10.116 -0.3072 -0.3695 -0.5528
  139TMC2    C1 2158   2.056   1.863  13.434  0.1337  0.3028  0.6334
  139TMC2    C2 2159   2.112   1.985  13.403  0.8829  0.2446 -0.2728
  139TMC2    C3 2160   2.024   2.090  13.398 -0.2669 -0.5372  0.3086
  139TMC2    C4 2161   1.923   1.837  13.446 -0.3181 -0.2663  0.5167
  139TMC2    C5 2162   1.843   1.942  13.432  0.5685 -0.9502 -0.0423
  139TMC2    C6 2163   1.891   2.068  13.405 -0.4799  0.5786  0.2102
  139TMC2     C 2164   2.153   1.751  13.448  0.2448 -1.4645  0.5132
  139TMC2     O 2165   2.272   1.771  13.415  0.3220  0.3951 -0.1774
  139TMC2     H 2166   2.218   2.009  13.414  0.8616  0.9999 -1.7188
  139TMC2    H1 2167   1.886   1.739  13.476 -3.1039  0.5959 -0.0378
  139TMC2    H2 2168   1.819   2.148  13.394  1.1868  1.9351 -0.8018
  139TMC2    C7 2169   1.723   1.949  13.504  0.2742  0.1519 -0.2199
  139TMC2    C8 2170   2.062   2.230  13.400  0.0586 -0.1897 -0.3767
  139TMC2    O1 2171   1.648   2.042  13.486  0.1168 -0.3169 -1.0423
  139TMC2    O2 2172   2.175   2.263  13.382  0.5781  0.0943  0.1577
  139TMC2    O5 2173   1.991   2.275  13.502  0.0311  1.0006 -0.0495
  139TMC2    H5 2174   1.952   2.198  13.549 -0.4271  1.5758  0.5019
  140MPD2     C 2175   2.107   1.404  13.569  0.1603 -0.2337  0.7087
  140MPD2    C1 2176   2.170   1.512  13.513  0.3793 -0.2595 -0.3071
  140MPD2    C2 2177   2.294   1.489  13.454 -0.0765  0.2025 -0.3056
  140MPD2    C3 2178   2.365   1.374  13.476 -0.1029 -0.5615  0.3551
  140MPD2    C4 2179   2.294   1.270  13.534  0.1854 -0.2853  0.4816
  140MPD2    C5 2180   2.170   1.284  13.580  0.2427  0.1679 -0.3874
  140MPD2     H 2181   2.348   1.569  13.405 -1.9752  0.8477 -1.3485
  140MPD2    H1 2182   2.326   1.167  13.531 -0.0053 -0.3422  0.3383
  140MPD2    H2 2183   2.017   1.421  13.627 -0.3378  0.5880 -0.3128
  140MPD2    H3 2184   2.121   1.205  13.635 -0.0524  1.0002  0.5406
  140MPD2     N 2185   2.493   1.359  13.421 -0.0419 -0.0440  0.1068
  140MPD2    H5 2186   2.530   1.447  13.385  2.9693 -1.5629 -0.5016
  140MPD2    N1 2187   2.101   1.633  13.504 -0.1131 -0.7382 -1.0134
  140MPD2    H7 2188   2.008   1.634  13.544  1.0691  0.1256  1.7666
  141TMC2    C1 2189   2.402   3.251  14.244  0.3286  0.8977  0.0395
  141TMC2    C2 2190   2.515   3.170  14.237 -0.3843  0.1333 -0.0154
  141TMC2    C3 2191   2.610   3.197  14.333 -0.8076 -0.4312  0.6964
  141TMC2    C4 2192   2.383   3.333  14.349 -0.3215 -0.2495  0.2963
  141TMC2    C5 2193   2.478   3.344  14.442  0.0456  0.3010  0.7339
  141TMC2    C6 2194   2.600   3.284  14.438 -0.9288  0.2889  0.2756
  141TMC2     C 2195   2.345   3.295  14.116  0.6834  0.4231  1.2949
  141TMC2     O 2196   2.249   3.375  14.103 -0.1962 -0.7095 -0.1311
  141TMC2     H 2197   2.535   3.080  14.179 -0.3615 -0.7846  1.4245
  141TMC2    H1 2198   2.294   3.394  14.353  1.5535  2.5868 -0.3754
  141TMC2    H2 2199   2.672   3.285  14.519  1.0194  2.1952 -1.4701
  141TMC2    C7 2200   2.450   3.419  14.562 -0.8201  0.3035 -0.4925
  141TMC2    C8 2201   2.738   3.132  14.308  0.2924  1.1450 -0.6670
  141TMC2    O1 2202   2.331   3.435  14.588 -0.0316  0.1356 -0.2629
  141TMC2    O2 2203   2.761   3.038  14.239  0.6800 -0.0599 -0.3240
  141TMC2    O5 2204   2.824   3.232  14.336 -0.4945  0.1330 -0.1773
  141TMC2    H5 2205   2.799   3.316  14.379  1.0303 -0.1586  1.3108
  142TMC2    C1 2206   0.921   1.839  10.216 -0.3447 -0.7039 -0.6761
  142TMC2    C2 2207   0.993   1.879  10.097  0.5203  0.1871 -0.4888
  142TMC2    C3 2208   1.102   1.963  10.116  0.3954 -0.1261 -0.4479
  142TMC2    C4 2209   0.958   1.880  10.342  0.5826  0.1791  0.1748
  142TMC2    C5 2210   1.071   1.951  10.350  0.1333  0.5663  0.1640
  142TMC2    C6 2211   1.142   1.994  10.241  0.2926  0.4433  0.4646
  142TMC2     C 2212   0.813   1.742  10.206  0.7922  0.7979  0.0071
  142TMC2     O 2213   0.754   1.734  10.097  0.5927  0.5223 -0.4815
  142TMC2     H 2214   0.969   1.837  10.000  1.6235  0.9938 -1.1097
  142TMC2    H1 2215   0.904   1.860  10.433  0.4227  1.7189  0.4151
  142TMC2    H2 2216   1.226   2.062  10.251  0.0427  0.3526  3.1888
  142TMC2    C7 2217   1.089   2.021  10.481 -0.0979 -0.1210  0.5284
  142TMC2    C8 2218   1.145   2.039  10.004 -0.0448 -0.5035  0.0758
  142TMC2    O1 2219   1.002   2.028  10.565  0.3592 -0.6392 -0.1574
  142TMC2    O2 2220   1.254   2.075   9.986  0.2386 -0.1509  0.3434
  142TMC2    O5 2221   1.035   2.070   9.927 -0.0405  0.0908 -0.2257
  142TMC2    H5 2222   0.946   2.042   9.956  0.8528 -2.2421  0.2799
  143MPD2     C 2223   0.595   1.322  10.400 -0.3694 -0.7300 -0.1813
  143MPD2    C1 2224   0.579   1.390  10.280  0.0489  0.2019 -0.6441
  143MPD2    C2 2225   0.653   1.500  10.249  0.2773  0.1799 -0.0322
  143MPD2    C3 2226   0.737   1.548  10.343  0.1112  0.6527 -0.1753
  143MPD2    C4 2227   0.750   1.487  10.466  0.6716  1.0611 -0.5550
  143MPD2    C5 2228   0.680   1.371  10.489 -0.6108  0.6557 -0.0683
  143MPD2     H 2229   0.634   1.553  10.156  0.1017  1.1888  0.5898
  143MPD2    H1 2230   0.814   1.522  10.547  0.3018  0.0071  0.1829
  143MPD2    H2 2231   0.550   1.230  10.437 -4.7115  0.1340 -3.2945
  143MPD2    H3 2232   0.699   1.327  10.586 -0.4694  2.0369  0.5392
  143MPD2     N 2233   0.816   1.663  10.320  0.7870  0.5100  0.0071
  143MPD2    H5 2234   0.881   1.696  10.391  0.9077  2.7442 -1.1452
  143MPD2    N1 2235   0.500   1.315  10.195  0.0485 -0.4268  0.1894
  143MPD2    H7 2236   0.473   1.219  10.219 -3.3855  0.1841 -1.1610
  144TMC2    C1 2237   3.189   0.320   0.347  0.4465 -0.6832  0.1418
  144TMC2    C2 2238   3.240   0.225   0.259 -0.0334  0.2567  0.5661
  144TMC2    C3 2239   3.371   0.198   0.268 -0.7350 -0.6212 -0.6223
  144TMC2    C4 2240   3.268   0.388   0.429 -0.3241 -0.3727  0.6708
  144TMC2    C5 2241   3.396   0.352   0.446  0.5874  0.0235 -0.5878
  144TMC2    C6 2242   3.452   0.265   0.357 -0.0471  0.4260  0.2893
  144TMC2     C 2243   3.075   0.401   0.315  0.9995  0.0259  0.0935
  144TMC2     O 2244   3.069   0.440   0.197  0.4880  0.0488  0.1352
  144TMC2     H 2245   3.175   0.174   0.189 -0.3561  1.3609  0.0485
  144TMC2    H1 2246   3.220   0.462   0.493 -0.7237  0.2844 -0.3923
  144TMC2    H2 2247   3.554   0.228   0.365 -0.7967 -1.2177  2.1650
  144TMC2    C7 2248   3.475   0.392   0.567 -0.0621  0.1301 -0.0354
  144TMC2    C8 2249   3.424   0.079   0.203 -0.1199 -0.7079  0.1852
  144TMC2    O1 2250   3.595   0.390   0.543 -0.5630 -0.1503 -0.1330
  144TMC2    O2 2251   3.366   4.710   0.197 -0.0752 -0.3314 -0.2965
  144TMC2    O5 2252   3.489   0.122   0.089 -0.0160  0.0006 -0.1426
  144TMC2    H5 2253   3.511   0.217   0.101  1.2861 -0.3989  0.7126
  145MPD2     C 2254   2.639   0.610   0.510 -0.0864  0.1852 -0.8225
  145MPD2    C1 2255   2.702   0.628   0.386 -0.0330 -0.3446  0.0755
  145MPD2    C2 2256   2.823   0.564   0.350  0.7661  0.1709  0.0934
  145MPD2    C3 2257   2.870   0.469   0.436  0.2782  0.0014  0.1091
  145MPD2    C4 2258   2.798   0.436   0.550 -0.1342 -0.1251  0.0368
  145MPD2    C5 2259   2.693   0.514   0.592 -0.4444  0.2780 -0.4013
  145MPD2     H 2260   2.875   0.590   0.258 -0.9139  0.5782 -0.7325
  145MPD2    H1 2261   2.842   0.362   0.615  0.2406  0.2913  0.2620
  145MPD2    H2 2262   2.549   0.661   0.544 -0.1525 -1.4930  1.5499
  145MPD2    H3 2263   2.645   0.496   0.688 -0.2364 -3.1082 -0.9481
  145MPD2     N 2264   2.991   0.397   0.421 -0.4471 -0.0427 -0.1606
  145MPD2    H5 2265   3.023   0.341   0.499 -0.8803  1.1140  0.8470
  145MPD2    N1 2266   2.640   0.703   0.290  0.3495  0.1695 -0.4155
  145MPD2    H7 2267   2.675   0.687   0.196  1.4750 -2.7608  0.4933
  146TMC2    C1 2268   3.946   0.126  12.996 -0.3676 -0.1375 -0.4419
  146TMC2    C2 2269   3.834   0.199  13.016 -0.2927 -0.6899  0.3167
  146TMC2    C3 2270   3.736   0.188  12.930  0.1689  0.1128  0.1028
  146TMC2    C4 2271   3.962   0.044  12.884  0.2297 -0.4955 -0.7026
  146TMC2    C5 2272   3.851   0.041  12.803  0.4572  0.2583 -0.0778
  146TMC2    C6 2273   3.737   0.117  12.819  0.3504 -0.2414  0.3976
  146TMC2     C 2274   4.054   0.131  13.100 -0.4094  0.2160 -0.0023
  146TMC2     O 2275   4.035   0.216  13.184  0.1140 -0.0086  0.4165
  146TMC2     H 2276   3.824   0.262  13.103 -0.0098 -0.6485  0.3193
  146TMC2    H1 2277   4.060   0.001  12.865  0.0846 -0.6427 -1.1142
  146TMC2    H2 2278   3.655   0.110  12.749 -1.0094  5.3202  1.4367
  146TMC2    C7 2279   3.855   4.702  12.681  0.4302 -0.4833 -0.2412
  146TMC2    C8 2280   3.607   0.252  12.966  0.0390 -0.5321  0.2464
  146TMC2    O1 2281   3.786   4.736  12.585  0.6706 -0.1396  0.2849
  146TMC2    O2 2282   3.521   0.311  12.892 -0.9524  0.1501  0.1978
  146TMC2    O5 2283   3.587   0.204  13.090  0.2619  0.1891 -0.3292
  146TMC2    H5 2284   3.659   0.144  13.118 -0.4711 -0.2566  0.6062
  147MPD2     C 2285   3.983   4.265  12.431  0.3588  0.2648  0.8214
  147MPD2    C1 2286   4.039   4.270  12.555  0.2251  0.4531  0.5814
  147MPD2    C2 2287   4.036   4.383  12.636 -0.3478  0.3870 -0.1516
  147MPD2    C3 2288   3.953   4.487  12.604 -0.0269 -0.6125 -0.6770
  147MPD2    C4 2289   3.890   4.478  12.483 -0.2881  0.1767  0.4259
  147MPD2    C5 2290   3.915   4.379  12.394 -0.7811  0.3607 -0.3048
  147MPD2     H 2291   4.097   4.385  12.725 -1.1510  2.6002  0.3482
  147MPD2    H1 2292   3.817   4.554  12.456  0.4844  0.7978  0.0739
  147MPD2    H2 2293   4.000   4.186  12.359 -2.5491 -1.5228  2.0765
  147MPD2    H3 2294   3.856   4.365  12.305 -0.2363  0.2606 -0.6485
  147MPD2     N 2295   3.938   4.593  12.697  0.0507  0.1819 -0.1019
  147MPD2    H5 2296   3.986   4.577  12.785  0.9921 -0.0860 -0.6700
  147MPD2    N1 2297   4.109   4.156  12.590 -0.3324  0.0378  0.2385
  147MPD2    H7 2298   4.119   4.083  12.520  0.9881  0.9766 -0.5715
  148TMC2    C1 2299   0.546   3.256  10.789  0.0046 -0.3684 -0.1010
  148TMC2    C2 2300   0.676   3.279  10.749 -0.2697 -0.0186 -0.7812
  148TMC2    C3 2301   0.770   3.194  10.800  0.3622 -0.2081 -0.5209
  148TMC2    C4 2302   0.510   3.149  10.862 -0.8721  0.6049  0.0269
  148TMC2    C5 2303   0.609   3.065  10.897 -1.2587  0.1709  0.4776
  148TMC2    C6 2304   0.741   3.080  10.871  0.5846 -0.8269 -0.0859
  148TMC2     C 2305   0.451   3.322  10.705 -0.2174 -0.3181 -0.3976
  148TMC2     O 2306   0.491   3.415  10.637 -0.3988  0.2848 -0.2195
  148TMC2     H 2307   0.704   3.366  10.690  0.8066  0.5834  0.6353
  148TMC2    H1 2308   0.410   3.124  10.896 -0.8467  0.6855  0.1579
  148TMC2    H2 2309   0.814   3.014  10.916  0.7787 -1.2037 -0.9555
  148TMC2    C7 2310   0.568   2.934  10.933 -0.4112 -0.2823 -0.3017
  148TMC2    C8 2311   0.902   3.254  10.791  0.3547  0.4814  0.0627
  148TMC2    O1 2312   0.456   2.917  10.981  0.3086 -0.4551  0.5520
  148TMC2    O2 2313   0.919   3.370  10.759  0.0886  0.0116 -0.1788
  148TMC2    O5 2314   1.006   3.167  10.800 -0.0947  0.0223  0.4271
  148TMC2    H5 2315   0.971   3.079  10.827  1.3193 -1.3064 -2.0511
  149MPD2     C 2316   0.206   3.411  10.564  0.5170 -0.1692 -0.5508
  149MPD2    C1 2317   0.213   3.294  10.631  0.1059  0.1671 -0.5140
  149MPD2    C2 2318   0.100   3.221  10.642 -0.0948 -0.1377 -0.0634
  149MPD2    C3 2319   4.720   3.253  10.576 -0.2503  0.1673 -0.2580
  149MPD2    C4 2320   4.721   3.366  10.497  0.2603  0.0160 -0.5751
  149MPD2    C5 2321   0.096   3.440  10.495 -0.7638 -0.3809  0.6658
  149MPD2     H 2322   0.109   3.127  10.695 -0.4452 -0.5749 -0.7937
  149MPD2    H1 2323   4.628   3.398  10.450  0.8039  1.2546 -0.8170
  149MPD2    H2 2324   0.289   3.480  10.556  1.0008 -0.5625  1.1901
  149MPD2    H3 2325   0.105   3.529  10.434  2.0362 -1.9033 -1.1418
  149MPD2     N 2326   4.590   3.190  10.581 -0.0502 -0.2737 -0.5883
  149MPD2    H5 2327   4.520   3.232  10.520  0.9651  0.9296 -0.9121
  149MPD2    N1 2328   0.333   3.248  10.699  0.3000 -0.0871  0.1470
  149MPD2    H7 2329   0.338   3.163  10.756 -1.8085 -0.3605 -0.0972
  150TMC2    C1 2330   2.016   2.235  12.198  0.5578  0.6965 -0.2257
  150TMC2    C2 2331   1.997   2.329  12.101 -0.1279  0.0101  0.0252
  150TMC2    C3 2332   2.107   2.378  12.045  0.0658 -0.1242  0.8550
  150TMC2    C4 2333   2.140   2.189  12.237  0.1371  0.2276  0.1160
  150TMC2    C5 2334   2.246   2.246  12.168  0.7054  0.0939 -0.1235
  150TMC2    C6 2335   2.237   2.337  12.066  1.0962 -0.1627  0.6953
  150TMC2     C 2336   1.904   2.171  12.261  0.1317  0.0236 -0.5895
  150TMC2     O 2337   1.928   2.087  12.352  0.2841 -0.0821 -0.0128
  150TMC2     H 2338   1.901   2.378  12.087 -0.5089 -0.9960 -0.8134
  150TMC2    H1 2339   2.147   2.122  12.322  0.4760  0.5616  0.3488
  150TMC2    H2 2340   2.319   2.390  12.021  1.5038  1.6344  3.5852
  150TMC2    C7 2341   2.385   2.236  12.214 -0.6286 -0.0336  0.9469
  150TMC2    C8 2342   2.078   2.501  11.977 -0.1335 -0.1076  0.0655
  150TMC2    O1 2343   2.473   2.283  12.146  0.8999 -0.2722  0.0613
  150TMC2    O2 2344   1.978   2.522  11.916 -0.6076 -0.2677 -0.6683
  150TMC2    O5 2345   2.130   2.595  12.061 -0.4452  0.7383  0.3046
  150TMC2    H5 2346   2.184   2.565  12.137 -0.7725  1.1174  0.6904
  151MPD2     C 2347   1.442   1.993  12.273 -0.5274 -0.1803  0.0088
  151MPD2    C1 2348   1.433   2.124  12.230  0.1264 -0.1920 -0.2472
  151MPD2    C2 2349   1.546   2.197  12.212 -0.2269 -0.4256  0.0888
  151MPD2    C3 2350   1.668   2.140  12.226  0.5260 -0.6329  0.4960
  151MPD2    C4 2351   1.673   2.008  12.270 -0.3974 -0.6265 -0.1026
  151MPD2    C5 2352   1.561   1.941  12.307  0.2712 -0.5029 -0.0087
  151MPD2     H 2353   1.533   2.300  12.182  0.6554 -0.2842  0.1943
  151MPD2    H1 2354   1.761   1.947  12.291  0.8939  1.3351  0.1943
  151MPD2    H2 2355   1.360   1.927  12.297 -1.2643  2.1203  3.8408
  151MPD2    H3 2356   1.554   1.841  12.349 -0.5847 -0.9615 -1.2377
  151MPD2     N 2357   1.787   2.212  12.205 -0.2347 -0.1781 -0.3130
  151MPD2    H5 2358   1.784   2.304  12.162  0.2692  0.2768  0.6174
  151MPD2    N1 2359   1.299   2.181  12.221  0.3888  0.0568  0.5364
  151MPD2    H7 2360   1.226   2.120  12.254  0.1803  0.2936  0.5102
  152TMC2    C1 2361   1.731   1.913  12.798 -0.2868 -0.3308 -0.2752
  152TMC2    C2 2362   1.758   1.861  12.680  0.4782 -0.7610  0.9626
  152TMC2    C3 2363   1.883   1.847  12.638  0.0911  0.6233 -0.2984
  152TMC2    C4 2364   1.827   1.956  12.883 -0.3710  0.2437 -0.8894
  152TMC2    C5 2365   1.962   1.937  12.836 -0.0520 -0.1943  0.6815
  152TMC2    C6 2366   1.990   1.885  12.710 -0.3212  0.6742  0.2795
  152TMC2     C 2367   1.597   1.905  12.848 -0.2778 -0.2693  0.4635
  152TMC2     O 2368   1.504   1.936  12.780  0.0366 -0.0602 -0.0437
  152TMC2     H 2369   1.684   1.814  12.616 -0.7072  0.5413  1.3970
  152TMC2    H1 2370   1.803   2.004  12.977 -2.8895 -0.8538 -0.9653
  152TMC2    H2 2371   2.092   1.887  12.672 -1.1715  1.9344 -1.9558
  152TMC2    C7 2372   2.052   2.002  12.926  0.2441 -0.4579 -0.2570
  152TMC2    C8 2373   1.904   1.772  12.516  0.0145  1.0559 -0.0287
  152TMC2    O1 2374   2.022   2.035  13.039  0.5921  0.8092 -0.1867
  152TMC2    O2 2375   1.837   1.771  12.413  0.7190  0.1863 -0.7388
  152TMC2    O5 2376   1.979   1.668  12.554  0.1670  0.2024 -0.3362
  152TMC2    H5 2377   1.990   1.668  12.652  1.0390  2.1168 -0.4307
  153MPD2     C 2378   1.486   1.860  13.188  0.2662  0.1957 -0.6908
  153MPD2    C1 2379   1.467   1.883  13.055 -0.1562  0.2189 -0.2316
  153MPD2    C2 2380   1.345   1.929  13.018 -0.0662 -0.5017 -0.7970
  153MPD2    C3 2381   1.242   1.928  13.110  0.1745 -0.5565 -0.2401
  153MPD2    C4 2382   1.258   1.874  13.234  0.0164  0.7472 -0.2194
  153MPD2    C5 2383   1.383   1.855  13.275 -0.3847  0.6542 -0.2690
  153MPD2     H 2384   1.339   1.976  12.920  2.1978 -0.4250 -0.9118
  153MPD2    H1 2385   1.179   1.860  13.308  0.9601  1.7024  0.9779
  153MPD2    H2 2386   1.589   1.853  13.221 -0.2232  1.0193  1.0481
  153MPD2    H3 2387   1.397   1.833  13.381 -2.7799  2.0853  0.3473
  153MPD2     N 2388   1.127   1.981  13.063  0.3195 -0.9198 -0.0089
  153MPD2    H5 2389   1.124   2.025  12.972 -2.9686 -1.4649 -0.1665
  153MPD2    N1 2390   1.583   1.878  12.980 -0.2000  0.3506 -0.2704
  153MPD2    H7 2391   1.672   1.856  13.024  0.4327  0.7879 -1.3388
  154TMC2    C1 2392   3.087   1.195   0.600  0.6289 -0.4074 -0.1576
  154TMC2    C2 2393   3.136   1.167   0.475 -0.8738 -0.4173 -0.8631
  154TMC2    C3 2394   3.269   1.138   0.464 -0.2983 -0.0970 -0.1603
  154TMC2    C4 2395   3.175   1.202   0.715  0.3087 -0.1682  0.0837
  154TMC2    C5 2396   3.305   1.171   0.693 -1.1515  0.9697  0.2203
  154TMC2    C6 2397   3.353   1.139   0.571  0.7954 -0.0306 -0.8543
  154TMC2     C 2398   2.977   1.282   0.610  0.0706 -0.2587  0.1120
  154TMC2     O 2399   2.991   1.376   0.688 -0.1965  0.1232 -0.1690
  154TMC2     H 2400   3.076   1.194   0.388  0.6380  0.6743 -1.5718
  154TMC2    H1 2401   3.131   1.243   0.805  0.8822  1.0615 -0.2024
  154TMC2    H2 2402   3.459   1.121   0.552  0.6837 -0.3376 -1.1833
  154TMC2    C7 2403   3.409   1.191   0.795 -0.0603 -0.1986  0.5332
  154TMC2    C8 2404   3.326   1.119   0.339 -0.1019 -0.0691  0.5851
  154TMC2    O1 2405   3.525   1.170   0.761  0.3490 -0.2530  0.3809
  154TMC2    O2 2406   3.448   1.105   0.342  0.4163 -0.4529  0.0278
  154TMC2    O5 2407   3.267   1.198   0.244 -0.9308  0.1611 -0.2170
  154TMC2    H5 2408   3.171   1.199   0.226 -1.2158 -1.8187  1.1315
  155MPD2     C 2409   2.693   1.283   0.378  0.6217 -0.0913 -0.1319
  155MPD2    C1 2410   2.768   1.330   0.486 -0.1524  0.4579  0.2715
  155MPD2    C2 2411   2.738   1.460   0.540  0.4266 -1.2723 -0.5799
  155MPD2    C3 2412   2.640   1.541   0.473 -0.0327 -0.3133 -0.1080
  155MPD2    C4 2413   2.572   1.486   0.365  0.0746 -0.0272 -0.3101
  155MPD2    C5 2414   2.595   1.361   0.321 -0.2267  0.4688 -0.3838
  155MPD2     H 2415   2.799   1.495   0.623 -2.3372  0.9360  0.5096
  155MPD2    H1 2416   2.491   1.541   0.318  1.7972  1.5780 -1.3847
  155MPD2    H2 2417   2.713   1.181   0.347  1.2289 -0.2476  0.7812
  155MPD2    H3 2418   2.532   1.332   0.238  1.1751 -0.3084 -1.1805
  155MPD2     N 2419   2.616   1.664   0.525 -0.5496  0.0104 -0.0265
  155MPD2    H5 2420   2.663   1.693   0.611 -4.0147 -1.9970  2.5544
  155MPD2    N1 2421   2.867   1.240   0.537 -0.1799 -0.7873 -0.0184
  155MPD2    H7 2422   2.876   1.149   0.492  1.2510 -0.4671 -0.3727
  156TMC2    C1 2423   1.633   4.328  11.484  0.1804  0.2443 -0.0057
  156TMC2    C2 2424   1.628   4.252  11.372  0.2548 -0.5166  0.4343
  156TMC2    C3 2425   1.560   4.312  11.269  0.1212 -0.6566 -0.1503
  156TMC2    C4 2426   1.582   4.453  11.495  1.1180 -0.8762  0.1239
  156TMC2    C5 2427   1.520   4.501  11.384 -0.1664  0.0500  0.3619
  156TMC2    C6 2428   1.511   4.432  11.267 -0.5141 -0.3016 -0.1021
  156TMC2     C 2429   1.726   4.300  11.586 -0.3106  0.3113 -0.6875
  156TMC2     O 2430   1.702   4.355  11.693 -0.3935 -0.2219 -0.5581
  156TMC2     H 2431   1.668   4.151  11.373  1.7933  0.0676 -1.0812
  156TMC2    H1 2432   1.578   4.506  11.589  1.6170 -1.5818  0.5500
  156TMC2    H2 2433   1.448   4.463  11.185 -0.3680  1.9462  0.6418
  156TMC2    C7 2434   1.500   4.641  11.387  0.1611 -0.8817 -0.0393
  156TMC2    C8 2435   1.538   4.226  11.160 -0.3604  0.0240 -0.3373
  156TMC2    O1 2436   1.476   4.690  11.496 -0.5814  0.0281 -0.2692
  156TMC2    O2 2437   1.451   4.251  11.080 -0.3153  0.2436 -0.9689
  156TMC2    O5 2438   1.658   4.178  11.119  0.4315  0.1523  0.5563
  156TMC2    H5 2439   1.722   4.165  11.192  1.6874 -1.4065 -0.8275
  157MPD2     C 2440   2.052   4.128  11.594 -0.6448 -0.0555  0.3390
  157MPD2    C1 2441   1.956   4.224  11.626 -0.1430  0.4451  0.1191
  157MPD2    C2 2442   1.977   4.302  11.740 -0.7603  0.1749  0.5609
  157MPD2    C3 2443   2.087   4.277  11.819 -0.6217  0.1886  0.1766
  157MPD2    C4 2444   2.182   4.185  11.784  1.1807 -0.4685 -0.1050
  157MPD2    C5 2445   2.165   4.116  11.671 -0.5494 -0.3644 -0.7917
  157MPD2     H 2446   1.909   4.379  11.775 -1.4994  0.1403 -0.7957
  157MPD2    H1 2447   2.279   4.181  11.832  1.1231 -1.9237 -0.1222
  157MPD2    H2 2448   2.035   4.075  11.501  0.4112 -2.2032  1.3789
  157MPD2    H3 2449   2.249   4.062  11.631 -0.7698 -1.7742  0.6586
  157MPD2     N 2450   2.100   4.355  11.935  0.1065  0.0750 -0.0857
  157MPD2    H5 2451   2.022   4.419  11.948  0.0089  0.3024 -1.8549
  157MPD2    N1 2452   1.843   4.230  11.546  0.0021 -0.0647  0.7521
  157MPD2    H7 2453   1.834   4.180  11.458  0.1863  0.9702  0.1354
  158TMC2    C1 2454   1.755   3.324  13.985  0.4640 -1.0583  0.6328
  158TMC2    C2 2455   1.746   3.450  14.029  0.0355  0.2388 -0.0662
  158TMC2    C3 2456   1.647   3.489  14.112 -0.6081  0.3833 -0.2008
  158TMC2    C4 2457   1.646   3.244  13.998 -0.1954  0.0898  0.0765
  158TMC2    C5 2458   1.552   3.291  14.081 -0.4183 -0.8787  1.3865
  158TMC2    C6 2459   1.544   3.415  14.136  1.5009 -0.3544  0.3738
  158TMC2     C 2460   1.857   3.298  13.883  0.2762  0.2929  0.6547
  158TMC2     O 2461   1.893   3.385  13.805 -0.4340  0.0688  0.8387
  158TMC2     H 2462   1.832   3.511  14.005  0.6743 -0.7350 -0.2708
  158TMC2    H1 2463   1.649   3.151  13.944 -2.7806 -0.5597  1.0441
  158TMC2    H2 2464   1.475   3.443  14.215  1.0289  0.3779 -0.2971
  158TMC2    C7 2465   1.427   3.217  14.089 -0.3173 -0.4020 -0.6934
  158TMC2    C8 2466   1.682   3.575  14.220  0.6733  0.1488 -0.3590
  158TMC2    O1 2467   1.327   3.274  14.130 -0.3452 -0.2030  0.4257
  158TMC2    O2 2468   1.642   3.563  14.333 -0.2228 -0.0539  0.4868
  158TMC2    O5 2469   1.756   3.670  14.169  0.3633  0.3157 -0.1951
  158TMC2    H5 2470   1.732   3.683  14.074  0.0180  1.3593  0.0249
  159MPD2     C 2471   2.205   2.957  13.719 -0.3330  0.1450 -0.3044
  159MPD2    C1 2472   2.205   2.960  13.860  0.2025  0.3148  0.1713
  159MPD2    C2 2473   2.119   3.047  13.935 -0.1698 -0.3707 -0.8614
  159MPD2    C3 2474   2.029   3.123  13.860 -0.3015 -0.1766 -0.4828
  159MPD2    C4 2475   2.028   3.116  13.723 -0.3898 -0.3296 -0.6088
  159MPD2    C5 2476   2.116   3.035  13.653  0.0108  0.7525 -0.1746
  159MPD2     H 2477   2.127   3.041  14.042  3.0459 -0.7326 -1.1207
  159MPD2    H1 2478   1.948   3.162  13.666 -1.3419  1.3396  2.0908
  159MPD2    H2 2479   2.265   2.889  13.659 -0.1093  0.0706  0.0036
  159MPD2    H3 2480   2.116   3.039  13.544 -1.1152  0.5146 -0.1775
  159MPD2     N 2481   1.931   3.195  13.933  0.6654 -0.1055  0.0497
  159MPD2    H5 2482   1.924   3.167  14.030  0.3352 -2.8909 -0.7865
  159MPD2    N1 2483   2.299   2.870  13.921  0.1195  0.0513  0.3716
  159MPD2    H7 2484   2.350   2.808  13.858 -0.1576 -0.9873  1.1711
  160TMC2    C1 2485   1.361   0.753   1.323 -0.9576 -0.7012  0.4901
  160TMC2    C2 2486   1.303   0.630   1.321 -0.0231 -0.5467  0.1434
  160TMC2    C3 2487   1.366   0.531   1.242  0.5755  0.3332 -0.2663
  160TMC2    C4 2488   1.483   0.778   1.262  0.0674  0.6361  0.0624
  160TMC2    C5 2489   1.546   0.676   1.191 -0.6152  0.6375 -0.0756
  160TMC2    C6 2490   1.485   0.558   1.179  0.3128  0.0907  0.0468
  160TMC2     C 2491   1.288   0.870   1.370 -0.2342 -0.5827 -0.2068
  160TMC2     O 2492   1.222   0.859   1.474 -0.1244 -0.2559  0.2614
  160TMC2     H 2493   1.203   0.612   1.357  0.2209 -2.3821 -0.0890
  160TMC2    H1 2494   1.536   0.869   1.290  0.0052  0.4137  0.9171
  160TMC2    H2 2495   1.531   0.473   1.130  1.2126  0.0964  0.8706
  160TMC2    C7 2496   1.641   0.719   1.090  0.5515 -0.3719  0.1919
  160TMC2    C8 2497   1.307   0.401   1.234 -0.1260  0.0360 -0.7389
  160TMC2    O1 2498   1.655   0.637   1.003  0.3400 -0.0943  0.2726
  160TMC2    O2 2499   1.258   0.365   1.131  0.1010  0.2169 -0.2202
  160TMC2    O5 2500   1.253   0.371   1.356  0.5251  0.1242 -0.0025
  160TMC2    H5 2501   1.314   0.395   1.428  0.7412 -2.0922  0.5657
  161MPD2     C 2502   1.178   1.139   1.408 -0.0967  0.2936 -0.1259
  161MPD2    C1 2503   1.231   1.091   1.287 -0.0770  0.3394  0.1506
  161MPD2    C2 2504   1.223   1.180   1.178  0.3486  0.3911 -0.0524
  161MPD2    C3 2505   1.176   1.305   1.189 -0.1597  0.3086  0.0316
  161MPD2    C4 2506   1.151   1.361   1.313 -0.1259 -0.8137 -0.1587
  161MPD2    C5 2507   1.139   1.275   1.416 -0.0818  0.2602  0.0574
  161MPD2     H 2508   1.263   1.145   1.084 -2.5463 -1.0545 -0.7529
  161MPD2    H1 2509   1.114   1.462   1.319 -0.0524 -0.8110  0.2346
  161MPD2    H2 2510   1.164   1.080   1.498 -1.3356  1.5354  0.4944
  161MPD2    H3 2511   1.098   1.315   1.509 -0.9187  1.6147 -0.8977
  161MPD2     N 2512   1.169   1.395   1.081 -0.6406  0.6611  0.2570
  161MPD2    H5 2513   1.158   1.493   1.103  0.4043  0.6550  0.8005
  161MPD2    N1 2514   1.291   0.965   1.276 -0.2141  0.0934  0.6275
  161MPD2    H7 2515   1.341   0.947   1.189  2.1294 -0.3999  2.0603
  162TMC2    C1 2516   4.460   3.071   0.897 -0.9431  0.5059 -0.2984
  162TMC2    C2 2517   4.426   3.185   0.963  0.7738  0.4778  0.6053
  162TMC2    C3 2518   4.513   3.247   1.051 -0.2967  0.5797  0.0928
  162TMC2    C4 2519   4.591   3.032   0.904 -0.1615  0.6544 -0.6474
  162TMC2    C5 2520   4.680   3.097   0.988 -0.5430  0.5954 -0.5464
  162TMC2    C6 2521   4.639   3.200   1.068 -0.9569  0.0087 -0.3462
  162TMC2     C 2522   4.371   3.025   0.781  0.2044 -0.1306  0.1066
  162TMC2     O 2523   4.425   2.948   0.701  0.2981  0.5989 -0.2151
  162TMC2     H 2524   4.329   3.230   0.941 -1.0025 -3.7243 -0.0376
  162TMC2    H1 2525   4.625   2.948   0.844 -2.5946 -0.1926 -0.8370
  162TMC2    H2 2526   4.706   3.253   1.136  1.8740  0.9598 -3.8436
  162TMC2    C7 2527   0.085   3.080   0.975  0.1024  0.0925 -0.3225
  162TMC2    C8 2528   4.461   3.346   1.143 -0.2742  0.1160 -0.3951
  162TMC2    O1 2529   0.154   3.175   1.010  0.2975  0.1826 -0.3964
  162TMC2    O2 2530   4.543   3.416   1.202  0.8866 -0.1511 -0.1192
  162TMC2    O5 2531   4.341   3.307   1.180  0.3465  0.4622 -0.1830
  162TMC2    H5 2532   4.297   3.229   1.141 -0.7992  0.1347  1.7752
  163MPD2     C 2533   3.927   2.908   0.550 -0.7969  0.1211  0.3165
  163MPD2    C1 2534   4.051   2.931   0.501 -0.4142 -0.6447  0.7560
  163MPD2    C2 2535   4.154   2.969   0.589 -0.4602 -0.4638 -0.1730
  163MPD2    C3 2536   4.133   3.003   0.718 -0.2804  0.1235  0.3329
  163MPD2    C4 2537   4.000   3.001   0.758  0.0724  0.0639  0.3948
  163MPD2    C5 2538   3.903   2.947   0.675 -0.5609  0.9693  0.1911
  163MPD2     H 2539   4.257   2.962   0.557 -0.7372  0.7102 -1.3315
  163MPD2    H1 2540   3.977   3.022   0.862  0.4651 -0.4278  0.5813
  163MPD2    H2 2541   3.845   2.873   0.488  1.3073 -2.2688 -1.1099
  163MPD2    H3 2542   3.801   2.924   0.704 -0.3128 -0.8430 -0.4101
  163MPD2     N 2543   4.234   3.044   0.812 -0.4346  1.0139 -0.0179
  163MPD2    H5 2544   4.202   3.074   0.903  1.3895 -1.4603  1.4250
  163MPD2    N1 2545   4.072   2.896   0.370 -0.0402 -0.0847  0.1573
  163MPD2    H7 2546   4.007   2.835   0.322 -1.6076  1.7569 -0.0557
  164TMC2    C1 2547   0.064   3.046  11.345 -0.1936  0.2639 -0.2404
  164TMC2    C2 2548   0.154   3.090  11.252 -1.0936 -0.1094  0.3662
  164TMC2    C3 2549   0.139   3.209  11.192 -0.1954 -0.3453  0.2736
  164TMC2    C4 2550   4.701   3.129  11.384  0.4980 -0.2748 -1.1619
  164TMC2    C5 2551   4.687   3.248  11.313  0.8594  0.1955 -0.0722
  164TMC2    C6 2552   0.038   3.300  11.221 -0.7590  1.0013 -0.1453
  164TMC2     C 2553   0.116   2.984  11.466  0.5529 -0.5116  0.8027
  164TMC2     O 2554   0.090   3.039  11.573  0.3735  0.3577  0.3141
  164TMC2     H 2555   0.244   3.032  11.234 -1.1814  0.4816 -1.9952
  164TMC2    H1 2556   4.647   3.100  11.474  1.1601  0.8790 -0.3960
  164TMC2    H2 2557   0.040   3.399  11.177 -0.4011  0.7257 -0.7511
  164TMC2    C7 2558   4.566   3.318  11.324 -0.5198  0.3907 -0.3591
  164TMC2    C8 2559   0.254   3.247  11.112  1.1184  0.2843  0.0178
  164TMC2    O1 2560   4.558   3.424  11.265  0.1703 -0.0621  0.4087
  164TMC2    O2 2561   0.371   3.222  11.155 -0.4841 -0.0169  0.1153
  164TMC2    O5 2562   0.224   3.323  11.001  0.4110 -0.2651  0.5639
  164TMC2    H5 2563   0.128   3.322  10.979  0.5398 -1.8503  0.0928
  165TMC2    C1 2564   1.235   0.135   0.818  0.9253  0.0587  0.1170
  165TMC2    C2 2565   1.261   0.120   0.684 -0.1285  0.2441 -0.9544
  165TMC2    C3 2566   1.392   0.155   0.643  0.6139  0.7649 -0.0866
  165TMC2    C4 2567   1.339   0.150   0.910  0.2246  0.0147  0.1618
  165TMC2    C5 2568   1.469   0.164   0.866  0.5468  0.7792 -0.2466
  165TMC2    C6 2569   1.490   0.190   0.733  0.6974 -0.3169 -0.8726
  165TMC2     C 2570   1.091   0.121   0.859  0.6168 -0.2053 -0.5120
  165TMC2     O 2571   1.011   0.069   0.782 -0.2069 -0.2355 -0.4287
  165TMC2     H 2572   1.190   0.066   0.622 -0.4163 -0.5143  0.0164
  165TMC2    H1 2573   1.308   0.152   1.015 -0.6328  2.9800 -0.1515
  165TMC2    H2 2574   1.589   0.201   0.689  0.6383 -0.1132 -0.9499
  165TMC2    C7 2575   1.572   0.221   0.956 -0.1005 -0.0818  0.8023
  165TMC2    C8 2576   1.430   0.126   0.505 -0.2244 -0.4828  0.0354
  165TMC2    O1 2577   1.675   0.262   0.905  0.3376 -0.6964 -0.3622
  165TMC2    O2 2578   1.525   0.050   0.484  0.0718  0.0736  0.0605
  165TMC2    O5 2579   1.317   0.148   0.433 -0.0953 -0.2737  0.5312
  165TMC2    H5 2580   1.269   0.219   0.479 -1.4177  0.1069 -1.4524
  166MPD2     C 2581   0.724   0.198   1.219  0.8740 -0.2756  0.2103
  166MPD2    C1 2582   0.730   0.102   1.123  0.9939  0.9542 -0.1473
  166MPD2    C2 2583   0.846   0.100   1.037 -0.2816  0.5174 -0.8740
  166MPD2    C3 2584   0.948   0.196   1.042  0.3564  0.3733 -0.6963
  166MPD2    C4 2585   0.938   0.295   1.139 -0.5528  0.0275 -0.3933
  166MPD2    C5 2586   0.826   0.290   1.224  0.1080 -0.0526  0.1909
  166MPD2     H 2587   0.854   0.012   0.974  1.5434  0.5018 -0.6040
  166MPD2    H1 2588   1.018   0.367   1.155 -1.0102  0.6022 -0.7163
  166MPD2    H2 2589   0.644   0.206   1.292 -0.4304  2.0225 -1.4719
  166MPD2    H3 2590   0.815   0.372   1.294 -3.6072 -1.2316  0.9508
  166MPD2     N 2591   1.061   0.204   0.961  0.8923  0.1800 -0.1103
  166MPD2    H5 2592   1.129   0.269   0.998  1.6111 -1.4449  1.4145
  166MPD2    N1 2593   0.628   0.005   1.125 -0.2174  0.0514  0.6925
  166MPD2    H7 2594   0.547   0.031   1.180 -1.5893 -0.0273 -1.3030
  167TMC2    C1 2595   4.468   2.802  12.867 -0.5248 -0.1267 -0.2273
  167TMC2    C2 2596   4.405   2.810  12.987  0.1771  0.0173 -0.0689
  167TMC2    C3 2597   4.287   2.742  13.007  0.0113 -0.7159 -0.0950
  167TMC2    C4 2598   4.422   2.715  12.770  0.0807  0.0630 -0.3203
  167TMC2    C5 2599   4.297   2.661  12.788  0.2723 -0.1988  0.5034
  167TMC2    C6 2600   4.225   2.676  12.906 -0.5549  0.2586  0.4566
  167TMC2     C 2601   4.590   2.883  12.845  0.4167  0.1496  0.1325
  167TMC2     O 2602   4.663   2.893  12.943 -0.0556 -0.2244 -0.5880
  167TMC2     H 2603   4.446   2.878  13.060  1.1565  0.1089 -0.6956
  167TMC2    H1 2604   4.475   2.709  12.675  2.7383 -0.7235  1.2171
  167TMC2    H2 2605   4.125   2.636  12.918  0.2589 -1.8765  0.1264
  167TMC2    C7 2606   4.236   2.582  12.687 -0.6792  0.3041 -0.1879
  167TMC2    C8 2607   4.221   2.760  13.135 -0.3763 -0.7079  0.6356
  167TMC2    O1 2608   4.124   2.538  12.708 -0.4099 -0.3487  0.2736
  167TMC2    O2 2609   4.251   2.849  13.212 -0.0065  0.4898 -0.1374
  167TMC2    O5 2610   4.118   2.681  13.153  0.2933  0.2843 -0.0505
  167TMC2    H5 2611   4.142   2.593  13.116  0.2080 -0.4004  1.5452
  168MPD2     C 2612   0.084   3.016  12.703 -0.1251 -0.7585 -0.1606
  168MPD2    C1 2613   4.691   3.007  12.654 -0.2961 -0.5546  0.3110
  168MPD2    C2 2614   4.668   3.056  12.529  0.1552  0.1864  0.0343
  168MPD2    C3 2615   0.037   3.101  12.447  0.4037 -0.4914 -0.3123
  168MPD2    C4 2616   0.163   3.117  12.498  0.2184 -0.7694 -0.5147
  168MPD2    C5 2617   0.185   3.061  12.625 -0.2385  0.2979 -0.9470
  168MPD2     H 2618   4.568   3.043  12.489 -0.6883 -0.3790  2.3142
  168MPD2    H1 2619   0.242   3.161  12.439  0.8414  0.1798  1.0391
  168MPD2    H2 2620   0.120   2.964  12.791 -0.6307  2.0743  1.7121
  168MPD2    H3 2621   0.284   3.049  12.667  0.3809  1.2814 -2.1230
  168MPD2     N 2622   0.022   3.112  12.303 -0.6747  0.7768  0.1749
  168MPD2    H5 2623   0.107   3.126  12.249  1.1426 -1.3407  2.4802
  168MPD2    N1 2624   4.588   2.943  12.723 -0.7979  0.1824 -0.3240
  168MPD2    H7 2625   4.492   2.951  12.691 -1.0700  1.2805  0.7953
  169MPD1     C 2626   0.938   3.352   9.423  0.4426  0.4118 -0.2328
  169MPD1    C1 2627   1.032   3.300   9.337 -1.0880  0.2165  0.1190
  169MPD1    C2 2628   1.108   3.198   9.388 -0.4873 -0.2036  0.4509
  169MPD1    C3 2629   1.100   3.156   9.519  0.1472 -0.1400  0.3741
  169MPD1    C4 2630   1.002   3.207   9.608  0.0382 -0.0511  0.4595
  169MPD1    C5 2631   0.923   3.311   9.554  0.2019 -0.2709  0.1664
  169MPD1     H 2632   1.188   3.164   9.322 -1.6264 -2.8026  0.4002
  169MPD1    H1 2633   0.997   3.177   9.712  0.6217 -0.4499  0.3736
  169MPD1    H2 2634   0.878   3.434   9.385 -1.6701  0.0061  2.1928
  169MPD1    H3 2635   0.850   3.347   9.624 -2.9108 -3.0643 -1.6311
  169MPD1     N 2636   1.207   3.071   9.565 -0.2273  0.4710 -0.4087
  169MPD1    H5 2637   1.264   3.027   9.493 -3.2785 -0.4613 -2.2633
  169MPD1    N1 2638   1.055   3.363   9.213  0.1062 -0.6821 -0.1757
  169MPD1    H6 2639   0.969   3.393   9.167  0.0381 -1.2152 -0.3873
  169MPD1    H7 2640   1.109   3.311   9.144  0.2747 -0.0856 -0.4932
  170MPD1     C 2641   0.084   4.421  12.817  0.0874  0.6214  0.0498
  170MPD1    C1 2642   0.104   4.559  12.814  0.0248  0.4921 -0.2222
  170MPD1    C2 2643   0.157   4.618  12.930  0.1053 -0.4177 -0.0303
  170MPD1    C3 2644   0.205   4.539  13.036  0.1175 -0.7352  0.1902
  170MPD1    C4 2645   0.207   4.403  13.033 -0.1205  0.0947 -0.2091
  170MPD1    C5 2646   0.133   4.354  12.926 -0.4488 -0.7263 -0.1426
  170MPD1     H 2647   0.174   4.725  12.930 -0.5430 -0.3074 -0.5788
  170MPD1    H1 2648   0.261   4.339  13.101  0.1479  1.1111  0.5321
  170MPD1    H2 2649   0.025   4.370  12.742  0.9245 -0.2879  0.0019
  170MPD1    H3 2650   0.109   4.249  12.933  1.9318 -1.1335  2.1224
  170MPD1     N 2651   0.263   4.602  13.149 -0.2597  0.4995 -0.2136
  170MPD1    H5 2652   0.273   4.703  13.140 -0.6255  0.5826  0.3168
  170MPD1    N1 2653   0.047   4.640  12.713 -0.1422  0.1137  0.8859
  170MPD1    H6 2654   0.058   4.601  12.619 -0.8691  0.6650  0.5751
  170MPD1    H7 2655   0.089   4.733  12.719 -0.7453  0.6833 -3.5677
  171MPD1     C 2656   4.098   1.316  14.874 -0.0182  0.4604 -0.1642
  171MPD1    C1 2657   4.129   1.396  14.982  0.6880 -0.0407  1.1189
  171MPD1    C2 2658   4.140   1.330  15.104 -0.8414 -0.7203 -0.1007
  171MPD1    C3 2659   4.125   1.195  15.119 -0.1420 -0.6203  0.3974
  171MPD1    C4 2660   4.107   1.122  15.006  0.4393  0.2332  0.5623
  171MPD1    C5 2661   4.098   1.183  14.884  0.1521  0.7354  0.5063
  171MPD1     H 2662   4.146   1.397  15.190  2.1577 -0.2005 -0.6857
  171MPD1    H1 2663   4.112   1.015  15.014  0.7314  0.2149  0.1589
  171MPD1    H2 2664   4.069   1.354  14.777  4.6463 -0.5179 -1.9477
  171MPD1    H3 2665   4.061   1.123  14.802 -0.8400  1.3740  0.4856
  171MPD1     N 2666   4.124   1.134  15.244 -0.0434 -0.0556  0.1357
  171MPD1    H5 2667   4.128   1.032  15.236  2.2931  0.0786 -0.4223
  171MPD1    N1 2668   4.122   1.534  14.965  0.2495 -0.0980 -0.0068
  171MPD1    H6 2669   4.170   1.575  15.045  0.3571 -1.2905  0.5348
  171MPD1    H7 2670   4.180   1.548  14.882  0.2085 -0.2313 -0.0579
  172MPD1     C 2671   2.440   4.618  17.602  0.0647 -0.1433  0.1575
  172MPD1    C1 2672   2.496   4.652  17.480  0.6949 -0.0570  0.6301
  172MPD1    C2 2673   2.576   0.024  17.472  0.1634  0.1680 -0.1269
  172MPD1    C3 2674   2.614   0.086  17.589 -0.3717  0.4581  0.5852
  172MPD1    C4 2675   2.559   0.049  17.713 -0.2777 -0.4930 -0.3197
  172MPD1    C5 2676   2.479   4.675  17.717 -0.1272 -0.0375  0.4644
  172MPD1     H 2677   2.608   0.055  17.373 -0.7567  0.5110 -0.3160
  172MPD1    H1 2678   2.589   0.112   0.052 -0.7845 -0.6948  0.0149
  172MPD1    H2 2679   2.381   4.527  17.613 -1.8166  1.1574  0.7362
  172MPD1    H3 2680   2.451   4.629   0.067 -0.3128  0.1538  0.5017
  172MPD1     N 2681   2.702   0.201  17.590  0.3866 -0.4051 -0.2191
  172MPD1    H5 2682   2.714   0.260  17.672 -0.9685  1.1919 -1.1628
  172MPD1    N1 2683   2.471   4.577  17.365 -0.4566  0.1353 -0.4210
  172MPD1    H6 2684   2.510   4.609  17.276  0.9620  0.8508  0.4586
  172MPD1    H7 2685   2.501   4.481  17.377 -0.1182  0.0331 -2.0556
  173MPD1     C 2686   4.500   0.766  13.562  0.2187 -0.5021  0.4090
  173MPD1    C1 2687   4.389   0.728  13.628  0.3636  0.7135 -0.6525
  173MPD1    C2 2688   4.395   0.661  13.746  0.8010  0.4290 -0.4022
  173MPD1    C3 2689   4.516   0.605  13.787 -0.4490 -0.3727 -0.1093
  173MPD1    C4 2690   4.633   0.638  13.716  0.1545 -0.1997  0.1268
  173MPD1    C5 2691   4.627   0.723  13.605  0.3529  0.4268  0.2107
  173MPD1     H 2692   4.301   0.634  13.793  1.1096  0.5811  0.3105
  173MPD1    H1 2693   4.729   0.592  13.736  0.1804  0.6511  1.9030
  173MPD1    H2 2694   4.503   0.829  13.473  0.1643 -0.5822  0.3515
  173MPD1    H3 2695   4.718   0.753  13.555 -0.5844  0.1648 -1.6179
  173MPD1     N 2696   4.512   0.529  13.903 -0.6231 -0.0649 -0.8305
  173MPD1    H5 2697   4.422   0.503  13.941 -0.8214  2.1876  0.2196
  173MPD1    N1 2698   4.265   0.784  13.581  0.3109 -0.1334 -0.6134
  173MPD1    H6 2699   4.191   0.717  13.604  0.2019 -1.5338 -5.1027
  173MPD1    H7 2700   4.261   0.785  13.480 -0.4961 -1.3284 -0.5955
  174MPD1     C 2701   0.510   0.218  14.524 -0.3220  0.9486  0.3594
  174MPD1    C1 2702   0.400   0.147  14.565  0.5215  0.3519 -0.3543
  174MPD1    C2 2703   0.288   0.167  14.489 -0.4547 -0.5624  0.1360
  174MPD1    C3 2704   0.281   0.242  14.375  0.1238 -0.3022  0.0197
  174MPD1    C4 2705   0.396   0.307  14.333  0.5954  0.1165 -0.0004
  174MPD1    C5 2706   0.509   0.290  14.410  0.0515 -0.4060 -0.8939
  174MPD1     H 2707   0.205   0.112  14.532 -0.2543  1.1716  2.7674
  174MPD1    H1 2708   0.404   0.362  14.240  2.1830  1.5388  0.9714
  174MPD1    H2 2709   0.597   0.205  14.587 -0.5733  0.2001  0.5517
  174MPD1    H3 2710   0.600   0.340  14.380 -0.5307  1.7401  0.9710
  174MPD1     N 2711   0.164   0.261  14.292 -0.5760  0.1834 -0.0399
  174MPD1    H5 2712   0.176   0.314  14.206 -0.2513 -0.4167 -0.3612
  174MPD1    N1 2713   0.391   0.072  14.686  0.1164  0.6030  0.0780
  174MPD1    H6 2714   0.481   0.044  14.725 -0.0983 -0.6489 -0.3279
  174MPD1    H7 2715   0.326   4.730  14.684 -0.2128  0.8942 -1.1979
  175MPD1     C 2716   2.609   1.607  14.791 -0.0375 -0.9670  0.4386
  175MPD1    C1 2717   2.543   1.707  14.857 -0.3329  0.0956  0.2950
  175MPD1    C2 2718   2.607   1.776  14.958 -0.3164  0.2264  0.0926
  175MPD1    C3 2719   2.730   1.738  15.000 -0.0616  0.3170  0.4875
  175MPD1    C4 2720   2.795   1.629  14.945  0.2191 -0.2825 -0.2428
  175MPD1    C5 2721   2.728   1.565  14.841  0.0420  0.6509 -0.5674
  175MPD1     H 2722   2.563   1.862  15.007 -1.4700  1.6151 -3.3119
  175MPD1    H1 2723   2.889   1.596  14.986 -0.0644 -1.2730 -0.3880
  175MPD1    H2 2724   2.564   1.536  14.723  4.4114 -1.6499 -1.7451
  175MPD1    H3 2725   2.779   1.481  14.795 -1.1502  0.5156 -1.6360
  175MPD1     N 2726   2.793   1.785  15.116 -0.2813  0.5808 -1.1221
  175MPD1    H5 2727   2.883   1.743  15.132 -0.4192  0.9204  0.5868
  175MPD1    N1 2728   2.415   1.736  14.823 -0.3387  0.0498 -0.5408
  175MPD1    H6 2729   2.375   1.669  14.758  0.8131 -0.1854 -1.0048
  175MPD1    H7 2730   2.356   1.753  14.904 -0.0971  2.3352 -0.8195
  176MPD1     C 2731   4.168   3.046  17.392 -0.3050 -0.1845 -0.3660
  176MPD1    C1 2732   4.140   3.105  17.510 -0.7897  0.6279 -0.0972
  176MPD1    C2 2733   4.186   3.233  17.541 -0.0640 -0.0407  0.6298
  176MPD1    C3 2734   4.254   3.303  17.436 -0.3312 -0.1597  0.0405
  176MPD1    C4 2735   4.265   3.249  17.310 -0.2067 -0.0851  0.0578
  176MPD1    C5 2736   4.228   3.122  17.290  0.4417  0.3914 -0.2686
  176MPD1     H 2737   4.152   3.269  17.637  3.2029 -2.7384  2.7996
  176MPD1    H1 2738   4.302   3.312  17.229 -1.8478  0.5049 -0.2399
  176MPD1    H2 2739   4.129   2.952  17.354 -2.3032  0.4338  0.1813
  176MPD1    H3 2740   4.240   3.075  17.193 -0.3739  0.1812 -0.2680
  176MPD1     N 2741   4.310   3.429  17.474 -0.1846  1.1915  0.2706
  176MPD1    H5 2742   4.299   3.459  17.570 -1.1691  0.3127  0.4252
  176MPD1    N1 2743   4.040   3.044  17.595 -0.2588 -0.0814  0.2281
  176MPD1    H6 2744   4.037   3.074  17.692  0.0444  3.1824 -0.7601
  176MPD1    H7 2745   4.041   2.943  17.587  0.1099 -0.2195  1.9575
  177MPD1     C 2746   2.651   4.430   9.234  0.5387  0.0003  0.1071
  177MPD1    C1 2747   2.587   4.523   9.307 -0.2507  0.3000 -0.6733
  177MPD1    C2 2748   2.451   4.517   9.313  1.0592 -0.2792 -0.1368
  177MPD1    C3 2749   2.376   4.419   9.250  0.3723  0.4037 -1.2280
  177MPD1    C4 2750   2.449   4.329   9.178 -0.3226 -0.3806 -0.0933
  177MPD1    C5 2751   2.586   4.334   9.172  0.1650  0.5694 -0.2178
  177MPD1     H 2752   2.387   4.589   9.362  1.6286  0.7173 -0.8517
  177MPD1    H1 2753   2.406   4.242   9.128  1.1085 -0.5489 -0.9982
  177MPD1    H2 2754   2.757   4.437   9.212  0.5839 -2.8130 -0.5538
  177MPD1    H3 2755   2.641   4.258   9.117 -0.4954  0.4504 -0.7141
  177MPD1     N 2756   2.238   4.417   9.281 -0.3776 -0.0839  0.2354
  177MPD1    H5 2757   2.189   4.493   9.327  1.3153  0.3435  1.3428
  177MPD1    N1 2758   2.650   4.637   9.357  0.3780  0.0415  0.3097
  177MPD1    H6 2759   2.592   4.678   9.430 -1.1352 -0.5170 -0.5807
  177MPD1    H7 2760   2.726   4.597   9.413 -1.1648  0.0785  2.4470
  178MPD1     C 2761   0.048   3.711  17.668  0.2112 -0.1453  0.3510
  178MPD1    C1 2762   0.133   3.825  17.687 -0.4691  0.2021  0.1652
  178MPD1    C2 2763   0.197   3.863  17.571  0.3138  0.3122 -0.2374
  178MPD1    C3 2764   0.200   3.789  17.450  0.5775 -0.5794  0.1523
  178MPD1    C4 2765   0.114   3.681  17.428  0.1429  0.6524  0.2257
  178MPD1    C5 2766   0.043   3.651  17.541 -0.2176  0.2828  1.2522
  178MPD1     H 2767   0.269   3.944  17.578 -1.4806  1.8267  0.6262
  178MPD1    H1 2768   0.108   3.618  17.340 -0.3914  2.0617 -0.7539
  178MPD1    H2 2769   4.718   3.669  17.743 -0.3127  1.7510  0.9407
  178MPD1    H3 2770   4.709   3.569  17.527 -0.4341  0.6693  0.0401
  178MPD1     N 2771   0.277   3.818  17.341  0.6168  0.4250 -0.5705
  178MPD1    H5 2772   0.268   3.768  17.254  1.9916  1.0845 -1.0862
  178MPD1    N1 2773   0.097   3.924   0.034 -0.4160  0.3722 -0.6095
  178MPD1    H6 2774   0.057   3.872   0.112 -2.1106  0.3836 -1.4623
  178MPD1    H7 2775   0.179   3.978   0.059  0.6081 -1.7502  0.6267
  179MPD1     C 2776   0.289   2.564  15.231  0.0824  0.5356  0.3243
  179MPD1    C1 2777   0.351   2.547  15.354  0.5841 -0.1285 -0.4243
  179MPD1    C2 2778   0.339   2.426  15.414 -0.2458 -0.0875  0.5835
  179MPD1    C3 2779   0.278   2.314  15.356 -0.2116  0.5639 -0.2216
  179MPD1    C4 2780   0.236   2.326  15.223 -0.1132 -0.2100 -0.7278
  179MPD1    C5 2781   0.239   2.453  15.162 -0.0627 -0.9078 -0.3140
  179MPD1     H 2782   0.380   2.417  15.514 -1.3902 -0.9827  0.9694
  179MPD1    H1 2783   0.185   2.246  15.171  0.7267  0.0082 -1.8757
  179MPD1    H2 2784   0.297   2.655  15.173  2.6830 -0.2987 -0.6487
  179MPD1    H3 2785   0.198   2.469  15.063 -0.9379  1.4256  0.4287
  179MPD1     N 2786   0.276   2.189  15.402 -0.3845 -0.3403  0.2438
  179MPD1    H5 2787   0.230   2.120  15.344 -2.3793  0.2134  1.1761
  179MPD1    N1 2788   0.384   2.665  15.422  0.5781  0.5169  0.1489
  179MPD1    H6 2789   0.453   2.650  15.495 -1.3616 -1.2916  1.6149
  179MPD1    H7 2790   0.438   2.718  15.354  1.2490  0.2758  0.5013
  180MPD1     C 2791   4.580   3.416  15.350  0.1150 -0.0124 -0.2281
  180MPD1    C1 2792   4.662   3.521  15.326 -0.4414  0.3550 -0.3428
  180MPD1    C2 2793   4.648   3.592  15.210 -0.6759 -0.5121 -0.2094
  180MPD1    C3 2794   4.557   3.547  15.110 -0.4907 -0.4645 -0.3003
  180MPD1    C4 2795   4.477   3.438  15.134 -0.0524  0.0077 -0.2417
  180MPD1    C5 2796   4.486   3.381  15.253  0.1047 -0.0048 -0.0926
  180MPD1     H 2797   4.707   3.680  15.189 -1.5194  0.6367  2.2753
  180MPD1    H1 2798   4.410   3.392  15.062  0.0351  1.5575 -1.3111
  180MPD1    H2 2799   4.571   3.373  15.449  1.0902 -0.7029 -0.4353
  180MPD1    H3 2800   4.420   3.300  15.280  0.4805 -0.7431 -1.3673
  180MPD1     N 2801   4.546   3.615  14.987  0.2939  0.1553  0.6990
  180MPD1    H5 2802   4.616   3.689  14.977  1.7366 -1.1631  1.1191
  180MPD1    N1 2803   0.017   3.563  15.423 -0.0078 -0.3447 -0.1918
  180MPD1    H6 2804   0.042   3.485  15.485 -0.0160  0.0886  0.3581
  180MPD1    H7 2805   4.709   3.624  15.491 -1.7657 -0.0136 -1.6446
  181MPD1     C 2806   1.145   0.547  10.322 -0.1931  0.1709 -0.1683
  181MPD1    C1 2807   1.141   0.645  10.416  0.2663 -0.0960  0.1786
  181MPD1    C2 2808   1.253   0.725  10.422  0.8601  0.4166  0.3106
  181MPD1    C3 2809   1.361   0.718  10.339  0.0868 -0.4456  0.2659
  181MPD1    C4 2810   1.359   0.617  10.246  0.5942  0.3129 -0.1275
  181MPD1    C5 2811   1.252   0.528  10.242 -0.2887 -0.2761  0.3284
  181MPD1     H 2812   1.249   0.808  10.492 -1.3817 -1.2995  2.2147
  181MPD1    H1 2813   1.435   0.597  10.171 -0.8089 -0.7319 -1.2681
  181MPD1    H2 2814   1.062   0.483  10.296 -0.3672 -0.2842  1.5533
  181MPD1    H3 2815   1.257   0.463  10.156 -0.4891  0.5648 -0.3212
  181MPD1     N 2816   1.469   0.810  10.334  0.2993  0.0290 -0.3469
  181MPD1    H5 2817   1.548   0.800  10.271  0.8401  1.4432  0.0876
  181MPD1    N1 2818   1.032   0.673  10.494  0.3079 -0.2978  0.5383
  181MPD1    H6 2819   1.045   0.749  10.560  0.8036 -0.1436  0.2592
  181MPD1    H7 2820   1.011   0.583  10.536 -1.1366  0.1215  0.7329
  182MPD1     C 2821   2.292   0.081   1.327 -0.3565 -0.1495 -0.2548
  182MPD1    C1 2822   2.356   0.030   1.214 -0.8760  0.3887 -0.3371
  182MPD1    C2 2823   2.279   0.016   1.101  0.4004  0.0594 -0.5417
  182MPD1    C3 2824   2.135   0.035   1.111  0.2701  0.2246  0.1346
  182MPD1    C4 2825   2.071   0.074   1.226  0.3409 -1.0008  0.3203
  182MPD1    C5 2826   2.156   0.095   1.337 -0.0742 -0.6214  0.3855
  182MPD1     H 2827   2.330   4.713   1.013  0.8510  2.4353 -1.3514
  182MPD1    H1 2828   1.964   0.089   1.232  0.3408 -1.1717  0.7771
  182MPD1    H2 2829   2.353   0.112   1.411  1.3349 -2.3031 -0.7125
  182MPD1    H3 2830   2.122   0.136   1.432 -0.1732  2.0967 -0.8231
  182MPD1     N 2831   2.049   4.736   1.007 -0.6981 -0.4610 -0.0507
  182MPD1    H5 2832   1.951   4.725   1.030 -0.0376 -0.4249  2.7162
  182MPD1    N1 2833   2.499   0.027   1.202  0.0232 -0.1918  0.8238
  182MPD1    H6 2834   2.558   0.022   1.285  0.7214 -1.6615  0.2427
  182MPD1    H7 2835   2.529   4.703   1.126  1.3099 -2.0940  2.8378
  183MPD1     C 2836   2.303   4.585   8.539 -0.4867 -0.1654  0.5353
  183MPD1    C1 2837   2.204   4.624   8.622  0.1938  0.2328 -0.3107
  183MPD1    C2 2838   2.213   0.001   8.700  0.0804 -0.2307 -0.4659
  183MPD1    C3 2839   2.322   0.079   8.700 -0.2558 -0.2652  0.4641
  183MPD1    C4 2840   2.424   0.041   8.616 -0.2223  0.2703  0.4457
  183MPD1    C5 2841   2.415   4.664   8.540 -0.8572 -0.4701  0.4112
  183MPD1     H 2842   2.134   0.034   8.767  0.1357  0.0504 -0.5373
  183MPD1    H1 2843   2.510   0.103   8.593 -0.6895 -0.2641 -2.6636
  183MPD1    H2 2844   2.295   4.508   8.464 -0.0874  1.3963 -1.1308
  183MPD1    H3 2845   2.498   4.643   8.473 -1.2824 -1.7677  0.2935
  183MPD1     N 2846   2.315   0.199   8.776 -0.4790  0.2473  0.7103
  183MPD1    H5 2847   2.231   0.222   8.828  0.1299  1.0466  1.3551
  183MPD1    N1 2848   2.076   4.565   8.606 -0.0096 -0.0750  0.5802
  183MPD1    H6 2849   2.019   4.566   8.691 -0.8071 -1.4597  0.0670
  183MPD1    H7 2850   2.086   4.475   8.558  1.4431  0.6627 -0.4851
  184MPD1     C 2851   1.742   3.333  10.171 -0.2454 -0.0219 -0.5288
  184MPD1    C1 2852   1.610   3.381  10.155 -0.1157  0.0004 -0.2868
  184MPD1    C2 2853   1.588   3.510  10.097  0.3516 -0.0935 -0.1468
  184MPD1    C3 2854   1.698   3.571  10.041  0.3905  0.0932  0.3352
  184MPD1    C4 2855   1.821   3.523  10.064 -0.7973 -0.4908  0.8856
  184MPD1    C5 2856   1.844   3.411  10.135  0.5408 -0.0472  0.0376
  184MPD1     H 2857   1.486   3.547  10.100 -0.1376 -1.4317 -0.2295
  184MPD1    H1 2858   1.911   3.572  10.028 -0.5882 -1.8336 -0.4343
  184MPD1    H2 2859   1.760   3.238  10.220  0.6890  1.1475  1.4241
  184MPD1    H3 2860   1.945   3.377  10.152  0.0439 -2.0150 -0.8784
  184MPD1     N 2861   1.690   3.694   9.976 -0.0691  0.2204  0.4314
  184MPD1    H5 2862   1.777   3.743   9.961  0.0181  0.7456  2.7007
  184MPD1    N1 2863   1.504   3.314  10.217  0.0036 -0.5207  0.1133
  184MPD1    H6 2864   1.513   3.213  10.210  3.6971 -0.0257 -2.2811
  184MPD1    H7 2865   1.415   3.338  10.173  0.0105 -0.8266 -0.0649
  185MPD1     C 2866   0.979   4.265   9.535  0.0317 -0.1335 -0.3970
  185MPD1    C1 2867   1.052   4.352   9.623  0.2495 -0.7057 -0.5718
  185MPD1    C2 2868   1.171   4.311   9.684 -0.0187  0.2640 -0.5388
  185MPD1    C3 2869   1.200   4.177   9.676  0.3410 -0.0697 -0.0054
  185MPD1    C4 2870   1.120   4.083   9.611  0.2640  0.2866 -0.0407
  185MPD1    C5 2871   1.014   4.133   9.547  0.8111 -0.4112  0.3710
  185MPD1     H 2872   1.235   4.388   9.726 -0.1873 -0.5837  1.2685
  185MPD1    H1 2873   1.150   3.979   9.613  0.6688  0.4071  0.2458
  185MPD1    H2 2874   0.890   4.296   9.481 -2.8750 -4.4588  1.9008
  185MPD1    H3 2875   0.952   4.061   9.495  1.7575 -0.6028 -0.4769
  185MPD1     N 2876   1.311   4.123   9.743 -0.0486  0.3897 -0.0680
  185MPD1    H5 2877   1.327   4.024   9.755  0.9127  0.3755 -1.5385
  185MPD1    N1 2878   1.010   4.486   9.632  0.1404 -0.1593  0.0257
  185MPD1    H6 2879   1.033   4.532   9.720 -1.9157  3.6798 -1.4413
  185MPD1    H7 2880   0.914   4.499   9.603  0.3885  1.4552 -0.0526
  186MPD1     C 2881   1.209   1.795  15.927  0.8698 -0.1531 -0.0551
  186MPD1    C1 2882   1.076   1.790  15.897 -0.2261 -0.8217 -0.7109
  186MPD1    C2 2883   0.992   1.861  15.975 -0.4045 -0.2208  0.3644
  186MPD1    C3 2884   1.036   1.936  16.081  0.6081 -0.0366  0.4443
  186MPD1    C4 2885   1.171   1.948  16.101  0.3852  0.4718  0.1545
  186MPD1    C5 2886   1.259   1.880  16.025  0.5919 -0.2201 -0.0902
  186MPD1     H 2887   0.886   1.853  15.957 -0.6079  1.1246  1.0046
  186MPD1    H1 2888   1.208   2.011  16.181  1.7015 -0.7505  0.4892
  186MPD1    H2 2889   1.286   1.731  15.885  0.6894  0.0069 -0.6286
  186MPD1    H3 2890   1.363   1.874  16.054  0.3046  0.2601  1.0264
  186MPD1     N 2891   0.947   2.018  16.162 -0.5189 -0.0881  0.0944
  186MPD1    H5 2892   0.976   2.088  16.230  1.5187 -0.5235 -0.3199
  186MPD1    N1 2893   1.031   1.689  15.807  0.7916  0.0432  0.1705
  186MPD1    H6 2894   0.942   1.694  15.759  1.1236  2.1262 -0.2265
  186MPD1    H7 2895   1.103   1.662  15.740  0.1062  2.6582 -1.6244
  187MPD1     C 2896   0.698   4.581  16.958  0.1519  0.9280  0.0868
  187MPD1    C1 2897   0.698   4.650  17.082  0.4032  0.1910  0.6120
  187MPD1    C2 2898   0.571   4.702  17.126  0.2199 -0.0633 -0.0887
  187MPD1    C3 2899   0.457   4.689  17.046 -0.7308  0.7447 -0.4842
  187MPD1    C4 2900   0.472   4.636  16.919  0.7291 -0.0476 -0.4281
  187MPD1    C5 2901   0.589   4.586  16.876  0.4021  0.3526  0.2585
  187MPD1     H 2902   0.571   0.030  17.213 -0.2515 -0.0465 -0.0980
  187MPD1    H1 2903   0.389   4.632  16.849 -0.3174  0.3033  0.7962
  187MPD1    H2 2904   0.792   4.533  16.933  1.0610  3.7578 -1.9356
  187MPD1    H3 2905   0.591   4.538  16.779 -0.3585 -0.5856  0.7088
  187MPD1     N 2906   0.328   0.007  17.087  0.3260 -0.4094  0.0309
  187MPD1    H5 2907   0.247   0.001  17.026 -0.1208  1.5015  0.4418
  187MPD1    N1 2908   0.806   4.640  17.168 -0.1295 -0.2116 -0.0768
  187MPD1    H6 2909   0.895   4.639  17.118 -0.5092 -1.2232 -0.7289
  187MPD1    H7 2910   0.811   4.719  17.232 -1.0605 -1.8122  1.9407
  188MPD1     C 2911   3.881   4.469   9.210 -0.1839 -0.7059  0.0185
  188MPD1    C1 2912   3.885   4.484   9.348  0.3190 -0.4101 -0.3630
  188MPD1    C2 2913   3.958   4.389   9.420  0.6029  0.1748  0.2370
  188MPD1    C3 2914   3.993   4.267   9.364  0.0511 -0.3188 -0.4203
  188MPD1    C4 2915   3.966   4.245   9.235  0.9353 -0.8203  0.1502
  188MPD1    C5 2916   3.906   4.343   9.163  0.0338 -0.8967 -0.5271
  188MPD1     H 2917   3.986   4.406   9.523 -0.6198  2.0902  0.2498
  188MPD1    H1 2918   4.003   4.159   9.180  2.3281 -0.2593  0.2233
  188MPD1    H2 2919   3.831   4.542   9.147  1.7624 -0.6785 -1.4710
  188MPD1    H3 2920   3.886   4.328   9.058 -1.7902 -0.2907 -0.2682
  188MPD1     N 2921   4.074   4.170   9.424  0.6534 -0.7322  0.0409
  188MPD1    H5 2922   4.116   4.104   9.360 -1.0084 -1.3631 -0.4003
  188MPD1    N1 2923   3.846   4.606   9.406  0.1696  0.3299 -0.0615
  188MPD1    H6 2924   3.770   4.647   9.351  2.3892  1.9089 -1.9965
  188MPD1    H7 2925   3.810   4.599   9.500 -0.0386  0.1642 -0.1550
  189MPD1     C 2926   1.305   0.489   0.417  0.4852 -0.9717 -0.3819
  189MPD1    C1 2927   1.173   0.458   0.432  0.4066  1.4791 -0.2858
  189MPD1    C2 2928   1.079   0.543   0.385 -0.7444  0.0063 -0.4310
  189MPD1    C3 2929   1.111   0.656   0.309  0.3844  0.0744 -0.2948
  189MPD1    C4 2930   1.247   0.677   0.285  0.8251  0.3685 -0.7312
  189MPD1    C5 2931   1.341   0.594   0.337 -0.8429 -0.0417  0.2755
  189MPD1     H 2932   0.977   0.513   0.403  0.3437 -2.1141  2.4210
  189MPD1    H1 2933   1.286   0.759   0.226  0.0336  0.8906 -0.5364
  189MPD1    H2 2934   1.385   0.433   0.463  0.5830 -1.7313 -1.4684
  189MPD1    H3 2935   1.444   0.620   0.316 -1.8377  1.1703 -3.1284
  189MPD1     N 2936   1.007   0.747   0.272  0.1566  0.4822  0.1711
  189MPD1    H5 2937   0.912   0.717   0.292  0.4534 -0.4670  0.1811
  189MPD1    N1 2938   1.142   0.345   0.509 -0.0551  0.0612  0.2316
  189MPD1    H6 2939   1.051   0.307   0.485  0.2724  0.5966 -1.9076
  189MPD1    H7 2940   1.134   0.371   0.607  0.3145 -0.2945  0.3563
  190MPD1     C 2941   0.413   2.751  15.721  0.2252 -0.4092  0.2995
  190MPD1    C1 2942   0.550   2.771  15.714 -0.4857 -0.6101 -0.0480
  190MPD1    C2 2943   0.594   2.892  15.754  0.5390  0.6315 -0.1075
  190MPD1    C3 2944   0.507   2.996  15.778 -0.5498  0.7306 -0.9325
  190MPD1    C4 2945   0.372   2.983  15.754 -0.5349 -0.1411  0.7333
  190MPD1    C5 2946   0.322   2.853  15.736 -0.2462 -0.9365  0.4295
  190MPD1     H 2947   0.700   2.909  15.770  0.8582 -0.0539 -1.4666
  190MPD1    H1 2948   0.298   3.061  15.763 -0.3426  0.0663  0.5088
  190MPD1    H2 2949   0.371   2.651  15.720 -0.7752  0.0242 -0.6792
  190MPD1    H3 2950   0.217   2.829  15.735 -0.7180  1.2386 -1.5783
  190MPD1     N 2951   0.568   3.124  15.813  0.5813  0.6177 -0.1411
  190MPD1    H5 2952   0.669   3.119  15.826  0.6504 -1.2600 -1.3252
  190MPD1    N1 2953   0.638   2.662  15.725  0.7058 -0.0857 -0.0674
  190MPD1    H6 2954   0.610   2.595  15.653  1.2470 -0.1498 -0.2174
  190MPD1    H7 2955   0.735   2.679  15.699 -0.1795  1.4125 -2.3699
  191MPD1     C 2956   4.419   0.291  12.450  0.8055 -0.4773 -0.0744
  191MPD1    C1 2957   4.432   0.330  12.321 -0.8298 -0.3546  0.5215
  191MPD1    C2 2958   4.434   0.469  12.297 -0.1587 -0.1590 -0.3327
  191MPD1    C3 2959   4.399   0.556  12.402 -0.1136 -0.4500  0.0177
  191MPD1    C4 2960   4.370   0.509  12.525  0.5537  0.9386 -0.4528
  191MPD1    C5 2961   4.380   0.375  12.552  0.1321 -0.6342  0.2094
  191MPD1     H 2962   4.468   0.500  12.198  0.6351 -2.1286 -0.6795
  191MPD1    H1 2963   4.350   0.583  12.602 -0.4276 -0.0932  0.2927
  191MPD1    H2 2964   4.422   0.186  12.476  1.4469 -0.8796 -1.7915
  191MPD1    H3 2965   4.357   0.328  12.647  1.3088 -0.8695  0.3827
  191MPD1     N 2966   4.394   0.689  12.356 -0.8855 -0.2122 -0.2337
  191MPD1    H5 2967   4.406   0.718  12.259 -0.8789  0.0018 -0.1684
  191MPD1    N1 2968   4.481   0.245  12.224 -0.0231 -0.1427 -0.1439
  191MPD1    H6 2969   4.470   0.279  12.128  1.9037 -0.4970 -0.4939
  191MPD1    H7 2970   4.445   0.149  12.225  0.0617 -0.1864 -0.9877
  192MPD1     C 2971   3.937   1.458  12.768  0.4102 -0.0388  0.0497
  192MPD1    C1 2972   3.970   1.500  12.642 -0.7994 -0.4778 -0.0186
  192MPD1    C2 2973   4.068   1.427  12.572  0.5743  0.1133 -0.2069
  192MPD1    C3 2974   4.132   1.321  12.629  0.0571  0.1215 -1.0426
  192MPD1    C4 2975   4.097   1.282  12.761  0.0199  0.6994 -0.7178
  192MPD1    C5 2976   3.998   1.352  12.823  0.7341 -0.3303  0.3949
  192MPD1     H 2977   4.088   1.449  12.468 -1.9238 -0.0172 -0.7188
  192MPD1    H1 2978   4.124   1.189  12.810  1.8426  0.5898 -1.9398
  192MPD1    H2 2979   3.870   1.512  12.833  0.2087  0.2268 -0.3804
  192MPD1    H3 2980   3.968   1.304  12.915  2.3469  0.1184  1.1620
  192MPD1     N 2981   4.220   1.236  12.560 -0.5224 -0.1318 -0.2438
  192MPD1    H5 2982   4.244   1.153  12.614 -1.0466  0.4379  0.8519
  192MPD1    N1 2983   3.899   1.609  12.592 -0.6800 -0.2533  0.1058
  192MPD1    H6 2984   3.957   1.656  12.523 -1.8021  1.6101  0.4398
  192MPD1    H7 2985   3.857   1.669  12.663  0.5646  2.7970 -1.7274
  193MPD1     C 2986   3.743   1.093  15.989 -0.0133 -0.2217 -0.0434
  193MPD1    C1 2987   3.681   1.184  16.070 -0.1018  0.3809  0.3921
  193MPD1    C2 2988   3.756   1.232  16.171 -0.3653  0.1991  0.0591
  193MPD1    C3 2989   3.882   1.175  16.196 -0.3677 -0.1298  0.1806
  193MPD1    C4 2990   3.928   1.066  16.123 -0.0131 -0.7782 -0.1422
  193MPD1    C5 2991   3.851   1.022  16.025  0.5132  0.0127 -0.6280
  193MPD1     H 2992   3.715   1.301  16.243 -0.1963 -1.7550  2.0141
  193MPD1    H1 2993   4.015   1.004  16.134  0.3995 -0.1736  0.0059
  193MPD1    H2 2994   3.689   1.061  15.900 -1.1277 -0.3507  0.6684
  193MPD1    H3 2995   3.889   0.939  15.965 -0.1448 -0.3395 -0.5554
  193MPD1     N 2996   3.971   1.220  16.295  0.4753  0.2528 -0.6057
  193MPD1    H5 2997   4.055   1.165  16.311 -0.0292  0.2586  1.9653
  193MPD1    N1 2998   3.557   1.243  16.027 -0.0490  0.2458 -0.3587
  193MPD1    H6 2999   3.504   1.294  16.098  2.4164  0.9715  0.9605
  193MPD1    H7 3000   3.485   1.179  15.994 -0.8352  0.9131  0.0376
  194MPD1     C 3001   2.337   3.367  16.739  1.0538 -0.2500 -0.4845
  194MPD1    C1 3002   2.218   3.320  16.697  0.0605  0.0958 -0.1618
  194MPD1    C2 3003   2.175   3.209  16.763 -0.2771 -0.0330  0.9764
  194MPD1    C3 3004   2.241   3.141  16.870  0.5504  0.3352  0.3345
  194MPD1    C4 3005   2.346   3.201  16.917 -0.9383  0.8510  0.8064
  194MPD1    C5 3006   2.395   3.305  16.850  0.9793 -1.1634 -0.4153
  194MPD1     H 3007   2.087   3.166  16.717 -0.2181 -0.2186  1.0365
  194MPD1    H1 3008   2.401   3.146  16.992  0.2725  0.1434 -0.5882
  194MPD1    H2 3009   2.380   3.448  16.680 -1.5506  0.2834 -1.6758
  194MPD1    H3 3010   2.489   3.344  16.885  0.0362 -0.7921  1.7103
  194MPD1     N 3011   2.191   3.025  16.927 -0.2801  0.5303  0.0192
  194MPD1    H5 3012   2.236   2.997  17.013  0.6337  1.2860 -0.2215
  194MPD1    N1 3013   2.138   3.380  16.604 -0.9043  0.4380 -0.1165
  194MPD1    H6 3014   2.078   3.317  16.550 -2.4938  0.8760  1.1513
  194MPD1    H7 3015   2.192   3.434  16.536 -0.2663  0.9899  0.8380
  195MPD1     C 3016   3.531   0.370  17.370 -0.3768 -0.3108 -0.2272
  195MPD1    C1 3017   3.596   0.370  17.491  0.6565  0.5618 -0.6121
  195MPD1    C2 3018   3.653   0.246  17.533 -0.6092 -0.1770  0.2987
  195MPD1    C3 3019   3.618   0.125  17.480  0.1788 -0.5695 -0.4505
  195MPD1    C4 3020   3.534   0.133  17.372  0.5079  0.5262  0.3938
  195MPD1    C5 3021   3.495   0.249  17.317  0.1971  0.8539  0.2245
  195MPD1     H 3022   3.719   0.251  17.619  2.1815 -0.6767 -1.8182
  195MPD1    H1 3023   3.508   0.038  17.326 -0.3582  0.3580  1.2155
  195MPD1    H2 3024   3.510   0.461  17.316  1.6394  0.1303 -0.2624
  195MPD1    H3 3025   3.437   0.255  17.226 -0.6126 -2.6878  0.4949
  195MPD1     N 3026   3.645   4.735  17.531  0.4183 -0.4685 -0.2950
  195MPD1    H5 3027   3.592   4.656  17.496  0.1181 -0.0128 -0.8577
  195MPD1    N1 3028   3.628   0.494  17.546  0.7179  0.4246 -0.6837
  195MPD1    H6 3029   3.574   0.578  17.526  0.9430  0.3949 -1.4237
  195MPD1    H7 3030   3.656   0.489  17.644 -1.0514  1.2520 -0.1338
  196MPD1     C 3031   3.117   0.005  17.451  0.7123 -0.0114  0.4258
  196MPD1    C1 3032   3.003   4.678  17.489  0.0889 -0.1727 -0.0926
  196MPD1    C2 3033   3.016   4.597  17.598  0.2586  0.2481  0.2811
  196MPD1    C3 3034   3.123   4.598  17.679 -0.0459  0.6960  0.1296
  196MPD1    C4 3035   3.231   4.685  17.653  0.0831  0.5827 -0.3861
  196MPD1    C5 3036   3.232   0.020  17.535 -0.7487  0.1362  0.0016
  196MPD1     H 3037   2.937   4.527  17.621 -0.3867  0.8758 -0.0392
  196MPD1    H1 3038   3.316   4.695  17.719 -0.5571  2.1051  0.2283
  196MPD1    H2 3039   3.107   0.055  17.355  1.0002 -1.8773 -0.5725
  196MPD1    H3 3040   3.313   0.088  17.513 -1.0564  0.5624  0.1830
  196MPD1     N 3041   3.139   4.522   0.058  0.5344 -0.2849 -0.1000
  196MPD1    H5 3042   3.222   4.543   0.113  0.6254  0.4184 -0.5109
  196MPD1    N1 3043   2.890   4.654  17.400 -0.3168 -0.4274  0.3102
  196MPD1    H6 3044   2.804   4.632  17.449 -0.6808 -0.3512 -0.2900
  196MPD1    H7 3045   2.875   0.003  17.346  0.4354  0.2349  1.1408
  197MPD1     C 3046   2.228   2.100  17.460 -0.4541  0.0222 -0.1475
  197MPD1    C1 3047   2.309   2.007  17.512  0.5895  0.0845 -0.2831
  197MPD1    C2 3048   2.422   1.976  17.433  0.9990  0.1953  0.3517
  197MPD1    C3 3049   2.463   2.046  17.320  0.1554  0.2596 -0.1714
  197MPD1    C4 3050   2.374   2.142  17.279 -0.5143  0.1536 -0.3079
  197MPD1    C5 3051   2.262   2.168  17.354 -0.3453 -0.0026 -0.0851
  197MPD1     H 3052   2.492   1.899  17.465  0.4963 -0.6939 -0.6950
  197MPD1    H1 3053   2.394   2.194  17.186 -0.8463  0.2321 -0.3362
  197MPD1    H2 3054   2.134   2.136  17.502 -1.2289 -3.5217  1.2456
  197MPD1    H3 3055   2.184   2.236  17.319  0.6022  0.8638 -0.4944
  197MPD1     N 3056   2.575   2.010  17.249 -0.8238  0.0539  0.1488
  197MPD1    H5 3057   2.604   2.080  17.180  1.8556  0.5515  1.7591
  197MPD1    N1 3058   2.279   1.935  17.631  0.1914 -0.3513  0.7962
  197MPD1    H6 3059   2.236   1.995  17.701  1.9689  2.0879 -0.1895
  197MPD1    H7 3060   2.354   1.892  17.684  2.1075  0.7035 -1.0436
  198MPD1     C 3061   4.593   4.726  15.758  0.6414 -0.4206 -0.1625
  198MPD1    C1 3062   4.620   0.086  15.851  0.8230  0.4682  0.1309
  198MPD1    C2 3063   4.716   0.060  15.944  1.1438  0.0169 -0.0824
  198MPD1    C3 3064   0.040   4.669  15.959  1.1128 -0.1453 -0.4641
  198MPD1    C4 3065   0.007   4.568  15.860 -0.6976 -0.2520  0.0004
  198MPD1    C5 3066   4.650   4.605  15.767 -0.0136  0.1320  0.5317
  198MPD1     H 3067   0.016   0.145  16.001  0.0513 -0.2810  1.0617
  198MPD1    H1 3068   0.043   4.466  15.865  1.2125  0.4189 -0.3237
  198MPD1    H2 3069   4.523   0.012  15.678 -1.3282 -0.4816  1.5453
  198MPD1    H3 3070   4.615   4.532  15.695 -0.0161 -0.2988  0.9727
  198MPD1     N 3071   0.135   4.659  16.061 -0.4008 -0.6565  0.0352
  198MPD1    H5 3072   0.153   0.003  16.120 -1.9321 -1.1062  1.1185
  198MPD1    N1 3073   4.581   0.218  15.825 -0.0250 -0.1245  0.0564
  198MPD1    H6 3074   4.582   0.279  15.906  2.3621 -0.5792  0.3859
  198MPD1    H7 3075   4.492   0.220  15.777  0.1061  0.0706 -0.1801
  199MPD1     C 3076   2.922   2.303  10.095  0.3311 -1.3225 -0.0210
  199MPD1    C1 3077   2.836   2.411  10.084  0.0643 -0.2725 -0.3141
  199MPD1    C2 3078   2.707   2.390  10.131 -0.6708  0.1239 -0.2981
  199MPD1    C3 3079   2.669   2.282  10.207 -0.8029 -0.1218  0.1691
  199MPD1    C4 3080   2.766   2.183  10.230 -0.1593  0.4558 -0.1963
  199MPD1    C5 3081   2.886   2.192  10.167 -0.3646 -0.2268 -0.4548
  199MPD1     H 3082   2.636   2.469  10.109  0.8885  1.5932 -0.1103
  199MPD1    H1 3083   2.743   2.087  10.276 -0.6322  0.1839 -1.0070
  199MPD1    H2 3084   3.018   2.296  10.044  0.4868 -0.1188  0.0962
  199MPD1    H3 3085   2.954   2.108  10.167  0.8974  0.7800  1.6551
  199MPD1     N 3086   2.538   2.258  10.260  0.7300 -0.1734  0.4438
  199MPD1    H5 3087   2.523   2.170  10.307 -1.7090 -0.7961 -1.5013
  199MPD1    N1 3088   2.858   2.518  10.000  0.1377 -0.1158  0.4447
  199MPD1    H6 3089   2.955   2.537   9.977  0.2112  1.2608  1.8503
  199MPD1    H7 3090   2.806   2.599  10.033 -1.2014 -0.8880  0.2263
  200MPD1     C 3091   0.786   0.750  15.405 -0.3364  0.0000 -0.2351
  200MPD1    C1 3092   0.689   0.780  15.306 -0.2336  0.0280  0.4033
  200MPD1    C2 3093   0.722   0.875  15.211  0.1263  0.1002 -0.3911
  200MPD1    C3 3094   0.849   0.936  15.211  0.3218  0.1329  0.2554
  200MPD1    C4 3095   0.941   0.904  15.305  1.0192 -0.2793  0.8286
  200MPD1    C5 3096   0.913   0.799  15.394  0.0854  0.5029 -0.3767
  200MPD1     H 3097   0.646   0.905  15.139  0.3621  0.6257 -0.4199
  200MPD1    H1 3098   1.046   0.929  15.293  0.5021  1.9860  1.0006
  200MPD1    H2 3099   0.765   0.688  15.491  0.6003  0.6165  0.4376
  200MPD1    H3 3100   0.982   0.759  15.467 -1.0553  0.5250  0.7185
  200MPD1     N 3101   0.879   1.006  15.094 -1.0238  0.1106  0.3050
  200MPD1    H5 3102   0.805   1.008  15.024 -1.4689 -1.2546  0.7337
  200MPD1    N1 3103   0.560   0.744  15.316  0.6080 -0.1833 -0.3045
  200MPD1    H6 3104   0.508   0.742  15.229 -0.3895  0.2083  0.2880
  200MPD1    H7 3105   0.564   0.651  15.357 -0.2634  0.4946  1.2898
  201MPD1     C 3106   2.617   0.437  13.598  0.3241  0.0308  0.4995
  201MPD1    C1 3107   2.698   0.507  13.505  0.2372 -0.2556  0.3881
  201MPD1    C2 3108   2.798   0.443  13.435 -0.7154 -0.8487 -0.0076
  201MPD1    C3 3109   2.811   0.305  13.447  0.1593  0.6644  1.1267
  201MPD1    C4 3110   2.730   0.235  13.532  0.1634  0.7447  0.2643
  201MPD1    C5 3111   2.637   0.300  13.607  0.1607  0.1126 -1.1126
  201MPD1     H 3112   2.859   0.500  13.365 -0.6379  0.6678  1.2981
  201MPD1    H1 3113   2.743   0.127  13.540 -0.4817  0.4837 -2.3106
  201MPD1    H2 3114   2.543   0.483  13.661 -0.9319 -0.5170 -0.5794
  201MPD1    H3 3115   2.582   0.232  13.671 -1.4409  0.4970 -2.0953
  201MPD1     N 3116   2.925   0.245  13.378  0.0031 -0.4307  0.3205
  201MPD1    H5 3117   2.975   0.302  13.312 -1.2513 -0.0170 -0.2750
  201MPD1    N1 3118   2.698   0.648  13.517 -0.0030  0.5233 -0.0160
  201MPD1    H6 3119   2.740   0.679  13.429 -0.4328  1.3344  0.0591
  201MPD1    H7 3120   2.601   0.680  13.518 -0.4972 -0.8203 -3.6796
  202MPD1     C 3121   2.827   4.091   9.576 -0.1671  0.1274 -0.1826
  202MPD1    C1 3122   2.772   4.206   9.523 -0.1499 -0.4910 -0.3902
  202MPD1    C2 3123   2.847   4.323   9.532 -0.6480 -0.2465 -0.2186
  202MPD1    C3 3124   2.984   4.318   9.532  0.3384  0.1281  0.1703
  202MPD1    C4 3125   3.041   4.201   9.574 -0.0283  0.2590 -0.4175
  202MPD1    C5 3126   2.962   4.087   9.599 -0.1341  0.1033  0.2659
  202MPD1     H 3127   2.796   4.415   9.507 -0.0744 -0.0247 -0.5540
  202MPD1    H1 3128   3.148   4.189   9.586 -0.0527  0.9570  0.4910
  202MPD1    H2 3129   2.763   4.010   9.608  0.5357  0.5140  2.2422
  202MPD1    H3 3130   3.009   3.995   9.632 -0.1626  0.3648  1.0414
  202MPD1     N 3131   3.072   4.427   9.503 -0.1293 -0.2346 -0.2875
  202MPD1    H5 3132   3.167   4.423   9.539 -0.2819  0.2403  0.1789
  202MPD1    N1 3133   2.630   4.224   9.533 -0.4716 -0.3304 -0.1690
  202MPD1    H6 3134   2.611   4.305   9.474 -1.0973  0.1413  0.6790
  202MPD1    H7 3135   2.570   4.151   9.493 -0.2652  0.0141 -1.1105
  203MPD1     C 3136   1.894   0.672  12.308 -0.2462 -0.2568 -0.2096
  203MPD1    C1 3137   1.943   0.587  12.213 -0.0288  0.3738 -0.2447
  203MPD1    C2 3138   2.041   0.505  12.261  0.3872 -0.4233  0.3017
  203MPD1    C3 3139   2.076   0.489  12.397 -0.0789 -0.6942 -0.0025
  203MPD1    C4 3140   2.018   0.572  12.485 -0.3446 -0.0926 -0.0285
  203MPD1    C5 3141   1.926   0.662  12.443  0.9669  0.0743 -0.0220
  203MPD1     H 3142   2.092   0.439  12.192  1.1515  0.4833 -0.0041
  203MPD1    H1 3143   2.028   0.557  12.592 -2.9111  0.5441  0.3054
  203MPD1    H2 3144   1.833   0.757  12.281 -0.9807 -1.2519 -1.6589
  203MPD1    H3 3145   1.873   0.714  12.523  1.6967 -1.1879  1.2793
  203MPD1     N 3146   2.169   0.391  12.433 -0.2657  0.3744  0.0485
  203MPD1    H5 3147   2.196   0.327  12.359 -0.2303  0.4451  0.0009
  203MPD1    N1 3148   1.909   0.598  12.077 -0.3225 -0.4044 -0.2397
  203MPD1    H6 3149   1.811   0.618  12.059 -0.0735  0.8494 -0.1940
  203MPD1    H7 3150   1.933   0.510  12.032  0.4338 -0.2621 -0.1171
  204MPD1     C 3151   1.713   2.236   0.040  0.2208 -0.3036  0.3711
  204MPD1    C1 3152   1.776   2.227  17.665 -0.3930 -0.5389 -0.6991
  204MPD1    C2 3153   1.781   2.109  17.593  0.0257 -0.7949  0.2620
  204MPD1    C3 3154   1.713   1.999  17.645 -0.1133 -0.0026  0.0081
  204MPD1    C4 3155   1.636   2.008   0.016  0.1374 -0.0350  0.7482
  204MPD1    C5 3156   1.636   2.129   0.081  0.2543  0.1676  0.0751
  204MPD1     H 3157   1.832   2.112  17.497 -0.2323 -2.3653  0.0737
  204MPD1    H1 3158   1.581   1.931   0.069 -2.1460  1.5560  0.6845
  204MPD1    H2 3159   1.718   2.329   0.094  0.5662  1.3192 -2.4480
  204MPD1    H3 3160   1.586   2.146   0.175  0.8968  0.7637  0.3069
  204MPD1     N 3161   1.727   1.879  17.568  0.3748  0.1025  0.8337
  204MPD1    H5 3162   1.771   1.884  17.477  0.2727  0.2773  0.7922
  204MPD1    N1 3163   1.871   2.322  17.635  0.1386  0.2171  0.6538
  204MPD1    H6 3164   1.903   2.308  17.540 -0.0788  1.9707  0.3121
  204MPD1    H7 3165   1.834   2.417  17.634  1.2516  0.6084 -2.0308
  205MPD1     C 3166   2.347   0.443   0.308  0.5020 -0.4920 -0.3636
  205MPD1    C1 3167   2.337   0.336   0.216  0.0803 -0.1141 -0.2013
  205MPD1    C2 3168   2.263   0.358   0.104  0.0167  0.2526  1.0744
  205MPD1    C3 3169   2.184   0.472   0.086  0.1656  0.2339  0.0416
  205MPD1    C4 3170   2.187   0.566   0.185  0.6927 -0.6566 -0.0035
  205MPD1    C5 3171   2.267   0.553   0.295 -0.0897  0.4604  0.2012
  205MPD1     H 3172   2.258   0.277   0.033 -0.3296  2.1427 -1.0310
  205MPD1    H1 3173   2.119   0.650   0.176  0.1883 -0.9301  1.2353
  205MPD1    H2 3174   2.424   0.431   0.384  0.8231  0.0795 -0.6047
  205MPD1    H3 3175   2.265   0.636   0.365  0.0982  1.5798 -1.1190
  205MPD1     N 3176   2.098   0.497  17.725  0.2204 -0.2958 -0.4029
  205MPD1    H5 3177   2.072   0.592  17.703  0.3427 -0.0215  0.6888
  205MPD1    N1 3178   2.418   0.223   0.221 -0.0108 -0.5367 -0.1187
  205MPD1    H6 3179   2.377   0.141   0.177 -1.8153  0.2532  0.0997
  205MPD1    H7 3180   2.440   0.217   0.320  1.1722  1.3083 -0.2834
  206MPD1     C 3181   1.421   2.666  16.633  0.5557  0.7192 -0.0794
  206MPD1    C1 3182   1.397   2.799  16.631 -0.5845 -0.3468 -0.1789
  206MPD1    C2 3183   1.453   2.880  16.539 -0.1608  0.2851 -0.0738
  206MPD1    C3 3184   1.540   2.828  16.441 -0.2129 -0.4912 -0.0030
  206MPD1    C4 3185   1.556   2.694  16.432  0.3757 -0.2232  0.6315
  206MPD1    C5 3186   1.498   2.614  16.531  0.1558  0.1241  0.4914
  206MPD1     H 3187   1.442   2.986  16.557  1.4799  0.5292 -0.5028
  206MPD1    H1 3188   1.616   2.650  16.354 -0.9371 -0.8866  0.0051
  206MPD1    H2 3189   1.386   2.596  16.708  2.4552 -1.5640 -1.3272
  206MPD1    H3 3190   1.524   2.509  16.527 -3.1229 -0.6544 -0.3176
  206MPD1     N 3191   1.618   2.912  16.356  0.5801  0.0961  0.7820
  206MPD1    H5 3192   1.689   2.866  16.300 -2.3221 -2.7426 -0.5433
  206MPD1    N1 3193   1.333   2.860  16.738  0.1537 -0.1668  0.0882
  206MPD1    H6 3194   1.267   2.793  16.778 -0.7938 -0.0927 -1.3667
  206MPD1    H7 3195   1.282   2.944  16.712 -0.7508 -1.1699 -1.3667
  207MPD1     C 3196   0.524   0.851   9.216 -0.7433  0.1693 -0.3251
  207MPD1    C1 3197   0.500   0.752   9.309  0.2177 -0.5249  0.0423
  207MPD1    C2 3198   0.481   0.795   9.441  0.6243 -0.9712 -0.2308
  207MPD1    C3 3199   0.473   0.928   9.482 -0.3394 -0.2404  0.4187
  207MPD1    C4 3200   0.524   1.019   9.396 -0.0012  0.0669  0.3536
  207MPD1    C5 3201   0.546   0.978   9.267  0.3529  0.0994 -0.1699
  207MPD1     H 3202   0.468   0.726   9.524  0.9577 -3.0801 -1.9340
  207MPD1    H1 3203   0.525   1.125   9.418 -0.3786  0.4622 -1.5088
  207MPD1    H2 3204   0.555   0.824   9.116 -2.6438 -2.0862 -0.3039
  207MPD1    H3 3205   0.576   1.056   9.197  0.5341 -0.6810 -0.9585
  207MPD1     N 3206   0.443   0.960   9.621  0.3521  0.0758 -0.5091
  207MPD1    H5 3207   0.411   0.882   9.676 -2.1050  1.3594 -0.1309
  207MPD1    N1 3208   0.453   0.626   9.265  0.2962  0.2223  0.1503
  207MPD1    H6 3209   0.494   0.556   9.325 -2.1407 -0.6394  0.8038
  207MPD1    H7 3210   0.479   0.603   9.169  2.0856  0.6113  0.5369
  208MPD1     C 3211   1.466   3.404  17.540  0.1478 -0.8823 -0.0772
  208MPD1    C1 3212   1.408   3.506  17.470 -0.2868  0.4007  0.0125
  208MPD1    C2 3213   1.477   3.625  17.468  0.0632 -0.4047 -0.1250
  208MPD1    C3 3214   1.594   3.651  17.536 -0.1704  0.2983  0.1753
  208MPD1    C4 3215   1.649   3.545  17.605  0.1895  0.5680  0.0179
  208MPD1    C5 3216   1.587   3.422  17.602 -0.8263  0.1419  0.2567
  208MPD1     H 3217   1.437   3.708  17.410 -1.1443 -1.3895 -0.6958
  208MPD1    H1 3218   1.747   3.546  17.652  0.0288  0.0967  0.3600
  208MPD1    H2 3219   1.433   3.302  17.526  1.6830 -1.7491  2.7615
  208MPD1    H3 3220   1.629   3.334  17.650 -0.8380  0.5779  1.0685
  208MPD1     N 3221   1.647   3.785  17.527 -0.4087 -0.2087 -0.6882
  208MPD1    H5 3222   1.588   3.859  17.488 -0.1277 -0.1147 -0.9303
  208MPD1    N1 3223   1.322   3.482  17.371 -1.1868 -0.1381  0.4947
  208MPD1    H6 3224   1.273   3.395  17.391 -3.7880  1.1213 -0.4490
  208MPD1    H7 3225   1.246   3.545  17.344 -0.6928 -0.6102 -2.0495
  209MPD1     C 3226   4.614   4.480  10.657 -0.0070 -0.0444  0.2826
  209MPD1    C1 3227   4.648   4.548  10.540 -0.4637  0.7253 -0.8833
  209MPD1    C2 3228   4.686   4.676  10.549  0.1519  0.4559 -0.4564
  209MPD1    C3 3229   4.690   0.001  10.671 -0.0638 -0.2084  0.1100
  209MPD1    C4 3230   4.658   4.666  10.789  0.1398 -0.4244  0.5413
  209MPD1    C5 3231   4.622   4.535  10.779 -0.2781  0.0359  0.1760
  209MPD1     H 3232   4.709   4.731  10.458 -0.7961  1.3408 -0.1613
  209MPD1    H1 3233   4.662   4.716  10.885 -1.5571 -0.3227  0.5690
  209MPD1    H2 3234   4.586   4.376  10.645 -2.4293  0.3993  2.1121
  209MPD1    H3 3235   4.596   4.478  10.867  0.7631  0.5172  0.7917
  209MPD1     N 3236   4.730   0.140  10.669  0.2531  0.3207 -0.1252
  209MPD1    H5 3237   0.027   0.178  10.581 -0.3909  2.5363  0.5921
  209MPD1    N1 3238   4.648   4.468  10.419 -0.6301  0.2594 -0.4675
  209MPD1    H6 3239   4.572   4.402  10.428  0.8444 -1.2568  0.9161
  209MPD1    H7 3240   4.645   4.526  10.336  0.9236  3.1410  1.4688
  210MPD1     C 3241   4.622   0.802  11.402  0.0656 -0.6951  0.4200
  210MPD1    C1 3242   4.616   0.877  11.289  0.0897 -0.4058  0.1230
  210MPD1    C2 3243   4.651   0.831  11.160  0.2515  0.7321  0.2662
  210MPD1    C3 3244   4.675   0.695  11.145 -0.0811  0.8004  0.4220
  210MPD1    C4 3245   4.685   0.618  11.263 -0.3357 -0.3925 -0.1462
  210MPD1    C5 3246   4.661   0.674  11.386 -0.3174  0.8071  0.0523
  210MPD1     H 3247   4.657   0.894  11.072 -0.1222  0.1703 -0.1648
  210MPD1    H1 3248   4.708   0.513  11.278  2.9911  0.2105 -0.9863
  210MPD1    H2 3249   4.604   0.839  11.502  1.7174  1.6910 -0.1831
  210MPD1    H3 3250   4.659   0.614  11.476 -0.6891  0.9334  0.1253
  210MPD1     N 3251   4.712   0.639  11.027 -0.0094  0.3317  0.5724
  210MPD1    H5 3252   4.732   0.540  11.042 -3.9401 -0.6416 -0.5009
  210MPD1    N1 3253   4.605   1.017  11.293 -0.2052  0.3899 -0.2626
  210MPD1    H6 3254   4.550   1.049  11.372 -0.4343  1.5928 -0.9003
  210MPD1    H7 3255   4.559   1.053  11.209 -1.2290  0.3242  0.2739
  211MPD1     C 3256   2.985   0.502  16.737  0.1998 -0.2854  0.2667
  211MPD1    C1 3257   2.929   0.594  16.650  0.0293 -0.3986 -0.1614
  211MPD1    C2 3258   2.791   0.592  16.629  0.1572 -0.0969 -0.0795
  211MPD1    C3 3259   2.717   0.513  16.710  0.1413  0.2681  0.2329
  211MPD1    C4 3260   2.774   0.440  16.812  0.0561 -0.3902  0.1231
  211MPD1    C5 3261   2.906   0.425  16.814 -0.3210 -0.2963 -0.0938
  211MPD1     H 3262   2.742   0.664  16.564  1.0966  1.0275  0.4612
  211MPD1    H1 3263   2.712   0.388  16.885  0.2143 -0.4984  0.1798
  211MPD1    H2 3264   3.091   0.484  16.746 -0.1742 -2.1522  0.8769
  211MPD1    H3 3265   2.951   0.361  16.889 -0.1464  0.8262  0.7598
  211MPD1     N 3266   2.584   0.513  16.687  0.4336  0.1760 -0.4504
  211MPD1    H5 3267   2.551   0.541  16.596  1.6096  3.4218  0.1240
  211MPD1    N1 3268   3.014   0.683  16.587 -0.2191 -0.4984 -0.5887
  211MPD1    H6 3269   2.970   0.767  16.551  0.1842 -1.2606 -2.8634
  211MPD1    H7 3270   3.092   0.716  16.643 -1.2827  2.3692 -0.8192
  212MPD1     C 3271   1.135   3.608  16.631 -0.6131  0.4533 -0.1599
  212MPD1    C1 3272   1.219   3.502  16.638 -0.1965 -0.0898  0.1098
  212MPD1    C2 3273   1.165   3.376  16.664  0.5242  0.6095 -0.4288
  212MPD1    C3 3274   1.030   3.366  16.703 -0.3505  0.4141  0.2109
  212MPD1    C4 3275   0.949   3.485  16.700  0.0557 -0.2174  0.5136
  212MPD1    C5 3276   1.008   3.604  16.681  0.1883  0.4489  0.3515
  212MPD1     H 3277   1.236   3.296  16.649 -1.0013 -1.4836  3.6986
  212MPD1    H1 3278   0.845   3.487  16.731  0.2863  2.0209  1.1288
  212MPD1    H2 3279   1.176   3.702  16.597 -2.0290  0.9617 -0.4759
  212MPD1    H3 3280   0.948   3.693  16.696  0.0179  0.4640 -0.4000
  212MPD1     N 3281   0.962   3.249  16.735 -0.3093 -0.4744 -0.3672
  212MPD1    H5 3282   0.864   3.270  16.752 -0.0639 -1.3473  2.0287
  212MPD1    N1 3283   1.350   3.511  16.587 -0.8528  0.4182 -0.4870
  212MPD1    H6 3284   1.396   3.596  16.616  0.2897 -0.1278 -0.7257
  212MPD1    H7 3285   1.414   3.437  16.616 -1.3560  0.3085  0.3456
  213MPD1     C 3286   4.721   3.902  15.508 -0.4222  0.0676 -0.4424
  213MPD1    C1 3287   4.615   3.862  15.586  0.5066  0.1593  0.8529
  213MPD1    C2 3288   4.500   3.900  15.531 -0.1393 -0.5502  0.3501
  213MPD1    C3 3289   4.484   4.000  15.435 -0.1248 -0.5908 -0.5090
  213MPD1    C4 3290   4.596   4.057  15.382 -0.2336 -0.1382 -1.2809
  213MPD1    C5 3291   4.717   4.003  15.417  0.4022  0.3847  0.6182
  213MPD1     H 3292   4.407   3.847  15.553 -0.5895 -0.6310 -1.7076
  213MPD1    H1 3293   4.583   4.129  15.302 -0.8977 -0.5196 -1.5206
  213MPD1    H2 3294   0.084   3.864  15.531 -0.3800  1.7259  2.1951
  213MPD1    H3 3295   0.063   4.050  15.364  0.6822 -1.4175 -0.5207
  213MPD1     N 3296   4.354   4.048  15.407 -0.6489 -0.0007 -0.4673
  213MPD1    H5 3297   4.274   4.007  15.453 -1.9488  2.1186 -0.8539
  213MPD1    N1 3298   4.637   3.743  15.663 -0.0431 -0.8891  0.3260
  213MPD1    H6 3299   4.577   3.745  15.745 -1.2035  0.5254 -0.5605
  213MPD1    H7 3300   4.730   3.756  15.701 -0.6829 -1.3780  2.0562
  214MPD1     C 3301   3.594   3.575  15.027 -0.8267 -0.2593 -0.2778
  214MPD1    C1 3302   3.668   3.567  15.142 -0.7045  0.0043  0.0965
  214MPD1    C2 3303   3.743   3.673  15.182  0.6189 -0.0648 -0.0221
  214MPD1    C3 3304   3.737   3.798  15.116 -0.0068 -0.1256  0.3185
  214MPD1    C4 3305   3.666   3.804  14.999  0.0647  0.3016  0.1722
  214MPD1    C5 3306   3.600   3.685  14.958  0.2369 -0.7581 -0.3511
  214MPD1     H 3307   3.806   3.654  15.268  2.4507 -0.6514 -1.4816
  214MPD1    H1 3308   3.662   3.892  14.937 -3.0718  0.8948  1.2338
  214MPD1    H2 3309   3.559   3.480  14.987  0.2088 -0.5490 -0.5118
  214MPD1    H3 3310   3.557   3.687  14.858 -0.9671 -0.4550  0.1770
  214MPD1     N 3311   3.804   3.910  15.173 -0.4603  0.0596  0.1725
  214MPD1    H5 3312   3.758   3.998  15.150  0.5309  0.8443  1.1563
  214MPD1    N1 3313   3.681   3.444  15.212 -0.3042 -0.5531 -0.1790
  214MPD1    H6 3314   3.602   3.380  15.219 -0.4227 -0.2054  1.6044
  214MPD1    H7 3315   3.720   3.452  15.305 -1.0688  3.5991 -0.2236
  215MPD1     C 3316   4.625   0.340  10.063 -0.3612  0.5483 -0.4453
  215MPD1    C1 3317   4.636   0.468  10.099 -0.0447  0.9051 -0.4330
  215MPD1    C2 3318   4.564   0.504  10.217  0.0705  0.4183  0.3163
  215MPD1    C3 3319   4.501   0.410  10.290 -0.1226  0.0294 -1.3317
  215MPD1    C4 3320   4.510   0.279  10.262 -0.2132 -0.2443  0.2745
  215MPD1    C5 3321   4.573   0.240  10.143 -0.2324  0.1075  0.0061
  215MPD1     H 3322   4.554   0.608  10.245  0.7411  0.3918  0.6485
  215MPD1    H1 3323   4.466   0.202  10.325 -0.5463  0.0906  0.4518
  215MPD1    H2 3324   4.675   0.311   9.972  0.7764 -1.3588  0.7740
  215MPD1    H3 3325   4.574   0.133  10.124 -1.9057 -0.5275  3.3884
  215MPD1     N 3326   4.422   0.449  10.404 -0.2279 -0.1835 -0.1299
  215MPD1    H5 3327   4.395   0.546  10.396  1.4517  0.2519 -0.5008
  215MPD1    N1 3328   4.690   0.558  10.008 -0.2413  0.4914 -0.3496
  215MPD1    H6 3329   4.726   0.640  10.057 -0.9439  1.2607 -1.1169
  215MPD1    H7 3330   0.027   0.520   9.950 -1.3132 -1.4375 -0.4512
  216MPD1     C 3331   0.808   3.407   0.266  0.3573 -0.3318 -0.9493
  216MPD1    C1 3332   0.856   3.382   0.138  0.3592  0.4661  0.0161
  216MPD1    C2 3333   0.908   3.257   0.112  0.2850  0.1065  0.3484
  216MPD1    C3 3334   0.920   3.157   0.203  0.1421  0.1875 -0.0073
  216MPD1    C4 3335   0.885   3.187   0.335 -0.5933 -0.5804 -0.6875
  216MPD1    C5 3336   0.822   3.307   0.364  0.6599 -0.2446  0.0943
  216MPD1     H 3337   0.943   3.243   0.010 -0.1933  2.1298 -0.0960
  216MPD1    H1 3338   0.911   3.117   0.413 -0.7290 -1.8168 -1.7466
  216MPD1    H2 3339   0.763   3.501   0.294 -2.9013 -2.6665  1.5839
  216MPD1    H3 3340   0.791   3.321   0.467  0.0707 -2.5687  0.2246
  216MPD1     N 3341   0.985   3.035   0.164 -0.3058 -0.0260  0.0422
  216MPD1    H5 3342   0.990   3.016   0.064 -0.6040 -0.4584  0.1115
  216MPD1    N1 3343   0.821   3.467   0.033  0.5610  0.5296 -0.6243
  216MPD1    H6 3344   0.827   3.562   0.068  2.3518 -0.1976  1.0365
  216MPD1    H7 3345   0.885   3.455  17.700 -0.9492 -1.8377 -1.5103
  217MPD1     C 3346   0.858   3.836   9.142 -0.6523  0.2420  0.8964
  217MPD1    C1 3347   0.989   3.807   9.103 -0.0526  0.3338  0.1265
  217MPD1    C2 3348   1.082   3.908   9.098  0.0408  0.9890  0.5566
  217MPD1    C3 3349   1.054   4.044   9.108 -0.0311 -0.4256 -0.1046
  217MPD1    C4 3350   0.923   4.080   9.146 -0.4109 -0.1139  0.3318
  217MPD1    C5 3351   0.835   3.971   9.170 -0.9057 -0.1479 -0.4607
  217MPD1     H 3352   1.178   3.875   9.060  0.2579  1.3937  0.7466
  217MPD1    H1 3353   0.894   4.183   9.160  1.1217  0.4748 -0.8588
  217MPD1    H2 3354   0.777   3.766   9.159  1.0123 -1.0898  3.4518
  217MPD1    H3 3355   0.733   3.998   9.195 -0.3542  0.9926  0.5789
  217MPD1     N 3356   1.140   4.149   9.075 -0.3121 -0.5896  0.0278
  217MPD1    H5 3357   1.100   4.242   9.086 -2.7707 -1.5582 -0.5997
  217MPD1    N1 3358   1.014   3.676   9.059  0.7828  0.4688  0.5659
  217MPD1    H6 3359   0.945   3.605   9.082  1.3071 -0.0890  0.4199
  217MPD1    H7 3360   1.102   3.642   9.097  0.1430 -1.2993  0.5088
  218MPD1     C 3361   3.786   0.731  13.191  0.7364  0.3522  0.9597
  218MPD1    C1 3362   3.899   0.650  13.210 -0.1424  0.8719 -0.3273
  218MPD1    C2 3363   3.961   0.601  13.090 -0.0108  0.2712  0.2408
  218MPD1    C3 3364   3.920   0.637  12.957 -0.6223  0.4615 -0.3219
  218MPD1    C4 3365   3.803   0.713  12.951 -0.3483  1.9301 -0.0248
  218MPD1    C5 3366   3.743   0.760  13.067 -0.3873  0.5223  0.3713
  218MPD1     H 3367   4.049   0.538  13.096  0.9761  1.6854  0.5752
  218MPD1    H1 3368   3.757   0.731  12.854  0.3285 -1.2943 -0.9502
  218MPD1    H2 3369   3.739   0.774  13.279 -2.3240 -0.3385 -0.3402
  218MPD1    H3 3370   3.654   0.823  13.059 -0.5803  0.0255 -1.4687
  218MPD1     N 3371   3.985   0.599  12.840 -0.8166  0.0937  0.1242
  218MPD1    H5 3372   4.057   0.528  12.849 -3.9350 -2.9756  0.5545
  218MPD1    N1 3373   3.934   0.617  13.340  0.0584 -0.1571  0.7752
  218MPD1    H6 3374   4.033   0.592  13.338  0.7572  2.4112  1.8922
  218MPD1    H7 3375   3.921   0.695  13.404 -1.1529  0.1671  0.1259
  219MPD1     C 3376   4.180   0.935  11.877 -0.2721 -0.0215 -0.8744
  219MPD1    C1 3377   4.110   0.822  11.858 -0.9711  0.2965 -0.0695
  219MPD1    C2 3378   4.072   0.759  11.975 -0.1721 -0.1088 -0.4392
  219MPD1    C3 3379   4.081   0.814  12.106 -0.3307 -0.2354 -0.4312
  219MPD1    C4 3380   4.136   0.940  12.109  0.0150 -0.1616 -0.0328
  219MPD1    C5 3381   4.191   0.998  11.997  0.1395  0.4599  0.0363
  219MPD1     H 3382   4.032   0.658  11.974  0.5146 -0.3888  0.5366
  219MPD1    H1 3383   4.138   1.003  12.198 -1.3391 -1.9357  1.2605
  219MPD1    H2 3384   4.233   0.979  11.793 -1.3944 -1.1352 -2.1723
  219MPD1    H3 3385   4.236   1.097  11.998  0.2713  0.3874  0.9781
  219MPD1     N 3386   4.054   0.744  12.225  0.8000  1.1672 -0.1359
  219MPD1    H5 3387   4.056   0.801  12.309  1.6008  0.7714  0.1177
  219MPD1    N1 3388   4.124   0.757  11.733 -0.5919  0.1324  0.0571
  219MPD1    H6 3389   4.057   0.681  11.721  0.4749 -0.7281 -0.4319
  219MPD1    H7 3390   4.116   0.818  11.652  0.6519 -1.4620 -1.2535
  220MPD1     C 3391   3.086   1.736  10.430  0.4790 -0.0350 -0.0976
  220MPD1    C1 3392   3.200   1.696  10.490 -0.1545 -0.9720  0.5071
  220MPD1    C2 3393   3.261   1.576  10.453 -0.3352 -0.2475 -0.1370
  220MPD1    C3 3394   3.209   1.506  10.347 -0.5817 -0.3077  0.1637
  220MPD1    C4 3395   3.088   1.542  10.296  1.0143  0.6514  0.1157
  220MPD1    C5 3396   3.034   1.663  10.336 -0.4194 -0.1982  0.2145
  220MPD1     H 3397   3.349   1.545  10.508 -1.2725 -0.2808  1.3451
  220MPD1    H1 3398   3.041   1.486  10.216 -0.3138  1.0934  0.5809
  220MPD1    H2 3399   3.043   1.829  10.463  1.3497  0.9687 -1.8172
  220MPD1    H3 3400   2.937   1.688  10.297 -0.3083  0.0652  0.1064
  220MPD1     N 3401   3.267   1.381  10.304 -0.0058  0.5974  0.1815
  220MPD1    H5 3402   3.355   1.362  10.351 -0.4255 -1.5795  0.1039
  220MPD1    N1 3403   3.256   1.773  10.596 -0.0225 -0.0757 -0.5097
  220MPD1    H6 3404   3.331   1.725  10.646 -1.1463 -0.6087  0.6680
  220MPD1    H7 3405   3.185   1.820  10.652  0.2885  0.0188 -0.1970
  221MPD1     C 3406   2.767   4.004  16.744 -0.3894  0.4690  0.1789
  221MPD1    C1 3407   2.641   4.010  16.800  0.1186  0.2887 -0.0026
  221MPD1    C2 3408   2.543   4.062  16.718  0.5601 -0.0947  0.1803
  221MPD1    C3 3409   2.567   4.128  16.602  0.0825 -0.5373  0.2368
  221MPD1    C4 3410   2.698   4.147  16.560  0.2167  0.0876  0.6481
  221MPD1    C5 3411   2.798   4.077  16.632  0.3068  0.5105  0.5481
  221MPD1     H 3412   2.439   4.062  16.748 -0.1275  0.8375 -2.2116
  221MPD1    H1 3413   2.732   4.218  16.485 -0.1470 -0.7410 -0.2952
  221MPD1    H2 3414   2.845   3.944  16.791 -2.0370 -1.2777  0.6695
  221MPD1    H3 3415   2.902   4.083  16.601  0.1393  2.1551  0.3139
  221MPD1     N 3416   2.465   4.177  16.515  0.3175 -0.0118  0.4765
  221MPD1    H5 3417   2.500   4.228  16.434 -0.0802 -0.8016 -0.1854
  221MPD1    N1 3418   2.609   3.933  16.910  0.2372  0.1779 -0.2734
  221MPD1    H6 3419   2.517   3.966  16.940 -1.2383 -1.3214 -3.0622
  221MPD1    H7 3420   2.684   3.921  16.977  0.6444 -0.6006 -0.8707
  222MPD1     C 3421   1.246   2.874  17.097 -0.0633  0.0311  0.1292
  222MPD1    C1 3422   1.245   3.011  17.089  0.2704  0.1010 -0.5672
  222MPD1    C2 3423   1.132   3.073  17.138 -0.5359 -0.1338  0.1584
  222MPD1    C3 3424   1.026   3.002  17.199  0.4424  0.9590 -0.5682
  222MPD1    C4 3425   1.043   2.867  17.216  0.1917  0.6746  0.0228
  222MPD1    C5 3426   1.158   2.810  17.176 -0.2257  0.0790 -0.7018
  222MPD1     H 3427   1.137   3.180  17.119  0.5707 -0.1316  0.4311
  222MPD1    H1 3428   0.972   2.812  17.276  0.9022 -1.8330 -1.4198
  222MPD1    H2 3429   1.330   2.813  17.065  0.5705  0.3778  1.1379
  222MPD1    H3 3430   1.174   2.703  17.188  0.5354  0.0850 -1.6458
  222MPD1     N 3431   0.913   3.067  17.254 -0.5615  0.1810 -0.2727
  222MPD1    H5 3432   0.848   3.013  17.310  2.3208 -2.1766  0.7422
  222MPD1    N1 3433   1.335   3.071  16.996  0.2871 -0.2082  0.5955
  222MPD1    H6 3434   1.297   3.044  16.906 -0.3500 -0.6614  1.0023
  222MPD1    H7 3435   1.327   3.173  17.001  1.3875  0.0313 -2.6949
  223MPD1     C 3436   0.358   3.032   0.288  0.0471 -0.5011 -0.3199
  223MPD1    C1 3437   0.405   3.156   0.317 -0.1195  0.4585  0.1377
  223MPD1    C2 3438   0.485   3.205   0.218  0.0739  0.6686  0.5095
  223MPD1    C3 3439   0.493   3.140   0.096  0.0838  0.5817 -0.5407
  223MPD1    C4 3440   0.424   3.023   0.074  0.8266 -0.1084  0.5420
  223MPD1    C5 3441   0.365   2.963   0.177  0.8646 -0.6507  0.1276
  223MPD1     H 3442   0.547   3.292   0.237 -0.7377  1.1903  0.7916
  223MPD1    H1 3443   0.421   2.973  17.723  0.4224  0.4657  0.2513
  223MPD1    H2 3444   0.310   2.977   0.369 -2.1805  1.0359 -0.5904
  223MPD1    H3 3445   0.341   2.857   0.172 -1.4732  0.1035 -4.4762
  223MPD1     N 3446   0.559   3.214  17.737  0.0611 -0.0717  0.1244
  223MPD1    H5 3447   0.594   3.309   0.002  1.6047 -0.6225 -0.0757
  223MPD1    N1 3448   0.392   3.201   0.446 -0.4701 -0.2125  0.1509
  223MPD1    H6 3449   0.302   3.171   0.484 -0.4858  1.0229  1.0885
  223MPD1    H7 3450   0.385   3.303   0.441  0.5818 -0.0827  1.3580
  224MPD1     C 3451   1.247   0.904   9.172  0.1045 -0.0929 -0.5145
  224MPD1    C1 3452   1.323   0.809   9.105  0.1620 -0.1932 -0.3652
  224MPD1    C2 3453   1.453   0.805   9.134 -0.3186 -0.0297 -0.2585
  224MPD1    C3 3454   1.500   0.865   9.252  0.0114  0.4006 -0.6353
  224MPD1    C4 3455   1.419   0.935   9.335 -0.2480  0.6329  0.2783
  224MPD1    C5 3456   1.296   0.965   9.284  0.4938  0.0198  0.1908
  224MPD1     H 3457   1.516   0.739   9.076 -0.0151  0.3946 -0.4020
  224MPD1    H1 3458   1.456   0.981   9.426 -0.3155  1.4239 -0.0901
  224MPD1    H2 3459   1.142   0.927   9.155  0.0036  1.5449  2.3094
  224MPD1    H3 3460   1.235   1.034   9.341  0.5366  0.0866  0.1553
  224MPD1     N 3461   1.635   0.856   9.295  0.2194 -0.1011 -0.0074
  224MPD1    H5 3462   1.653   0.887   9.390  0.1921 -1.6022  0.4918
  224MPD1    N1 3463   1.277   0.758   8.980  0.9097 -0.3789 -0.0677
  224MPD1    H6 3464   1.315   0.665   8.965 -0.1422 -1.0365  1.3987
  224MPD1    H7 3465   1.179   0.743   9.004  0.9637 -1.8171 -0.7296
  225MPD1     C 3466   3.412   0.603  13.364  0.3424 -0.0207  0.0450
  225MPD1    C1 3467   3.417   0.533  13.243  0.2230  0.5359  0.2738
  225MPD1    C2 3468   3.405   0.607  13.130 -0.2119 -0.1917  0.8642
  225MPD1    C3 3469   3.400   0.743  13.119 -0.4454  0.6125 -0.2560
  225MPD1    C4 3470   3.389   0.809  13.240 -0.8987  0.1773 -0.5952
  225MPD1    C5 3471   3.403   0.738  13.357 -0.5111 -0.1427 -0.4758
  225MPD1     H 3472   3.405   0.547  13.040 -1.1782 -3.7346  3.2272
  225MPD1    H1 3473   3.352   0.910  13.235 -3.7058 -0.8085  0.0530
  225MPD1    H2 3474   3.414   0.561  13.464  0.1303 -3.3131 -1.3089
  225MPD1    H3 3475   3.405   0.786  13.454  1.2523  0.4719 -0.8100
  225MPD1     N 3476   3.385   0.813  12.994 -0.7725  0.4311  0.2469
  225MPD1    H5 3477   3.345   0.906  12.999 -1.1731  0.2374  0.6734
  225MPD1    N1 3478   3.400   0.393  13.243  0.0757  0.0484  0.2526
  225MPD1    H6 3479   3.410   0.342  13.331  0.3975  0.0212  0.2023
  225MPD1    H7 3480   3.449   0.359  13.160  1.1882 -0.4444  1.1143
  226MPD1     C 3481   0.873   1.551   9.178  0.2049  0.1155 -0.4610
  226MPD1    C1 3482   0.952   1.514   9.284  0.3312  0.3987 -0.1134
  226MPD1    C2 3483   1.078   1.459   9.262  0.0420  0.0496  0.5635
  226MPD1    C3 3484   1.122   1.421   9.135  0.5046  0.0058 -0.2393
  226MPD1    C4 3485   1.034   1.442   9.037 -0.3555  0.0689 -0.2287
  226MPD1    C5 3486   0.911   1.504   9.059  0.1492  0.2874 -0.0679
  226MPD1     H 3487   1.140   1.445   9.350  0.1451  1.9979  0.8115
  226MPD1    H1 3488   1.054   1.418   8.933  1.5573 -0.9109  0.3629
  226MPD1    H2 3489   0.777   1.599   9.191  0.0293  0.6046 -3.4964
  226MPD1    H3 3490   0.850   1.519   8.970 -0.1186  1.5654  0.3318
  226MPD1     N 3491   1.252   1.368   9.118 -0.0235 -0.9137 -0.7362
  226MPD1    H5 3492   1.300   1.349   9.205 -0.5278 -0.2074 -0.3099
  226MPD1    N1 3493   0.923   1.559   9.414 -0.2121 -0.2189  0.1527
  226MPD1    H6 3494   0.825   1.562   9.444 -0.1833 -0.4503  0.2707
  226MPD1    H7 3495   0.975   1.525   9.495 -1.1388 -2.9204 -0.3709
  227MPD1     C 3496   1.833   1.277   9.743  0.4265  0.2055  0.2306
  227MPD1    C1 3497   1.705   1.317   9.726 -0.1116  0.3411 -0.7272
  227MPD1    C2 3498   1.651   1.327   9.597 -0.4659  0.3805  0.7528
  227MPD1    C3 3499   1.715   1.271   9.492 -0.2171 -0.1094  0.5167
  227MPD1    C4 3500   1.851   1.234   9.509  0.0014 -0.3382  0.1664
  227MPD1    C5 3501   1.907   1.234   9.633  0.0168  0.3315 -0.1529
  227MPD1     H 3502   1.557   1.378   9.579 -2.1660 -3.4010 -1.1213
  227MPD1    H1 3503   1.907   1.187   9.430 -0.7422  0.6964 -0.9749
  227MPD1    H2 3504   1.880   1.284   9.840 -0.4785 -2.2159  0.8538
  227MPD1    H3 3505   2.006   1.194   9.648 -0.8398 -1.5071  0.5927
  227MPD1     N 3506   1.649   1.267   9.368  0.3728 -0.5495  0.4417
  227MPD1    H5 3507   1.555   1.303   9.368 -0.2023 -2.0291  0.0592
  227MPD1    N1 3508   1.642   1.377   9.834 -0.1154  0.0201  0.0370
  227MPD1    H6 3509   1.543   1.355   9.830 -0.2549  0.3253  2.2278
  227MPD1    H7 3510   1.687   1.341   9.917 -0.4847 -0.0594  0.2037
  228MPD1     C 3511   4.539   3.861  11.994  0.2340  0.2479  0.0671
  228MPD1    C1 3512   4.609   3.806  12.097  0.5566  0.3932  0.3685
  228MPD1    C2 3513   4.554   3.787  12.224 -1.3457 -0.0644  0.0708
  228MPD1    C3 3514   4.428   3.840  12.245 -0.1292  0.5801  0.8159
  228MPD1    C4 3515   4.361   3.907  12.142  0.1423  0.3987  0.5308
  228MPD1    C5 3516   4.413   3.909  12.014  0.1012  0.0558 -0.6451
  228MPD1     H 3517   4.613   3.733  12.297 -1.9655  0.7666  1.1843
  228MPD1    H1 3518   4.262   3.946  12.161  0.2592  1.1440 -0.3523
  228MPD1    H2 3519   4.585   3.869  11.897 -1.1786  0.0831 -0.6090
  228MPD1    H3 3520   4.357   3.961  11.937 -0.4554 -2.1475 -1.7566
  228MPD1     N 3521   4.367   3.836  12.375 -0.4500 -0.4874  0.1414
  228MPD1    H5 3522   4.276   3.877  12.394  0.1211  0.8855 -0.1580
  228MPD1    N1 3523   4.735   3.751  12.062 -0.3902 -0.9172 -0.3955
  228MPD1    H6 3524   0.065   3.769  12.136 -0.0440 -2.9054 -0.2120
  228MPD1    H7 3525   0.033   3.775  11.969  0.0020  0.4021  0.0924
  229MPD1     C 3526   0.354   2.897  14.703  0.3004  0.5096 -0.2962
  229MPD1    C1 3527   0.339   2.767  14.663  0.1908  0.3745  0.1924
  229MPD1    C2 3528   0.380   2.667  14.750  0.3842  0.6220  0.5847
  229MPD1    C3 3529   0.462   2.688  14.853 -0.3967 -0.4644  0.5816
  229MPD1    C4 3530   0.495   2.821  14.882 -0.1501 -0.4615 -0.1498
  229MPD1    C5 3531   0.436   2.919  14.807  0.6116  0.4063 -0.2868
  229MPD1     H 3532   0.360   2.564  14.722  3.2392  0.5513 -1.2053
  229MPD1    H1 3533   0.556   2.850  14.966 -0.9958 -2.6958  1.2308
  229MPD1    H2 3534   0.306   2.986  14.664 -1.5260 -0.9342 -1.3681
  229MPD1    H3 3535   0.453   3.020  14.841  0.3721 -0.4499  2.3504
  229MPD1     N 3536   0.514   2.566  14.915 -0.4682 -0.0554 -0.3651
  229MPD1    H5 3537   0.494   2.478  14.869 -0.9757  0.7787 -1.7353
  229MPD1    N1 3538   0.247   2.740  14.558  0.0821 -0.2798 -0.2865
  229MPD1    H6 3539   0.250   2.644  14.524 -0.4063 -0.4188  0.0584
  229MPD1    H7 3540   0.239   2.808  14.482 -0.0986  0.2200  0.1789
  230MPD1     C 3541   0.944   2.241  15.873 -0.2781  0.6710  0.0868
  230MPD1    C1 3542   0.984   2.154  15.770 -0.1572  0.0544  0.0445
  230MPD1    C2 3543   0.927   2.163  15.644 -0.3829  0.1889 -0.6075
  230MPD1    C3 3544   0.831   2.261  15.616 -0.4748  0.1449  0.0908
  230MPD1    C4 3545   0.796   2.343  15.717  0.4136 -0.1026  0.6871
  230MPD1    C5 3546   0.854   2.336  15.839  0.3223  0.2270 -0.5770
  230MPD1     H 3547   0.969   2.097  15.569 -0.3261  0.3832 -0.7493
  230MPD1    H1 3548   0.716   2.415  15.699  0.2375 -0.7981 -1.3959
  230MPD1    H2 3549   0.974   2.229  15.976 -1.7827  1.1327  0.5870
  230MPD1    H3 3550   0.816   2.405  15.914 -2.1240 -2.0876  0.3515
  230MPD1     N 3551   0.769   2.273  15.486 -0.7516 -0.1861  0.1922
  230MPD1    H5 3552   0.783   2.200  15.416  2.0159 -0.5494  1.1033
  230MPD1    N1 3553   1.102   2.081  15.788 -0.3076  0.0265  0.6078
  230MPD1    H6 3554   1.097   2.000  15.727 -1.4224 -0.0726  0.8296
  230MPD1    H7 3555   1.120   2.058  15.886  0.2904 -0.3964  0.4005
  231MPD1     C 3556   3.214   4.590  15.482  0.2178 -0.0227  0.0428
  231MPD1    C1 3557   3.175   4.570  15.353  0.2888  1.1044 -0.0430
  231MPD1    C2 3558   3.267   4.590  15.256  0.4578  0.3167 -0.4774
  231MPD1    C3 3559   3.404   4.614  15.274  0.0909 -0.3851  0.4137
  231MPD1    C4 3560   3.437   4.624  15.410 -0.3532  0.1120 -0.2732
  231MPD1    C5 3561   3.347   4.610  15.506  0.0771  0.8016 -0.3150
  231MPD1     H 3562   3.230   4.589  15.154 -1.5671  2.0239  0.2234
  231MPD1    H1 3563   3.541   4.634  15.438 -1.5249  0.7583  3.7958
  231MPD1    H2 3564   3.150   4.589  15.569  0.7008 -2.1331  0.3771
  231MPD1    H3 3565   3.400   4.607  15.601  1.4851 -0.9464 -1.1441
  231MPD1     N 3566   3.496   4.622  15.168 -0.4983 -0.6260 -0.3595
  231MPD1    H5 3567   3.459   4.608  15.074  3.7449 -0.0135 -2.1247
  231MPD1    N1 3568   3.038   4.558  15.324  0.2541 -0.2996  0.1361
  231MPD1    H6 3569   2.977   4.508  15.389  0.9259 -1.3099 -0.0090
  231MPD1    H7 3570   3.018   4.541  15.225 -0.7368  0.5570  0.1927
  232MPD1     C 3571   0.316   1.946   0.016  0.3038  0.3325 -0.4792
  232MPD1    C1 3572   0.232   2.006  17.671  0.8631  0.3137 -0.1956
  232MPD1    C2 3573   0.096   2.002  17.692 -0.4163 -0.9228 -0.1773
  232MPD1    C3 3574   0.035   1.921   0.043 -0.0705 -0.0937  0.3687
  232MPD1    C4 3575   0.127   1.875   0.136 -0.1018 -0.3153 -0.0304
  232MPD1    C5 3576   0.263   1.875   0.118 -0.6051 -0.4925 -0.0968
  232MPD1     H 3577   0.032   2.059  17.626 -0.9896 -0.6409  0.6264
  232MPD1    H1 3578   0.087   1.825   0.223 -1.1461  2.1570  0.8935
  232MPD1    H2 3579   0.422   1.972   0.012  0.5174 -0.7636 -1.6464
  232MPD1    H3 3580   0.327   1.813   0.180  0.4663  0.3867 -0.3197
  232MPD1     N 3581   4.632   1.922   0.060  0.3293 -0.3637 -0.1035
  232MPD1    H5 3582   4.583   1.974  17.733 -2.4281 -1.1632  1.2236
  232MPD1    N1 3583   0.286   2.095  17.573 -0.1811  0.9002 -0.0396
  232MPD1    H6 3584   0.212   2.109  17.505 -0.1278  2.3091  0.1867
  232MPD1    H7 3585   0.374   2.059  17.537 -1.7003  0.0024 -2.7855
  233MPD1     C 3586   0.497   4.465   1.561  0.4508 -0.2760  0.3355
  233MPD1    C1 3587   0.535   4.564   1.650  0.5106 -0.5502  0.2727
  233MPD1    C2 3588   0.656   4.629   1.621 -0.3703 -0.3704  0.5046
  233MPD1    C3 3589   0.733   4.605   1.508  0.0248 -0.9209  0.3158
  233MPD1    C4 3590   0.679   4.508   1.421 -0.2187  1.0902  0.5814
  233MPD1    C5 3591   0.572   4.433   1.454  0.3129  0.0597  0.4120
  233MPD1     H 3592   0.690   4.699   1.698  0.0250 -0.5772  0.5146
  233MPD1    H1 3593   0.733   4.479   1.332  1.3061  1.0305  1.5175
  233MPD1    H2 3594   0.408   4.404   1.571  0.6360 -0.5137  0.5286
  233MPD1    H3 3595   0.559   4.355   1.380  3.2139 -0.4377  0.4250
  233MPD1     N 3596   0.850   4.671   1.463  0.2486 -0.2471 -0.5978
  233MPD1    H5 3597   0.892   4.623   1.383  2.1624  0.3760  0.0382
  233MPD1    N1 3598   0.448   4.608   1.756  0.0737  0.4327 -0.0645
  233MPD1    H6 3599   0.396   4.529   1.794 -0.2362  0.3215 -0.7370
  233MPD1    H7 3600   0.503   4.635   1.838  0.0798  4.0873 -1.3011
  234MPD1     C 3601   2.911   4.329   8.370  0.0273 -0.4669  0.1178
  234MPD1    C1 3602   2.779   4.339   8.345 -0.9579  0.8712 -0.1814
  234MPD1    C2 3603   2.689   4.350   8.450  0.7134 -0.0436 -0.1130
  234MPD1    C3 3604   2.732   4.372   8.580 -0.2450 -0.0875  0.0479
  234MPD1    C4 3605   2.867   4.369   8.603  0.1459 -0.0264  0.6835
  234MPD1    C5 3606   2.952   4.352   8.498 -0.5430  0.4845  0.3119
  234MPD1     H 3607   2.585   4.358   8.419  0.6917 -0.8820 -0.2418
  234MPD1    H1 3608   2.906   4.376   8.703 -0.8278 -0.8561  1.1184
  234MPD1    H2 3609   2.985   4.292   8.300 -0.8845 -0.1184 -1.0165
  234MPD1    H3 3610   3.056   4.340   8.525 -0.0213 -1.5649 -2.6507
  234MPD1     N 3611   2.636   4.420   8.677 -0.0486 -0.1279  0.0357
  234MPD1    H5 3612   2.538   4.426   8.652 -0.3504 -0.2302  1.1730
  234MPD1    N1 3613   2.737   4.299   8.215 -0.7246  0.7377 -0.1571
  234MPD1    H6 3614   2.651   4.344   8.184  0.2669  2.1087 -0.9146
  234MPD1    H7 3615   2.803   4.318   8.140  1.5026  0.9706  1.8682
  235MPD1     C 3616   4.613   1.366  11.524 -0.0803  0.0131 -0.5759
  235MPD1    C1 3617   4.682   1.484  11.546 -0.2395  0.4640  0.0659
  235MPD1    C2 3618   4.725   1.570  11.444  0.2943 -0.0433 -0.4930
  235MPD1    C3 3619   4.691   1.545  11.312  0.0153  0.5994 -0.2793
  235MPD1    C4 3620   4.622   1.430  11.291 -0.0645 -0.4161  0.5097
  235MPD1    C5 3621   4.581   1.344  11.397 -0.4654  0.0993  0.7711
  235MPD1     H 3622   0.035   1.659  11.484 -1.4186  0.2466  0.8611
  235MPD1    H1 3623   4.596   1.391  11.193 -1.7988  0.2225  0.7024
  235MPD1    H2 3624   4.597   1.295  11.605  1.7273  2.2592  1.7498
  235MPD1    H3 3625   4.540   1.248  11.368 -2.4930  1.1567  0.1681
  235MPD1     N 3626   4.732   1.630  11.208 -0.0475 -0.4287 -0.0237
  235MPD1    H5 3627   0.049   1.710  11.240  0.1446 -0.7097  0.3607
  235MPD1    N1 3628   4.727   1.503  11.675  0.0124 -0.4967  0.0142
  235MPD1    H6 3629   0.008   1.597  11.711  0.4641 -0.8324  0.6720
  235MPD1    H7 3630   4.674   1.454  11.747  2.3275 -0.8171  1.4984
  236MPD1     C 3631   3.903   3.360  10.127  0.1336  0.5708  0.3279
  236MPD1    C1 3632   3.847   3.245  10.174  0.2262  0.4335  0.0313
  236MPD1    C2 3633   3.934   3.171  10.267  0.2912  0.0384  1.2082
  236MPD1    C3 3634   4.055   3.220  10.306  0.2554  0.3772 -0.2208
  236MPD1    C4 3635   4.102   3.343  10.263 -1.4078  0.0069 -0.0884
  236MPD1    C5 3636   4.028   3.405  10.165  0.0040  0.0485  1.2304
  236MPD1     H 3637   3.905   3.071  10.295  2.8266 -1.5481 -1.7982
  236MPD1    H1 3638   4.201   3.382  10.285 -0.9145 -1.7504  0.8061
  236MPD1    H2 3639   3.842   3.425  10.065  0.4701  0.3730 -0.2155
  236MPD1    H3 3640   4.076   3.492  10.122 -0.1132  0.9556  2.9379
  236MPD1     N 3641   4.140   3.158  10.401 -0.4404 -0.0581  0.2407
  236MPD1    H5 3642   4.224   3.206  10.434 -0.9785  0.6466  0.5855
  236MPD1    N1 3643   3.737   3.191  10.111  0.3156  0.1520 -0.3088
  236MPD1    H6 3644   3.682   3.130  10.171  0.2186 -0.3905 -0.9490
  236MPD1    H7 3645   3.673   3.259  10.072 -0.6015 -1.2560 -1.2572
  237MPD1     C 3646   3.515   1.603  15.139 -0.2785 -0.4134 -0.6456
  237MPD1    C1 3647   3.490   1.478  15.197  0.0329 -0.7050  0.6627
  237MPD1    C2 3648   3.454   1.380  15.109 -0.1345 -0.3048  0.1328
  237MPD1    C3 3649   3.443   1.403  14.973 -0.6498 -1.0497  0.1043
  237MPD1    C4 3650   3.454   1.523  14.915  0.5898 -0.0744 -0.0001
  237MPD1    C5 3651   3.495   1.624  15.003  0.2774  0.0642 -0.2142
  237MPD1     H 3652   3.431   1.279  15.141  0.9338  0.3726  2.9956
  237MPD1    H1 3653   3.439   1.526  14.808 -2.3557 -1.4199  0.3922
  237MPD1    H2 3654   3.524   1.690  15.203 -3.3360 -0.6992  0.1583
  237MPD1    H3 3655   3.499   1.727  14.971 -0.8560  0.1052 -0.2287
  237MPD1     N 3656   3.396   1.299  14.890  0.7049 -0.4961 -0.3866
  237MPD1    H5 3657   3.383   1.320  14.792  0.0449 -2.4645 -0.7163
  237MPD1    N1 3658   3.482   1.472  15.339 -0.7857 -0.3107 -0.4383
  237MPD1    H6 3659   3.557   1.520  15.388 -1.0155 -1.4886  1.0383
  237MPD1    H7 3660   3.491   1.377  15.375 -0.5939  0.5157  1.6576
  238MPD1     C 3661   0.776   3.589  15.248  0.4545 -0.4117  0.1054
  238MPD1    C1 3662   0.773   3.574  15.107  0.3017  0.4642  0.2474
  238MPD1    C2 3663   0.681   3.654  15.028 -0.1544 -0.3385  0.3988
  238MPD1    C3 3664   0.579   3.723  15.089  0.2144  0.5568 -0.1317
  238MPD1    C4 3665   0.576   3.737  15.225 -0.1000 -0.5027 -0.7347
  238MPD1    C5 3666   0.679   3.673  15.298  0.7564 -0.5222  0.5141
  238MPD1     H 3667   0.686   3.642  14.921 -2.1708  1.9016  0.0575
  238MPD1    H1 3668   0.509   3.802  15.281 -2.0542 -1.8969 -1.4264
  238MPD1    H2 3669   0.847   3.537  15.310 -0.1232 -0.8283  0.4196
  238MPD1    H3 3670   0.688   3.701  15.402  1.5324  0.0089  0.3026
  238MPD1     N 3671   0.470   3.786  15.015 -0.2535 -0.9309 -0.1293
  238MPD1    H5 3672   0.406   3.837  15.076  2.3729  1.9473  0.2252
  238MPD1    N1 3673   0.882   3.512  15.043 -0.6628  0.3569 -1.0119
  238MPD1    H6 3674   0.900   3.424  15.091 -0.9747  2.3056  2.6943
  238MPD1    H7 3675   0.860   3.497  14.945 -0.5767 -1.6440 -0.7196
  239MPD1     C 3676   0.716   0.588  14.922  0.0547  0.0928 -0.2044
  239MPD1    C1 3677   0.776   0.490  14.850  0.0037  0.3165 -0.3915
  239MPD1    C2 3678   0.778   0.505  14.713  0.3096  0.9038 -0.5605
  239MPD1    C3 3679   0.741   0.627  14.655 -0.4475 -0.8117  0.5093
  239MPD1    C4 3680   0.704   0.730  14.739  0.0801  0.7001  0.6146
  239MPD1    C5 3681   0.667   0.705  14.871 -0.1961 -0.5906  0.5921
  239MPD1     H 3682   0.821   0.430  14.647  1.0462  0.5725  0.2937
  239MPD1    H1 3683   0.683   0.829  14.700 -0.9510 -0.9875 -3.1277
  239MPD1    H2 3684   0.717   0.575  15.029  1.9023  0.7264 -0.1525
  239MPD1    H3 3685   0.619   0.786  14.926 -0.5956  0.1059 -0.7909
  239MPD1     N 3686   0.735   0.653  14.513  0.4102  0.4922  0.3328
  239MPD1    H5 3687   0.693   0.740  14.483 -0.0384 -0.4219 -1.7092
  239MPD1    N1 3688   0.795   0.368  14.916  0.6434  0.2567  0.2015
  239MPD1    H6 3689   0.837   0.386  15.007 -0.1967 -2.6611  1.1684
  239MPD1    H7 3690   0.869   0.315  14.870  0.5574 -0.5177  0.9553
  240MPD1     C 3691   0.475   0.217  13.874  0.5658 -0.1893 -0.6662
  240MPD1    C1 3692   0.340   0.199  13.887 -0.7922 -0.3391  0.8105
  240MPD1    C2 3693   0.296   0.121  13.989  0.4613 -0.3526  0.6132
  240MPD1    C3 3694   0.384   0.045  14.065  0.6054 -0.4711  0.0408
  240MPD1    C4 3695   0.521   0.063  14.045 -0.0336  0.1962 -0.3872
  240MPD1    C5 3696   0.560   0.161  13.958  0.0124  0.3339 -0.2611
  240MPD1     H 3697   0.190   0.112  14.007  0.1991  0.5469 -0.4960
  240MPD1    H1 3698   0.599   0.015  14.102  0.6005  3.9304  1.8320
  240MPD1    H2 3699   0.513   0.287  13.801  2.1339 -2.6037 -2.1673
  240MPD1    H3 3700   0.666   0.180  13.947  0.2181 -2.8560 -3.6297
  240MPD1     N 3701   0.329   4.690  14.165  0.0353 -0.9337  0.9073
  240MPD1    H5 3702   0.228   4.683  14.171 -0.3288  2.8641 -0.6092
  240MPD1    N1 3703   0.244   0.272  13.815  1.1276  0.0732 -0.0432
  240MPD1    H6 3704   0.288   0.309  13.731 -0.6325 -1.2159 -1.5306
  240MPD1    H7 3705   0.149   0.237  13.804  0.7313  1.5174 -1.1822
  241MPD1     C 3706   0.627   4.083  14.953  0.3339 -1.0091 -0.1576
  241MPD1    C1 3707   0.527   4.169  15.004  0.1312  0.5518 -0.0356
  241MPD1    C2 3708   0.476   4.260  14.914  0.1956  0.1155  0.0463
  241MPD1    C3 3709   0.519   4.272  14.786  0.2219 -0.1907 -0.4329
  241MPD1    C4 3710   0.625   4.183  14.741 -0.1103  0.2672 -0.4950
  241MPD1    C5 3711   0.681   4.094  14.825 -0.5200 -0.6299  0.4781
  241MPD1     H 3712   0.391   4.317  14.950  0.5391  0.0744  0.9218
  241MPD1    H1 3713   0.665   4.194  14.641  1.4889 -1.0383 -0.0014
  241MPD1    H2 3714   0.669   4.001  15.010 -1.9681 -1.7906  0.4252
  241MPD1    H3 3715   0.760   4.029  14.788 -1.2518 -1.9323  1.2009
  241MPD1     N 3716   0.465   4.364  14.691 -0.3531 -0.4883 -0.0635
  241MPD1    H5 3717   0.495   4.368  14.594  0.5578  0.2016  0.2563
  241MPD1    N1 3718   0.478   4.158  15.137 -0.6017 -0.2556 -0.4227
  241MPD1    H6 3719   0.436   4.244  15.172 -0.7402  0.2853 -1.9443
  241MPD1    H7 3720   0.532   4.125  15.217 -2.0468 -1.3243  0.1295
  242MPD1     C 3721   0.360   3.759  15.718  0.0770 -0.2903 -0.4092
  242MPD1    C1 3722   0.247   3.683  15.751  0.4681 -0.0708  0.2449
  242MPD1    C2 3723   0.217   3.568  15.680  0.5422  0.3585 -0.0770
  242MPD1    C3 3724   0.310   3.515  15.592 -0.2125  0.9336  0.2573
  242MPD1    C4 3725   0.424   3.589  15.566  0.9236  0.0839 -0.3623
  242MPD1    C5 3726   0.442   3.714  15.619 -0.0750 -0.7082 -0.4636
  242MPD1     H 3727   0.128   3.507  15.690 -0.0982  1.1766 -0.8445
  242MPD1    H1 3728   0.479   3.568  15.475  0.9515 -1.9735  0.1171
  242MPD1    H2 3729   0.385   3.852  15.767 -1.2355 -0.5381  0.7350
  242MPD1    H3 3730   0.519   3.779  15.580 -1.9317  0.9005 -1.3926
  242MPD1     N 3731   0.293   3.393  15.518  0.1372  0.1959  0.2322
  242MPD1    H5 3732   0.371   3.375  15.456 -0.3871  0.3548 -0.4751
  242MPD1    N1 3733   0.145   3.736  15.835 -0.0578 -0.3477  0.4814
  242MPD1    H6 3734   0.082   3.667  15.875 -0.5659 -0.7568 -1.0399
  242MPD1    H7 3735   0.190   3.798  15.902 -1.7909 -2.1992  3.3861
  243MPD1     C 3736   0.861   2.183   0.441  0.5892  0.0143  0.2372
  243MPD1    C1 3737   0.958   2.083   0.452  0.1943  0.0378  0.7109
  243MPD1    C2 3738   1.053   2.076   0.358 -0.2427  0.2132 -0.2675
  243MPD1    C3 3739   1.069   2.169   0.261  1.0999  0.0098 -0.4183
  243MPD1    C4 3740   0.977   2.271   0.253 -0.4832 -0.0781 -0.9528
  243MPD1    C5 3741   0.876   2.281   0.348 -0.3023 -0.1495  0.8661
  243MPD1     H 3742   1.112   1.985   0.357 -1.3489 -0.5085 -0.4380
  243MPD1    H1 3743   0.987   2.349   0.179  1.1060  0.8339  0.2169
  243MPD1    H2 3744   0.780   2.187   0.513 -0.6800  0.2488 -1.2028
  243MPD1    H3 3745   0.796   2.354   0.340 -2.3897 -2.4209  0.8002
  243MPD1     N 3746   1.175   2.148   0.169 -0.2449  0.2277 -0.4994
  243MPD1    H5 3747   1.239   2.069   0.173  1.0121  1.3708  2.0000
  243MPD1    N1 3748   0.941   1.975   0.535  0.3449 -0.6775  0.4043
  243MPD1    H6 3749   0.886   1.990   0.619  0.3541 -1.1222  0.4884
  243MPD1    H7 3750   1.028   1.942   0.576  1.0697 -4.0096 -3.8249
  244MPD1     C 3751   1.329   1.380  17.514 -0.2268  0.2194  0.2593
  244MPD1    C1 3752   1.276   1.425  17.637  0.9013  0.4111 -0.2619
  244MPD1    C2 3753   1.280   1.561  17.660 -0.4046  0.4478 -0.0505
  244MPD1    C3 3754   1.334   1.645  17.566 -0.7713 -0.1154 -0.4069
  244MPD1    C4 3755   1.389   1.602  17.448  0.9041  0.0312 -0.9063
  244MPD1    C5 3756   1.377   1.466  17.425 -0.2914  0.2160  0.1447
  244MPD1     H 3757   1.242   1.605   0.007  0.8008 -1.7249  1.4942
  244MPD1    H1 3758   1.442   1.654  17.368  1.0474  0.8168 -0.2946
  244MPD1    H2 3759   1.338   1.274  17.495 -2.3079 -0.3189  2.2310
  244MPD1    H3 3760   1.399   1.429  17.326 -0.3691 -0.1729  0.2741
  244MPD1     N 3761   1.329   1.784  17.601  0.2649  0.1502 -0.0217
  244MPD1    H5 3762   1.286   1.807  17.690  0.9614 -0.0416  0.3651
  244MPD1    N1 3763   1.218   1.338  17.732  0.4439  0.2260 -0.6201
  244MPD1    H6 3764   1.195   1.249  17.688  3.1370 -1.1097  0.7260
  244MPD1    H7 3765   1.134   1.377   0.030  0.3043 -0.9519  0.1469
  245MPD1     C 3766   3.051   2.402  12.613  0.1121 -0.7598 -0.3583
  245MPD1    C1 3767   3.092   2.357  12.741 -0.2640  0.4439 -0.1754
  245MPD1    C2 3768   3.143   2.447  12.828 -0.4537 -0.1183  0.2514
  245MPD1    C3 3769   3.156   2.578  12.789  0.2571  0.5976  0.2510
  245MPD1    C4 3770   3.123   2.619  12.664 -0.3390  0.4243 -0.0450
  245MPD1    C5 3771   3.070   2.529  12.575 -0.4254  0.1650 -0.1232
  245MPD1     H 3772   3.147   2.421  12.933  0.0836  0.6577  0.4192
  245MPD1    H1 3773   3.142   2.723  12.637  0.2074  0.3820  0.1774
  245MPD1    H2 3774   3.003   2.329  12.549  0.1716 -1.8354  0.8092
  245MPD1    H3 3775   3.055   2.560  12.473  0.6353  0.4429 -0.1968
  245MPD1     N 3776   3.209   2.664  12.888  0.3774 -0.6432 -0.5380
  245MPD1    H5 3777   3.232   2.619  12.977 -0.5462  0.9220  0.4896
  245MPD1    N1 3778   3.048   2.232  12.787  0.4851 -0.2902 -0.1619
  245MPD1    H6 3779   3.111   2.196  12.858  0.3271 -0.7465 -0.2551
  245MPD1    H7 3780   3.047   2.159  12.716  1.1520  0.8103 -1.3113
  246MPD1     C 3781   2.616   0.723   8.578  0.0874  0.7345 -0.5424
  246MPD1    C1 3782   2.733   0.790   8.594  0.0452  0.0163 -0.7690
  246MPD1    C2 3783   2.832   0.740   8.683 -0.4338 -0.4537  0.1104
  246MPD1    C3 3784   2.820   0.613   8.729 -0.1565  0.0039 -0.4005
  246MPD1    C4 3785   2.711   0.535   8.693 -1.0036  0.3575  0.3595
  246MPD1    C5 3786   2.603   0.592   8.627 -0.4312 -0.2893  0.3581
  246MPD1     H 3787   2.921   0.795   8.708 -0.4418 -0.0410 -0.7783
  246MPD1    H1 3788   2.697   0.433   8.725 -1.1726  0.4220  0.4917
  246MPD1    H2 3789   2.535   0.771   8.523 -2.3104 -0.6574  1.7503
  246MPD1    H3 3790   2.522   0.529   8.594 -0.3720 -1.1203  1.7905
  246MPD1     N 3791   2.915   0.567   8.828  0.0591  0.7055 -0.1875
  246MPD1    H5 3792   3.000   0.620   8.840  0.7824 -0.2844 -0.9391
  246MPD1    N1 3793   2.734   0.920   8.542  0.4068 -0.1128 -0.1018
  246MPD1    H6 3794   2.652   0.974   8.566  1.5917  0.6729  2.1577
  246MPD1    H7 3795   2.811   0.965   8.592 -1.1859  2.0778  0.3638
  247MPD1     C 3796   2.902   3.450  16.315 -0.7242  0.0987  0.4406
  247MPD1    C1 3797   2.839   3.388  16.418  0.4450  0.2742  0.3533
  247MPD1    C2 3798   2.848   3.251  16.421  0.2011  0.1341  0.3138
  247MPD1    C3 3799   2.918   3.176  16.327 -0.2383 -0.3130  0.2006
  247MPD1    C4 3800   2.979   3.237  16.222 -0.1546  0.8617  0.5678
  247MPD1    C5 3801   2.971   3.379  16.223  0.2938 -0.0981  0.2125
  247MPD1     H 3802   2.810   3.184  16.497  0.7254  1.1340  1.4578
  247MPD1    H1 3803   3.031   3.195  16.137 -1.3021  1.8953 -0.6465
  247MPD1    H2 3804   2.882   3.554  16.291 -0.9338  0.3405  1.6725
  247MPD1    H3 3805   3.021   3.432  16.142 -0.0113 -0.1247  0.0093
  247MPD1     N 3806   2.939   3.039  16.340 -0.0553 -0.3433  0.2234
  247MPD1    H5 3807   2.984   2.998  16.259 -1.0517 -1.6356  0.3230
  247MPD1    N1 3808   2.756   3.455  16.503  0.3057  0.2438  0.1890
  247MPD1    H6 3809   2.758   3.405  16.592  2.4854  1.0210  0.5713
  247MPD1    H7 3810   2.792   3.545  16.532 -2.8740  1.4449  0.4573
  248MPD1     C 3811   3.556   1.277   1.277  0.5670 -0.1796 -1.0254
  248MPD1    C1 3812   3.425   1.310   1.271 -0.7165 -0.1599 -0.1071
  248MPD1    C2 3813   3.364   1.297   1.145  0.1576  0.0043 -0.1465
  248MPD1    C3 3814   3.438   1.249   1.034 -0.5269  0.4262 -0.1618
  248MPD1    C4 3815   3.578   1.227   1.045  0.0567  0.1269  0.2247
  248MPD1    C5 3816   3.639   1.255   1.164 -0.3831 -0.0292  0.3231
  248MPD1     H 3817   3.259   1.310   1.123  0.1681  0.8355  0.2937
  248MPD1    H1 3818   3.636   1.184   0.965  0.0850  0.9432 -0.1861
  248MPD1    H2 3819   3.615   1.298   1.365  0.7504 -1.1244 -0.9229
  248MPD1    H3 3820   3.746   1.243   1.174 -0.5919  2.1750  5.2222
  248MPD1     N 3821   3.360   1.226   0.920  0.1854 -0.1396  0.2345
  248MPD1    H5 3822   3.261   1.244   0.927  0.2985  0.6481 -0.1776
  248MPD1    N1 3823   3.350   1.325   1.385  0.5099  0.6797  0.0550
  248MPD1    H6 3824   3.382   1.375   1.467  1.1517  1.9580 -0.9706
  248MPD1    H7 3825   3.255   1.357   1.365 -0.8756 -2.4635  1.5925
  249MPD1     C 3826   0.897   0.936  10.675 -0.2973 -0.2078 -0.4077
  249MPD1    C1 3827   1.007   0.995  10.606 -0.4136  0.0448  0.5375
  249MPD1    C2 3828   0.984   1.039  10.475 -0.6235  0.5679 -0.2359
  249MPD1    C3 3829   0.860   1.030  10.408  0.0066 -0.2288  0.1131
  249MPD1    C4 3830   0.763   0.974  10.481  0.3924  0.6018 -0.0465
  249MPD1    C5 3831   0.777   0.918  10.608  0.3652 -0.7960 -0.1416
  249MPD1     H 3832   1.068   1.081  10.421 -0.2220 -0.6851 -0.6046
  249MPD1    H1 3833   0.660   0.972  10.446  0.8564  1.6190 -1.4315
  249MPD1    H2 3834   0.902   0.892  10.774  0.6302  0.7706 -0.0243
  249MPD1    H3 3835   0.697   0.880  10.670  0.1477  2.1836  1.4297
  249MPD1     N 3836   0.847   1.066  10.276 -0.1578 -0.3299 -0.0140
  249MPD1    H5 3837   0.922   1.125  10.241 -0.7279 -0.0550 -0.7697
  249MPD1    N1 3838   1.137   1.017  10.658  0.5323  0.5465 -0.3245
  249MPD1    H6 3839   1.132   0.997  10.758  0.9369 -0.3645 -0.4902
  249MPD1    H7 3840   1.175   1.111  10.649  0.8028  0.3302 -1.3506
  250MPD2     C 3841   2.253   0.816  13.064  0.1504  0.1301 -0.3256
  250MPD2    C1 3842   2.130   0.816  13.122  1.0044  0.7699 -0.2233
  250MPD2    C2 3843   2.033   0.725  13.077 -1.0979  0.3021  1.2518
  250MPD2    C3 3844   2.062   0.640  12.967 -0.1952  0.8611  0.1424
  250MPD2    C4 3845   2.193   0.647  12.913 -0.0212  0.6380 -0.0753
  250MPD2    C5 3846   2.283   0.739  12.955 -0.0064 -0.7137 -0.0512
  250MPD2     H 3847   1.932   0.737  13.113 -1.4619 -0.9429  0.6647
  250MPD2    H1 3848   2.217   0.590  12.824  0.6576  1.3649 -0.3594
  250MPD2    H2 3849   2.331   0.884  13.096  0.5444  0.7891 -2.6512
  250MPD2    H3 3850   2.380   0.758  12.909 -0.7199  1.0935 -0.8014
  250MPD2     N 3851   1.971   0.541  12.910 -0.4331 -0.1012  0.2543
  250MPD2    H5 3852   2.007   0.492  12.829 -1.3235  0.1288 -0.2815
  250MPD2    N1 3853   2.103   0.917  13.221  0.0248 -0.3148  0.7315
  250MPD2    H7 3854   2.176   0.987  13.228 -1.1405  1.1472 -1.7480
  251TMC3    C1 3855   1.946   1.071  13.293  0.1834  0.8384  0.4209
  251TMC3    C2 3856   1.856   1.114  13.379  0.6803 -0.3027  0.2685
  251TMC3    C3 3857   1.819   1.245  13.361  0.2257  0.5651 -0.2441
  251TMC3    C4 3858   2.000   1.144  13.192  0.4475  0.3128  0.3889
  251TMC3    C5 3859   1.955   1.266  13.184 -1.3562 -0.8033  0.1169
  251TMC3    C6 3860   1.864   1.325  13.262  0.3302  0.0598 -0.1594
  251TMC3     C 3861   1.988   0.930  13.293 -0.3312  0.3409 -0.1779
  251TMC3     O 3862   1.927   0.835  13.339  0.1832  0.2229  0.3573
  251TMC3     H 3863   1.801   1.051  13.447  0.1635 -0.1467 -0.0034
  251TMC3    H1 3864   2.078   1.120  13.120 -1.9251 -0.7762 -1.8122
  251TMC3    H2 3865   1.824   1.425  13.254 -1.2122 -0.7106 -2.0168
  251TMC3    C7 3866   2.021   1.350  13.090 -0.3874  0.1443  0.8057
  251TMC3    C8 3867   1.704   1.291  13.435  0.2573 -0.0146  0.2499
  251TMC3    O1 3868   2.083   1.304  12.993  0.3115 -0.1836  0.5426
  251TMC3    O2 3869   1.627   1.367  13.375 -0.0697  0.3322  0.5344
  252TMC3    C1 3870   1.327   2.933   9.704  0.3641  0.2399  0.3774
  252TMC3    C2 3871   1.443   2.964   9.638  0.9240  0.0592 -0.2544
  252TMC3    C3 3872   1.561   2.900   9.678 -0.1657 -0.4701  0.9451
  252TMC3    C4 3873   1.319   2.831   9.800  0.3382 -0.3630 -0.1767
  252TMC3    C5 3874   1.440   2.762   9.824  0.2959 -0.1072 -0.2349
  252TMC3    C6 3875   1.557   2.795   9.768  0.0315  0.4174 -0.3594
  252TMC3     C 3876   1.221   3.021   9.694 -0.3898 -0.3216  0.6908
  252TMC3     O 3877   1.144   3.030   9.788 -0.2638 -0.2722 -0.3317
  252TMC3     H 3878   1.439   3.033   9.554  1.6646  1.4073  0.8323
  252TMC3    H1 3879   1.229   2.818   9.858  0.0119 -0.6364 -0.7368
  252TMC3    H2 3880   1.639   2.724   9.776  0.2005  0.9185  2.4297
  252TMC3    C7 3881   1.441   2.666   9.930 -0.2815 -0.4085 -0.1038
  252TMC3    C8 3882   1.688   2.936   9.615  0.6859  0.4284  1.2164
  252TMC3    O1 3883   1.330   2.626   9.967  0.0559  0.0857  0.3453
  252TMC3    O2 3884   1.674   3.014   9.523  0.4785  0.4694 -0.0441
  253MPD2     C 3885   3.008   1.304  14.903  0.3817  0.2996  0.4697
  253MPD2    C1 3886   2.887   1.254  14.945  0.3563 -0.1628 -0.6622
  253MPD2    C2 3887   2.845   1.281  15.074  0.6131  0.1588  0.1058
  253MPD2    C3 3888   2.924   1.348  15.160 -0.2239  0.6864 -0.0848
  253MPD2    C4 3889   3.041   1.402  15.113  0.2562  0.0475  0.0623
  253MPD2    C5 3890   3.083   1.383  14.985 -1.0046  0.3122  0.6626
  253MPD2     H 3891   2.750   1.244  15.110  0.2239  1.9790  0.9527
  253MPD2    H1 3892   3.110   1.461  15.172  0.7511  0.3762 -0.8408
  253MPD2    H2 3893   3.042   1.292  14.801 -0.9959  0.9385 -0.0609
  253MPD2    H3 3894   3.167   1.439  14.947 -0.3844 -1.1795 -0.1396
  253MPD2     N 3895   2.891   1.370  15.297  0.1206 -0.0342 -0.2001
  253MPD2    H5 3896   2.956   1.410  15.364 -0.0775 -1.4260  0.8297
  253MPD2    N1 3897   2.795   1.187  14.854  0.4733 -0.6134 -0.6889
  253MPD2    H7 3898   2.713   1.141  14.892 -0.6588  2.1926  0.2739
  254TMC3    C1 3899   2.768   1.408  15.482 -0.3075  0.3601  0.0160
  254TMC3    C2 3900   2.676   1.498  15.533  0.3978 -0.1577 -0.1862
  254TMC3    C3 3901   2.701   1.558  15.653 -0.2904  0.2213 -0.6496
  254TMC3    C4 3902   2.872   1.359  15.562 -0.0150 -0.2550 -0.3533
  254TMC3    C5 3903   2.890   1.411  15.685 -0.2237  0.0928  0.0380
  254TMC3    C6 3904   2.810   1.515  15.724  0.1187 -0.0044 -0.0456
  254TMC3     C 3905   2.769   1.374  15.344 -0.3211  0.2699  0.0162
  254TMC3     O 3906   2.654   1.360  15.296 -0.3662 -0.3226 -0.1811
  254TMC3     H 3907   2.586   1.511  15.475  1.1063 -0.5426 -1.3672
  254TMC3    H1 3908   2.926   1.271  15.529  0.3386  0.2941 -1.2378
  254TMC3    H2 3909   2.829   1.569  15.816 -2.0034 -1.0395  0.9910
  254TMC3    C7 3910   2.906   1.303  15.782  0.2156  0.1227 -0.7642
  254TMC3    C8 3911   2.590   1.576  15.755 -0.2816  0.3156 -0.6905
  254TMC3    O1 3912   2.982   1.209  15.759  0.7563  0.0051  0.2124
  254TMC3    O2 3913   2.616   1.541  15.869  0.2990 -0.4325  0.4819
  255MPD2     C 3914   0.192   0.307   9.674 -0.2401  0.2911  0.2368
  255MPD2    C1 3915   0.271   0.206   9.722 -0.2955 -0.5972 -0.3170
  255MPD2    C2 3916   0.399   0.234   9.767 -0.0493  0.1658  0.3828
  255MPD2    C3 3917   0.454   0.363   9.747  0.3764  0.2935 -0.1946
  255MPD2    C4 3918   0.374   0.463   9.695  0.2033  0.3704 -0.1781
  255MPD2    C5 3919   0.242   0.438   9.670  0.0718  0.7257 -0.1269
  255MPD2     H 3920   0.470   0.158   9.798 -0.0683  0.3907  0.9902
  255MPD2    H1 3921   0.416   0.561   9.674  2.0142 -0.3626  0.0280
  255MPD2    H2 3922   0.096   0.286   9.629  0.2627 -0.6420 -0.4056
  255MPD2    H3 3923   0.181   0.520   9.634  0.1189  0.3391 -1.0811
  255MPD2     N 3924   0.588   0.385   9.780  0.0424 -0.2690 -0.8551
  255MPD2    H5 3925   0.637   0.310   9.827 -0.2310 -1.3499 -2.3054
  255MPD2    N1 3926   0.213   0.075   9.715  0.1935  0.1917  0.1313
  255MPD2    H7 3927   0.122   0.060   9.673  0.0646  0.2229  0.3988
  256TMC3    C1 3928   0.246   4.589   9.691 -0.2879  0.6762  0.7844
  256TMC3    C2 3929   0.215   4.592   9.555 -0.4350 -0.4010 -0.6417
  256TMC3    C3 3930   0.222   4.472   9.495 -0.1796 -0.1194 -0.4009
  256TMC3    C4 3931   0.295   4.476   9.756  0.4244 -0.1140  0.3085
  256TMC3    C5 3932   0.295   4.361   9.690  0.0507 -0.2797  0.3201
  256TMC3    C6 3933   0.235   4.350   9.562  0.4808 -0.3793 -0.5871
  256TMC3     C 3934   0.276   4.705   9.767  0.0014 -0.4242 -0.5656
  256TMC3     O 3935   0.375   4.695   9.835 -0.2909 -0.7408  0.2121
  256TMC3     H 3936   0.199   4.683   9.498 -2.0458 -0.0266  0.4009
  256TMC3    H1 3937   0.324   4.471   9.861 -0.0768 -1.3043  0.3941
  256TMC3    H2 3938   0.270   4.267   9.501 -0.0457 -2.1089  1.4748
  256TMC3    C7 3939   0.353   4.238   9.747  0.1857  0.2787 -0.5516
  256TMC3    C8 3940   0.212   4.461   9.353 -0.1192 -0.8660 -0.3132
  256TMC3    O1 3941   0.430   4.253   9.842 -0.0793  0.1418  0.4698
  256TMC3    O2 3942   0.159   4.360   9.309 -0.1067  0.2496  0.0216
  257MPD2     C 3943   0.190   0.687  13.211  0.4103 -0.4574 -0.2768
  257MPD2    C1 3944   0.250   0.615  13.117  0.0668 -0.3337 -0.4926
  257MPD2    C2 3945   0.294   0.487  13.150 -0.3199 -0.0238 -0.4937
  257MPD2    C3 3946   0.265   0.439  13.272 -0.2876 -0.1797  0.1528
  257MPD2    C4 3947   0.201   0.515  13.368  0.1600 -0.6937  0.2242
  257MPD2    C5 3948   0.159   0.638  13.335  0.0081 -0.6790  0.3186
  257MPD2     H 3949   0.358   0.436  13.079 -0.8562 -1.7945  0.2906
  257MPD2    H1 3950   0.180   0.471  13.464  3.7960 -0.4980  1.1313
  257MPD2    H2 3951   0.155   0.786  13.184  0.2250 -0.0229  1.5875
  257MPD2    H3 3952   0.104   0.702  13.403  0.4940 -0.2682  0.3304
  257MPD2     N 3953   0.324   0.315  13.305  0.5132 -0.4013 -0.1951
  257MPD2    H5 3954   0.360   0.257  13.230 -1.3877 -0.6120 -0.9570
  257MPD2    N1 3955   0.279   0.676  12.994 -0.4920 -0.2884  0.3906
  257MPD2    H7 3956   0.258   0.775  12.984  1.6573 -0.0495 -1.6922
  258TMC3    C1 3957   0.389   0.120  13.438 -0.6515 -0.5374 -0.6954
  258TMC3    C2 3958   0.344   0.034  13.346  0.0260 -0.0785  1.0515
  258TMC3    C3 3959   0.343   4.637  13.374  0.3466 -0.3189 -0.4654
  258TMC3    C4 3960   0.455   0.069  13.545  0.3444  0.0507  0.2223
  258TMC3    C5 3961   0.473   4.669  13.562 -0.6160 -0.1074 -0.4915
  258TMC3    C6 3962   0.408   4.587  13.475  0.0379 -0.4748  0.5861
  258TMC3     C 3963   0.349   0.265  13.431  0.4476 -0.4196  0.4849
  258TMC3     O 3964   0.359   0.317  13.541  0.1168 -0.2756  0.0024
  258TMC3     H 3965   0.277   0.068  13.268  0.6563  0.3034  0.6793
  258TMC3    H1 3966   0.503   0.137  13.616  1.3027  0.8469 -1.1909
  258TMC3    H2 3967   0.408   4.480  13.496 -0.7100 -0.3565  1.2189
  258TMC3    C7 3968   0.553   4.603  13.670  0.8038  0.2622  0.0115
  258TMC3    C8 3969   0.293   4.542  13.276  0.3001  0.1477 -1.5085
  258TMC3    O1 3970   0.540   4.483  13.677 -0.1671  0.0486 -0.5009
  258TMC3    O2 3971   0.292   4.425  13.310  0.1524 -0.0431  0.0862
  259MPD2     C 3972   4.046   2.448   0.759 -0.2820  0.3737 -0.3970
  259MPD2    C1 3973   3.940   2.368   0.751 -0.1776  0.2650  0.9093
  259MPD2    C2 3974   3.848   2.391   0.646  0.9400 -0.3219  0.6819
  259MPD2    C3 3975   3.884   2.481   0.547  0.4677 -0.2149  0.3545
  259MPD2    C4 3976   3.997   2.560   0.553 -0.4920  0.5925 -0.0868
  259MPD2    C5 3977   4.081   2.542   0.663  0.6518  0.0004 -0.7678
  259MPD2     H 3978   3.765   2.323   0.635 -0.2126  0.9657  1.4689
  259MPD2    H1 3979   4.032   2.638   0.488  2.1152  1.9186  2.9073
  259MPD2    H2 3980   4.119   2.435   0.838 -0.1329 -2.6144 -1.0496
  259MPD2    H3 3981   4.173   2.598   0.672  0.3428  0.2912  0.6140
  259MPD2     N 3982   3.786   2.488   0.437  0.8092  0.7604  0.4112
  259MPD2    H5 3983   3.717   2.413   0.436  0.0324  1.4559  1.0908
  259MPD2    N1 3984   3.949   2.264   0.848  0.0294  0.3973  0.0662
  259MPD2    H7 3985   4.024   2.269   0.917  0.3975  0.0188 -0.3122
  260TMC3    C1 3986   3.692   2.562   0.226 -0.0828 -0.6485 -0.0147
  260TMC3    C2 3987   3.734   2.598   0.102 -0.4633  0.2937 -0.4147
  260TMC3    C3 3988   3.682   2.526  17.740  0.0586  0.4864  0.4041
  260TMC3    C4 3989   3.589   2.469   0.243  0.1893 -0.3308  0.5669
  260TMC3    C5 3990   3.523   2.415   0.130 -0.0103 -0.5434 -0.5027
  260TMC3    C6 3991   3.574   2.440   0.008  0.4110 -0.2097  0.1076
  260TMC3     C 3992   3.790   2.578   0.332 -0.0961 -1.1155 -0.5131
  260TMC3     O 3993   3.886   2.649   0.306  0.4680 -0.2712  0.1893
  260TMC3     H 3994   3.818   2.663   0.084  0.8780 -0.8016  1.9054
  260TMC3    H1 3995   3.576   2.436   0.346  0.8706  1.4587  1.2268
  260TMC3    H2 3996   3.538   2.393  17.662  1.2718 -2.8334  1.1071
  260TMC3    C7 3997   3.439   2.292   0.137  0.1360  0.8856  0.3225
  260TMC3    C8 3998   3.784   2.458  17.674 -0.2884  0.5220 -0.0023
  260TMC3    O1 3999   3.433   2.223   0.035 -0.1944  0.4839 -0.0216
  260TMC3    O2 4000   3.769   2.337  17.650  0.6040 -0.3876  0.1470
  261MPD2     C 4001   1.219   0.556  12.647 -0.1652 -0.3327  0.2661
  261MPD2    C1 4002   1.328   0.636  12.672 -0.1305 -0.0569 -0.2146
  261MPD2    C2 4003   1.321   0.773  12.670  0.2129 -0.0094 -0.8426
  261MPD2    C3 4004   1.202   0.838  12.640 -0.8078  0.6581  0.7191
  261MPD2    C4 4005   1.091   0.754  12.624  0.4704  0.3304 -0.7202
  261MPD2    C5 4006   1.100   0.620  12.626  0.5135  0.6181 -0.4228
  261MPD2     H 4007   1.412   0.826  12.695 -0.4390  0.8708 -0.3055
  261MPD2    H1 4008   0.992   0.778  12.587 -0.5309 -0.2956  1.5667
  261MPD2    H2 4009   1.235   0.450  12.656 -0.3244 -0.1940  2.3189
  261MPD2    H3 4010   1.015   0.557  12.599 -0.6809  1.6862  0.8666
  261MPD2     N 4011   1.200   0.981  12.637  0.4220  0.4476 -0.1862
  261MPD2    H5 4012   1.289   1.021  12.665 -0.5317  3.1020 -1.0059
  261MPD2    N1 4013   1.451   0.578  12.692  0.3224 -0.0133 -0.3347
  261MPD2    H7 4014   1.523   0.632  12.740  0.1888  0.2289 -0.4091
  262TMC3    C1 4015   1.122   1.201  12.581 -0.0821 -0.9317  0.1476
  262TMC3    C2 4016   1.015   1.280  12.563 -0.0047 -0.4938 -0.1627
  262TMC3    C3 4017   1.040   1.381  12.472 -0.3812  0.0273 -0.1006
  262TMC3    C4 4018   1.238   1.205  12.510 -0.2579 -0.3410  0.0459
  262TMC3    C5 4019   1.259   1.306  12.420  0.2049 -0.0163  0.6532
  262TMC3    C6 4020   1.157   1.403  12.400  0.2227  0.3482 -0.2130
  262TMC3     C 4021   1.085   1.060  12.626 -0.3113 -0.0094 -0.0448
  262TMC3     O 4022   0.966   1.031  12.611 -0.1448  0.4736  0.6730
  262TMC3     H 4023   0.922   1.270  12.619  0.2040  1.1509  0.4902
  262TMC3    H1 4024   1.319   1.136  12.528  0.8722  0.9066 -0.2664
  262TMC3    H2 4025   1.169   1.479  12.324 -1.1843 -0.4114 -1.1954
  262TMC3    C7 4026   1.347   1.267  12.315  0.6146  0.3054  0.0273
  262TMC3    C8 4027   0.919   1.451  12.437 -0.5626  0.4609 -0.4116
  262TMC3    O1 4028   1.387   1.151  12.306  0.1507  0.4212 -0.0924
  262TMC3    O2 4029   0.813   1.389  12.447 -0.0050 -0.2654  0.4036
  263MPD2     C 4030   1.931   0.229  11.454  0.4028 -0.0199  0.2374
  263MPD2    C1 4031   2.058   0.256  11.398  0.0281  0.3358  0.3028
  263MPD2    C2 4032   2.071   0.334  11.284 -0.4497  0.1996  0.0486
  263MPD2    C3 4033   1.959   0.387  11.223 -0.1417  0.3954 -0.8927
  263MPD2    C4 4034   1.829   0.358  11.275  0.0787  0.0056  0.7955
  263MPD2    C5 4035   1.820   0.284  11.393  0.1268 -1.1507  0.1301
  263MPD2     H 4036   2.170   0.353  11.244 -0.9821 -0.0208 -1.3742
  263MPD2    H1 4037   1.745   0.399  11.222  0.2571  0.3565  0.7829
  263MPD2    H2 4038   1.912   0.174  11.545  0.6503 -0.0185  0.2903
  263MPD2    H3 4039   1.723   0.259  11.434 -0.1329  0.5169  0.5192
  263MPD2     N 4040   1.971   0.469  11.111 -1.0895  0.2497  0.5824
  263MPD2    H5 4041   2.061   0.515  11.096 -0.4458 -1.5255 -0.9630
  263MPD2    N1 4042   2.169   0.200  11.468 -0.4801  0.0826 -0.3086
  263MPD2    H7 4043   2.146   0.161  11.559 -0.0761 -0.5930 -0.4971
  264TMC3    C1 4044   1.934   0.575  10.918  0.2705  0.4245  0.6167
  264TMC3    C2 4045   1.987   0.693  10.964 -0.0967  0.7917 -0.6380
  264TMC3    C3 4046   2.091   0.754  10.895  0.1535  0.6588 -0.3084
  264TMC3    C4 4047   1.973   0.528  10.795  0.1252 -0.0751  0.0407
  264TMC3    C5 4048   2.078   0.587  10.730 -0.2291  0.3389  0.4411
  264TMC3    C6 4049   2.141   0.700  10.778  0.5127 -0.3691 -0.2191
  264TMC3     C 4050   1.875   0.482  11.013  0.2990  0.0818 -0.1401
  264TMC3     O 4051   1.781   0.412  10.988 -0.1818  0.4734  0.1379
  264TMC3     H 4052   1.945   0.735  11.055 -1.1303 -3.2816  0.7319
  264TMC3    H1 4053   1.922   0.443  10.751 -0.4327 -0.0867  0.7241
  264TMC3    H2 4054   2.225   0.748  10.729  0.2036  1.2771  0.8917
  264TMC3    C7 4055   2.145   0.519  10.615  0.1687  0.0065 -0.1423
  264TMC3    C8 4056   2.168   0.863  10.955 -1.1402  0.9790  0.4297
  264TMC3    O1 4057   2.255   0.562  10.584  0.7779 -0.1706 -0.0010
  264TMC3    O2 4058   2.282   0.873  10.913 -0.2506 -0.2415  0.1694
  265MPD2     C 4059   4.188   0.440  15.466  0.4175 -0.0160 -0.1031
  265MPD2    C1 4060   4.176   0.542  15.373 -0.0148  0.0333 -0.2139
  265MPD2    C2 4061   4.207   0.511  15.239 -0.2285 -0.3800 -0.1292
  265MPD2    C3 4062   4.258   0.386  15.205  0.0789  0.1030  0.4790
  265MPD2    C4 4063   4.279   0.296  15.307  0.5037 -0.5471  0.0994
  265MPD2    C5 4064   4.237   0.318  15.428 -0.1612 -0.0818  0.1427
  265MPD2     H 4065   4.192   0.587  15.163 -0.1532 -1.1541 -0.9274
  265MPD2    H1 4066   4.317   0.197  15.285 -2.5812 -2.0351  1.4047
  265MPD2    H2 4067   4.161   0.445  15.571  0.0823 -0.8501 -0.1480
  265MPD2    H3 4068   4.232   0.237  15.500  3.6273  1.4651  2.1445
  265MPD2     N 4069   4.305   0.346  15.076 -0.4408 -0.2039  0.0161
  265MPD2    H5 4070   4.323   0.247  15.065  0.7143 -0.0835  0.7979
  265MPD2    N1 4071   4.123   0.669  15.412 -0.2012 -0.5942 -0.3523
  265MPD2    H7 4072   4.120   0.739  15.338  0.1197  0.1456  0.3381
  266TMC3    C1 4073   4.065   0.853  15.550  0.7941 -1.0800  0.4959
  266TMC3    C2 4074   4.035   0.905  15.671  0.7691  0.2770  0.2554
  266TMC3    C3 4075   4.058   1.035  15.694 -0.1844 -0.4643 -0.4225
  266TMC3    C4 4076   4.090   0.947  15.445 -0.3674 -0.5846 -0.1810
  266TMC3    C5 4077   4.099   1.084  15.473 -0.5994 -0.2811 -0.4526
  266TMC3    C6 4078   4.081   1.130  15.595  0.5038 -0.1689  0.1802
  266TMC3     C 4079   4.095   0.714  15.542 -0.1304 -0.4440  0.1615
  266TMC3     O 4080   4.055   0.639  15.630  0.1493 -0.9845 -0.4046
  266TMC3     H 4081   4.014   0.828  15.745  2.9584  0.2433  0.8431
  266TMC3    H1 4082   4.111   0.907  15.346 -0.2607  2.3627 -1.3526
  266TMC3    H2 4083   4.087   1.235  15.622  0.4665 -0.5600  1.7422
  266TMC3    C7 4084   4.117   1.191  15.371  0.0928  0.3034  0.4776
  266TMC3    C8 4085   4.115   1.057  15.823 -0.9088  0.6784 -0.3374
  266TMC3    O1 4086   4.119   1.310  15.400 -0.0934 -0.0108  0.2562
  266TMC3    O2 4087   4.152   0.952  15.879 -0.2283 -0.1258 -0.4991
  267MPD2     C 4088   1.506   2.208   0.511 -0.4515 -0.2444  0.5953
  267MPD2    C1 4089   1.582   2.313   0.459  0.0091  0.1199 -0.0613
  267MPD2    C2 4090   1.515   2.420   0.396 -0.3118 -0.9898  0.2912
  267MPD2    C3 4091   1.378   2.427   0.384 -0.2612  0.7761 -0.3569
  267MPD2    C4 4092   1.310   2.329   0.455  0.5432  0.2999 -0.6223
  267MPD2    C5 4093   1.370   2.221   0.505  0.5804  0.2807 -0.0011
  267MPD2     H 4094   1.568   2.497   0.341  1.1024 -2.1367  0.0629
  267MPD2    H1 4095   1.201   2.330   0.455  0.5460  0.3092  0.5086
  267MPD2    H2 4096   1.545   2.114   0.547  4.0618  1.6142  0.5865
  267MPD2    H3 4097   1.311   2.142   0.551  1.1319 -1.1678 -1.7501
  267MPD2     N 4098   1.303   2.522   0.319  1.2597 -0.1071  0.6496
  267MPD2    H5 4099   1.204   2.525   0.344  0.8469 -1.3422 -0.7927
  267MPD2    N1 4100   1.722   2.295   0.459  0.0609  0.3048 -0.3409
  267MPD2    H7 4101   1.756   2.210   0.502 -1.9553 -0.0198  0.5922
  268TMC3    C1 4102   1.936   2.298   0.358  0.8493 -0.7683 -0.7288
  268TMC3    C2 4103   1.997   2.300   0.233 -0.0599  0.1974 -0.5493
  268TMC3    C3 4104   2.096   2.209   0.207 -0.2722 -0.0237  0.0531
  268TMC3    C4 4105   1.988   2.217   0.458 -0.6706 -0.2518  0.1939
  268TMC3    C5 4106   2.085   2.128   0.429  0.7051  0.1414 -0.0994
  268TMC3    C6 4107   2.139   2.115   0.302 -0.3724 -0.5326 -0.2368
  268TMC3     C 4108   1.805   2.354   0.371  0.1271  0.1865 -0.2971
  268TMC3     O 4109   1.794   2.455   0.303 -0.4458  0.6894 -0.0952
  268TMC3     H 4110   1.971   2.374   0.159  1.8038  3.2604  1.8281
  268TMC3    H1 4111   1.947   2.212   0.559  1.3887  1.8543  1.1241
  268TMC3    H2 4112   2.216   2.041   0.285 -0.8949 -1.2696  0.6031
  268TMC3    C7 4113   2.127   2.038   0.537 -0.0237  0.4815  0.0367
  268TMC3    C8 4114   2.191   2.226   0.094 -0.9054 -0.0640 -1.0210
  268TMC3    O1 4115   2.130   1.919   0.520 -0.8142 -0.2490  0.8413
  268TMC3    O2 4116   2.302   2.177   0.101  1.2504 -0.7342 -0.0052
  269MPD2     C 4117   2.115   1.313  15.213 -0.5595  0.3795 -0.1751
  269MPD2    C1 4118   2.014   1.375  15.290 -0.3711 -0.1768 -0.7352
  269MPD2    C2 4119   2.005   1.510  15.282  0.1024  0.2662 -0.2672
  269MPD2    C3 4120   2.071   1.583  15.191 -0.1553  0.1620  0.2293
  269MPD2    C4 4121   2.166   1.521  15.110  0.8111  0.1474 -0.2495
  269MPD2    C5 4122   2.178   1.384  15.118 -0.9686 -0.1541 -0.0923
  269MPD2     H 4123   1.942   1.560  15.355  0.8713  3.0734 -1.5089
  269MPD2    H1 4124   2.235   1.570  15.042 -1.1364  0.6418 -1.8558
  269MPD2    H2 4125   2.134   1.206  15.212  0.2516  0.5083  1.4354
  269MPD2    H3 4126   2.251   1.331  15.058 -0.5306  2.1346 -1.5699
  269MPD2     N 4127   2.059   1.723  15.193  0.4586  0.1219 -0.4353
  269MPD2    H5 4128   1.985   1.751  15.257  1.3231  0.9499  0.1812
  269MPD2    N1 4129   1.949   1.302  15.392  1.2598 -0.2789 -0.0629
  269MPD2    H7 4130   1.975   1.205  15.403 -2.1675 -1.0064  1.7500
  270TMC3    C1 4131   1.794   1.227  15.550 -0.4275  0.3082 -0.3247
  270TMC3    C2 4132   1.661   1.186  15.560 -0.2041 -0.5503 -0.4863
  270TMC3    C3 4133   1.634   1.050  15.567 -0.3306 -0.3525  0.4283
  270TMC3    C4 4134   1.898   1.144  15.592 -0.2950  0.0656 -0.1814
  270TMC3    C5 4135   1.862   1.017  15.626  0.7669  0.7469  0.4394
  270TMC3    C6 4136   1.733   0.970  15.602  0.3785 -0.8424 -0.0668
  270TMC3     C 4137   1.837   1.334  15.460 -0.2691  0.3085 -0.0358
  270TMC3     O 4138   1.744   1.401  15.423  0.0526  0.9376 -0.4204
  270TMC3     H 4139   1.584   1.256  15.530 -0.0600 -0.1429  0.0997
  270TMC3    H1 4140   1.993   1.194  15.609 -1.0073  1.0899  0.7478
  270TMC3    H2 4141   1.714   0.864  15.612 -0.3074 -0.6145  1.0051
  270TMC3    C7 4142   1.967   0.914  15.615  0.0091 -0.3795 -0.0139
  270TMC3    C8 4143   1.527   0.995  15.481 -0.3478  0.1822 -0.6720
  270TMC3    O1 4144   2.045   0.949  15.525  0.4305 -0.2424  0.5386
  270TMC3    O2 4145   1.417   1.043  15.499  0.1975 -0.0653  0.3683
  271MPD2     C 4146   1.003   0.711  13.605  0.2226 -0.1614  0.1195
  271MPD2    C1 4147   0.968   0.732  13.736 -0.6997  0.2001 -0.5755
  271MPD2    C2 4148   0.847   0.800  13.756  0.3735 -0.2364  0.2125
  271MPD2    C3 4149   0.758   0.825  13.649  0.7063  0.0907  0.3998
  271MPD2    C4 4150   0.794   0.799  13.518 -0.8124 -0.1614 -0.2099
  271MPD2    C5 4151   0.913   0.741  13.505  0.2939  0.2705 -0.4554
  271MPD2     H 4152   0.814   0.813  13.859  0.3313  0.9121  0.0530
  271MPD2    H1 4153   0.730   0.817  13.432 -0.5020  3.2778  0.2542
  271MPD2    H2 4154   1.095   0.659  13.581 -0.3441 -0.5034 -1.3491
  271MPD2    H3 4155   0.938   0.712  13.403  0.2840 -0.1182 -0.3492
  271MPD2     N 4156   0.626   0.872  13.669 -0.0205  0.5153  0.5107
  271MPD2    H5 4157   0.564   0.871  13.589  0.0896  1.0234  0.4220
  271MPD2    N1 4158   1.047   0.703  13.847 -0.3420  0.9774  0.2642
  271MPD2    H7 4159   1.029   0.745  13.938  0.2468  1.7734  0.0066
  272TMC3    C1 4160   1.243   0.642  13.971 -0.2424  0.0627 -0.0683
  272TMC3    C2 4161   1.385   0.662  13.958  0.2799  0.1826  0.0585
  272TMC3    C3 4162   1.456   0.670  14.073  0.7198  0.2079 -0.3506
  272TMC3    C4 4163   1.182   0.634  14.095  0.3620 -1.1011 -0.7419
  272TMC3    C5 4164   1.259   0.668  14.202  0.0477  0.6123 -0.4212
  272TMC3    C6 4165   1.396   0.680  14.192 -0.2579 -1.0662 -0.1881
  272TMC3     C 4166   1.170   0.635  13.847 -0.0230  0.1670 -0.3616
  272TMC3     O 4167   1.235   0.587  13.758  0.0921 -0.3554 -0.1364
  272TMC3     H 4168   1.430   0.670  13.860  0.6591  0.1272  0.2262
  272TMC3    H1 4169   1.078   0.606  14.105  0.1797  0.5921  2.0371
  272TMC3    H2 4170   1.448   0.701  14.285 -1.0505 -0.9595  0.2321
  272TMC3    C7 4171   1.195   0.674  14.331  0.3177 -0.2648 -0.4631
  272TMC3    C8 4172   1.603   0.680  14.078 -0.3384 -0.1589  0.5656
  272TMC3    O1 4173   1.074   0.664  14.334  0.2301 -0.3567 -0.6453
  272TMC3    O2 4174   1.658   0.724  13.978 -0.8100  0.0887 -0.2378
  273MPD2     C 4175   2.268   3.756  11.614  0.7345  0.5661  0.2341
  273MPD2    C1 4176   2.387   3.824  11.608 -0.0132 -0.2667  0.1977
  273MPD2    C2 4177   2.439   3.869  11.489 -0.0849 -0.0806 -0.3659
  273MPD2    C3 4178   2.378   3.826  11.373 -0.0471  0.2039  0.5752
  273MPD2    C4 4179   2.265   3.750  11.382 -0.0362  0.2776  0.0811
  273MPD2    C5 4180   2.210   3.708  11.505 -0.1389  0.3530  0.3114
  273MPD2     H 4181   2.520   3.942  11.483 -0.7936  0.6548 -0.8951
  273MPD2    H1 4182   2.223   3.709  11.291 -2.5728  0.1691  1.2897
  273MPD2    H2 4183   2.222   3.716  11.704 -0.0021 -1.1325 -0.8907
  273MPD2    H3 4184   2.124   3.646  11.527  1.5499 -1.8226  0.7415
  273MPD2     N 4185   2.430   3.863  11.250 -0.0042  0.5890  0.3768
  273MPD2    H5 4186   2.364   3.865  11.173 -1.1637  0.3695  1.3691
  273MPD2    N1 4187   2.451   3.855  11.725 -0.2324  0.6327 -0.0796
  273MPD2    H7 4188   2.401   3.835  11.811  1.5574  1.2950  1.1085
  274TMC3    C1 4189   2.588   3.934  11.102  0.1020 -0.6194  0.0477
  274TMC3    C2 4190   2.494   3.928  11.003 -0.5753  0.1781 -0.4023
  274TMC3    C3 4191   2.507   4.007  10.898 -0.2013  0.3170 -0.2639
  274TMC3    C4 4192   2.695   4.021  11.090 -0.5013  0.9819  0.4764
  274TMC3    C5 4193   2.718   4.085  10.974  0.5726 -0.3892 -0.2327
  274TMC3    C6 4194   2.626   4.080  10.873 -0.6795 -0.4271  0.0706
  274TMC3     C 4195   2.563   3.880  11.230  0.2748 -0.1231 -0.1361
  274TMC3     O 4196   2.656   3.841  11.308 -0.2720 -0.0955 -0.7568
  274TMC3     H 4197   2.411   3.859  11.002  0.6995 -1.3530 -0.1721
  274TMC3    H1 4198   2.764   4.026  11.173  0.4733 -0.2116 -0.2618
  274TMC3    H2 4199   2.638   4.150  10.791  0.0647  0.3392  0.8279
  274TMC3    C7 4200   2.801   4.204  10.967  0.2483 -0.1333  0.0335
  274TMC3    C8 4201   2.387   4.046  10.829 -0.5301 -0.0741  0.2241
  274TMC3    O1 4202   2.862   4.224  10.863  0.4996 -0.2735  0.3396
  274TMC3    O2 4203   2.287   3.994  10.876 -0.3931  0.1867  0.5588
  275MPD2     C 4204   2.269   2.257  14.838  0.2280  0.1049 -0.0008
  275MPD2    C1 4205   2.303   2.131  14.791 -0.1547  0.5753 -0.5862
  275MPD2    C2 4206   2.204   2.042  14.756 -0.1789 -0.4937 -0.7990
  275MPD2    C3 4207   2.066   2.062  14.780 -0.1706  0.4164  0.4425
  275MPD2    C4 4208   2.037   2.177  14.848  0.1677 -0.0062  0.8002
  275MPD2    C5 4209   2.139   2.271  14.873 -0.2249  0.2127 -0.0197
  275MPD2     H 4210   2.231   1.950  14.707  0.4432 -1.1014  0.6742
  275MPD2    H1 4211   1.939   2.187  14.894 -0.8593 -1.4715 -1.0694
  275MPD2    H2 4212   2.338   2.338  14.855 -2.2550  1.6336  2.7871
  275MPD2    H3 4213   2.111   2.351  14.940  1.2409 -0.9400  1.9529
  275MPD2     N 4214   1.965   1.968  14.755  0.4921 -0.6019  0.9387
  275MPD2    H5 4215   1.877   1.992  14.798  1.0195  0.2435  1.5623
  275MPD2    N1 4216   2.434   2.098  14.767 -0.2331 -0.2448  0.5987
  275MPD2    H7 4217   2.450   2.018  14.706 -1.8735 -1.1241  1.3149
  276TMC3    C1 4218   2.660   2.110  14.805  0.2100 -0.6256 -0.1260
  276TMC3    C2 4219   2.682   2.015  14.707  0.2142 -0.1105  0.5038
  276TMC3    C3 4220   2.805   1.965  14.702 -0.2767 -1.0541 -0.7064
  276TMC3    C4 4221   2.755   2.152  14.892  0.0551 -0.2131  0.5579
  276TMC3    C5 4222   2.874   2.092  14.887  0.1030 -0.1778  0.6447
  276TMC3    C6 4223   2.899   1.993  14.798  0.4358  0.5783  0.7063
  276TMC3     C 4224   2.539   2.182  14.810  0.0095 -0.1383 -0.6934
  276TMC3     O 4225   2.541   2.288  14.870 -0.0832 -0.3229  0.3683
  276TMC3     H 4226   2.607   2.005  14.629 -1.1533  3.7950  1.3425
  276TMC3    H1 4227   2.737   2.230  14.965  0.5304  0.3939  0.0300
  276TMC3    H2 4228   2.995   1.942  14.801 -0.4731 -1.2215 -0.8966
  276TMC3    C7 4229   2.961   2.122  15.007 -0.2278  0.7420 -0.7629
  276TMC3    C8 4230   2.845   1.882  14.598  0.7055  0.7656  0.2137
  276TMC3    O1 4231   2.924   2.208  15.091 -0.4927 -0.6617  0.2646
  276TMC3    O2 4232   2.967   1.873  14.575 -0.3190  0.0040 -1.0167
  277MPD2     C 4233   4.573   0.495  13.202 -0.9312  0.3549  0.3516
  277MPD2    C1 4234   4.451   0.547  13.237 -0.4010 -0.2527 -0.2476
  277MPD2    C2 4235   4.385   0.494  13.345  0.2051  0.1544  0.0940
  277MPD2    C3 4236   4.444   0.396  13.426  0.2760 -0.5850 -0.5383
  277MPD2    C4 4237   4.570   0.361  13.399  0.3170  0.8823 -0.6295
  277MPD2    C5 4238   4.632   0.406  13.290  0.4287  0.0593 -0.1450
  277MPD2     H 4239   4.285   0.529  13.365 -0.4957 -0.9867 -1.4226
  277MPD2    H1 4240   4.628   0.298  13.466  3.1825  1.1553 -2.8922
  277MPD2    H2 4241   4.628   0.519  13.112 -3.1823  0.8707 -0.8720
  277MPD2    H3 4242   4.732   0.372  13.265  0.2739  0.8641 -1.8795
  277MPD2     N 4243   4.375   0.363  13.539 -0.7178 -0.3472  0.8978
  277MPD2    H5 4244   4.290   0.418  13.550 -0.5619  0.8131 -3.8921
  277MPD2    N1 4245   4.393   0.649  13.155 -0.6596 -0.0729 -0.4069
  277MPD2    H7 4246   4.441   0.667  13.067  0.6423  1.3601  0.5849
  278TMC3    C1 4247   4.297   0.247  13.713  0.0669 -0.3268 -0.7269
  278TMC3    C2 4248   4.241   0.123  13.724 -0.2316  0.6911  0.5520
  278TMC3    C3 4249   4.100   0.135  13.712  0.5802 -0.3250  0.5851
  278TMC3    C4 4250   4.220   0.362  13.719  0.5114  0.1135  0.1767
  278TMC3    C5 4251   4.085   0.365  13.723 -0.9950 -0.2752 -0.3174
  278TMC3    C6 4252   4.020   0.247  13.711  0.5337  0.4588  0.0886
  278TMC3     C 4253   4.413   0.269  13.630 -0.2522  0.0954 -0.0427
  278TMC3     O 4254   4.506   0.192  13.630  0.4751 -0.3132  0.3120
  278TMC3     H 4255   4.289   0.027  13.714  1.3185  1.3373  1.7126
  278TMC3    H1 4256   4.276   0.455  13.727 -1.4088  1.1854  1.1038
  278TMC3    H2 4257   3.912   0.244  13.720  0.6041 -3.5091 -0.3384
  278TMC3    C7 4258   4.012   0.486  13.686  0.1288  0.0632  0.1963
  278TMC3    C8 4259   4.030   0.011  13.727 -0.6178 -0.3061  0.3131
  278TMC3    O1 4260   4.074   0.580  13.636  0.0442 -0.2049  0.5024
  278TMC3    O2 4261   4.084   4.651  13.780  0.6081  0.0107 -0.1872
  279MPD2     C 4262   3.224   0.381  17.050 -0.4058  0.2100 -0.3317
  279MPD2    C1 4263   3.227   0.481  17.148  0.0498  0.1307 -0.5189
  279MPD2    C2 4264   3.310   0.591  17.138 -0.3778  0.3231 -0.4748
  279MPD2    C3 4265   3.383   0.611  17.019 -0.4817  0.5368 -0.2258
  279MPD2    C4 4266   3.377   0.510  16.921  0.2498  0.1449 -0.1669
  279MPD2    C5 4267   3.296   0.399  16.938 -0.4294 -0.1556  0.3640
  279MPD2     H 4268   3.324   0.663  17.218 -2.2465  1.5797 -1.2725
  279MPD2    H1 4269   3.429   0.511  16.826  1.0800  0.0537  0.2903
  279MPD2    H2 4270   3.160   0.293  17.054  0.3895 -0.4016 -1.1255
  279MPD2    H3 4271   3.296   0.325  16.859  0.2182  0.3490 -0.1059
  279MPD2     N 4272   3.457   0.729  16.990  0.3613  0.8897  0.3974
  279MPD2    H5 4273   3.500   0.738  16.899  0.5103 -0.2666  0.3600
  279MPD2    N1 4274   3.150   0.457  17.264  0.1651  0.0131  0.1527
  279MPD2    H7 4275   3.094   0.372  17.262 -1.1058  0.8384  1.0805
  280TMC3    C1 4276   3.037   0.496  17.464 -0.1297 -0.1189 -0.0421
  280TMC3    C2 4277   2.976   0.376  17.442 -0.0459  0.2547 -0.0580
  280TMC3    C3 4278   2.859   0.360  17.515  0.5968 -0.6270  0.2317
  280TMC3    C4 4279   2.993   0.599  17.540  0.2703  0.3067 -0.2275
  280TMC3    C5 4280   2.876   0.577  17.604 -0.9497 -0.1570  0.3545
  280TMC3    C6 4281   2.810   0.463  17.588  0.6114  0.6833 -0.0690
  280TMC3     C 4282   3.128   0.547  17.372  0.6635 -0.2015  0.6718
  280TMC3     O 4283   3.170   0.661  17.387  0.4302  0.2763  0.0565
  280TMC3     H 4284   3.008   0.296  17.377  0.9375 -0.0493  0.7913
  280TMC3    H1 4285   3.056   0.682  17.568  1.0925  0.1709 -1.6770
  280TMC3    H2 4286   2.714   0.448  17.637  0.6841  0.4380 -0.0001
  280TMC3    C7 4287   2.813   0.695  17.661 -0.0598  0.6362 -0.0383
  280TMC3    C8 4288   2.782   0.240  17.488 -0.9800  0.3473 -0.0586
  280TMC3    O1 4289   2.769   0.691   0.031  0.3890  0.6679 -0.4932
  280TMC3    O2 4290   2.806   0.187  17.380 -0.5495  0.1855  0.0403
  281TMC3    C1 4291   2.691   1.268  13.343 -0.3089  0.2729 -0.3597
  281TMC3    C2 4292   2.677   1.357  13.245 -0.6715 -0.5444  0.8413
  281TMC3    C3 4293   2.657   1.317  13.110  0.4576 -0.3300  0.1840
  281TMC3    C4 4294   2.720   1.139  13.316 -0.1775 -0.4103  0.5428
  281TMC3    C5 4295   2.711   1.100  13.186 -0.2021  0.0624  0.7005
  281TMC3    C6 4296   2.682   1.187  13.079 -0.1635  0.4664  0.0888
  281TMC3     C 4297   2.576   1.250  13.431 -0.2660 -0.1356 -0.1273
  281TMC3     O 4298   2.560   1.150  13.498 -0.2201  0.2060  0.2710
  281TMC3     H 4299   2.663   1.463  13.265  0.8402  0.1980 -2.0042
  281TMC3    H1 4300   2.739   1.070  13.398  0.8772  2.6708  2.8701
  281TMC3    H2 4301   2.665   1.137  12.985  1.7104  0.6957 -0.3677
  281TMC3    C7 4302   2.651   0.972  13.169  0.4991 -0.7449  0.1746
  281TMC3    C8 4303   2.530   1.358  13.069 -0.6292  0.1228 -0.0010
  281TMC3    O1 4304   2.662   0.911  13.061  0.2962 -0.0833 -0.7548
  281TMC3    O2 4305   2.452   1.270  13.047 -0.4952 -0.0578  0.8919
  282MPD2     C 4306   4.313   2.408  14.949 -0.4417  0.1010 -0.5056
  282MPD2    C1 4307   4.169   2.413  14.952  0.2279  0.1636 -0.4016
  282MPD2    C2 4308   4.094   2.387  14.846 -0.2923  0.0925  0.1447
  282MPD2    C3 4309   4.158   2.355  14.732 -0.5899  0.3412 -0.4980
  282MPD2    C4 4310   4.289   2.343  14.725  0.0957  0.7682  0.0127
  282MPD2    C5 4311   4.369   2.372  14.832 -0.6636 -0.4040  0.2714
  282MPD2     H 4312   3.987   2.401  14.838 -0.2873 -0.0767 -0.2551
  282MPD2    H1 4313   4.333   2.316  14.629  0.4228 -0.9398  0.6481
  282MPD2    H2 4314   4.359   2.418  15.047 -0.3116  0.7798 -0.6439
  282MPD2    H3 4315   4.476   2.363  14.823 -0.6677 -0.4919  0.3038
  282MPD2     N 4316   4.080   2.352  14.613  0.0005 -0.2529  0.7359
  282MPD2    H5 4317   3.989   2.394  14.625  0.5714  0.4692  2.4962
  282MPD2    N1 4318   4.106   2.444  15.072  0.2195  0.5240  0.8016
  282MPD2    H7 4319   4.165   2.480  15.147 -0.2157  1.7409  0.5612
  283TMC3    C1 4320   3.939   2.475  15.229 -0.5522 -1.1341 -0.7859
  283TMC3    C2 4321   4.015   2.575  15.282 -0.0897  0.0862 -0.2585
  283TMC3    C3 4322   4.008   2.594  15.418 -0.3832 -0.0791 -0.7551
  283TMC3    C4 4323   3.873   2.386  15.303 -0.0222 -0.1443 -0.3258
  283TMC3    C5 4324   3.888   2.388  15.440  0.7518  0.0065  0.7354
  283TMC3    C6 4325   3.950   2.502  15.503 -0.4686 -0.2978  0.2642
  283TMC3     C 4326   3.974   2.425  15.097 -0.2911  1.1214 -0.0486
  283TMC3     O 4327   3.892   2.350  15.045  0.6268 -0.2831  0.1256
  283TMC3     H 4328   4.065   2.651  15.224 -0.1121 -0.6077 -1.1902
  283TMC3    H1 4329   3.826   2.298  15.262 -2.2671 -0.3347  2.6261
  283TMC3    H2 4330   3.952   2.502  15.611 -1.5198  0.9693  0.2898
  283TMC3    C7 4331   3.795   2.318  15.522 -0.2810  0.0826 -0.5513
  283TMC3    C8 4332   4.069   2.713  15.472 -0.2293  0.2798 -0.7400
  283TMC3    O1 4333   3.789   2.352  15.639  0.1760 -0.6512  0.6400
  283TMC3    O2 4334   4.131   2.707  15.578  0.2527  0.2864  0.1662
  284MPD2     C 4335   2.109   1.894  12.081  1.0214  0.0726  0.3212
  284MPD2    C1 4336   2.239   1.912  12.026  0.1121  0.1137 -0.6155
  284MPD2    C2 4337   2.350   1.862  12.101 -0.1250 -0.1796 -0.5132
  284MPD2    C3 4338   2.341   1.819  12.228  0.1560  0.1867 -0.7295
  284MPD2    C4 4339   2.219   1.807  12.284 -0.1101  0.2475  0.3027
  284MPD2    C5 4340   2.106   1.844  12.208  0.6000  0.2051  0.0483
  284MPD2     H 4341   2.448   1.873  12.055 -0.8960  2.0612 -1.6436
  284MPD2    H1 4342   2.207   1.774  12.387  0.7094 -0.1399  0.2719
  284MPD2    H2 4343   2.017   1.924  12.031  1.5521  0.4042 -0.4549
  284MPD2    H3 4344   2.012   1.817  12.254  1.7064  1.9734  3.3057
  284MPD2     N 4345   2.449   1.772  12.307  0.1284 -0.0395 -0.3245
  284MPD2    H5 4346   2.412   1.736  12.394 -0.1270 -0.6934 -0.6979
  284MPD2    N1 4347   2.259   1.974  11.897  0.0912  0.1747  0.0005
  284MPD2    H7 4348   2.352   1.965  11.858 -0.9086  0.2461 -2.3869
  285TMC3    C1 4349   2.212   2.079  11.692 -0.4364 -0.1081 -0.0785
  285TMC3    C2 4350   2.314   2.003  11.643  0.1685  0.2117 -1.2420
  285TMC3    C3 4351   2.399   2.059  11.550 -0.6066  1.0401 -0.3458
  285TMC3    C4 4352   2.206   2.215  11.672 -0.4973 -0.9247  0.2382
  285TMC3    C5 4353   2.298   2.266  11.583 -0.6046 -0.4350  0.0594
  285TMC3    C6 4354   2.396   2.195  11.520  0.0320 -0.1730 -0.4132
  285TMC3     C 4355   2.163   2.044  11.827  0.4601 -0.1735  0.8094
  285TMC3     O 4356   2.050   2.081  11.853  0.4402  0.1849 -0.0398
  285TMC3     H 4357   2.318   1.895  11.656  0.7998  0.3816  0.0268
  285TMC3    H1 4358   2.132   2.275  11.724 -0.7222  0.3841 -1.5899
  285TMC3    H2 4359   2.473   2.245  11.462  0.6784 -1.1373 -0.3925
  285TMC3    C7 4360   2.328   2.403  11.622 -0.1615  0.7724  0.4394
  285TMC3    C8 4361   2.499   1.974  11.490  0.1115 -0.3973 -0.9004
  285TMC3    O1 4362   2.234   2.478  11.628 -0.5957 -0.3205 -0.0505
  285TMC3    O2 4363   2.486   1.855  11.501 -0.0873  0.4890 -0.1737
  286MPD2     C 4364   2.672   0.318   1.666  0.3987  0.3745  0.2957
  286MPD2    C1 4365   2.653   0.311   1.533  0.5253  0.6307 -0.3071
  286MPD2    C2 4366   2.727   0.220   1.456  0.2146 -0.2321 -0.0401
  286MPD2    C3 4367   2.834   0.144   1.513 -0.2225 -0.0742  0.4599
  286MPD2    C4 4368   2.858   0.158   1.645 -0.2844 -0.2099  0.6807
  286MPD2    C5 4369   2.773   0.236   1.723 -0.3648 -0.5455 -0.3189
  286MPD2     H 4370   2.700   0.215   1.351  1.7808 -0.3724 -0.4396
  286MPD2    H1 4371   2.934   0.109   1.704  1.8883  0.9593 -1.1370
  286MPD2    H2 4372   2.601   0.373   1.727  0.6481  1.0594 -0.0410
  286MPD2    H3 4373   2.795   0.246   1.829  1.6238  0.7398 -0.8599
  286MPD2     N 4374   2.918   0.061   1.434 -0.2548 -0.0098 -0.4264
  286MPD2    H5 4375   3.001   0.022   1.477 -0.9192 -1.1094 -0.1321
  286MPD2    N1 4376   2.557   0.392   1.458  0.5530 -0.1371  0.0425
  286MPD2    H7 4377   2.550   0.383   1.357 -0.2282  1.1745 -0.0290
  287TMC3    C1 4378   2.990   4.668   1.248 -0.5998 -1.0039 -0.2859
  287TMC3    C2 4379   2.964   4.636   1.120  0.1848 -0.0636 -0.1366
  287TMC3    C3 4380   3.061   4.577   1.038  0.6682  0.0498 -0.3778
  287TMC3    C4 4381   3.118   4.665   1.293 -0.0611 -0.3358 -0.4562
  287TMC3    C5 4382   3.208   4.596   1.217 -0.0282  0.0537 -0.4981
  287TMC3    C6 4383   3.182   4.551   1.089 -0.9250  0.4138 -0.5365
  287TMC3     C 4384   2.895   0.028   1.304 -0.3492  0.6756  0.5761
  287TMC3     O 4385   2.807   0.062   1.229 -0.6546 -0.0090 -0.3760
  287TMC3     H 4386   2.867   4.656   1.076  0.3249  1.7008  0.3600
  287TMC3    H1 4387   3.136   4.696   1.395 -0.0903  1.2650 -0.9380
  287TMC3    H2 4388   3.259   4.500   1.031 -0.2293  2.0045 -1.0053
  287TMC3    C7 4389   3.343   4.581   1.267 -0.6271 -0.6893  0.7523
  287TMC3    C8 4390   3.016   4.551   0.904 -0.0569  0.3807  0.2013
  287TMC3    O1 4391   3.373   4.639   1.369 -0.3197  0.5095  0.1409
  287TMC3    O2 4392   2.897   4.528   0.885 -0.4805 -0.0802 -0.1879
  288TMC3    C1 4393   4.669   0.259  14.252 -1.4081 -0.3820  0.3833
  288TMC3    C2 4394   4.552   0.275  14.317  0.0269  0.2034 -0.1028
  288TMC3    C3 4395   4.454   0.360  14.268 -0.9931  0.1258 -0.5395
  288TMC3    C4 4396   4.695   0.332  14.140  0.2458  0.4799 -0.5316
  288TMC3    C5 4397   4.589   0.410  14.095  0.2248  0.8399  0.1022
  288TMC3    C6 4398   4.469   0.427  14.151  0.9482 -0.5587 -0.0840
  288TMC3     C 4399   0.042   0.203  14.326 -0.0131 -0.2996 -0.4685
  288TMC3     O 4400   0.006   0.135  14.421  0.1896  0.0849 -0.1642
  288TMC3     H 4401   4.533   0.216  14.405 -0.7399  0.7396  0.0881
  288TMC3    H1 4402   0.050   0.327  14.082  0.2960 -0.4549 -0.3715
  288TMC3    H2 4403   4.397   0.496  14.109 -0.6561 -2.7943 -1.0090
  288TMC3    C7 4404   4.622   0.484  13.970  0.2242 -0.1413  0.0436
  288TMC3    C8 4405   4.340   0.404  14.356 -0.5998 -0.4452 -0.8075
  288TMC3    O1 4406   0.000   0.516  13.960 -0.2715  0.3492 -0.0957
  288TMC3    O2 4407   4.314   0.523  14.343 -0.1560  0.2866 -0.5924
  289MPD2     C 4408   4.518   4.182  14.551 -0.4067  0.6817 -0.2801
  289MPD2    C1 4409   4.535   4.286  14.462  0.3073 -0.5565 -0.2236
  289MPD2    C2 4410   4.433   4.342  14.387  0.6881 -0.1038 -0.1377
  289MPD2    C3 4411   4.310   4.275  14.390  0.0302 -0.0312  0.0410
  289MPD2    C4 4412   4.287   4.167  14.472  0.5037 -0.4081 -0.8595
  289MPD2    C5 4413   4.390   4.125  14.550  0.6038  0.4160  0.9066
  289MPD2     H 4414   4.463   4.416  14.313 -2.6136  2.3591  1.0157
  289MPD2    H1 4415   4.193   4.113  14.475  0.0122  0.2679 -3.4351
  289MPD2    H2 4416   4.598   4.160  14.621 -2.2772  0.4541  1.7889
  289MPD2    H3 4417   4.369   4.044  14.620 -0.7554 -2.2069 -2.5178
  289MPD2     N 4418   4.207   4.318  14.304  0.4061  0.0902 -0.4330
  289MPD2    H5 4419   4.122   4.264  14.312  1.4089 -1.5489 -0.7597
  289MPD2    N1 4420   4.665   4.341  14.470 -0.1380 -0.1915 -0.3785
  289MPD2    H7 4421   0.001   4.287  14.515 -0.0107  0.7468  0.5489
  290TMC3    C1 4422   4.075   4.436  14.153  1.0520 -0.0437  0.5128
  290TMC3    C2 4423   4.033   4.570  14.135 -0.7750 -0.0479  0.5809
  290TMC3    C3 4424   3.904   4.592  14.095 -0.6488 -0.8979  0.4951
  290TMC3    C4 4425   3.997   4.329  14.127  0.4148  1.0228 -0.6689
  290TMC3    C5 4426   3.863   4.351  14.093 -0.1467  0.0330  0.7029
  290TMC3    C6 4427   3.820   4.478  14.082 -0.5177 -0.1715 -0.3218
  290TMC3     C 4428   4.204   4.425  14.215  0.2666  0.1845  0.8630
  290TMC3     O 4429   4.277   4.526  14.203 -0.0487 -0.6373  0.2868
  290TMC3     H 4430   4.106   4.649  14.147 -0.3590 -0.3437  0.0321
  290TMC3    H1 4431   4.035   4.231  14.154 -0.7078  0.2690 -1.8420
  290TMC3    H2 4432   3.719   4.494  14.046 -1.2043  0.4387  1.8698
  290TMC3    C7 4433   3.781   4.244  14.039  0.0998  0.0445  0.1655
  290TMC3    C8 4434   3.832   4.722  14.093  1.1937 -0.3245  0.0767
  290TMC3    O1 4435   3.665   4.277  14.018 -0.3044  0.1632  0.1372
  290TMC3    O2 4436   3.710   4.715  14.104 -0.3530 -0.0471 -0.1130
  291MPD2     C 4437   3.040   4.172  17.508  0.2644 -0.2474 -1.0259
  291MPD2    C1 4438   3.098   4.120  17.616  0.1934  0.6201 -0.3039
  291MPD2    C2 4439   3.210   4.179  17.661 -0.8105  0.0402 -0.4831
  291MPD2    C3 4440   3.277   4.277  17.587  0.6505  0.1292  0.2674
  291MPD2    C4 4441   3.221   4.318  17.474  0.9782 -0.9218  0.3980
  291MPD2    C5 4442   3.096   4.275  17.440  0.1749  0.2643 -0.6310
  291MPD2     H 4443   3.251   4.148   0.012 -1.1250  0.7239 -0.1293
  291MPD2    H1 4444   3.258   4.395  17.407 -2.3635 -1.5831 -2.1676
  291MPD2    H2 4445   2.945   4.134  17.473  0.0426 -0.8993  0.2719
  291MPD2    H3 4446   3.066   4.307  17.341 -1.5314  4.4005  1.2292
  291MPD2     N 4447   3.400   4.334  17.620  0.2211 -0.6686 -0.0329
  291MPD2    H5 4448   3.419   4.415  17.562  1.4856  0.0647  1.4116
  291MPD2    N1 4449   3.046   4.005  17.684 -0.3860 -0.2442 -0.9180
  291MPD2    H7 4450   3.086   3.971   0.026  0.4837 -0.2467 -1.3162
  292TMC3    C1 4451   2.905   3.819  17.715  0.0764 -0.4774 -0.8937
  292TMC3    C2 4452   2.888   3.833   0.107 -0.1168  0.2183  0.5445
  292TMC3    C3 4453   2.834   3.722   0.169  0.0091  1.0083  0.0774
  292TMC3    C4 4454   2.878   3.706  17.651  1.0690  0.3211 -0.0778
  292TMC3    C5 4455   2.842   3.598  17.721 -0.8157 -0.1786 -0.8947
  292TMC3    C6 4456   2.826   3.602   0.114 -0.7962  0.0573 -0.6080
  292TMC3     C 4457   2.941   3.933  17.629  0.5249  0.4676 -0.1729
  292TMC3     O 4458   2.909   3.925  17.509 -0.1197  0.0889  0.2745
  292TMC3     H 4459   2.894   3.925   0.163 -0.1669  0.1105  0.7269
  292TMC3    H1 4460   2.909   3.691  17.548 -0.2762  2.1861 -0.7490
  292TMC3    H2 4461   2.810   3.509   0.168 -0.4882  0.7976  0.7421
  292TMC3    C7 4462   2.824   3.467  17.660  0.3717 -0.5993  0.1634
  292TMC3    C8 4463   2.822   3.740   0.312 -0.0127  0.6507  0.0725
  292TMC3    O1 4464   2.867   3.372  17.724 -0.4185 -0.1118 -0.3798
  292TMC3    O2 4465   2.887   3.830   0.365 -0.2334  0.0035  0.1571
  293MPD2     C 4466   0.578   0.312  12.323 -0.2154  0.2536  0.3651
  293MPD2    C1 4467   0.466   0.330  12.405  0.0061  0.4942  0.3269
  293MPD2    C2 4468   0.482   0.373  12.533  0.0639  0.7118 -0.0405
  293MPD2    C3 4469   0.601   0.401  12.582 -0.2495 -0.1602 -0.4000
  293MPD2    C4 4470   0.715   0.382  12.497 -0.8806  0.4075  0.2496
  293MPD2    C5 4471   0.698   0.333  12.372  0.2605 -0.0663  0.9668
  293MPD2     H 4472   0.396   0.389  12.597  0.9101  2.1931  0.7273
  293MPD2    H1 4473   0.816   0.386  12.537 -0.4874 -1.4002 -0.5796
  293MPD2    H2 4474   0.571   0.276  12.221 -1.3895 -2.4945  1.4208
  293MPD2    H3 4475   0.781   0.299  12.311  0.3348 -1.5659  1.8878
  293MPD2     N 4476   0.614   0.452  12.716  0.0407  0.0220  0.4739
  293MPD2    H5 4477   0.533   0.448  12.778  0.2260  0.8560  0.7704
  293MPD2    N1 4478   0.335   0.323  12.349  0.5148 -0.3347 -0.0282
  293MPD2    H7 4479   0.330   0.308  12.249 -0.5062 -1.9972  0.2598
  294TMC3    C1 4480   0.118   0.356  12.309 -1.1869  0.2784  0.2134
  294TMC3    C2 4481   0.114   0.240  12.229 -1.0537  0.1946 -0.6400
  294TMC3    C3 4482   0.056   0.239  12.108 -0.1544  0.4425 -0.5254
  294TMC3    C4 4483   0.075   0.472  12.256  0.1153 -0.4081  0.2577
  294TMC3    C5 4484   0.025   0.467  12.127 -0.4680 -0.3081 -0.6538
  294TMC3    C6 4485   0.003   0.353  12.052  0.0362  0.0838  0.4648
  294TMC3     C 4486   0.223   0.378  12.403  0.0722  0.9035 -0.7654
  294TMC3     O 4487   0.198   0.424  12.515 -0.2000 -0.0413 -0.4666
  294TMC3     H 4488   0.165   0.149  12.255  0.5891  1.9105  2.1429
  294TMC3    H1 4489   0.100   0.568  12.298 -0.6340  0.0841 -0.4140
  294TMC3    H2 4490   4.675   0.361  11.965  0.7353  2.9591  0.2132
  294TMC3    C7 4491   4.727   0.595  12.071 -0.7694  1.0348  0.0415
  294TMC3    C8 4492   0.081   0.112  12.034  0.8285 -0.1106  0.3685
  294TMC3    O1 4493   4.701   0.685  12.150  0.2155  0.2848 -0.6570
  294TMC3    O2 4494   0.108   0.006  12.095  0.5653  0.7415 -0.6446
  295MPD2     C 4495   1.540   3.649   0.401  0.9321 -0.1140 -0.2442
  295MPD2    C1 4496   1.415   3.671   0.340  0.0717  0.1964  0.4134
  295MPD2    C2 4497   1.308   3.619   0.413 -0.2811  0.3638  0.0344
  295MPD2    C3 4498   1.311   3.561   0.536 -0.0852 -0.7925 -0.2981
  295MPD2    C4 4499   1.431   3.548   0.600  0.1624 -0.4657  0.0597
  295MPD2    C5 4500   1.544   3.586   0.526 -0.4078 -0.5329 -0.0987
  295MPD2     H 4501   1.210   3.621   0.368 -0.8484 -1.3469  1.2117
  295MPD2    H1 4502   1.442   3.506   0.700  1.4464  0.2066  0.2041
  295MPD2    H2 4503   1.636   3.681   0.361  1.3363 -0.9816  0.0271
  295MPD2    H3 4504   1.641   3.565   0.569 -0.3152 -0.9368 -0.5069
  295MPD2     N 4505   1.203   3.513   0.611 -0.5877  0.0373 -0.2214
  295MPD2    H5 4506   1.224   3.486   0.707  2.3723  2.6223 -0.1440
  295MPD2    N1 4507   1.406   3.747   0.217 -0.2397  0.7666 -0.6216
  295MPD2    H7 4508   1.320   3.754   0.163  0.2412  1.0404 -1.3476
  296TMC3    C1 4509   0.972   3.470   0.683 -0.4545  0.5197  0.1670
  296TMC3    C2 4510   0.847   3.520   0.647 -0.3018 -0.5399 -0.4171
  296TMC3    C3 4511   0.788   3.577   0.756  0.0579 -0.1529  0.3663
  296TMC3    C4 4512   1.009   3.447   0.817 -0.1915  0.3418 -0.7954
  296TMC3    C5 4513   0.927   3.478   0.918  0.3165 -0.5882 -0.7837
  296TMC3    C6 4514   0.826   3.563   0.889 -0.3427 -0.3257  0.8351
  296TMC3     C 4515   1.072   3.497   0.570 -0.5745  0.4407 -0.1099
  296TMC3     O 4516   1.035   3.487   0.455  0.3314  0.3213 -0.7762
  296TMC3     H 4517   0.820   3.558   0.550 -0.0170  2.1851  0.5601
  296TMC3    H1 4518   1.113   3.427   0.839 -0.7034  1.0839  2.1807
  296TMC3    H2 4519   0.752   3.585   0.964  0.5171  0.9925  1.2807
  296TMC3    C7 4520   0.977   3.457   1.054 -0.3785 -0.1502  0.3128
  296TMC3    C8 4521   0.658   3.630   0.725 -0.5840 -0.1628 -0.1763
  296TMC3    O1 4522   0.941   3.532   1.143 -0.2471 -0.1267  0.0973
  296TMC3    O2 4523   0.581   3.572   0.651 -0.1438 -0.1553  0.4418
  297MPD2     C 4524   3.248   1.445  15.605 -0.2571 -0.1749  0.1745
  297MPD2    C1 4525   3.219   1.569  15.657 -0.5873 -0.1361 -0.1154
  297MPD2    C2 4526   3.300   1.625  15.760 -0.4450  0.6411 -0.4709
  297MPD2    C3 4527   3.426   1.566  15.788  0.3761 -0.4619 -0.3248
  297MPD2    C4 4528   3.458   1.443  15.718 -0.7135 -0.0788 -0.6997
  297MPD2    C5 4529   3.365   1.381  15.635  0.3190  0.4728  0.0174
  297MPD2     H 4530   3.265   1.714  15.812  0.1801 -0.1725  1.3236
  297MPD2    H1 4531   3.555   1.398  15.737 -1.1325 -1.2209 -1.3102
  297MPD2    H2 4532   3.192   1.399  15.524  0.9984 -1.6411  0.1394
  297MPD2    H3 4533   3.380   1.284  15.588  1.3504 -0.4397  2.2056
  297MPD2     N 4534   3.523   1.616  15.877 -0.1788  0.8360 -0.1174
  297MPD2    H5 4535   3.609   1.566  15.894 -1.2889 -1.2100 -0.5026
  297MPD2    N1 4536   3.110   1.645  15.623 -0.4855  0.3295  0.4205
  297MPD2    H7 4537   3.091   1.715  15.694  2.0935 -0.0229  1.4458
  298TMC3    C1 4538   2.939   1.744  15.492  0.3603 -0.0252  0.2971
  298TMC3    C2 4539   2.892   1.759  15.362 -0.1493  0.1622  0.1522
  298TMC3    C3 4540   2.804   1.859  15.336 -0.0541 -0.9548 -0.0645
  298TMC3    C4 4541   2.900   1.823  15.597 -0.7053 -0.1724 -0.3669
  298TMC3    C5 4542   2.804   1.914  15.564  0.5764 -0.5822  0.4631
  298TMC3    C6 4543   2.751   1.934  15.441  0.4647  0.7847 -0.1708
  298TMC3     C 4544   3.035   1.638  15.507 -0.0028 -0.1208  0.6596
  298TMC3     O 4545   3.043   1.557  15.417  0.5764 -0.2090 -0.5334
  298TMC3     H 4546   2.935   1.702  15.281 -0.5325  1.6727 -1.1109
  298TMC3    H1 4547   2.936   1.817  15.699 -0.6461 -0.7786 -0.4232
  298TMC3    H2 4548   2.690   2.021  15.421  1.0734  0.7960 -1.9724
  298TMC3    C7 4549   2.697   1.912  15.666  0.2823  0.7551  0.4031
  298TMC3    C8 4550   2.736   1.867  15.210 -0.5695 -0.7821  0.3356
  298TMC3    O1 4551   2.725   1.876  15.779 -0.0164 -0.5300  0.0464
  298TMC3    O2 4552   2.633   1.939  15.207  0.1113 -0.0164 -0.5557
  299MPD2     C 4553   4.371   1.468  10.806  0.6562 -0.1125 -0.1748
  299MPD2    C1 4554   4.285   1.413  10.895 -0.0469  0.2257  0.7523
  299MPD2    C2 4555   4.184   1.332  10.841  0.1490  0.4734  0.1377
  299MPD2    C3 4556   4.178   1.305  10.702 -0.4657 -0.6219 -0.5983
  299MPD2    C4 4557   4.273   1.362  10.623 -0.2586  0.4769 -0.3473
  299MPD2    C5 4558   4.370   1.436  10.674  1.1415  0.2487 -0.1522
  299MPD2     H 4559   4.112   1.292  10.911  1.4294  1.7859  2.1751
  299MPD2    H1 4560   4.271   1.342  10.516  0.2543 -0.4480 -0.1838
  299MPD2    H2 4561   4.449   1.538  10.833  0.3771 -0.1872  0.8199
  299MPD2    H3 4562   4.438   1.489  10.609 -2.2093  2.0109 -2.2116
  299MPD2     N 4563   4.081   1.222  10.645 -0.3593  0.0738 -0.1522
  299MPD2    H5 4564   4.070   1.237  10.546  0.8396 -0.8621 -0.4248
  299MPD2    N1 4565   4.306   1.437  11.034 -0.4890  0.4832  0.8688
  299MPD2    H7 4566   4.400   1.466  11.058  0.3634  0.3753 -2.2538
  300TMC3    C1 4567   3.873   1.106  10.649 -0.2509  0.3940  0.3506
  300TMC3    C2 4568   3.824   1.193  10.558 -0.0587  0.5338 -0.4225
  300TMC3    C3 4569   3.684   1.201  10.560  0.1762  0.1872  0.7978
  300TMC3    C4 4570   3.800   1.024  10.725  0.2012  0.3663  0.4894
  300TMC3    C5 4571   3.662   1.038  10.718 -0.2004  0.4230 -0.6463
  300TMC3    C6 4572   3.602   1.135  10.640  0.5901 -0.3608  0.4422
  300TMC3     C 4573   4.000   1.130  10.709 -0.2906 -0.1069  0.6432
  300TMC3     O 4574   3.992   1.096  10.830  0.5558  0.8308  0.3903
  300TMC3     H 4575   3.876   1.258  10.490  0.3960 -1.4956 -1.9958
  300TMC3    H1 4576   3.834   0.936  10.779 -0.7202 -0.0449  0.4052
  300TMC3    H2 4577   3.496   1.148  10.624  0.7162 -0.4082 -0.4100
  300TMC3    C7 4578   3.580   0.952  10.805  0.3210  0.3930  0.5353
  300TMC3    C8 4579   3.622   1.309  10.492 -0.0804  0.4866 -0.3372
  300TMC3    O1 4580   3.623   0.845  10.845 -0.6960 -0.3563  0.1512
  300TMC3    O2 4581   3.519   1.358  10.540 -0.3461 -0.1786 -0.3329
  301MPD2     C 4582   1.417   2.221   1.008 -0.1356  0.3936  0.4297
  301MPD2    C1 4583   1.310   2.209   0.920 -0.4315  0.6090  0.6747
  301MPD2    C2 4584   1.266   2.083   0.879 -0.4042 -0.3928  1.1263
  301MPD2    C3 4585   1.323   1.968   0.929  0.2550  0.6323 -1.0978
  301MPD2    C4 4586   1.438   1.981   1.003  0.4684 -0.4239 -0.3622
  301MPD2    C5 4587   1.488   2.105   1.045 -0.7408  0.4226  0.0707
  301MPD2     H 4588   1.190   2.080   0.802 -1.5141  1.5794  2.1335
  301MPD2    H1 4589   1.499   1.897   1.034  1.6325  0.8131  0.7074
  301MPD2    H2 4590   1.450   2.322   1.028  0.3099  0.3661 -0.1627
  301MPD2    H3 4591   1.582   2.112   1.098  0.2726 -1.9192 -1.4200
  301MPD2     N 4592   1.278   1.841   0.892  0.2137 -0.4335 -0.3228
  301MPD2    H5 4593   1.324   1.769   0.946  0.1911  1.6646  2.4767
  301MPD2    N1 4594   1.234   2.321   0.869 -0.5525  0.1034  0.0636
  301MPD2    H7 4595   1.153   2.296   0.813  0.1612  1.3959 -1.5567
  302TMC3    C1 4596   1.148   1.682   0.767 -0.1555  0.3825  0.1202
  302TMC3    C2 4597   1.182   1.590   0.858 -0.3483 -0.4059 -0.2151
  302TMC3    C3 4598   1.129   1.464   0.851 -0.4855 -0.0750 -0.2580
  302TMC3    C4 4599   1.058   1.656   0.666  0.4348  0.9590  0.2138
  302TMC3    C5 4600   1.001   1.534   0.670  0.8773  0.5234  0.6488
  302TMC3    C6 4601   1.044   1.431   0.754 -0.0474  0.5511  0.4998
  302TMC3     C 4602   1.198   1.817   0.780 -0.7363 -0.2377 -0.0754
  302TMC3     O 4603   1.168   1.897   0.693 -0.2021  0.0266  0.6238
  302TMC3     H 4604   1.250   1.608   0.941  0.1609 -1.3510 -0.4235
  302TMC3    H1 4605   1.031   1.732   0.593 -1.4276  1.8061  1.7891
  302TMC3    H2 4606   1.002   1.331   0.756  0.5496  0.2840 -0.2207
  302TMC3    C7 4607   0.894   1.509   0.579  0.2290 -0.7189 -0.0404
  302TMC3    C8 4608   1.161   1.353   0.946  0.2372  0.6307  0.3717
  302TMC3    O1 4609   0.889   1.399   0.522 -0.2720  0.3462 -0.2500
  302TMC3    O2 4610   1.150   1.237   0.904  0.1634  0.5211  0.0038
  303MPD2     C 4611   1.276   1.244  11.002  0.1282 -0.3865  0.2980
  303MPD2    C1 4612   1.184   1.265  10.911 -0.9430 -0.4589 -0.8230
  303MPD2    C2 4613   1.235   1.305  10.787  0.5113 -0.0043  0.4045
  303MPD2    C3 4614   1.368   1.304  10.752  0.0439 -0.2242 -0.0692
  303MPD2    C4 4615   1.459   1.275  10.848  0.1649  0.5383 -0.7574
  303MPD2    C5 4616   1.403   1.247  10.973 -0.1975  0.2559  0.6096
  303MPD2     H 4617   1.161   1.342  10.717  1.0108  1.4783  0.6587
  303MPD2    H1 4618   1.566   1.265  10.833  0.8733  2.4863  2.9201
  303MPD2    H2 4619   1.247   1.243  11.106  1.1222 -0.2259  0.5710
  303MPD2    H3 4620   1.473   1.220  11.051  0.4000  1.3838  0.4666
  303MPD2     N 4621   1.409   1.330  10.615  0.1930  0.2910  0.5969
  303MPD2    H5 4622   1.509   1.318  10.606  0.4054  1.6186  1.1816
  303MPD2    N1 4623   1.048   1.275  10.953  0.3019 -0.6050 -0.2856
  303MPD2    H7 4624   1.024   1.257  11.050  0.2472  0.7892 -0.0485
  304TMC3    C1 4625   0.817   1.252  10.924 -0.6666  0.3679 -0.1249
  304TMC3    C2 4626   0.704   1.319  10.875 -0.1598 -0.0664  0.0259
  304TMC3    C3 4627   0.586   1.261  10.910 -0.8783 -0.5937  0.6870
  304TMC3    C4 4628   0.808   1.133  10.993  0.3117  0.7636 -0.4364
  304TMC3    C5 4629   0.685   1.085  11.021 -0.0474  0.3050 -0.0367
  304TMC3    C6 4630   0.572   1.147  10.986  0.5057 -0.1416 -0.4318
  304TMC3     C 4631   0.947   1.288  10.866  0.0866  0.4879  0.7686
  304TMC3     O 4632   0.941   1.326  10.751 -0.1856  0.0650  0.3904
  304TMC3     H 4633   0.702   1.415  10.824 -0.4371  0.3089  0.7426
  304TMC3    H1 4634   0.895   1.069  10.993  0.0276  0.3672  0.6122
  304TMC3    H2 4635   0.472   1.108  11.001  0.7000  0.3932  2.2809
  304TMC3    C7 4636   0.679   0.942  10.986  0.1235  0.2948  0.1137
  304TMC3    C8 4637   0.496   1.263  10.796  0.5862  0.2970 -0.7702
  304TMC3    O1 4638   0.582   0.917  10.910  0.5713  0.2917  0.1569
  304TMC3    O2 4639   0.439   1.366  10.767  0.1553 -0.4959 -0.0724
  305MPD2     C 4640   3.982   2.965  14.080 -0.6511 -0.5259  0.4793
  305MPD2    C1 4641   4.073   2.863  14.071 -0.4793  0.3772 -0.4902
  305MPD2    C2 4642   4.067   2.777  13.964  0.0180 -0.1902 -0.9855
  305MPD2    C3 4643   3.970   2.790  13.869  0.4780  0.1165 -0.4544
  305MPD2    C4 4644   3.880   2.890  13.879 -0.2120 -0.0851 -0.5578
  305MPD2    C5 4645   3.887   2.977  13.987  0.9088  0.2421  0.2785
  305MPD2     H 4646   4.140   2.697  13.954 -1.2905 -1.4663 -0.4506
  305MPD2    H1 4647   3.801   2.907  13.807 -1.5630  0.6667  1.1050
  305MPD2    H2 4648   3.979   3.036  14.162 -1.4446 -0.5857  0.5043
  305MPD2    H3 4649   3.808   3.052  13.982 -0.0702 -0.6336  2.7606
  305MPD2     N 4650   3.958   2.703  13.756 -0.2682  0.4447 -0.0525
  305MPD2    H5 4651   3.891   2.723  13.682 -0.0754 -2.1333 -0.9111
  305MPD2    N1 4652   4.172   2.858  14.174 -0.2053  0.2170 -0.4941
  305MPD2    H7 4653   4.198   2.947  14.214  1.1501 -0.4730  0.1425
  306TMC3    C1 4654   4.357   2.780  14.298 -0.5373 -0.2565  0.1885
  306TMC3    C2 4655   4.467   2.704  14.282  0.0433 -0.1185  0.3926
  306TMC3    C3 4656   4.559   2.716  14.386  0.1682  0.1573 -0.6509
  306TMC3    C4 4657   4.332   2.864  14.404  0.6322  0.0524 -0.0681
  306TMC3    C5 4658   4.430   2.880  14.495  0.4045  0.3590 -0.0866
  306TMC3    C6 4659   4.547   2.808  14.487  0.3434 -0.6174  0.2963
  306TMC3     C 4660   4.255   2.752  14.199 -0.0847 -0.2849 -0.0961
  306TMC3     O 4661   4.247   2.635  14.154  0.0967 -0.1406  0.1977
  306TMC3     H 4662   4.480   2.629  14.205 -3.2093 -1.4996  1.2032
  306TMC3    H1 4663   4.234   2.910  14.408  0.7896  0.2673  1.1895
  306TMC3    H2 4664   4.616   2.818  14.570  1.0709 -0.9861 -0.2624
  306TMC3    C7 4665   4.392   2.922  14.629  0.3296  0.3850  0.7542
  306TMC3    C8 4666   4.659   2.615  14.388 -0.1993  0.1982  0.4277
  306TMC3    O1 4667   4.272   2.894  14.650  0.1334 -0.1267  0.0469
  306TMC3    O2 4668   4.674   2.558  14.281 -0.0018 -0.1201  0.2166
  307MPD2     C 4669   1.821   0.638   0.157  0.4920  0.3267 -0.5446
  307MPD2    C1 4670   1.816   0.762   0.209 -0.3212  0.4019  0.0368
  307MPD2    C2 4671   1.741   0.786   0.323 -0.0414  0.4628  0.0637
  307MPD2    C3 4672   1.687   0.676   0.387 -0.0526 -1.0765 -0.0586
  307MPD2    C4 4673   1.703   0.551   0.330  0.0119 -0.0344 -0.5023
  307MPD2    C5 4674   1.760   0.533   0.212 -0.7254 -0.3344  0.0654
  307MPD2     H 4675   1.729   0.882   0.371 -1.0020  1.3554 -1.9693
  307MPD2    H1 4676   1.650   0.467   0.375 -0.2099  1.6798  2.4018
  307MPD2    H2 4677   1.869   0.621   0.061 -1.2904 -0.3186 -1.3291
  307MPD2    H3 4678   1.763   0.434   0.167  0.0534  0.0340 -0.6930
  307MPD2     N 4679   1.613   0.703   0.507  0.3890  0.0099  0.1856
  307MPD2    H5 4680   1.577   0.796   0.527 -0.3962 -0.1383 -0.5178
  307MPD2    N1 4681   1.874   0.868   0.146  0.2862  0.0807  0.4831
  307MPD2    H7 4682   1.852   0.956   0.194 -0.7824  0.9745 -1.6637
  308TMC3    C1 4683   1.316   0.609   0.836 -0.4366 -0.1473 -0.6338
  308TMC3    C2 4684   1.313   0.741   0.879 -0.2073  0.4916  0.1021
  308TMC3    C3 4685   1.411   0.822   0.837  0.1203  0.4031  0.4405
  308TMC3    C4 4686   1.413   0.559   0.756  1.1846 -0.1835  0.1760
  308TMC3    C5 4687   1.510   0.646   0.714  0.1230 -0.2112  0.3611
  308TMC3    C6 4688   1.508   0.779   0.744  0.1887 -0.0060 -0.1123
  308TMC3     C 4689   1.179   0.546   0.802  0.8897 -0.3083  0.0668
  308TMC3     O 4690   1.172   0.428   0.773  0.1568 -1.1630 -0.0759
  308TMC3     H 4691   1.265   0.779   0.969  1.5399 -0.7560  1.5805
  308TMC3    H1 4692   1.412   0.457   0.719  0.5264 -0.2672  0.4137
  308TMC3    H2 4693   1.576   0.852   0.702  2.9488 -2.4784  0.0661
  308TMC3    C7 4694   1.582   0.605   0.594 -0.3140  0.7583 -0.6298
  308TMC3    C8 4695   1.448   0.947   0.908 -0.9045 -0.2814 -0.5397
  308TMC3    O1 4696   1.626   0.491   0.599  0.3995 -0.4931  0.5447
  308TMC3    O2 4697   1.421   0.943   1.029  0.3449  0.0652 -0.6409
  309MPD2     C 4698   1.069   1.229  17.297  0.0249 -0.6158 -0.2511
  309MPD2    C1 4699   1.013   1.217  17.174 -0.8215  0.4246 -0.0245
  309MPD2    C2 4700   0.876   1.250  17.162 -0.4970  0.0973  0.1117
  309MPD2    C3 4701   0.800   1.286  17.269 -0.4402 -0.2605  0.0382
  309MPD2    C4 4702   0.859   1.291  17.398 -0.4560  1.0657 -0.1048
  309MPD2    C5 4703   0.994   1.263  17.409  0.7810  0.9444 -0.6491
  309MPD2     H 4704   0.832   1.242  17.063 -0.8313 -0.8519  0.3389
  309MPD2    H1 4705   0.797   1.310  17.484 -1.1588 -1.0512 -0.1287
  309MPD2    H2 4706   1.171   1.196  17.314  0.0656 -0.1966  0.2977
  309MPD2    H3 4707   1.041   1.291  17.503 -0.2533  2.6641 -0.6391
  309MPD2     N 4708   0.657   1.321  17.257  0.5200  0.1477 -0.3539
  309MPD2    H5 4709   0.612   1.354  17.342  2.4107  1.1081  0.2839
  309MPD2    N1 4710   1.080   1.181  17.055  0.0336  0.4558 -0.0939
  309MPD2    H7 4711   1.024   1.165  16.972  0.0432 -1.4010  0.2452
  310TMC3    C1 4712   1.254   1.137  16.911  0.4537  0.3648 -0.0066
  310TMC3    C2 4713   1.179   1.186  16.804 -0.4544 -0.3873  0.1003
  310TMC3    C3 4714   1.250   1.205  16.691 -0.4347 -0.2079  0.3674
  310TMC3    C4 4715   1.379   1.095  16.886 -0.3389  0.2501 -0.1506
  310TMC3    C5 4716   1.441   1.100  16.767 -0.1983 -0.2057 -0.3374
  310TMC3    C6 4717   1.373   1.162  16.668  0.7674  0.4995 -0.0865
  310TMC3     C 4718   1.216   1.154  17.048 -0.4208 -0.1881 -0.0572
  310TMC3     O 4719   1.304   1.139  17.134 -0.3031 -0.0132 -0.8944
  310TMC3     H 4720   1.083   1.236  16.812 -0.5326 -0.2548 -1.8060
  310TMC3    H1 4721   1.431   1.050  16.970 -1.6676 -0.1296  0.4591
  310TMC3    H2 4722   1.414   1.169  16.568  2.0343  0.3712  0.4253
  310TMC3    C7 4723   1.566   1.032  16.755  0.0967  0.3314  1.0016
  310TMC3    C8 4724   1.176   1.257  16.578 -0.8231 -0.2692  0.4970
  310TMC3    O1 4725   1.596   0.942  16.835  0.4478 -0.0507 -0.2621
  310TMC3    O2 4726   1.054   1.257  16.572  0.2677 -0.1021  0.1039
  311MPD2     C 4727   3.177   2.821  12.091  0.7937  0.0975  0.7113
  311MPD2    C1 4728   3.191   2.860  12.219 -0.2902  0.7615  0.3085
  311MPD2    C2 4729   3.083   2.837  12.309 -0.2230 -0.7502 -0.1610
  311MPD2    C3 4730   2.973   2.758  12.277 -0.1820  0.1626 -0.2766
  311MPD2    C4 4731   2.967   2.711  12.147  0.3511  0.1639 -0.5529
  311MPD2    C5 4732   3.061   2.758  12.054  0.5965 -0.0194  0.7942
  311MPD2     H 4733   3.108   2.860  12.412  0.0286 -0.1596 -0.3537
  311MPD2    H1 4734   2.883   2.655  12.107  1.2291 -1.5754  0.0177
  311MPD2    H2 4735   3.252   2.833  12.013  1.0029 -0.7417  0.7753
  311MPD2    H3 4736   3.068   2.724  11.952 -0.8980  0.6234  0.4810
  311MPD2     N 4737   2.881   2.734  12.383  0.0880  0.4101 -0.1212
  311MPD2    H5 4738   2.902   2.795  12.461  0.2410  1.5451 -1.0581
  311MPD2    N1 4739   3.308   2.931  12.271  0.4047  0.3324 -0.2228
  311MPD2    H7 4740   3.309   2.980  12.360 -0.7126  2.1527 -1.2140
  312TMC3    C1 4741   2.714   2.633  12.519 -0.2585 -0.3976 -0.4075
  312TMC3    C2 4742   2.650   2.513  12.543 -0.0949  0.5191 -0.2466
  312TMC3    C3 4743   2.639   2.480  12.677 -0.0995  0.1190  0.0294
  312TMC3    C4 4744   2.763   2.704  12.625 -0.2946  0.8454  0.1990
  312TMC3    C5 4745   2.758   2.661  12.753 -0.3371  0.4147 -0.5985
  312TMC3    C6 4746   2.696   2.549  12.787  0.3754  0.0173 -0.5305
  312TMC3     C 4747   2.774   2.641  12.387 -0.3712  0.0352  0.8342
  312TMC3     O 4748   2.758   2.550  12.308 -0.1439 -0.3862 -0.1313
  312TMC3     H 4749   2.604   2.452  12.466  3.1278 -0.4100 -1.4527
  312TMC3    H1 4750   2.825   2.790  12.602  0.3695  0.5726  0.9758
  312TMC3    H2 4751   2.666   2.538  12.891 -0.1446 -1.0823 -0.7927
  312TMC3    C7 4752   2.826   2.737  12.851  0.6575  0.7837  0.5188
  312TMC3    C8 4753   2.554   2.369  12.701 -0.5357 -0.4984 -0.1890
  312TMC3    O1 4754   2.859   2.851  12.819 -0.1692  0.1965 -0.4468
  312TMC3    O2 4755   2.461   2.361  12.621  0.1630  0.1801 -0.1722
  313MPD2     C 4756   2.188   2.189  11.213 -0.5520  0.0860  0.1014
  313MPD2    C1 4757   2.280   2.257  11.139 -0.4850  0.0410 -0.3260
  313MPD2    C2 4758   2.368   2.184  11.063  0.3334 -0.1057 -0.6792
  313MPD2    C3 4759   2.384   2.056  11.080  0.5049 -0.3222  0.9293
  313MPD2    C4 4760   2.303   1.982  11.162  0.0044  0.0028 -0.6215
  313MPD2    C5 4761   2.208   2.052  11.229  0.1739  0.0403 -0.5453
  313MPD2     H 4762   2.441   2.238  11.004 -0.8199 -0.8074 -2.7115
  313MPD2    H1 4763   2.306   1.874  11.166  0.6413  0.0229 -0.5108
  313MPD2    H2 4764   2.107   2.235  11.267 -2.8995  0.9791 -4.2011
  313MPD2    H3 4765   2.138   1.996  11.291  1.4573  1.5280  2.2668
  313MPD2     N 4766   2.482   1.994  10.993 -0.1967  0.5787 -0.2268
  313MPD2    H5 4767   2.521   2.039  10.911 -0.4877  2.5144  0.6968
  313MPD2    N1 4768   2.284   2.396  11.120 -0.0284  0.4719 -0.0064
  313MPD2    H7 4769   2.353   2.427  11.052  0.2627  0.0722  0.1017
  314TMC3    C1 4770   2.187   2.617  11.122 -0.1909  0.2267 -0.4833
  314TMC3    C2 4771   2.311   2.668  11.111 -0.3991  0.0384 -0.6441
  314TMC3    C3 4772   2.328   2.798  11.081  0.1455 -0.4949  0.0003
  314TMC3    C4 4773   2.080   2.697  11.100 -0.4710 -0.2166 -0.1177
  314TMC3    C5 4774   2.097   2.826  11.055  0.5825 -0.4966  0.1532
  314TMC3    C6 4775   2.221   2.882  11.051  0.5350 -0.5321  0.3392
  314TMC3     C 4776   2.180   2.479  11.166  0.6277  0.2498  0.6917
  314TMC3     O 4777   2.092   2.469  11.251  0.3030  0.3243  0.5084
  314TMC3     H 4778   2.399   2.613  11.143  1.4804  2.8126 -1.0299
  314TMC3    H1 4779   1.989   2.639  11.087 -1.1238  1.2946 -2.2379
  314TMC3    H2 4780   2.230   2.987  11.026 -2.3580 -0.6033 -1.0296
  314TMC3    C7 4781   2.017   2.877  10.945 -0.1236  0.6581 -0.6962
  314TMC3    C8 4782   2.457   2.818  11.015  0.1724 -0.0201 -0.3897
  314TMC3    O1 4783   1.896   2.853  10.950  0.3996 -0.6946 -0.1353
  314TMC3    O2 4784   2.449   2.852  10.897 -0.7038 -0.5852  0.2169
  315MPD2     C 4785   2.350   1.438  17.733 -0.0167 -0.0068 -0.2068
  315MPD2    C1 4786   2.374   1.336  17.646 -0.3101  0.4088 -0.1284
  315MPD2    C2 4787   2.405   1.374  17.514  0.0031 -0.0679 -0.9019
  315MPD2    C3 4788   2.423   1.513  17.484 -0.1770  0.8638 -0.2680
  315MPD2    C4 4789   2.406   1.608  17.585 -0.1670 -1.1227  0.5662
  315MPD2    C5 4790   2.352   1.569  17.699 -0.0585  0.1736  0.3617
  315MPD2     H 4791   2.420   1.289  17.447  1.1318 -0.5915  0.0050
  315MPD2    H1 4792   2.439   1.711  17.578 -1.2519 -0.8634 -0.7786
  315MPD2    H2 4793   2.316   1.419   0.089 -1.7408 -0.6180 -0.9013
  315MPD2    H3 4794   2.344   1.648   0.027 -0.8093 -0.5287  1.0344
  315MPD2     N 4795   2.475   1.558  17.362 -0.5993  0.1065 -0.0709
  315MPD2    H5 4796   2.510   1.652  17.351 -0.0046 -0.2932 -1.5687
  315MPD2    N1 4797   2.371   1.197  17.681 -0.0646 -0.4994  0.1647
  315MPD2    H7 4798   2.416   1.128  17.621  1.3073 -1.0333  1.8314
  316TMC3    C1 4799   2.600   1.497  17.171  0.0295  0.5409 -0.0508
  316TMC3    C2 4800   2.717   1.504  17.246 -0.3715 -0.2093 -0.5737
  316TMC3    C3 4801   2.815   1.404  17.229  0.3909  0.8635 -0.0402
  316TMC3    C4 4802   2.600   1.415  17.065  0.0376 -0.7599  0.5938
  316TMC3    C5 4803   2.708   1.337  17.039 -0.6080  0.7219 -0.0497
  316TMC3    C6 4804   2.814   1.326  17.124 -0.5145 -0.1267 -0.5738
  316TMC3     C 4805   2.482   1.473  17.256 -0.2842 -0.3279 -0.4370
  316TMC3     O 4806   2.443   1.362  17.226  0.4432  0.5681  0.8108
  316TMC3     H 4807   2.713   1.566  17.336  2.6989 -0.5450 -0.1881
  316TMC3    H1 4808   2.503   1.414  17.016  0.4242  0.8910 -0.1942
  316TMC3    H2 4809   2.887   1.246  17.124 -0.1829  0.1812  1.4287
  316TMC3    C7 4810   2.734   1.295  16.897  0.3305  0.1036 -0.2256
  316TMC3    C8 4811   2.856   1.353  17.350  0.5571 -0.3079  0.7685
  316TMC3    O1 4812   2.821   1.216  16.871 -0.0892 -0.1050 -0.5809
  316TMC3    O2 4813   2.874   1.433  17.441  0.0492 -0.1483  0.4670
  317MPD2     C 4814   4.234   0.060  13.306  0.5200  0.1723 -0.5638
  317MPD2    C1 4815   4.181   4.698  13.223 -0.0791 -0.6571 -0.2046
  317MPD2    C2 4816   4.196   4.563  13.249  0.0474  0.2956 -0.0752
  317MPD2    C3 4817   4.265   4.511  13.357 -0.2167  0.2654  0.0603
  317MPD2    C4 4818   4.332   4.601  13.434 -0.0031  0.1403 -0.4620
  317MPD2    C5 4819   4.312   0.001  13.407 -0.7064  1.4435 -0.1506
  317MPD2     H 4820   4.144   4.495  13.183 -1.1005  0.7753  0.3424
  317MPD2    H1 4821   4.383   4.578  13.527 -1.8345  1.2081  0.8016
  317MPD2    H2 4822   4.233   0.168  13.297  0.1698  0.3370  1.3231
  317MPD2    H3 4823   4.353   0.058  13.489  0.6076  1.0024 -0.5003
  317MPD2     N 4824   4.262   4.376  13.379  0.5504  0.5465 -0.1594
  317MPD2    H5 4825   4.208   4.323  13.311  2.4231  2.6107 -3.2551
  317MPD2    N1 4826   4.113   0.006  13.112  0.5089  0.0544 -0.0785
  317MPD2    H7 4827   4.084   4.665  13.053 -2.1846  1.3988 -0.5364
  318TMC3    C1 4828   4.329   4.170  13.465  0.2357 -0.2234  0.1902
  318TMC3    C2 4829   4.220   4.111  13.410 -0.2448  0.1301  0.0202
  318TMC3    C3 4830   4.194   3.978  13.436  0.1137  0.0924 -0.2375
  318TMC3    C4 4831   4.407   4.095  13.557  0.3407  0.2150  0.6397
  318TMC3    C5 4832   4.368   3.968  13.588 -0.7426  0.2459 -0.5104
  318TMC3    C6 4833   4.264   3.905  13.530  0.2954  0.5226 -0.5930
  318TMC3     C 4834   4.344   4.315  13.473  0.0174  0.4257  0.2794
  318TMC3     O 4835   4.427   4.358  13.552  0.3895 -0.0547 -0.4939
  318TMC3     H 4836   4.167   4.166  13.333  0.5265 -2.1936 -2.1637
  318TMC3    H1 4837   4.492   4.146  13.600 -0.7588  1.7449  0.9897
  318TMC3    H2 4838   4.238   3.802  13.553 -0.5032  1.2201  1.7213
  318TMC3    C7 4839   4.423   3.895  13.703 -0.1032 -0.1754 -0.5741
  318TMC3    C8 4840   4.106   3.905  13.347  0.3218  0.4743  0.0689
  318TMC3    O1 4841   4.341   3.837  13.774  0.4756  0.1190 -0.7771
  318TMC3    O2 4842   4.097   3.783  13.359  0.2704 -0.8160  0.0502
  319MPD2     C 4843   0.574   0.775  16.639 -0.4796  0.3341 -0.1452
  319MPD2    C1 4844   0.499   0.711  16.739 -0.6208 -0.2821  0.1071
  319MPD2    C2 4845   0.389   0.640  16.700 -0.2701 -0.2408  0.4763
  319MPD2    C3 4846   0.359   0.629  16.563 -0.4870  0.4339 -0.1020
  319MPD2    C4 4847   0.422   0.701  16.470 -0.3146  0.4877 -0.2546
  319MPD2    C5 4848   0.539   0.767  16.507  0.7160  0.3023  0.4468
  319MPD2     H 4849   0.334   0.591  16.779  0.6452  0.0890  1.3146
  319MPD2    H1 4850   0.405   0.694  16.363 -2.1280 -0.0442  0.0764
  319MPD2    H2 4851   0.661   0.836  16.659  2.3945 -3.6039 -0.6541
  319MPD2    H3 4852   0.587   0.837  16.439  0.7246 -0.6488 -0.5352
  319MPD2     N 4853   0.242   0.574  16.513 -0.5675  0.2735 -0.0415
  319MPD2    H5 4854   0.234   0.585  16.413 -0.1443 -0.1887 -0.1238
  319MPD2    N1 4855   0.526   0.722  16.878 -0.0284  0.3949  0.2255
  319MPD2    H7 4856   0.465   0.671  16.941  0.0652 -1.0494 -0.8738
  320TMC3    C1 4857   0.058   0.455  16.479  0.9472 -0.3438  0.3965
  320TMC3    C2 4858   0.024   0.547  16.380 -0.3565 -0.3393  0.1009
  320TMC3    C3 4859   4.697   0.496  16.264  1.1462  0.6612  0.0175
  320TMC3    C4 4860   0.042   0.320  16.460 -0.1586 -0.1286  0.1825
  320TMC3    C5 4861   4.720   0.275  16.345 -0.2188 -0.6415 -1.1746
  320TMC3    C6 4862   4.676   0.363  16.246  1.1065 -0.4449  0.0140
  320TMC3     C 4863   0.152   0.493  16.581 -0.4428  0.3066 -0.6934
  320TMC3     O 4864   0.133   0.474  16.702  0.2427  0.3985 -0.4750
  320TMC3     H 4865   0.033   0.653  16.399  0.1690 -0.2995 -0.3680
  320TMC3    H1 4866   0.070   0.250  16.538  0.7242  0.1082  0.0732
  320TMC3    H2 4867   4.648   0.324  16.149  1.8787  0.1672 -0.4435
  320TMC3    C7 4868   4.689   0.134  16.328  0.1839  0.7807  0.1692
  320TMC3    C8 4869   4.632   0.589  16.180 -0.6221  0.1520 -0.4781
  320TMC3    O1 4870   4.623   0.099  16.230 -0.1331  0.2018  0.2140
  320TMC3    O2 4871   4.673   0.704  16.186  0.4751  0.5045 -0.2242
  321TMC3    C1 4872   0.626   0.771  17.096  0.0599 -0.0105 -0.2078
  321TMC3    C2 4873   0.513   0.710  17.153  0.7014 -0.0496 -0.3741
  321TMC3    C3 4874   0.497   0.728  17.288 -0.2704  0.0165  0.0147
  321TMC3    C4 4875   0.708   0.848  17.176  0.1775  0.6635 -0.6968
  321TMC3    C5 4876   0.691   0.869  17.311  0.1953  0.8278  0.5615
  321TMC3    C6 4877   0.584   0.801  17.368  0.4237 -0.2190  0.1483
  321TMC3     C 4878   0.626   0.791  16.948 -0.4212 -0.0191 -0.1602
  321TMC3     O 4879   0.711   0.858  16.893 -0.5624 -0.5847  0.1326
  321TMC3     H 4880   0.434   0.657  17.100  0.9009  1.2138 -1.9140
  321TMC3    H1 4881   0.780   0.905  17.118  1.0983 -0.7232 -0.9349
  321TMC3    H2 4882   0.557   0.819  17.472  1.2811  0.0555  0.3202
  321TMC3    C7 4883   0.804   0.851  17.393  0.0644  0.6106  0.0518
  321TMC3    C8 4884   0.476   0.594  17.344  0.1728 -0.1077  0.2921
  321TMC3    O1 4885   0.773   0.793  17.494  0.2091  0.0414 -0.2969
  321TMC3    O2 4886   0.393   0.523  17.292  0.5488  0.1556  0.2257
  322MPD2     C 4887   4.115   2.033  13.177 -0.3476  0.0113 -0.3531
  322MPD2    C1 4888   4.141   1.975  13.300  1.3185 -0.4347  0.1757
  322MPD2    C2 4889   4.122   1.837  13.323  0.1336  0.6945 -0.0818
  322MPD2    C3 4890   4.065   1.762  13.219 -0.6372  0.2453 -0.1457
  322MPD2    C4 4891   4.026   1.823  13.100  0.2639  0.5106 -1.3778
  322MPD2    C5 4892   4.058   1.955  13.083  0.1636 -0.4639 -0.4547
  322MPD2     H 4893   4.153   1.784  13.412  1.4519  1.0779 -0.3180
  322MPD2    H1 4894   3.973   1.764  13.026 -2.6637  0.2821  0.8993
  322MPD2    H2 4895   4.108   2.141  13.163  0.3633  0.1049  0.0415
  322MPD2    H3 4896   4.027   2.002  12.989  1.1193  2.3614  0.6284
  322MPD2     N 4897   4.062   1.619  13.236  0.2265  0.0295 -0.2116
  322MPD2    H5 4898   4.109   1.582  13.318  0.2653 -0.5319 -0.4870
  322MPD2    N1 4899   4.202   2.053  13.400 -0.3049  0.2669  0.1577
  322MPD2    H7 4900   4.250   2.137  13.367  0.4881 -0.9621 -1.8303
  323TMC3    C1 4901   4.304   2.110  13.608  0.5889 -0.0812 -0.0175
  323TMC3    C2 4902   4.408   2.186  13.549 -0.0600 -0.1880 -0.3254
  323TMC3    C3 4903   4.489   2.252  13.639 -0.1520  0.8908 -0.9975
  323TMC3    C4 4904   4.282   2.103  13.746 -1.2138 -0.0497  0.2727
  323TMC3    C5 4905   4.364   2.175  13.831  0.4239  0.1530 -0.4704
  323TMC3    C6 4906   4.467   2.250  13.780 -0.0413 -0.2918 -0.0379
  323TMC3     C 4907   4.216   2.019  13.534  0.5383 -0.0690  0.0035
  323TMC3     O 4908   4.124   1.958  13.589  0.0615 -0.2098 -0.0190
  323TMC3     H 4909   4.425   2.183  13.442 -1.5021  0.8736 -0.5768
  323TMC3    H1 4910   4.201   2.046  13.789 -1.1451  0.6210  1.3077
  323TMC3    H2 4911   4.537   2.301  13.845 -1.2002 -0.7613  1.5834
  323TMC3    C7 4912   4.385   2.125  13.962 -0.1707  0.3080 -0.1518
  323TMC3    C8 4913   4.627   2.283  13.606  0.1240  0.3395  0.3096
  323TMC3    O1 4914   4.362   2.002  13.984 -0.5719 -0.1215 -0.1969
  323TMC3    O2 4915   4.697   2.335  13.692  0.2179  0.1478  0.4030
  324MPD2     C 4916   1.262   2.679  14.520  0.1530 -0.1175  0.0758
  324MPD2    C1 4917   1.288   2.808  14.476 -0.3174 -0.3342 -0.0484
  324MPD2    C2 4918   1.181   2.888  14.435 -0.3107 -0.2966  0.5290
  324MPD2    C3 4919   1.048   2.840  14.450 -0.1482 -0.4863  0.5163
  324MPD2    C4 4920   1.029   2.713  14.497  1.0394 -0.3384  0.5165
  324MPD2    C5 4921   1.135   2.628  14.522  0.2817  0.5905 -0.1007
  324MPD2     H 4922   1.211   2.982  14.391 -2.0028 -0.2241 -0.4778
  324MPD2    H1 4923   0.925   2.683  14.501  0.2689  2.6046  2.7984
  324MPD2    H2 4924   1.338   2.614  14.562  0.2178 -1.5396 -2.2369
  324MPD2    H3 4925   1.119   2.525  14.550 -1.2732  0.4024 -1.7203
  324MPD2     N 4926   0.927   2.911  14.413 -0.2711  0.6655 -0.6187
  324MPD2    H5 4927   0.841   2.857  14.421  0.4009 -0.3440 -0.2317
  324MPD2    N1 4928   1.420   2.859  14.475 -0.4372 -0.2778  0.3785
  324MPD2    H7 4929   1.433   2.941  14.417 -2.2590 -1.2009 -1.3268
  325TMC3    C1 4930   0.782   3.101  14.391  0.5395  0.6009 -0.2908
  325TMC3    C2 4931   0.671   3.016  14.406 -0.7610  0.1743 -0.0906
  325TMC3    C3 4932   0.538   3.071  14.406 -0.5585  0.3903  0.2246
  325TMC3    C4 4933   0.766   3.235  14.393 -0.4180  0.9647  0.0320
  325TMC3    C5 4934   0.634   3.282  14.401 -0.1805 -0.2021  0.6771
  325TMC3    C6 4935   0.519   3.211  14.411 -0.2069 -1.2071  0.1937
  325TMC3     C 4936   0.920   3.045  14.398 -0.0024 -0.6282 -0.3829
  325TMC3     O 4937   1.007   3.132  14.393  0.0898 -0.1210  0.1061
  325TMC3     H 4938   0.680   2.908  14.408  1.7050  0.4051  2.2233
  325TMC3    H1 4939   0.851   3.303  14.389 -1.9515  3.0682  2.3605
  325TMC3    H2 4940   0.419   3.250  14.418 -0.3566 -1.4906 -0.3835
  325TMC3    C7 4941   0.624   3.427  14.400 -0.0439  0.0086  0.0816
  325TMC3    C8 4942   0.429   2.983  14.367 -0.0813 -0.6170 -0.3915
  325TMC3    O1 4943   0.708   3.488  14.336  0.5984 -0.6010  0.3871
  325TMC3    O2 4944   0.448   2.875  14.314 -0.5471 -0.2843 -0.2813
  326MPD2     C 4945   1.899   4.628  11.152  0.4944 -0.4872 -0.0663
  326MPD2    C1 4946   1.941   4.537  11.054  0.3533 -0.4421  0.0680
  326MPD2    C2 4947   2.077   4.524  11.043  0.1827 -0.2525 -0.1391
  326MPD2    C3 4948   2.166   4.594  11.117 -0.2842  0.0319 -0.5247
  326MPD2    C4 4949   2.120   4.670  11.219 -0.2508 -0.2198  0.2280
  326MPD2    C5 4950   1.987   4.693  11.230 -0.6836 -0.9512  0.2020
  326MPD2     H 4951   2.110   4.456  10.965  0.5004 -1.2281  0.8288
  326MPD2    H1 4952   2.178   4.716  11.299 -1.2189  1.6908 -0.1703
  326MPD2    H2 4953   1.794   4.646  11.170  0.9462  0.7382  1.3690
  326MPD2    H3 4954   1.939   0.010  11.311 -0.1614 -2.0151  1.2070
  326MPD2     N 4955   2.306   4.586  11.105  0.4188 -0.7107 -0.0106
  326MPD2    H5 4956   2.366   4.655  11.149  1.2283 -0.8667 -0.8848
  326MPD2    N1 4957   1.857   4.468  10.960 -0.3976  0.2303 -0.8117
  326MPD2    H7 4958   1.906   4.434  10.878 -0.3880 -2.3922  0.2893
  327TMC3    C1 4959   1.667   4.458  10.820  0.5960  0.2119 -0.0637
  327TMC3    C2 4960   1.591   4.560  10.768 -0.9920  0.1814 -0.3719
  327TMC3    C3 4961   1.610   4.597  10.637 -0.3076 -0.1748  0.2161
  327TMC3    C4 4962   1.751   4.386  10.738  0.3536  0.5436 -0.3576
  327TMC3    C5 4963   1.762   4.421  10.609  0.2664 -0.5197  0.6694
  327TMC3    C6 4964   1.698   4.526  10.556  0.2284  0.0539  0.1751
  327TMC3     C 4965   1.718   4.485  10.953  0.0849  0.0627 -0.0486
  327TMC3     O 4966   1.639   4.538  11.034  0.0949  0.3644  0.2579
  327TMC3     H 4967   1.543   4.623  10.842  0.3615  1.6065 -0.7089
  327TMC3    H1 4968   1.792   4.298  10.786  2.9319  0.9660 -1.8121
  327TMC3    H2 4969   1.721   4.562  10.456  1.5846 -1.7010 -0.1397
  327TMC3    C7 4970   1.886   4.379  10.543 -0.1000  0.4022  0.8392
  327TMC3    C8 4971   1.579   4.728  10.602  0.4886  0.9212  0.0683
  327TMC3    O1 4972   1.900   4.434  10.432 -0.2066 -0.0936  0.2518
  327TMC3    O2 4973   1.674   0.057  10.556  0.1005 -0.0751 -0.4796
  328MPD2     C 4974   0.053   4.220  17.353  0.5149 -0.5888 -0.3089
  328MPD2    C1 4975   4.689   4.157  17.289 -0.2193  0.1496  0.5083
  328MPD2    C2 4976   4.646   4.196  17.161  0.5476 -0.0668  0.0290
  328MPD2    C3 4977   4.708   4.306  17.103  0.3183  0.1679  0.2978
  328MPD2    C4 4978   0.070   4.373  17.167 -0.8493 -0.0950  0.1640
  328MPD2    C5 4979   0.108   4.329  17.289  0.3571  0.3968 -0.3193
  328MPD2     H 4980   4.559   4.148  17.117 -0.0131  0.1752  0.8715
  328MPD2    H1 4981   0.132   4.449  17.120 -1.1721  0.6638  0.9607
  328MPD2    H2 4982   0.088   4.175  17.445  1.1065  0.1876 -0.1478
  328MPD2    H3 4983   0.194   4.380  17.331 -0.1384 -0.6925  2.0310
  328MPD2     N 4984   4.672   4.357  16.972 -0.4078 -0.2231  0.1681
  328MPD2    H5 4985   4.726   4.436  16.941  0.0118 -0.1652  1.0390
  328MPD2    N1 4986   4.623   4.052  17.352 -0.3792 -0.0135  0.1400
  328MPD2    H7 4987   4.659   4.036  17.446  1.6290  0.8440 -0.4987
  329TMC3    C1 4988   4.491   3.861  17.397  0.2825 -0.1792  0.4982
  329TMC3    C2 4989   4.464   3.898  17.526 -0.2845  0.2998  0.1177
  329TMC3    C3 4990   4.425   3.807  17.614  0.3723 -0.4492  0.3454
  329TMC3    C4 4991   4.478   3.732  17.358 -0.3470 -0.2669 -0.1730
  329TMC3    C5 4992   4.427   3.640  17.439 -0.6450  0.0628  0.4514
  329TMC3    C6 4993   4.408   3.678  17.568 -0.2045  0.3634 -0.0512
  329TMC3     C 4994   4.526   3.965  17.296  0.4359  0.1088  0.5657
  329TMC3     O 4995   4.483   3.947  17.179 -0.3329  0.0599 -0.0773
  329TMC3     H 4996   4.464   4.006  17.539 -2.3948  0.0236  2.3758
  329TMC3    H1 4997   4.491   3.702  17.255 -0.7251  2.4006 -0.9947
  329TMC3    H2 4998   4.383   3.609  17.648  3.4320 -1.4357 -0.4760
  329TMC3    C7 4999   4.390   3.509  17.391 -0.3034 -0.1313  0.0919
  329TMC3    C8 5000   4.386   3.843   0.002  0.0354  0.3012  0.2448
  329TMC3    O1 5001   4.427   3.479  17.279 -0.4432  0.2924  0.1894
  329TMC3    O2 5002   4.365   3.750   0.083 -0.2673  0.3100 -0.2618
  330TMC3    C1 5003   1.837   4.475   9.310  0.2350 -0.6154 -0.1152
  330TMC3    C2 5004   1.759   4.362   9.342 -0.2181  0.3229 -0.9313
  330TMC3    C3 5005   1.820   4.242   9.337  0.0673  0.4193  0.1320
  330TMC3    C4 5006   1.976   4.464   9.280  0.2111  0.5375  0.4195
  330TMC3    C5 5007   2.026   4.332   9.289  0.1584  0.5491  0.5903
  330TMC3    C6 5008   1.949   4.224   9.312  0.1250  0.0116 -0.3927
  330TMC3     C 5009   1.778   4.600   9.265  0.1193 -0.7276  0.7179
  330TMC3     O 5010   1.860   4.685   9.243 -0.0070  0.2364  0.2012
  330TMC3     H 5011   1.656   4.368   9.375 -0.2624  1.7714 -1.3197
  330TMC3    H1 5012   2.033   4.544   9.234 -2.8860  1.2969 -2.1005
  330TMC3    H2 5013   1.988   4.124   9.295 -1.5749 -0.5412 -1.0547
  330TMC3    C7 5014   2.163   4.304   9.262  0.3512  0.4429 -0.1299
  330TMC3    C8 5015   1.755   4.121   9.394 -0.1279  0.2307  0.5163
  330TMC3    O1 5016   2.208   4.189   9.267  0.9510  0.0407 -0.0757
  330TMC3    O2 5017   1.823   4.019   9.393  0.6547  0.2597  0.0985
  331MPD2     C 5018   0.608   2.788  13.297  0.3925  0.5258 -0.6629
  331MPD2    C1 5019   0.739   2.751  13.306  0.2261 -0.0572  0.3056
  331MPD2    C2 5020   0.780   2.618  13.280  0.3850  0.5156  0.6963
  331MPD2    C3 5021   0.685   2.525  13.230 -0.6471 -0.3677  0.0764
  331MPD2    C4 5022   0.549   2.574  13.214  0.4312  0.6881 -0.6419
  331MPD2    C5 5023   0.518   2.698  13.255 -0.4860 -0.1124 -0.1311
  331MPD2     H 5024   0.886   2.592  13.287  0.0277 -1.2785 -0.5856
  331MPD2    H1 5025   0.474   2.504  13.180 -1.3718  2.0134  0.5543
  331MPD2    H2 5026   0.571   2.889  13.310  0.1279  0.2175  0.9927
  331MPD2    H3 5027   0.418   2.732  13.233 -0.7398 -1.2071 -0.6791
  331MPD2     N 5028   0.731   2.402  13.185  0.0641  0.2995 -0.1945
  331MPD2    H5 5029   0.832   2.391  13.181 -0.0810 -0.9299 -0.4165
  331MPD2    N1 5030   0.827   2.856  13.325 -0.0228 -0.0567  0.8103
  331MPD2    H7 5031   0.784   2.945  13.349  1.3124  1.1171 -1.0791
  332TMC3    C1 5032   0.732   2.208  13.047 -0.1870 -0.2716 -0.6863
  332TMC3    C2 5033   0.737   2.206  12.910  0.4992  0.9490  0.3009
  332TMC3    C3 5034   0.833   2.131  12.852 -0.3073  0.2486 -0.3181
  332TMC3    C4 5035   0.815   2.121  13.118  0.0566 -0.2517  0.3159
  332TMC3    C5 5036   0.901   2.036  13.058 -0.2370 -0.0110 -0.8975
  332TMC3    C6 5037   0.913   2.041  12.924 -0.0997 -0.7219 -0.1802
  332TMC3     C 5038   0.651   2.308  13.119  0.7249  0.6399  0.1320
  332TMC3     O 5039   0.529   2.306  13.100 -0.2047 -0.0110  0.2924
  332TMC3     H 5040   0.679   2.279  12.855  1.1158  1.4095  0.2630
  332TMC3    H1 5041   0.794   2.118  13.224  1.7187 -0.9635  0.6238
  332TMC3    H2 5042   0.977   1.971  12.873  1.5460  1.1897 -0.7450
  332TMC3    C7 5043   1.011   1.986  13.136 -0.4789 -0.5660 -0.9169
  332TMC3    C8 5044   0.889   2.167  12.724  0.1035  1.6857  0.3679
  332TMC3    O1 5045   0.980   1.955  13.249 -0.0108 -0.1513  0.3784
  332TMC3    O2 5046   0.998   2.120  12.705  0.3099  0.6130 -0.2979
  333MPD2     C 5047   0.760   2.791  11.611 -0.3948  0.0543 -0.3674
  333MPD2    C1 5048   0.887   2.753  11.571  0.0884  0.0467  0.1136
  333MPD2    C2 5049   0.931   2.626  11.604  0.1759 -0.2465  0.3462
  333MPD2    C3 5050   0.858   2.537  11.678  0.3728 -0.2738  0.2930
  333MPD2    C4 5051   0.732   2.582  11.723 -0.1516 -0.3997  0.1062
  333MPD2    C5 5052   0.688   2.707  11.690  0.5331 -1.1332 -0.4706
  333MPD2     H 5053   1.033   2.591  11.588 -0.7038 -2.1029 -1.1485
  333MPD2    H1 5054   0.668   2.518  11.783 -2.0876  1.5333  0.0776
  333MPD2    H2 5055   0.720   2.891  11.598  1.3525  0.7385 -0.6008
  333MPD2    H3 5056   0.589   2.731  11.727  0.7012 -1.5411  0.2399
  333MPD2     N 5057   0.916   2.413  11.705 -0.0602 -0.5016  0.4695
  333MPD2    H5 5058   1.011   2.403  11.671  1.0360  1.3631  3.0198
  333MPD2    N1 5059   0.975   2.843  11.505 -0.1504 -0.1385  0.3678
  333MPD2    H7 5060   0.947   2.940  11.501  3.7037  0.8245 -3.1567
  334TMC3    C1 5061   1.163   2.915  11.385 -0.1747  0.3625  0.4078
  334TMC3    C2 5062   1.296   2.898  11.390 -0.6666 -0.2429 -0.0772
  334TMC3    C3 5063   1.379   2.997  11.331  0.1097  0.8000 -0.4934
  334TMC3    C4 5064   1.105   3.019  11.323 -0.2164 -0.6741 -0.1879
  334TMC3    C5 5065   1.187   3.114  11.264 -0.2566  0.1337 -0.2678
  334TMC3    C6 5066   1.325   3.108  11.269 -0.0362  0.2320  0.1889
  334TMC3     C 5067   1.090   2.803  11.444 -0.2188  0.1604 -0.4876
  334TMC3     O 5068   1.141   2.695  11.418  0.1516 -0.1553 -0.1666
  334TMC3     H 5069   1.346   2.811  11.432  0.8206  0.0340 -1.2527
  334TMC3    H1 5070   0.998   3.013  11.306  0.0223 -0.0932 -1.9543
  334TMC3    H2 5071   1.382   3.183  11.216 -0.4195 -0.1671 -0.7913
  334TMC3    C7 5072   1.131   3.227  11.186 -0.7153 -0.1013 -0.0384
  334TMC3    C8 5073   1.526   2.990  11.356 -0.0340 -0.1319  0.2516
  334TMC3    O1 5074   1.205   3.320  11.163 -0.1398 -0.5588  0.4366
  334TMC3    O2 5075   1.554   2.936  11.461  0.3381 -0.5591 -0.2825
  335TMC3    C1 5076   0.456   3.920  17.224 -0.1902  0.4661 -0.1080
  335TMC3    C2 5077   0.401   3.868  17.113 -0.3370  0.3639 -0.8700
  335TMC3    C3 5078   0.482   3.847  17.003 -0.0501 -0.6467 -0.1829
  335TMC3    C4 5079   0.588   3.965  17.238  0.2329  0.5238 -0.3609
  335TMC3    C5 5080   0.659   3.954  17.122  0.9373 -0.0087 -0.0391
  335TMC3    C6 5081   0.610   3.894  17.002 -0.4838 -0.2203 -0.2277
  335TMC3     C 5082   0.380   3.910  17.347  1.0211 -0.5932  0.2550
  335TMC3     O 5083   0.418   3.995  17.428  0.0167 -0.0954  0.3574
  335TMC3     H 5084   0.293   3.862  17.102 -0.5423 -0.4156  1.5914
  335TMC3    H1 5085   0.628   4.004  17.331 -0.6079 -0.4800  0.4246
  335TMC3    H2 5086   0.668   3.887  16.911 -0.4596  1.6577 -0.3625
  335TMC3    C7 5087   0.804   3.949  17.134 -0.4440 -0.0688 -0.0787
  335TMC3    C8 5088   0.443   3.773  16.888  0.0924 -0.6549  0.4783
  335TMC3    O1 5089   0.855   3.891  17.038 -0.3323 -0.0907 -0.7949
  335TMC3    O2 5090   0.519   3.779  16.791 -0.6943 -0.1373 -0.0774
  336MPD2     C 5091   0.573   1.659  16.005 -0.2076  0.5638  0.6055
  336MPD2    C1 5092   0.465   1.602  15.945  0.1639 -0.2092 -0.5823
  336MPD2    C2 5093   0.415   1.480  16.000  0.5949 -0.2095  0.6491
  336MPD2    C3 5094   0.476   1.424  16.109 -0.6211 -0.1454 -0.0870
  336MPD2    C4 5095   0.580   1.483  16.175  0.1267  0.3591  0.5147
  336MPD2    C5 5096   0.623   1.601  16.121 -0.0561  0.0066  0.5356
  336MPD2     H 5097   0.320   1.442  15.964  0.4497  0.7149  0.0497
  336MPD2    H1 5098   0.633   1.432  16.254  0.7784 -0.1757 -0.2804
  336MPD2    H2 5099   0.614   1.755  15.975 -0.9189  0.2783 -1.3117
  336MPD2    H3 5100   0.705   1.652  16.171 -0.2835  1.0492 -0.1588
  336MPD2     N 5101   0.441   1.298  16.156  0.1831 -0.3470 -0.0221
  336MPD2    H5 5102   0.489   1.273  16.242  1.6606  0.9996 -0.4612
  336MPD2    N1 5103   0.401   1.652  15.831  0.1990 -0.6534  0.8738
  336MPD2    H7 5104   0.313   1.615  15.797  1.2688 -0.1215 -2.4463
  337TMC3    C1 5105   0.366   1.802  15.641  0.3850  0.5532 -0.2431
  337TMC3    C2 5106   0.234   1.767  15.636  0.8793  0.4641  0.7264
  337TMC3    C3 5107   0.146   1.847  15.564 -0.0663 -0.2380 -0.7775
  337TMC3    C4 5108   0.405   1.928  15.598  0.2540 -0.4334  1.0231
  337TMC3    C5 5109   0.310   2.008  15.542  0.4099 -0.4081 -0.5771
  337TMC3    C6 5110   0.182   1.970  15.516  0.2156 -0.4322 -0.1535
  337TMC3     C 5111   0.451   1.762  15.753 -0.3851 -0.1267  0.0511
  337TMC3     O 5112   0.556   1.823  15.766 -0.2737 -0.5192  0.5176
  337TMC3     H 5113   0.204   1.666  15.660 -0.6055  0.7067 -0.0981
  337TMC3    H1 5114   0.506   1.966  15.611  0.1965  0.6876 -1.7572
  337TMC3    H2 5115   0.112   2.047  15.483  1.1129 -0.5328 -2.2642
  337TMC3    C7 5116   0.349   2.141  15.510  0.1163  0.4297 -0.0877
  337TMC3    C8 5117   0.003   1.820  15.578  0.2810  0.3138  0.6397
  337TMC3    O1 5118   0.440   2.193  15.580  0.2812 -0.1111  0.4014
  337TMC3    O2 5119   4.704   1.749  15.671  0.5573 -0.0012 -0.5512
  338MPD2     C 5120   0.561   1.556   0.859  0.1890  0.0414  0.3423
  338MPD2    C1 5121   0.452   1.502   0.801 -0.0631 -0.7721  0.4780
  338MPD2    C2 5122   0.324   1.540   0.847 -0.3104  0.1532 -0.4484
  338MPD2    C3 5123   0.310   1.620   0.958 -0.2627  0.0212 -0.3249
  338MPD2    C4 5124   0.423   1.676   1.013  0.5427  0.0271 -0.0422
  338MPD2    C5 5125   0.546   1.646   0.960  0.8164  0.5046 -0.8014
  338MPD2     H 5126   0.231   1.501   0.808  1.0464  0.0333 -3.5400
  338MPD2    H1 5127   0.424   1.747   1.096  0.9912 -2.0044  1.7010
  338MPD2    H2 5128   0.665   1.537   0.836 -0.5899 -1.1172 -2.2270
  338MPD2    H3 5129   0.634   1.686   1.010  0.8026 -2.7905  1.8988
  338MPD2     N 5130   0.179   1.648   0.993  0.1192 -0.5294  0.4540
  338MPD2    H5 5131   0.109   1.614   0.928  0.4587 -0.5151  0.0812
  338MPD2    N1 5132   0.460   1.401   0.707 -0.2200  0.0129  0.5778
  338MPD2    H7 5133   0.375   1.380   0.655  0.5549  0.7850 -1.0044
  339TMC3    C1 5134   0.003   1.716   1.135  0.1349 -0.0699  0.5163
  339TMC3    C2 5135   4.690   1.659   1.244  0.5681 -0.4055 -0.6477
  339TMC3    C3 5136   4.553   1.647   1.252  1.1362 -0.0906 -0.3841
  339TMC3    C4 5137   4.666   1.758   1.029  0.1877 -1.3210 -0.6461
  339TMC3    C5 5138   4.535   1.740   1.031  0.6112 -0.0685 -0.5746
  339TMC3    C6 5139   4.475   1.692   1.149  0.3061  0.7501  0.4354
  339TMC3     C 5140   0.141   1.699   1.117  0.1480 -0.0260  0.1387
  339TMC3     O 5141   0.215   1.717   1.211  0.1491 -0.1313  0.2193
  339TMC3     H 5142   0.014   1.619   1.324  0.3242 -0.2022 -0.3592
  339TMC3    H1 5143   4.722   1.796   0.944  0.5859 -0.2368  0.1121
  339TMC3    H2 5144   4.370   1.664   1.154  0.9698 -1.9483 -0.9030
  339TMC3    C7 5145   4.459   1.756   0.905  0.0258  0.1255 -0.7454
  339TMC3    C8 5146   4.499   1.544   1.338  0.2322  0.6002 -0.4042
  339TMC3    O1 5147   4.516   1.795   0.805  0.3226  0.1097  0.0129
  339TMC3    O2 5148   4.379   1.553   1.363  0.2386  0.2323  0.2510
  340MPD2     C 5149   0.359   3.728   9.830  0.1142  0.1238  0.3087
  340MPD2    C1 5150   0.409   3.834   9.901 -0.5987  0.0279  0.8194
  340MPD2    C2 5151   0.401   3.961   9.847  0.1771  0.7865 -0.2059
  340MPD2    C3 5152   0.330   3.987   9.732  0.1837  0.1547 -0.5050
  340MPD2    C4 5153   0.278   3.877   9.657  0.2229  0.0583 -0.6469
  340MPD2    C5 5154   0.307   3.751   9.707 -1.1516  0.0975  0.0001
  340MPD2     H 5155   0.455   4.040   9.899  1.1423 -2.2903  3.4343
  340MPD2    H1 5156   0.221   3.891   9.565  2.4302 -0.7082 -2.1230
  340MPD2    H2 5157   0.349   3.626   9.865 -1.2222  0.1084 -0.1356
  340MPD2    H3 5158   0.291   3.662   9.647  0.1369  1.1506 -1.9423
  340MPD2     N 5159   0.305   4.119   9.684  0.6144 -0.3784 -0.2287
  340MPD2    H5 5160   0.234   4.129   9.612  1.0360  1.5653 -0.3898
  340MPD2    N1 5161   0.473   3.800  10.018  0.6464 -0.5496  0.0548
  340MPD2    H7 5162   0.459   3.701  10.034 -1.2342 -0.0585  1.4362
  341TMC3    C1 5163   0.624   3.795  10.194  0.5794 -1.0692 -0.2729
  341TMC3    C2 5164   0.600   3.660  10.198  0.5616  0.2613 -0.2928
  341TMC3    C3 5165   0.680   3.581  10.275  0.7064 -0.5027  0.5277
  341TMC3    C4 5166   0.743   3.845  10.242 -0.1632  0.1895  0.8127
  341TMC3    C5 5167   0.831   3.757  10.309 -0.1487 -0.3853 -0.4382
  341TMC3    C6 5168   0.801   3.625  10.327  0.3592  0.3603  0.5801
  341TMC3     C 5169   0.560   3.874  10.083 -0.2786 -0.1840  0.0120
  341TMC3     O 5170   0.589   3.990  10.070  0.3768  0.1610  0.5245
  341TMC3     H 5171   0.496   3.630  10.189  0.2138  1.8758 -1.6942
  341TMC3    H1 5172   0.773   3.946  10.217 -2.5352  0.3482 -1.3387
  341TMC3    H2 5173   0.863   3.569  10.396 -1.7651 -1.2132  1.2175
  341TMC3    C7 5174   0.965   3.808  10.329  0.4790 -0.5429 -0.6194
  341TMC3    C8 5175   0.632   3.448  10.310 -0.2128  0.2960 -0.4620
  341TMC3    O1 5176   0.970   3.928  10.349  0.3927  0.1975 -0.0192
  341TMC3    O2 5177   0.528   3.410  10.257  0.3122  0.3668  0.3785
  342MPD2     C 5178   2.912   2.070  17.501  0.1228 -0.6487 -0.1379
  342MPD2    C1 5179   3.018   2.098  17.414 -1.3182  0.3239  0.2260
  342MPD2    C2 5180   3.039   2.233  17.384 -0.0359 -0.0444 -0.1401
  342MPD2    C3 5181   2.948   2.328  17.417  0.7531 -0.0412 -0.1847
  342MPD2    C4 5182   2.839   2.288  17.493 -0.1545  0.2291 -0.8354
  342MPD2    C5 5183   2.820   2.161  17.544 -0.2148 -0.1198 -0.0878
  342MPD2     H 5184   3.123   2.261  17.320 -1.0851  0.0874 -1.4507
  342MPD2    H1 5185   2.766   2.366  17.512 -0.3185 -0.1475  0.0692
  342MPD2    H2 5186   2.895   1.968  17.534  2.3644 -0.1822  2.4447
  342MPD2    H3 5187   2.741   2.121  17.607  2.9526 -3.3242  1.8482
  342MPD2     N 5188   2.965   2.464  17.389 -0.2250 -0.3846 -0.6144
  342MPD2    H5 5189   2.904   2.531  17.435 -0.1971 -0.5554 -0.3264
  342MPD2    N1 5190   3.116   2.004  17.365  0.2400  0.6300  0.5997
  342MPD2    H7 5191   3.206   2.036  17.330  0.2516 -0.0285  0.0322
  343TMC3    C1 5192   3.213   1.794  17.300  0.4168 -0.2824  0.5131
  343TMC3    C2 5193   3.305   1.861  17.226  0.3385 -0.4027  0.2496
  343TMC3    C3 5194   3.389   1.782  17.153 -0.0909  0.1525 -0.0332
  343TMC3    C4 5195   3.198   1.659  17.294 -0.2562 -0.9575  0.6489
  343TMC3    C5 5196   3.289   1.585  17.225 -0.2387 -0.1230 -0.3300
  343TMC3    C6 5197   3.381   1.641  17.146 -0.4403 -0.0917  0.0184
  343TMC3     C 5198   3.104   1.868  17.365 -0.8944 -0.0672  0.0242
  343TMC3     O 5199   3.009   1.805  17.402 -0.0708 -0.4835  0.0377
  343TMC3     H 5200   3.325   1.967  17.231  0.9899 -0.4790 -0.6015
  343TMC3    H1 5201   3.115   1.610  17.345 -1.5039  3.4372  2.8948
  343TMC3    H2 5202   3.453   1.572  17.106  1.2084  0.5033  1.9542
  343TMC3    C7 5203   3.265   1.442  17.214  0.7135 -0.1024  0.2704
  343TMC3    C8 5204   3.512   1.839  17.116 -0.0244 -0.4574  0.1658
  343TMC3    O1 5205   3.282   1.393  17.104  0.7439  0.5922 -0.0540
  343TMC3    O2 5206   3.535   1.946  17.168 -0.0781 -0.8702  0.4528
  344MPD2     C 5207   4.538   1.986  11.449  0.7627 -0.2882  0.2044
  344MPD2    C1 5208   4.513   1.923  11.329 -0.2927  0.0851  0.6232
  344MPD2    C2 5209   4.545   1.985  11.206 -0.7250 -0.1924 -0.3381
  344MPD2    C3 5210   4.619   2.105  11.215 -0.8439 -0.0571 -0.2055
  344MPD2    C4 5211   4.636   2.168  11.335  0.4549 -0.0297  0.3316
  344MPD2    C5 5212   4.585   2.111  11.446  0.4250 -0.7709 -0.4620
  344MPD2     H 5213   4.526   1.935  11.112 -2.3837  2.2977 -1.3128
  344MPD2    H1 5214   4.675   2.267  11.351 -0.5384  0.1291  1.7540
  344MPD2    H2 5215   4.511   1.942  11.544  1.2154 -1.5141 -0.2248
  344MPD2    H3 5216   4.599   2.163  11.540  0.4466 -0.2164 -0.7681
  344MPD2     N 5217   4.664   2.173  11.103 -0.4611  0.1410  0.3792
  344MPD2    H5 5218   4.715   2.258  11.125 -0.3411 -0.1093  1.0807
  344MPD2    N1 5219   4.457   1.798  11.326 -0.3340 -0.6076 -0.6568
  344MPD2    H7 5220   4.428   1.770  11.233 -1.9045  0.7604 -0.5935
  345TMC3    C1 5221   4.694   2.265  10.906  0.2692  0.1680  0.2790
  345TMC3    C2 5222   0.070   2.323  10.949 -0.1603  0.4770 -0.4377
  345TMC3    C3 5223   0.093   2.453  10.914 -0.0341  0.2265  0.1821
  345TMC3    C4 5224   4.600   2.339  10.836  0.0301 -0.7793 -0.6341
  345TMC3    C5 5225   4.624   2.469  10.812  0.2473  0.8797 -0.6440
  345TMC3    C6 5226   4.736   2.532  10.852  0.7080 -0.2371  0.7518
  345TMC3     C 5227   4.664   2.141  10.970  0.4526 -0.1828 -0.3968
  345TMC3     O 5228   4.597   2.058  10.908  0.9869  0.6985 -0.0528
  345TMC3     H 5229   0.154   2.270  10.993 -0.7628  0.3991  0.6074
  345TMC3    H1 5230   4.506   2.289  10.817  0.7461 -3.2975  2.4666
  345TMC3    H2 5231   0.016   2.636  10.829 -0.4160 -0.0031  1.0343
  345TMC3    C7 5232   4.539   2.541  10.724 -0.5092 -0.4453  0.0880
  345TMC3    C8 5233   0.217   2.517  10.917  0.0109 -0.1980 -0.3351
  345TMC3    O1 5234   4.554   2.661  10.721  0.0112  0.4244 -0.4464
  345TMC3    O2 5235   0.213   2.625  10.980  0.1023 -0.1088  0.6493
  346MPD2     C 5236   3.989   3.375  14.189 -0.0825 -0.8764 -0.5058
  346MPD2    C1 5237   4.067   3.473  14.141 -0.3003  1.3272  0.0344
  346MPD2    C2 5238   4.159   3.541  14.223 -0.0199 -0.1167  0.3763
  346MPD2    C3 5239   4.174   3.499  14.354  0.2983 -0.0247 -0.0404
  346MPD2    C4 5240   4.088   3.402  14.405  0.0647  0.3344  0.0794
  346MPD2    C5 5241   3.993   3.338  14.318  0.4920  0.9387 -0.5177
  346MPD2     H 5242   4.209   3.631  14.189 -1.4899  0.8277  0.7210
  346MPD2    H1 5243   4.100   3.355  14.502 -2.7260 -1.4985 -0.4664
  346MPD2    H2 5244   3.905   3.337  14.132 -2.8568  2.5765  1.2432
  346MPD2    H3 5245   3.918   3.269  14.353  0.6064  1.4773  0.7827
  346MPD2     N 5246   4.270   3.550  14.447  0.1595 -0.1454 -0.5297
  346MPD2    H5 5247   4.275   3.512  14.540 -0.3759  0.6233 -0.1896
  346MPD2    N1 5248   4.054   3.526  14.010 -0.8721 -0.3384 -0.9140
  346MPD2    H7 5249   4.095   3.618  13.997 -0.3850 -0.3264  0.6519
  347TMC3    C1 5250   4.445   3.699  14.536  0.5852  0.1029  0.3466
  347TMC3    C2 5251   4.571   3.738  14.506  0.3945 -0.4354 -0.1746
  347TMC3    C3 5252   4.662   3.737  14.607 -0.0102 -0.1420  0.0700
  347TMC3    C4 5253   4.406   3.674  14.665  0.0878  0.2932 -0.1038
  347TMC3    C5 5254   4.495   3.678  14.770  0.4277 -0.5763  0.3206
  347TMC3    C6 5255   4.623   3.709  14.741  0.1576 -0.1111  0.4342
  347TMC3     C 5256   4.353   3.663  14.424 -0.5899 -0.1642  0.4150
  347TMC3     O 5257   4.373   3.720  14.324  0.0564 -0.3004 -0.3760
  347TMC3     H 5258   4.608   3.743  14.404 -1.1691 -0.0603 -0.7196
  347TMC3    H1 5259   4.308   3.633  14.683 -0.0550  0.2000 -1.0884
  347TMC3    H2 5260   4.701   3.684  14.812 -0.7080  0.0760  1.4624
  347TMC3    C7 5261   4.468   3.588  14.879 -0.2368 -0.1222  0.1662
  347TMC3    C8 5262   0.057   3.692  14.575  0.4567 -0.0801 -0.4072
  347TMC3    O1 5263   4.363   3.528  14.872  0.0694 -0.1915  0.8348
  347TMC3    O2 5264   0.117   3.618  14.654  0.1381 -0.7189  0.4118
  348MPD2     C 5265   3.175   3.222  11.773 -0.6228  0.4262  0.0930
  348MPD2    C1 5266   3.187   3.184  11.643 -0.3911  0.6073 -0.0695
  348MPD2    C2 5267   3.127   3.254  11.542 -0.1596  0.0379 -0.8310
  348MPD2    C3 5268   3.057   3.375  11.573 -0.3735 -0.2697  0.2552
  348MPD2    C4 5269   3.050   3.414  11.704 -0.3083  0.3768 -0.1944
  348MPD2    C5 5270   3.102   3.335  11.799  0.8539 -0.8212  0.1359
  348MPD2     H 5271   3.123   3.211  11.442 -1.5368 -2.5215  0.3222
  348MPD2    H1 5272   2.994   3.499  11.740  0.4294  1.1394 -0.8518
  348MPD2    H2 5273   3.223   3.168  11.855 -0.2627  0.2669 -0.2238
  348MPD2    H3 5274   3.088   3.373  11.899 -3.5135 -0.5766 -0.6044
  348MPD2     N 5275   3.001   3.449  11.469 -0.5832 -0.2934  0.5361
  348MPD2    H5 5276   3.012   3.409  11.376 -0.3724  2.1102 -0.4740
  348MPD2    N1 5277   3.250   3.068  11.602 -0.5724  0.2576  0.2032
  348MPD2    H7 5278   3.242   3.045  11.503 -1.2198  0.5498  0.1895
  349TMC3    C1 5279   3.353   2.861  11.630  0.0005  0.2816 -0.5004
  349TMC3    C2 5280   3.340   2.753  11.710 -0.2679  0.2282 -0.8912
  349TMC3    C3 5281   3.295   2.641  11.645  0.6878  0.0549 -0.0473
  349TMC3    C4 5282   3.336   2.854  11.496  0.9177 -0.3521 -0.8928
  349TMC3    C5 5283   3.289   2.737  11.438  0.4773 -0.4947 -0.5204
  349TMC3    C6 5284   3.267   2.627  11.515  0.0750 -0.7986 -0.7476
  349TMC3     C 5285   3.314   2.982  11.689  0.2994 -0.5029  0.1623
  349TMC3     O 5286   3.333   2.998  11.810 -0.4033  0.1930  0.2092
  349TMC3     H 5287   3.368   2.759  11.815 -2.1572 -0.3664 -0.3424
  349TMC3    H1 5288   3.362   2.939  11.435  0.1873  1.0918  0.8225
  349TMC3    H2 5289   3.222   2.539  11.471 -0.8104  0.6334 -2.6787
  349TMC3    C7 5290   3.170   2.768  11.370 -0.7426  0.3182 -0.2483
  349TMC3    C8 5291   3.215   2.543  11.725  0.1946 -0.6471 -0.7822
  349TMC3    O1 5292   3.062   2.735  11.418  0.3489  0.3523  0.4974
  349TMC3    O2 5293   3.109   2.505  11.675  0.4389  0.0528  0.5851
  350MPD2     C 5294   1.847   1.540  10.598 -0.6965 -0.3897 -1.0122
  350MPD2    C1 5295   1.942   1.450  10.574  0.2177  0.3536 -0.4825
  350MPD2    C2 5296   2.077   1.485  10.573  0.8311 -0.1520  0.5784
  350MPD2    C3 5297   2.115   1.616  10.600  0.0454  0.3674 -0.0358
  350MPD2    C4 5298   2.016   1.705  10.628  1.1349 -0.2412 -0.4932
  350MPD2    C5 5299   1.885   1.668  10.627  0.0299 -0.4520  0.2323
  350MPD2     H 5300   2.149   1.411  10.541 -0.8847 -1.2361 -0.7999
  350MPD2    H1 5301   2.035   1.812  10.631 -1.7461  0.2570  0.4806
  350MPD2    H2 5302   1.739   1.528  10.597 -1.0567  2.6565  1.3659
  350MPD2    H3 5303   1.807   1.741  10.642 -1.2311 -1.7840  0.0992
  350MPD2     N 5304   2.255   1.649  10.599 -0.2830  0.0898  0.1193
  350MPD2    H5 5305   2.322   1.578  10.570 -0.5745 -0.6363  1.2063
  350MPD2    N1 5306   1.913   1.322  10.530  0.2116 -0.5379  0.1046
  350MPD2    H7 5307   1.990   1.266  10.493  0.4176 -0.1653 -0.0350
  351TMC3    C1 5308   1.765   1.163  10.443 -0.5444  0.1031  0.2797
  351TMC3    C2 5309   1.829   1.156  10.325 -0.0475  0.8344 -0.3973
  351TMC3    C3 5310   1.775   1.063  10.240  0.5580 -0.2065 -0.3716
  351TMC3    C4 5311   1.660   1.079  10.471 -0.0963 -0.1329 -0.4305
  351TMC3    C5 5312   1.609   0.986  10.387  0.2478  0.8750  0.2682
  351TMC3    C6 5313   1.670   0.978  10.269 -0.3670 -0.2221  0.8347
  351TMC3     C 5314   1.788   1.272  10.529  0.0834  0.3275  0.2220
  351TMC3     O 5315   1.690   1.308  10.598  0.9241  0.0100 -0.0613
  351TMC3     H 5316   1.905   1.226  10.292  0.8964  1.0904  2.2968
  351TMC3    H1 5317   1.617   1.091  10.570 -1.5691 -1.7019 -0.8911
  351TMC3    H2 5318   1.621   0.927  10.187 -1.3512 -2.9071  3.0967
  351TMC3    C7 5319   1.484   0.920  10.411 -0.5203  0.6451  0.2857
  351TMC3    C8 5320   1.842   1.043  10.111  0.2742  0.7904 -0.3077
  351TMC3    O1 5321   1.416   0.959  10.504 -0.3060  0.2467 -0.0928
  351TMC3    O2 5322   1.779   0.984  10.023  0.0622  0.0481  0.2028
  352MPD2     C 5323   0.766   3.244   1.205  0.7264  0.5367  0.7853
  352MPD2    C1 5324   0.712   3.219   1.081 -0.1259  0.4456 -0.2511
  352MPD2    C2 5325   0.747   3.111   1.007  0.3393  0.1167 -0.4138
  352MPD2    C3 5326   0.836   3.019   1.052  0.7303  0.9849 -0.0243
  352MPD2    C4 5327   0.870   3.033   1.188  0.3089  0.0595 -0.1099
  352MPD2    C5 5328   0.840   3.145   1.261  1.4432  0.0330 -0.0163
  352MPD2     H 5329   0.703   3.096   0.909 -3.5229 -0.0831  1.3312
  352MPD2    H1 5330   0.927   2.954   1.236  2.1929  0.6949 -1.3150
  352MPD2    H2 5331   0.746   3.333   1.264 -0.1424  1.6903 -1.2727
  352MPD2    H3 5332   0.893   3.162   1.354 -2.4155  1.8362  1.8590
  352MPD2     N 5333   0.871   2.910   0.967 -0.1685  0.0266 -0.2726
  352MPD2    H5 5334   0.816   2.888   0.885 -0.1600 -0.2162 -0.2148
  352MPD2    N1 5335   0.614   3.311   1.046 -0.3232 -0.0926 -0.2858
  352MPD2    H7 5336   0.595   3.383   1.115  1.4425  0.4878 -0.4300
  353TMC3    C1 5337   0.996   2.711   0.912  0.6212 -0.3344 -0.7991
  353TMC3    C2 5338   1.116   2.653   0.904  0.6025 -0.2397 -0.1414
  353TMC3    C3 5339   1.131   2.523   0.858 -0.1078  0.1159 -0.7609
  353TMC3    C4 5340   0.884   2.649   0.866 -0.0975  0.9694 -0.4130
  353TMC3    C5 5341   0.901   2.526   0.811  0.9782  0.0016 -0.4785
  353TMC3    C6 5342   1.020   2.460   0.805 -0.5600 -0.2938  0.3443
  353TMC3     C 5343   0.981   2.832   0.994  0.0941 -0.2360 -0.1466
  353TMC3     O 5344   1.073   2.864   1.067 -0.1928 -0.6404  0.0268
  353TMC3     H 5345   1.194   2.705   0.959  0.6038 -1.1321  0.7167
  353TMC3    H1 5346   0.783   2.681   0.888 -0.5883 -0.4865 -0.5632
  353TMC3    H2 5347   1.006   2.362   0.761 -0.8396 -0.8531  1.6650
  353TMC3    C7 5348   0.794   2.457   0.737  0.4874 -0.1437 -0.5052
  353TMC3    C8 5349   1.249   2.454   0.902 -0.6260 -0.4275  0.2619
  353TMC3    O1 5350   0.767   2.341   0.767  0.0734  0.0799 -0.1536
  353TMC3    O2 5351   1.318   2.512   0.985  0.6091  0.4319  0.3412
  354TMC3    C1 5352   2.577   4.124  13.513  0.1290  0.7633 -0.1174
  354TMC3    C2 5353   2.548   4.261  13.500 -0.1911  0.3316 -0.0831
  354TMC3    C3 5354   2.609   4.325  13.401  1.0888 -0.1052 -0.0672
  354TMC3    C4 5355   2.642   4.062  13.413  0.4746 -0.0137 -0.3221
  354TMC3    C5 5356   2.679   4.128  13.295 -1.2058  0.1875  0.3421
  354TMC3    C6 5357   2.678   4.270  13.293 -0.3113 -0.1646 -0.1970
  354TMC3     C 5358   2.552   4.053  13.637  0.3167  0.6294  0.0080
  354TMC3     O 5359   2.620   3.954  13.654  0.0558  0.2946  0.2824
  354TMC3     H 5360   2.488   4.311  13.575 -0.4330  1.9932 -1.3767
  354TMC3    H1 5361   2.640   3.954  13.424 -1.6444  0.0354 -0.3293
  354TMC3    H2 5362   2.743   4.318  13.221  1.1556 -1.7116  0.0958
  354TMC3    C7 5363   2.736   4.047  13.194 -0.5189 -0.7385 -0.2113
  354TMC3    C8 5364   2.577   4.474  13.387 -0.0750  0.2912 -0.2124
  354TMC3    O1 5365   2.732   3.925  13.225 -0.2097 -0.4488 -0.2621
  354TMC3    O2 5366   2.547   4.526  13.494 -1.1851  0.7146 -0.3726
  355MPD2     C 5367   2.197   0.553  11.574 -0.3541 -0.2287 -0.0459
  355MPD2    C1 5368   2.281   0.582  11.470  0.1214 -0.6927  0.5478
  355MPD2    C2 5369   2.417   0.580  11.492  0.8916  0.2820  0.4276
  355MPD2    C3 5370   2.470   0.565  11.619  0.6920  0.0992 -0.4231
  355MPD2    C4 5371   2.383   0.535  11.718  0.2924  0.0361 -0.0328
  355MPD2    C5 5372   2.251   0.533  11.701  0.5099 -0.2319 -0.5395
  355MPD2     H 5373   2.480   0.591  11.405  0.4802  2.5457  0.4105
  355MPD2    H1 5374   2.426   0.525  11.817  0.5244  0.3650 -0.1003
  355MPD2    H2 5375   2.092   0.555  11.549  0.2291  1.0909 -2.3444
  355MPD2    H3 5376   2.186   0.515  11.786 -0.2037 -2.0601 -1.4830
  355MPD2     N 5377   2.610   0.572  11.647  0.3474 -0.0135  0.4115
  355MPD2    H5 5378   2.648   0.557  11.740  1.6443  0.2292 -0.0811
  355MPD2    N1 5379   2.220   0.611  11.345  0.1088  0.5527 -0.4978
  355MPD2    H7 5380   2.125   0.579  11.336  1.1676 -2.5693 -0.6756
  356TMC3    C1 5381   2.833   0.648  11.619 -0.1845 -0.4781 -0.3027
  356TMC3    C2 5382   2.919   0.714  11.537 -0.2717 -0.2917 -0.4907
  356TMC3    C3 5383   3.045   0.730  11.584  0.6527 -0.0167  0.7020
  356TMC3    C4 5384   2.870   0.602  11.744  0.0086 -0.4840  0.5884
  356TMC3    C5 5385   2.984   0.649  11.796 -0.1542  0.2201 -0.2267
  356TMC3    C6 5386   3.082   0.709  11.718 -0.2656  0.4440 -0.0106
  356TMC3     C 5387   2.707   0.616  11.559  0.6035  0.5458  0.0704
  356TMC3     O 5388   2.696   0.637  11.440  0.4611 -0.8361 -0.5591
  356TMC3     H 5389   2.896   0.766  11.445 -2.3497 -0.4464 -0.0494
  356TMC3    H1 5390   2.805   0.533  11.797  0.4217 -0.5543  1.0086
  356TMC3    H2 5391   3.185   0.722  11.747 -0.3309  1.1101 -0.0716
  356TMC3    C7 5392   3.022   0.590  11.916 -0.1463  0.0723  0.3238
  356TMC3    C8 5393   3.137   0.792  11.493 -0.0569  0.0518  0.2089
  356TMC3    O1 5394   2.974   0.477  11.933  0.4486 -0.4109 -0.0699
  356TMC3    O2 5395   3.113   0.773  11.376 -0.1679  0.0643 -0.1949
  357MPD2     C 5396   1.283   4.472   0.714 -0.8171 -0.3477  0.5642
  357MPD2    C1 5397   1.368   4.535   0.799  0.4175 -0.2849  0.4759
  357MPD2    C2 5398   1.326   4.574   0.919  0.0289  0.3332 -0.2670
  357MPD2    C3 5399   1.198   4.554   0.966  0.1467 -0.1412  0.3834
  357MPD2    C4 5400   1.117   4.491   0.883  0.1675  0.4967 -0.0348
  357MPD2    C5 5401   1.158   4.441   0.757 -0.2748  0.2472 -0.6262
  357MPD2     H 5402   1.386   4.639   0.982  0.9023 -0.9725  0.2747
  357MPD2    H1 5403   1.015   4.471   0.915  0.0500 -1.4377 -1.5584
  357MPD2    H2 5404   1.322   4.426   0.623  0.8255 -0.4034  1.2952
  357MPD2    H3 5405   1.081   4.415   0.685  0.1392  2.2301 -1.8093
  357MPD2     N 5406   1.155   4.599   1.096 -0.5099 -0.2195  0.6470
  357MPD2    H5 5407   1.058   4.590   1.125 -0.7497  0.1608 -0.0157
  357MPD2    N1 5408   1.502   4.547   0.758  0.0541  0.8890 -0.1473
  357MPD2    H7 5409   1.524   4.516   0.664  0.9014  0.3583  0.2312
  358TMC3    C1 5410   1.734   4.609   0.765 -0.7823  0.2664  0.3344
  358TMC3    C2 5411   1.762   4.540   0.652 -0.6003 -0.0100 -0.0237
  358TMC3    C3 5412   1.895   4.542   0.615 -0.4012 -0.1258 -0.0458
  358TMC3    C4 5413   1.832   4.675   0.837  0.1099 -0.1187 -0.9737
  358TMC3    C5 5414   1.964   4.667   0.802  0.3557  0.0908  0.1813
  358TMC3    C6 5415   1.997   4.606   0.679  0.1148 -0.4106 -0.5958
  358TMC3     C 5416   1.607   4.599   0.834  0.6223  0.6754  0.3554
  358TMC3     O 5417   1.608   4.640   0.951 -0.3761 -0.0905 -0.7874
  358TMC3     H 5418   1.681   4.497   0.595 -1.0009  0.1824  0.4003
  358TMC3    H1 5419   1.808   0.014   0.911 -0.3014 -1.2520  0.0432
  358TMC3    H2 5420   2.102   4.581   0.671  0.2673  0.1185 -0.1975
  358TMC3    C7 5421   2.078   4.724   0.880 -0.6154  0.4189 -0.2509
  358TMC3    C8 5422   1.917   4.495   0.482 -0.0614 -0.7126  0.4385
  358TMC3    O1 5423   2.182   0.023   0.827  0.5741  0.3639 -0.1615
  358TMC3    O2 5424   1.844   4.411   0.431 -0.6693  0.3161  0.4140
  359MPD2     C 5425   2.459   3.712  12.439  0.0367 -0.0532 -0.3641
  359MPD2    C1 5426   2.453   3.677  12.308  1.1492 -0.1186 -1.1223
  359MPD2    C2 5427   2.392   3.556  12.277  0.2184 -0.0471  0.3076
  359MPD2    C3 5428   2.329   3.478  12.375 -0.6927  0.4688 -0.0299
  359MPD2    C4 5429   2.337   3.508  12.507  0.0003 -0.0413  0.2688
  359MPD2    C5 5430   2.402   3.627  12.533 -0.2948  0.2794 -0.1652
  359MPD2     H 5431   2.393   3.520  12.174  2.5364  1.4498 -0.1997
  359MPD2    H1 5432   2.302   3.444  12.587  2.4145  0.8183  1.9980
  359MPD2    H2 5433   2.485   3.812  12.472  1.7037  0.9771 -4.7900
  359MPD2    H3 5434   2.409   3.656  12.638  0.6521  0.8740 -0.3932
  359MPD2     N 5435   2.277   3.352  12.344  0.0329 -0.5696 -0.2407
  359MPD2    H5 5436   2.249   3.292  12.421  1.3216  0.0150  0.6837
  359MPD2    N1 5437   2.510   3.759  12.202  0.3245  0.5923 -0.1210
  359MPD2    H7 5438   2.506   3.723  12.107 -0.6424  2.2172 -0.6879
  360TMC3    C1 5439   2.611   3.942  12.099 -0.2979 -0.0066 -0.0316
  360TMC3    C2 5440   2.703   4.042  12.105  0.0415 -0.7841  0.3345
  360TMC3    C3 5441   2.754   4.093  11.987  0.6527  0.1682 -0.0059
  360TMC3    C4 5442   2.550   3.902  11.976 -0.6482 -0.2318  0.3054
  360TMC3    C5 5443   2.596   3.970  11.863 -0.2520 -0.5269 -0.1219
  360TMC3    C6 5444   2.695   4.062  11.866 -0.5251  0.5455  0.3914
  360TMC3     C 5445   2.572   3.880  12.222  0.0459  0.0499  0.6776
  360TMC3     O 5446   2.609   3.924  12.328 -0.0066 -0.7002 -0.0561
  360TMC3     H 5447   2.762   4.057  12.195  0.0713  0.3983  0.1172
  360TMC3    H1 5448   2.476   3.824  11.972 -1.2081  0.1972  2.3062
  360TMC3    H2 5449   2.724   4.115  11.776  0.7680 -0.9710 -0.0861
  360TMC3    C7 5450   2.566   3.923  11.731  0.4305  0.4143 -0.5141
  360TMC3    C8 5451   2.878   4.170  11.975  0.1887 -1.1866 -0.4931
  360TMC3    O1 5452   2.656   3.955  11.652 -0.3592 -0.4432 -0.3580
  360TMC3    O2 5453   2.883   4.276  12.039 -0.6292 -0.0217 -0.0886
  361MPD2     C 5454   3.814   2.487  16.729 -0.7622  1.0224  0.3769
  361MPD2    C1 5455   3.880   2.592  16.789  0.0700  0.0215 -0.7917
  361MPD2    C2 5456   4.016   2.583  16.812  0.3195  0.3683 -0.2829
  361MPD2    C3 5457   4.089   2.474  16.767  0.1157  0.0458  0.4424
  361MPD2    C4 5458   4.015   2.373  16.701  0.0873 -0.4088 -0.5695
  361MPD2    C5 5459   3.879   2.380  16.680 -0.0248  0.6825 -0.0093
  361MPD2     H 5460   4.058   2.672  16.858  0.9494 -1.5081  2.7472
  361MPD2    H1 5461   4.066   2.283  16.668 -1.2444 -1.2948 -0.1802
  361MPD2    H2 5462   3.707   2.494  16.711 -1.1013 -1.0397  1.5668
  361MPD2    H3 5463   3.829   2.304  16.622 -1.0954 -0.0565  1.9053
  361MPD2     N 5464   4.228   2.458  16.774 -0.2017  0.7224  0.2004
  361MPD2    H5 5465   4.261   2.363  16.759 -3.6944 -0.5838  0.8552
  361MPD2    N1 5466   3.815   2.710  16.830 -0.2351 -0.1406  0.5732
  361MPD2    H7 5467   3.870   2.794  16.845  0.8021 -0.9074  1.0374
  362TMC3    C1 5468   3.616   2.867  16.845 -0.4718  0.8337 -0.0911
  362TMC3    C2 5469   3.489   2.887  16.880 -0.9565  0.3058  0.1023
  362TMC3    C3 5470   3.425   3.001  16.853 -0.4538 -0.6107  0.3223
  362TMC3    C4 5471   3.679   2.961  16.765 -0.3208  0.6018  0.6296
  362TMC3    C5 5472   3.607   3.078  16.733  0.0511  1.0732  0.5495
  362TMC3    C6 5473   3.480   3.104  16.778 -0.4288 -0.1064 -0.0935
  362TMC3     C 5474   3.674   2.724  16.847 -0.4773 -0.4779 -0.4079
  362TMC3     O 5475   3.597   2.631  16.859 -0.0185 -0.2495  0.1500
  362TMC3     H 5476   3.441   2.813  16.942 -1.0884  1.2832  1.1604
  362TMC3    H1 5477   3.779   2.944  16.728 -0.1557 -0.7374  1.7051
  362TMC3    H2 5478   3.427   3.194  16.747 -1.3702 -0.6859 -0.1358
  362TMC3    C7 5479   3.651   3.140  16.607  0.7011  0.0970  0.3491
  362TMC3    C8 5480   3.295   3.029  16.917  0.2602 -0.5370  0.6517
  362TMC3    O1 5481   3.600   3.248  16.590 -0.3706  0.4462  0.2318
  362TMC3    O2 5482   3.213   2.944  16.924 -0.1344  0.2329 -0.1035
  363TMC3    C1 5483   2.410   0.400   8.883 -0.0329  0.3998 -0.0859
  363TMC3    C2 5484   2.517   0.444   8.951  0.0975  0.2461 -0.2180
  363TMC3    C3 5485   2.498   0.558   9.021 -0.5583  0.0688  0.4950
  363TMC3    C4 5486   2.292   0.457   8.873 -0.6340 -0.2332 -0.6137
  363TMC3    C5 5487   2.280   0.579   8.935  0.6200 -0.5126  0.1864
  363TMC3    C6 5488   2.381   0.629   9.016  0.4134  0.1680  0.4330
  363TMC3     C 5489   2.424   0.282   8.796 -0.0668 -0.3194  0.1796
  363TMC3     O 5490   2.536   0.269   8.748 -0.0826  0.3938  0.2958
  363TMC3     H 5491   2.615   0.397   8.943 -0.4325 -0.9602  0.4467
  363TMC3    H1 5492   2.212   0.408   8.818 -2.2985  0.0269  1.5624
  363TMC3    H2 5493   2.358   0.708   9.086  1.3518 -0.5210  1.5134
  363TMC3    C7 5494   2.160   0.657   8.921 -0.3341  0.3854  0.4287
  363TMC3    C8 5495   2.597   0.620   9.108  0.0612 -0.2361 -0.1989
  363TMC3    O1 5496   2.155   0.753   8.994  0.0520  0.0878  0.7017
  363TMC3    O2 5497   2.572   0.720   9.169 -0.7930 -0.0584 -0.4498
  364MPD2     C 5498   1.340   0.443  10.688  0.4824  0.2320  0.0606
  364MPD2    C1 5499   1.467   0.422  10.649  0.1360 -0.2318 -0.7877
  364MPD2    C2 5500   1.508   0.291  10.637 -0.3884 -0.4134  0.2932
  364MPD2    C3 5501   1.435   0.180  10.675 -0.5192 -0.2880 -0.5821
  364MPD2    C4 5502   1.314   0.208  10.733  0.1280 -0.0985 -0.0208
  364MPD2    C5 5503   1.270   0.337  10.738 -0.2927 -0.4984 -0.1600
  364MPD2     H 5504   1.609   0.276  10.600 -0.4615 -0.6303  0.1823
  364MPD2    H1 5505   1.254   0.135  10.787 -2.1570  1.1396 -0.8996
  364MPD2    H2 5506   1.294   0.540  10.698 -0.4669 -0.4465  2.3550
  364MPD2    H3 5507   1.173   0.368  10.776 -1.1910 -1.8548 -1.3767
  364MPD2     N 5508   1.473   0.045  10.671  0.1015  0.4594  0.0719
  364MPD2    H5 5509   1.410   4.711  10.706  0.9779 -0.5812 -0.4602
  364MPD2    N1 5510   1.534   0.545  10.619  0.2415  0.0823 -0.1579
  364MPD2    H7 5511   1.483   0.631  10.641  2.2565  0.7874  1.7120
  365TMC3    C1 5512   1.726   0.684  10.576  0.1164 -0.1208  0.3560
  365TMC3    C2 5513   1.827   0.701  10.493 -0.0553 -0.4986  0.0414
  365TMC3    C3 5514   1.909   0.806  10.520 -0.3147  0.5255 -0.5256
  365TMC3    C4 5515   1.708   0.761  10.686 -0.1597  0.3635  0.3284
  365TMC3    C5 5516   1.795   0.865  10.709  0.1299 -0.2836  0.2835
  365TMC3    C6 5517   1.893   0.894  10.620 -0.1988 -0.6046  0.0605
  365TMC3     C 5518   1.660   0.554  10.569 -0.0742  0.3378 -0.2890
  365TMC3     O 5519   1.726   0.462  10.533  0.0887 -0.1607  0.3326
  365TMC3     H 5520   1.854   0.628  10.418 -0.4603 -1.7643  1.1376
  365TMC3    H1 5521   1.623   0.746  10.752 -0.5048  0.1425 -0.1661
  365TMC3    H2 5522   1.955   0.981  10.638 -1.2495  0.1746 -0.0925
  365TMC3    C7 5523   1.767   0.963  10.819  0.8258  0.2484  0.7139
  365TMC3    C8 5524   2.031   0.821  10.435 -0.2091 -0.0150 -0.3603
  365TMC3    O1 5525   1.841   1.063  10.819 -0.4952 -0.1205 -0.3963
  365TMC3    O2 5526   2.110   0.905  10.469  0.0498 -0.5087 -0.2159
  366MPD2     C 5527   4.501   0.700  15.475 -0.3511 -0.3256 -0.3842
  366MPD2    C1 5528   4.506   0.761  15.348  0.2009 -0.3375  0.0950
  366MPD2    C2 5529   4.544   0.673  15.245  0.3720  0.2035  0.4477
  366MPD2    C3 5530   4.562   0.537  15.274 -0.6668  0.6632  0.2732
  366MPD2    C4 5531   4.538   0.481  15.398 -0.3381  0.3275 -0.3472
  366MPD2    C5 5532   4.516   0.566  15.502  0.0654  0.1118  0.4359
  366MPD2     H 5533   4.571   0.715  15.149 -1.6596  0.0297 -0.2001
  366MPD2    H1 5534   4.544   0.375  15.423 -1.0032  0.1685 -0.8635
  366MPD2    H2 5535   4.489   0.768  15.558 -2.4370 -0.5788 -0.4931
  366MPD2    H3 5536   4.495   0.520  15.597  0.2219 -0.3213  0.2603
  366MPD2     N 5537   4.629   0.450  15.183 -0.3969  0.1190 -0.5653
  366MPD2    H5 5538   4.601   0.353  15.189  0.0251  0.0695  0.5192
  366MPD2    N1 5539   4.491   0.904  15.339 -0.3803  0.2141 -0.3821
  366MPD2    H7 5540   4.476   0.954  15.426  1.2087 -1.4142  0.8232
  367TMC3    C1 5541   4.503   1.124  15.255  0.4986 -0.1173  0.1582
  367TMC3    C2 5542   4.611   1.157  15.339 -0.0596  0.0851  0.1232
  367TMC3    C3 5543   4.674   1.276  15.316  0.0111 -0.1251 -0.1963
  367TMC3    C4 5544   4.488   1.203  15.147 -0.0053 -0.0354  0.6376
  367TMC3    C5 5545   4.553   1.319  15.130 -0.0014 -0.0927  0.2200
  367TMC3    C6 5546   4.640   1.365  15.220 -0.1248  0.6911 -0.5549
  367TMC3     C 5547   4.495   0.982  15.226 -0.0724  0.0399 -1.0155
  367TMC3     O 5548   4.503   0.942  15.108 -0.3676  0.2122 -0.6141
  367TMC3     H 5549   4.646   1.087  15.414 -0.1326  0.6312  0.6633
  367TMC3    H1 5550   4.404   1.173  15.085  0.1816 -0.4049  0.5655
  367TMC3    H2 5551   4.678   1.466  15.222  0.6021  0.4094 -0.1929
  367TMC3    C7 5552   4.490   1.418  15.045  0.2363 -0.0381 -0.2774
  367TMC3    C8 5553   0.043   1.304  15.412  0.1547  0.2796  0.2836
  367TMC3    O1 5554   4.495   1.535  15.083 -0.6160  0.1512  0.8828
  367TMC3    O2 5555   0.056   1.222  15.500 -0.6178 -0.4857  0.3595
  368MPD2     C 5556   1.535   2.983  13.755  0.0617 -0.4396  0.0914
  368MPD2    C1 5557   1.522   3.071  13.647 -0.2135 -0.5523  0.2506
  368MPD2    C2 5558   1.607   3.059  13.537  0.2704  0.1440  0.4448
  368MPD2    C3 5559   1.719   2.987  13.540  0.3870  0.0295  0.3546
  368MPD2    C4 5560   1.738   2.909  13.650 -0.6001  0.4980 -0.0118
  368MPD2    C5 5561   1.647   2.903  13.751  0.1817 -0.6337 -0.5437
  368MPD2     H 5562   1.587   3.114  13.446 -1.1434 -1.3891 -0.1810
  368MPD2    H1 5563   1.829   2.852  13.663 -0.5712  0.5717  0.1054
  368MPD2    H2 5564   1.477   2.974  13.846  0.1301 -1.5416  0.0163
  368MPD2    H3 5565   1.681   2.849  13.839  0.8461 -0.4202 -0.6759
  368MPD2     N 5566   1.810   2.975  13.421  0.3017 -0.7128  0.4504
  368MPD2    H5 5567   1.877   2.899  13.420 -0.8244 -1.6896  0.9065
  368MPD2    N1 5568   1.424   3.171  13.636  0.7375 -0.3532  0.2184
  368MPD2    H7 5569   1.425   3.214  13.544  1.9269  0.3133  0.5417
  369TMC3    C1 5570   1.219   3.275  13.645  0.0423 -0.4162  0.0965
  369TMC3    C2 5571   1.264   3.362  13.551 -0.1491 -0.1936  0.9728
  369TMC3    C3 5572   1.169   3.430  13.480  0.3574  0.2689  0.7162
  369TMC3    C4 5573   1.086   3.255  13.666  0.1250 -0.1676 -0.0524
  369TMC3    C5 5574   0.996   3.326  13.596  0.5276 -0.5036 -0.3760
  369TMC3    C6 5575   1.030   3.414  13.501 -0.4199  0.0714 -0.4964
  369TMC3     C 5576   1.306   3.175  13.709 -0.3461 -0.2304  0.4621
  369TMC3     O 5577   1.266   3.110  13.808 -1.2301  0.4416 -0.2365
  369TMC3     H 5578   1.368   3.388  13.533  0.0536 -1.0758  0.8792
  369TMC3    H1 5579   1.058   3.172  13.731 -3.2683  0.1107 -1.1768
  369TMC3    H2 5580   0.964   3.458  13.428 -0.7104 -1.2024 -0.9879
  369TMC3    C7 5581   0.858   3.287  13.613  0.7586 -0.9540  0.7372
  369TMC3    C8 5582   1.207   3.468  13.347  0.2400 -0.5543 -0.4639
  369TMC3    O1 5583   0.840   3.168  13.635 -0.5996  0.3385  0.2167
  369TMC3    O2 5584   1.131   3.542  13.289  0.4702 -0.0271  0.4347
  370TMC3    C1 5585   0.688   3.268  16.296  0.6858  0.0498  1.2314
  370TMC3    C2 5586   0.630   3.177  16.374  1.1302 -0.2413  0.3010
  370TMC3    C3 5587   0.635   3.047  16.335  0.1204  0.2158  0.1466
  370TMC3    C4 5588   0.730   3.236  16.169 -0.5945 -0.1891 -0.3240
  370TMC3    C5 5589   0.718   3.109  16.122 -0.2506  0.3815  0.6057
  370TMC3    C6 5590   0.673   3.007  16.207 -0.6602 -0.0183  0.3035
  370TMC3     C 5591   0.717   3.396  16.362  0.4875 -0.0050  0.1862
  370TMC3     O 5592   0.697   3.411  16.484 -0.4862 -0.2702  0.2465
  370TMC3     H 5593   0.602   3.208  16.474  0.1668  2.1461 -0.7092
  370TMC3    H1 5594   0.774   3.311  16.103 -1.4136  0.8976  0.3600
  370TMC3    H2 5595   0.668   2.903  16.177 -0.6704  0.1977 -0.4636
  370TMC3    C7 5596   0.800   3.066  16.015 -1.1095 -1.1469 -0.9475
  370TMC3    C8 5597   0.573   2.952  16.426  0.4162 -0.3929 -0.0272
  370TMC3    O1 5598   0.837   3.151  15.931 -0.1401 -0.6465  0.1320
  370TMC3    O2 5599   0.563   2.837  16.383 -0.0502  0.1321 -0.2683
  371TMC3    C1 5600   2.024   1.936  15.134  0.1696 -0.5585 -0.1982
  371TMC3    C2 5601   1.906   1.919  15.207  0.1207 -0.1999  0.6941
  371TMC3    C3 5602   1.866   2.022  15.285  1.1302 -0.0651  0.5159
  371TMC3    C4 5603   2.090   2.051  15.133 -0.0692  0.4331 -0.4609
  371TMC3    C5 5604   2.046   2.154  15.210 -0.0169 -0.0492  0.0945
  371TMC3    C6 5605   1.928   2.141  15.280  0.4051  0.1817 -0.1004
  371TMC3     C 5606   2.113   1.822  15.122 -1.0532  0.2155  0.1543
  371TMC3     O 5607   2.208   1.826  15.044 -0.1000  0.9146 -0.5849
  371TMC3     H 5608   1.843   1.831  15.209  1.7554 -1.3617  0.8432
  371TMC3    H1 5609   2.178   2.059  15.070  0.8312  0.1915  0.7741
  371TMC3    H2 5610   1.885   2.217  15.344  0.8121  0.4927 -0.1973
  371TMC3    C7 5611   2.122   2.268  15.234  0.3134  0.3419  0.1508
  371TMC3    C8 5612   1.850   1.972  15.420 -0.3410 -0.5568  0.1789
  371TMC3    O1 5613   2.072   2.357  15.297 -0.0271  0.6542  0.2335
  371TMC3    O2 5614   1.879   1.851  15.434 -0.0738  0.0843 -0.1053
  372MPD2     C 5615   1.212   3.015  14.092 -0.0844 -0.4155 -0.0322
  372MPD2    C1 5616   1.347   2.979  14.082  0.1961 -0.0472  0.0873
  372MPD2    C2 5617   1.387   2.849  14.079 -0.2256  0.8478 -0.1133
  372MPD2    C3 5618   1.291   2.751  14.080  0.2400 -0.1558  0.0172
  372MPD2    C4 5619   1.153   2.783  14.079  0.5529  0.3769 -0.5260
  372MPD2    C5 5620   1.117   2.915  14.084  0.1649  0.4214 -0.3473
  372MPD2     H 5621   1.493   2.829  14.071 -0.2538  1.8328 -2.6959
  372MPD2    H1 5622   1.069   2.716  14.073  1.4657 -0.9607  1.6308
  372MPD2    H2 5623   1.183   3.119  14.082 -0.7132 -0.4670  1.3472
  372MPD2    H3 5624   1.012   2.942  14.087  0.1074 -0.0175  1.6717
  372MPD2     N 5625   1.324   2.612  14.094  0.3515  0.7888  0.2735
  372MPD2    H5 5626   1.248   2.545  14.084 -1.0687  2.5492 -0.6831
  372MPD2    N1 5627   1.444   3.082  14.069 -0.7013 -0.0666  0.4979
  372MPD2    H7 5628   1.535   3.042  14.046 -1.2622 -0.8686 -0.3706
  373TMC3    C1 5629   1.454   2.435  14.148  0.2647  0.4858 -0.4452
  373TMC3    C2 5630   1.531   2.388  14.248 -0.0620 -0.3039 -0.0585
  373TMC3    C3 5631   1.532   2.252  14.257  0.7334 -0.4168  0.0558
  373TMC3    C4 5632   1.402   2.365  14.044  0.0380  0.5318  0.0022
  373TMC3    C5 5633   1.425   2.233  14.051 -0.3364 -0.3711  0.4282
  373TMC3    C6 5634   1.484   2.171  14.160  0.0470  0.0922 -0.1224
  373TMC3     C 5635   1.450   2.574  14.143 -0.4323 -0.0575  0.5129
  373TMC3     O 5636   1.547   2.633  14.195 -0.0583 -0.3116  0.8029
  373TMC3     H 5637   1.570   2.455  14.324 -0.0956 -0.8035  0.4022
  373TMC3    H1 5638   1.371   2.411  13.951 -0.8482 -2.0664 -1.0051
  373TMC3    H2 5639   1.499   2.064  14.165 -0.1226  0.0295 -1.0274
  373TMC3    C7 5640   1.424   2.164  13.921 -0.9506 -0.0357  0.2479
  373TMC3    C8 5641   1.653   2.196  14.328  0.3346 -0.2866 -0.0877
  373TMC3    O1 5642   1.437   2.231  13.818  0.5505  1.0558  0.7008
  373TMC3    O2 5643   1.642   2.076  14.364  0.4227 -0.4324 -0.5818
  374TMC3    C1 5644   1.605   3.879   9.846  0.2688  0.1684  0.8746
  374TMC3    C2 5645   1.732   3.924   9.831 -0.0588 -0.4792  0.3969
  374TMC3    C3 5646   1.761   4.051   9.802  0.4448  0.3399  0.5843
  374TMC3    C4 5647   1.498   3.967   9.836  0.4301  0.7688  0.2921
  374TMC3    C5 5648   1.530   4.103   9.816  0.2395  0.2583 -0.4188
  374TMC3    C6 5649   1.657   4.137   9.793 -0.0428  0.3038  0.3555
  374TMC3     C 5650   1.580   3.752   9.923  0.1315  0.1090 -0.8337
  374TMC3     O 5651   1.461   3.716   9.927 -0.1138 -0.2551  0.1796
  374TMC3     H 5652   1.809   3.850   9.851  2.0149  1.8830  1.0273
  374TMC3    H1 5653   1.401   3.936   9.872  0.1653 -0.3891 -1.3948
  374TMC3    H2 5654   1.679   4.242   9.774  0.7031  0.0319 -0.2633
  374TMC3    C7 5655   1.424   4.199   9.783 -0.3688 -0.4695  0.4959
  374TMC3    C8 5656   1.891   4.098   9.760  0.0305  0.4221 -0.1789
  374TMC3    O1 5657   1.457   4.318   9.766 -0.0341 -0.9841  0.4437
  374TMC3    O2 5658   1.893   4.198   9.683  0.3181  0.2500  0.2553
  375MPD2     C 5659   2.146   3.652  17.059  0.0956  0.4469  0.4419
  375MPD2    C1 5660   2.064   3.685  16.948 -0.0645  0.6358 -0.6262
  375MPD2    C2 5661   2.120   3.716  16.825  0.2709 -0.1550  0.0835
  375MPD2    C3 5662   2.255   3.716  16.804 -0.4944 -0.0016  0.1634
  375MPD2    C4 5663   2.331   3.683  16.910  0.0602 -0.5356  0.1338
  375MPD2    C5 5664   2.280   3.654  17.038  0.4926 -0.0464  0.9718
  375MPD2     H 5665   2.057   3.770  16.755 -1.8146  0.4455  2.4088
  375MPD2    H1 5666   2.437   3.676  16.888 -0.2028  1.6185 -1.8756
  375MPD2    H2 5667   2.106   3.633  17.158 -0.2222 -2.5405 -0.2424
  375MPD2    H3 5668   2.350   3.613  17.110  2.9176  1.9585 -0.2679
  375MPD2     N 5669   2.317   3.748  16.683  0.1050  0.4151 -0.0477
  375MPD2    H5 5670   2.418   3.746  16.671  0.2433  0.9623  1.0040
  375MPD2    N1 5671   1.926   3.690  16.958  0.6661  0.5561 -0.1872
  375MPD2    H7 5672   1.872   3.714  16.875 -0.4354 -0.4075  0.2599
  376TMC3    C1 5673   2.333   3.808  16.452  0.0283  0.4790  0.1563
  376TMC3    C2 5674   2.468   3.797  16.454  0.8176  0.8070  0.0240
  376TMC3    C3 5675   2.530   3.813  16.339 -0.0924 -0.1587 -0.5246
  376TMC3    C4 5676   2.268   3.837  16.336  0.4563  0.6544  0.1798
  376TMC3    C5 5677   2.343   3.849  16.221  0.2930 -0.9943  0.2531
  376TMC3    C6 5678   2.483   3.835  16.217  0.0006 -0.8689 -0.2048
  376TMC3     C 5679   2.249   3.774  16.565 -0.5241 -0.2118  0.2527
  376TMC3     O 5680   2.128   3.790  16.550  0.6795  0.0930  0.2377
  376TMC3     H 5681   2.525   3.802  16.546  1.0592  1.1689 -0.1438
  376TMC3    H1 5682   2.163   3.867  16.333  1.4303  4.2232  1.0571
  376TMC3    H2 5683   2.544   3.843  16.128 -0.1824 -0.2282 -0.2757
  376TMC3    C7 5684   2.273   3.867  16.098 -0.1045 -0.4264  0.2897
  376TMC3    C8 5685   2.675   3.787  16.333 -0.2065  0.0395  0.2195
  376TMC3    O1 5686   2.338   3.932  16.015  0.3074  0.2994  0.0202
  376TMC3    O2 5687   2.726   3.780  16.222  0.4820  0.3512  0.7345
  377MPD2     C 5688   4.693   3.680  12.883 -0.1393 -0.1312 -0.0699
  377MPD2    C1 5689   4.641   3.558  12.833  0.5017 -0.1268  0.7203
  377MPD2    C2 5690   4.579   3.473  12.928  0.3158  0.4703 -0.1416
  377MPD2    C3 5691   4.568   3.516  13.063 -0.1883 -1.1097  0.0491
  377MPD2    C4 5692   4.609   3.640  13.100 -0.7537 -0.2872  0.3316
  377MPD2    C5 5693   4.676   3.719  13.014  0.4725 -0.1740 -0.4297
  377MPD2     H 5694   4.547   3.376  12.891  0.2128  0.2603  0.4952
  377MPD2    H1 5695   4.580   3.665  13.202  1.4214  0.8888  0.6773
  377MPD2    H2 5696   4.734   3.754  12.816  0.4140 -1.5071 -1.2442
  377MPD2    H3 5697   4.717   3.816  13.038  0.3688 -0.2847  0.1898
  377MPD2     N 5698   4.512   3.441  13.168 -0.4236  0.0246 -0.4362
  377MPD2    H5 5699   4.499   3.492  13.255  0.5461 -0.0827 -0.2307
  377MPD2    N1 5700   4.677   3.523  12.703  0.0635  0.3613  0.6396
  377MPD2    H7 5701   0.012   3.583  12.663  0.2154  0.1223  0.5535
  378TMC3    C1 5702   4.623   3.448  12.265 -0.3462 -0.3746 -0.1146
  378TMC3    C2 5703   4.582   3.416  12.390 -0.0024  0.1234  0.0135
  378TMC3    C3 5704   4.674   3.428  12.489  0.9749 -0.7879  0.6920
  378TMC3    C4 5705   0.020   3.474  12.234  0.2849  0.1249 -0.1217
  378TMC3    C5 5706   0.111   3.474  12.339  0.0888 -0.2318 -0.1795
  378TMC3    C6 5707   0.074   3.453  12.469 -0.5823 -0.6245 -0.0839
  378TMC3     C 5708   4.523   3.446  12.159 -0.1294  0.1331 -0.2652
  378TMC3     O 5709   4.412   3.400  12.187 -0.0627  0.0263  0.6482
  378TMC3     H 5710   4.487   3.373  12.421 -0.4768  2.2128  1.4079
  378TMC3    H1 5711   0.049   3.509  12.136 -0.7421  1.6256  0.1060
  378TMC3    H2 5712   0.147   3.457  12.549 -2.1803  0.8917  1.3119
  378TMC3    C7 5713   0.258   3.484  12.311  0.0919 -0.1277 -0.1993
  378TMC3    C8 5714   4.628   3.420  12.624 -0.2448  0.5051 -0.2667
  378TMC3    O1 5715   0.331   3.472  12.407 -0.5600 -0.4475 -0.2514
  378TMC3    O2 5716   4.523   3.363  12.650 -0.4095  0.0904  0.5334
  379MPD2     C 5717   1.112   1.456  16.099  0.0352  0.5146  0.1309
  379MPD2    C1 5718   1.044   1.357  16.163  0.6731 -0.0670  0.2247
  379MPD2    C2 5719   1.085   1.312  16.289 -0.0655  0.2637 -0.2786
  379MPD2    C3 5720   1.207   1.355  16.347 -0.4773  0.0179  0.4569
  379MPD2    C4 5721   1.285   1.444  16.271  0.1498  0.0019 -0.0479
  379MPD2    C5 5722   1.236   1.489  16.150  0.0082  0.3272  0.2964
  379MPD2     H 5723   1.023   1.245  16.347  0.9002 -0.1658  0.2515
  379MPD2    H1 5724   1.382   1.480  16.305  0.8453 -1.7549 -0.1510
  379MPD2    H2 5725   1.072   1.498  16.007 -1.8397 -0.0576  0.6758
  379MPD2    H3 5726   1.307   1.542  16.087  1.1192 -1.0177  0.3951
  379MPD2     N 5727   1.260   1.308  16.474  0.0461  0.4927  1.0922
  379MPD2    H5 5728   1.355   1.330  16.503  1.2678 -3.4164  0.0906
  379MPD2    N1 5729   0.934   1.305  16.096 -0.0221  0.1806 -0.3963
  379MPD2    H7 5730   0.928   1.337  16.000 -1.1019 -0.4846 -0.5508
  380TMC3    C1 5731   0.770   1.164  16.022 -0.0374 -0.0468 -0.0912
  380TMC3    C2 5732   0.738   1.033  16.007  0.8294  0.5194  0.2342
  380TMC3    C3 5733   0.647   0.997  15.907  0.6972  0.1242 -0.6101
  380TMC3    C4 5734   0.722   1.259  15.939  0.0298 -0.1529 -0.1769
  380TMC3    C5 5735   0.623   1.218  15.847 -0.0872 -0.1492  0.8732
  380TMC3    C6 5736   0.573   1.089  15.836  0.1018 -0.5464 -0.3811
  380TMC3     C 5737   0.866   1.193  16.129  0.5983  0.1350 -0.0288
  380TMC3     O 5738   0.865   1.117  16.221  0.1137 -0.0975  0.2970
  380TMC3     H 5739   0.791   0.956  16.061  1.3608 -0.7636 -2.1010
  380TMC3    H1 5740   0.740   1.365  15.955 -0.8210 -0.2978  1.7112
  380TMC3    H2 5741   0.501   1.067  15.757 -0.3773 -0.1769 -0.0480
  380TMC3    C7 5742   0.599   1.318  15.746  0.2433 -0.1252 -0.1022
  380TMC3    C8 5743   0.638   0.862  15.868 -0.2189  0.0475  0.0936
  380TMC3    O1 5744   0.684   1.405  15.734  0.1378  0.4550 -0.1769
  380TMC3    O2 5745   0.529   0.807  15.879  0.1924 -0.0861  0.1634
  381TMC3    C1 5746   0.757   2.132  16.243  0.4696 -0.2110 -0.2874
  381TMC3    C2 5747   0.838   2.240  16.282 -0.7192 -0.5881 -0.5350
  381TMC3    C3 5748   0.770   2.344  16.336 -0.8324  0.3087  0.3802
  381TMC3    C4 5749   0.620   2.127  16.256 -0.2093  0.0666  0.4645
  381TMC3    C5 5750   0.562   2.238  16.314 -0.6904 -0.7341  0.5163
  381TMC3    C6 5751   0.638   2.347  16.353 -0.2288  0.3445  0.9452
  381TMC3     C 5752   0.812   2.026  16.162  0.0861 -0.1259  0.3073
  381TMC3     O 5753   0.739   1.963  16.090 -0.4152  0.1762  0.2473
  381TMC3     H 5754   0.944   2.246  16.259 -0.6270 -3.6489 -0.9030
  381TMC3    H1 5755   0.573   2.030  16.250 -2.4967  1.1172  1.2332
  381TMC3    H2 5756   0.588   2.439  16.383 -1.7716 -0.2190  0.1075
  381TMC3    C7 5757   0.434   2.218  16.380 -0.1758  0.5958  0.6120
  381TMC3    C8 5758   0.843   2.465  16.302 -0.2940  0.6863 -0.1563
  381TMC3    O1 5759   0.395   2.099  16.391 -0.0258 -0.0697 -0.2235
  381TMC3    O2 5760   0.928   2.457  16.214  0.6377 -0.3763  0.2923
  382MPD2     C 5761   0.149   0.880  17.060  0.3031  0.1452 -0.4004
  382MPD2    C1 5762   0.059   0.856  17.164 -0.6377  0.3720  0.3645
  382MPD2    C2 5763   0.034   0.725  17.207 -0.2846 -0.0248  0.4645
  382MPD2    C3 5764   0.088   0.617  17.143  0.1276  0.5892  0.9788
  382MPD2    C4 5765   0.173   0.639  17.036 -0.2390 -0.2873 -0.0068
  382MPD2    C5 5766   0.203   0.768  16.997 -0.1392  0.1621 -0.0639
  382MPD2     H 5767   4.686   0.715  17.274  1.4106  0.7065  2.7386
  382MPD2    H1 5768   0.230   0.561  16.986 -1.9841 -0.6737 -1.3790
  382MPD2    H2 5769   0.158   0.979  17.016  1.7495  0.1301 -0.1650
  382MPD2    H3 5770   0.275   0.783  16.918  0.1810 -1.1601 -0.0147
  382MPD2     N 5771   0.079   0.484  17.179  0.6331  0.3697 -0.0185
  382MPD2    H5 5772   0.128   0.423  17.113 -0.1103 -0.5758  0.3161
  382MPD2    N1 5773   4.726   0.969  17.219  0.6336  0.6646 -0.1726
  382MPD2    H7 5774   4.645   0.946  17.275 -0.0408  0.3410 -1.2637
  383TMC3    C1 5775   0.005   0.293  17.259 -0.0680  0.1514  0.5164
  383TMC3    C2 5776   4.633   0.209  17.223  0.2940  0.3026 -0.4359
  383TMC3    C3 5777   4.663   0.080  17.172  0.4784  0.1560  0.3706
  383TMC3    C4 5778   0.133   0.252  17.253 -0.3076 -0.3834 -0.0392
  383TMC3    C5 5779   0.153   0.126  17.210 -0.1635 -0.7667  0.1825
  383TMC3    C6 5780   0.061   0.043  17.155  0.2290  0.3095 -0.9962
  383TMC3     C 5781   4.728   0.437  17.269  0.9298 -0.8333 -0.1595
  383TMC3     O 5782   4.646   0.488  17.345 -0.3878 -0.0881  0.1926
  383TMC3     H 5783   4.540   0.264  17.218  0.8330  1.1271 -1.2033
  383TMC3    H1 5784   0.210   0.319  17.291  0.4517 -1.5972  0.5675
  383TMC3    H2 5785   0.094   4.681  17.125  2.7170  1.1479 -1.0770
  383TMC3    C7 5786   0.296   0.080  17.201  0.1385 -0.1788  1.0318
  383TMC3    C8 5787   4.567   4.703  17.181 -0.3728 -0.1037 -0.2764
  383TMC3    O1 5788   0.362   0.110  17.298 -0.2071  0.3577  0.2541
  383TMC3    O2 5789   4.621   4.607  17.232  0.0200  0.5182  0.0980
  384MPD2     C 5790   1.296   1.689  12.640 -0.2011 -0.1453  0.5506
  384MPD2    C1 5791   1.369   1.622  12.735  0.5543  0.4606 -0.5042
  384MPD2    C2 5792   1.484   1.554  12.702  0.0923  0.1474  0.3252
  384MPD2    C3 5793   1.539   1.555  12.571 -0.4970  0.6146  0.0871
  384MPD2    C4 5794   1.465   1.622  12.471  0.2814  0.2655  0.0499
  384MPD2    C5 5795   1.350   1.686  12.512  0.0070 -0.2920 -0.8982
  384MPD2     H 5796   1.546   1.501  12.773  1.3164 -0.0940 -0.9148
  384MPD2    H1 5797   1.487   1.622  12.365 -0.3185  4.1510 -0.0647
  384MPD2    H2 5798   1.200   1.737  12.651 -0.1970 -0.7907  3.3675
  384MPD2    H3 5799   1.294   1.739  12.436 -2.6203  0.3697  1.5229
  384MPD2     N 5800   1.659   1.493  12.551  0.5798  0.2286 -0.7768
  384MPD2    H5 5801   1.693   1.444  12.634  1.3930  1.1558 -0.5617
  384MPD2    N1 5802   1.317   1.609  12.863  0.3727 -0.6176 -0.0484
  384MPD2    H7 5803   1.227   1.655  12.866 -1.0103 -3.1902 -2.7583
  385TMC3    C1 5804   1.796   1.345  12.449  0.5848  0.2217  0.5277
  385TMC3    C2 5805   1.747   1.233  12.389  0.5289  0.4178  0.1062
  385TMC3    C3 5806   1.784   1.114  12.442 -0.3784 -0.4394  0.6042
  385TMC3    C4 5807   1.865   1.345  12.568 -0.5957 -0.6889 -0.2588
  385TMC3    C5 5808   1.888   1.224  12.624  0.0105 -0.2135  0.1564
  385TMC3    C6 5809   1.853   1.111  12.558  0.2537 -0.1664  0.2060
  385TMC3     C 5810   1.709   1.461  12.433  0.7116 -0.2590  0.4891
  385TMC3     O 5811   1.677   1.497  12.320 -0.3517  0.2827  0.6260
  385TMC3     H 5812   1.683   1.228  12.303  1.9144 -2.3928 -0.7672
  385TMC3    H1 5813   1.904   1.439  12.604 -0.0171 -1.1753  0.3876
  385TMC3    H2 5814   1.854   1.021  12.618 -0.5233  0.4616  1.1594
  385TMC3    C7 5815   1.834   1.231  12.760 -0.8586 -0.2040  0.1567
  385TMC3    C8 5816   1.701   0.997  12.420  0.3370  0.4305  0.1626
  385TMC3    O1 5817   1.784   1.338  12.788  0.3116  0.7535  0.2293
  385TMC3    O2 5818   1.692   0.913  12.507 -0.0510 -0.1183 -0.2485
  386TMC3    C1 5819   1.819   3.307  11.670  0.5426 -0.5947  0.1365
  386TMC3    C2 5820   1.750   3.327  11.556 -0.2042 -0.2202 -0.2640
  386TMC3    C3 5821   1.645   3.417  11.560  0.3579  0.3829 -0.4321
  386TMC3    C4 5822   1.776   3.372  11.783  0.2342  0.1696 -0.1678
  386TMC3    C5 5823   1.661   3.446  11.794  0.4785  0.0205 -0.1199
  386TMC3    C6 5824   1.593   3.475  11.674 -0.7804 -0.4833 -0.3026
  386TMC3     C 5825   1.872   3.174  11.690 -0.5325 -0.4658 -1.0495
  386TMC3     O 5826   1.782   3.092  11.692 -0.1370  0.2404 -0.4820
  386TMC3     H 5827   1.777   3.283  11.461 -2.6433  1.2175 -1.6167
  386TMC3    H1 5828   1.815   3.342  11.880  0.0419  0.1070 -0.1098
  386TMC3    H2 5829   1.502   3.534  11.678 -1.4248 -1.4303 -1.1376
  386TMC3    C7 5830   1.620   3.519  11.914  0.5076  0.0607 -0.0507
  386TMC3    C8 5831   1.575   3.456  11.445  0.1734 -0.2878  0.3098
  386TMC3    O1 5832   1.510   3.574  11.908 -0.1833  0.1406  0.3618
  386TMC3    O2 5833   1.462   3.503  11.454  0.2775  0.3298  0.0615
  387MPD2     C 5834   4.317   3.413   9.403  0.2534 -0.3877  0.3132
  387MPD2    C1 5835   4.284   3.464   9.525  0.4535  0.2268  0.5592
  387MPD2    C2 5836   4.304   3.377   9.636 -0.0285  0.3794  0.1870
  387MPD2    C3 5837   4.336   3.245   9.627  0.0010  0.2481  0.0982
  387MPD2    C4 5838   4.369   3.189   9.503  0.1022 -0.2327  0.3422
  387MPD2    C5 5839   4.357   3.280   9.395 -0.3899  0.2062  0.1145
  387MPD2     H 5840   4.288   3.410   9.738  1.4270  0.6184  0.3288
  387MPD2    H1 5841   4.405   3.087   9.494  0.8427  0.2628 -2.1293
  387MPD2    H2 5842   4.314   3.480   9.318  0.6394 -1.0025 -0.1902
  387MPD2    H3 5843   4.406   3.254   9.303  1.7222  0.0838  1.2751
  387MPD2     N 5844   4.330   3.171   9.747 -0.4707 -0.5852 -0.5706
  387MPD2    H5 5845   4.283   3.218   9.823  0.8018 -1.2899  0.6584
  387MPD2    N1 5846   4.251   3.601   9.557  0.0589  0.1721  0.7561
  387MPD2    H7 5847   4.246   3.613   9.657  2.0748  0.5243  0.8128
  388TMC3    C1 5848   4.245   3.831   9.543  0.4657 -0.1612 -0.0164
  388TMC3    C2 5849   4.181   3.938   9.496  0.5386  0.0346 -0.1631
  388TMC3    C3 5850   4.199   4.047   9.576  0.2149 -0.4528 -0.2847
  388TMC3    C4 5851   4.322   3.822   9.664  1.1238 -0.0648 -0.4316
  388TMC3    C5 5852   4.323   3.935   9.738 -0.0042 -0.0217 -0.0922
  388TMC3    C6 5853   4.259   4.049   9.701 -0.3325 -0.6769 -0.6151
  388TMC3     C 5854   4.225   3.712   9.471  0.0137  0.9628 -0.1994
  388TMC3     O 5855   4.181   3.713   9.357  0.0154 -0.1568 -0.0785
  388TMC3     H 5856   4.117   3.937   9.410  1.0530 -0.6272 -0.5374
  388TMC3    H1 5857   4.383   3.735   9.685  1.4712  0.6674  1.5938
  388TMC3    H2 5858   4.268   4.142   9.754  3.4702 -1.2380 -0.2896
  388TMC3    C7 5859   4.355   3.918   9.877 -0.6220 -0.2307 -0.2592
  388TMC3    C8 5860   4.122   4.168   9.547  0.1572 -0.1556 -0.0424
  388TMC3    O1 5861   4.400   4.013   9.936 -0.3544 -0.3080  0.2942
  388TMC3    O2 5862   4.111   4.251   9.637 -0.5025 -0.5414 -0.4885
  389MPD2     C 5863   3.368   2.169  11.168  0.3097  0.2733 -0.8971
  389MPD2    C1 5864   3.398   2.063  11.086 -0.5861  0.2460  0.1621
  389MPD2    C2 5865   3.384   1.935  11.140 -0.1323 -0.1235  0.4287
  389MPD2    C3 5866   3.346   1.917  11.269 -0.4152 -0.4127 -0.6556
  389MPD2    C4 5867   3.308   2.029  11.343  0.6018  0.5792 -0.6612
  389MPD2    C5 5868   3.312   2.156  11.288  0.9223  0.1441 -1.1408
  389MPD2     H 5869   3.406   1.845  11.083  0.9265  1.4759 -1.7080
  389MPD2    H1 5870   3.278   2.011  11.446 -1.6847  2.5407 -0.9706
  389MPD2    H2 5871   3.392   2.271  11.140 -2.6690  1.4456  0.8109
  389MPD2    H3 5872   3.297   2.245  11.349  0.0402 -0.1854 -0.8776
  389MPD2     N 5873   3.335   1.796  11.333  0.6506  0.0421  0.4903
  389MPD2    H5 5874   3.298   1.795  11.427 -3.7704 -1.8152 -1.2253
  389MPD2    N1 5875   3.461   2.104  10.961 -0.4167  0.2552 -0.0565
  389MPD2    H7 5876   3.475   2.203  10.945  1.4788  0.4542  2.8318
  390TMC3    C1 5877   3.366   1.574  11.376  0.1878 -0.2345  0.9827
  390TMC3    C2 5878   3.278   1.475  11.357  0.7683  0.1597 -0.0489
  390TMC3    C3 5879   3.228   1.421  11.475 -1.3557  0.6067  0.2635
  390TMC3    C4 5880   3.405   1.613  11.503 -0.0803  0.1166 -0.2845
  390TMC3    C5 5881   3.362   1.556  11.615 -0.0665  1.0585  0.7413
  390TMC3    C6 5882   3.262   1.455  11.606 -0.4843 -0.8141 -0.2086
  390TMC3     C 5883   3.369   1.677  11.275 -0.2900 -0.1263 -0.2712
  390TMC3     O 5884   3.372   1.640  11.157  0.2226 -0.9202 -0.3202
  390TMC3     H 5885   3.217   1.462  11.269 -1.3313 -2.0961  1.7274
  390TMC3    H1 5886   3.483   1.688  11.509  2.1197 -2.1398 -0.5866
  390TMC3    H2 5887   3.228   1.398  11.691 -1.0762  1.0868  0.8401
  390TMC3    C7 5888   3.392   1.612  11.740  0.1539  0.0298 -0.1889
  390TMC3    C8 5889   3.106   1.347  11.450  0.3346  0.9280 -0.5486
  390TMC3    O1 5890   3.498   1.673  11.749  0.4312 -0.0715 -0.2977
  390TMC3    O2 5891   3.101   1.263  11.363  0.5100 -0.0290 -0.1433
  391MPD2     C 5892   2.483   3.598  11.012  0.1968  0.8208  0.4783
  391MPD2    C1 5893   2.608   3.579  10.967  0.1606  0.0378  0.3790
  391MPD2    C2 5894   2.627   3.591  10.832 -0.2960  0.0174 -0.5432
  391MPD2    C3 5895   2.527   3.625  10.744  0.5907 -0.3347 -0.2424
  391MPD2    C4 5896   2.401   3.650  10.798 -0.6269  0.3823 -0.3622
  391MPD2    C5 5897   2.374   3.624  10.927  0.1545 -0.5897 -0.0472
  391MPD2     H 5898   2.720   3.563  10.783 -0.8764 -1.7519 -0.6333
  391MPD2    H1 5899   2.319   3.686  10.736  1.5839  2.6697 -1.9552
  391MPD2    H2 5900   2.457   3.594  11.118 -1.5466 -2.6039 -0.0762
  391MPD2    H3 5901   2.274   3.648  10.961  0.7140 -0.0813  1.2281
  391MPD2     N 5902   2.568   3.642  10.605 -0.5330  0.5035 -0.3329
  391MPD2    H5 5903   2.667   3.633  10.588 -0.3723  1.4157  0.1335
  391MPD2    N1 5904   2.720   3.554  11.053  0.0579 -0.6780  0.2071
  391MPD2    H7 5905   2.692   3.551  11.151 -0.8451  2.3321  0.0209
  392TMC3    C1 5906   2.541   3.702  10.375 -0.3902  0.5854  0.4132
  392TMC3    C2 5907   2.456   3.716  10.262 -0.0785 -0.8465 -0.4013
  392TMC3    C3 5908   2.503   3.793  10.158 -0.1189 -0.3739 -0.6566
  392TMC3    C4 5909   2.662   3.765  10.374  0.3117 -0.7980 -0.3366
  392TMC3    C5 5910   2.706   3.825  10.263 -0.4255  0.3126  0.0442
  392TMC3    C6 5911   2.632   3.845  10.151  0.7787 -0.4129  0.7091
  392TMC3     C 5912   2.478   3.684  10.508 -0.3597  0.1626 -0.1700
  392TMC3     O 5913   2.356   3.709  10.512  0.0427  1.2560  0.9052
  392TMC3     H 5914   2.353   3.690  10.281 -0.3156  1.7473  1.9519
  392TMC3    H1 5915   2.725   3.774  10.461 -1.9182  1.1745  1.0977
  392TMC3    H2 5916   2.655   3.916  10.073  0.5467 -1.8135 -0.6261
  392TMC3    C7 5917   2.826   3.908  10.279 -0.4405  1.1366  0.9712
  392TMC3    C8 5918   2.397   3.866  10.086  0.5588  0.0624  0.2073
  392TMC3    O1 5919   2.884   3.915  10.387 -0.4953 -0.2518 -0.0520
  392TMC3    O2 5920   2.297   3.899  10.148 -0.4983 -0.3837 -0.2618
  393TMC3    C1 5921   1.965   1.911  10.976  0.6407 -0.8497  0.0750
  393TMC3    C2 5922   1.860   1.894  11.060 -0.0657  0.2971 -0.0408
  393TMC3    C3 5923   1.837   1.769  11.110 -0.1132 -0.5671 -0.2720
  393TMC3    C4 5924   2.047   1.813  10.934 -0.5220 -0.2511  0.5540
  393TMC3    C5 5925   2.014   1.689  10.979 -0.1335  0.3074 -0.7167
  393TMC3    C6 5926   1.909   1.662  11.066 -0.6430 -0.1489  0.1745
  393TMC3     C 5927   1.993   2.051  10.943  0.2067  0.3505  0.0171
  393TMC3     O 5928   1.916   2.132  10.989 -0.2439 -0.8113 -0.2271
  393TMC3     H 5929   1.796   1.976  11.090  0.6951  0.0081  2.3632
  393TMC3    H1 5930   2.140   1.831  10.880 -0.3378  0.0685  0.9808
  393TMC3    H2 5931   1.893   1.563  11.106  1.3597 -1.4317 -2.1717
  393TMC3    C7 5932   2.123   1.597  10.965 -0.0992 -0.2244 -0.2697
  393TMC3    C8 5933   1.741   1.745  11.222  0.2320  0.1280  0.1186
  393TMC3    O1 5934   2.228   1.654  10.977  0.0381  0.4629  0.0321
  393TMC3    O2 5935   1.757   1.632  11.273 -0.3048  0.5100  0.0781
  394TMC3    C1 5936   3.556   2.070  10.742  0.2204  0.0370 -0.5112
  394TMC3    C2 5937   3.541   1.999  10.629 -0.6707 -0.7003  0.2413
  394TMC3    C3 5938   3.600   2.041  10.514 -0.0935  0.0657 -0.1372
  394TMC3    C4 5939   3.634   2.181  10.755 -0.3144  0.4581 -0.0621
  394TMC3    C5 5940   3.703   2.219  10.641 -1.2465  0.2328 -0.6306
  394TMC3    C6 5941   3.678   2.158  10.524 -0.3141 -0.7444 -0.1838
  394TMC3     C 5942   3.504   2.017  10.868  0.4225 -0.5400 -0.1169
  394TMC3     O 5943   3.476   1.896  10.871  0.3334 -0.5630  1.1030
  394TMC3     H 5944   3.471   1.916  10.640  1.1684 -2.4846 -1.5154
  394TMC3    H1 5945   3.645   2.229  10.851  0.1641  1.2836 -0.5291
  394TMC3    H2 5946   3.734   2.185  10.435  0.3037 -0.2326  0.3598
  394TMC3    C7 5947   3.838   2.284  10.651 -0.0381  0.4619 -0.3570
  394TMC3    C8 5948   3.624   1.952  10.391 -0.0213 -0.1283  0.0750
  394TMC3    O1 5949   3.881   2.352  10.558 -0.6855  0.1689  0.3268
  394TMC3    O2 5950   3.672   2.005  10.293 -0.0803  0.5847  0.3094
  395TMC3    C1 5951   3.198   3.724  15.232 -0.4463  0.0561  0.2885
  395TMC3    C2 5952   3.067   3.714  15.200  0.6920 -0.0829 -0.4605
  395TMC3    C3 5953   3.032   3.729  15.069 -0.6077 -0.1966  0.5308
  395TMC3    C4 5954   3.292   3.752  15.140 -0.2477  0.6274  0.7619
  395TMC3    C5 5955   3.256   3.782  15.013 -0.0409  0.5735 -0.2831
  395TMC3    C6 5956   3.127   3.773  14.970 -0.4259 -0.6561 -0.2324
  395TMC3     C 5957   3.237   3.688  15.375 -0.3539 -0.3576 -0.2664
  395TMC3     O 5958   3.333   3.619  15.393 -0.1286 -0.6586  0.2236
  395TMC3     H 5959   2.995   3.690  15.277  2.2343 -0.8155  0.7505
  395TMC3    H1 5960   3.392   3.764  15.182  0.7134 -0.6706 -1.1827
  395TMC3    H2 5961   3.091   3.802  14.872 -0.0552 -0.6839 -0.3759
  395TMC3    C7 5962   3.328   3.904  14.978  0.7603 -0.3475  0.4616
  395TMC3    C8 5963   2.888   3.732  15.044 -0.4534  0.3668 -0.3780
  395TMC3    O1 5964   3.360   3.981  15.065 -0.4435 -0.1457 -0.8301
  395TMC3    O2 5965   2.823   3.744  15.146 -0.6760  0.3983  0.3729
  396MPD2     C 5966   2.646   0.100  16.612  0.2859 -0.2362  0.6594
  396MPD2    C1 5967   2.781   0.120  16.644 -0.6415  0.2857  0.6945
  396MPD2    C2 5968   2.861   0.197  16.561 -0.7130  0.4377  0.9786
  396MPD2    C3 5969   2.796   0.262  16.453  0.2639 -1.0201  0.0137
  396MPD2    C4 5970   2.664   0.254  16.422  0.8073  0.1874 -0.2520
  396MPD2    C5 5971   2.590   0.166  16.503 -0.3738  0.3538  0.0762
  396MPD2     H 5972   2.967   0.205  16.583 -0.2162 -2.2153 -0.4859
  396MPD2    H1 5973   2.607   0.307  16.346 -0.1570  1.2667  1.2263
  396MPD2    H2 5974   2.571   0.050  16.672 -0.2716  1.1894  1.1315
  396MPD2    H3 5975   2.484   0.148  16.489 -0.6082  1.7350  0.0524
  396MPD2     N 5976   2.882   0.339  16.373 -0.4177 -0.0165  0.0080
  396MPD2    H5 5977   2.977   0.343  16.407 -0.2143 -1.1556 -0.4434
  396MPD2    N1 5978   2.819   0.061  16.764 -0.6158 -0.3757 -0.0711
  396MPD2    H7 5979   2.752   0.001  16.811 -0.7209  0.0499  0.3268
  397TMC3    C1 5980   2.958   4.735  16.939  0.0009 -0.4830  0.0494
  397TMC3    C2 5981   3.097   4.736  16.992  0.0950 -1.1231  0.2929
  397TMC3    C3 5982   3.150   4.629  17.047  0.1725 -0.2235 -0.1570
  397TMC3    C4 5983   2.888   4.622  16.950 -0.7410  0.2408 -0.5344
  397TMC3    C5 5984   2.937   4.524  17.040 -0.5013  0.1159 -0.1174
  397TMC3    C6 5985   3.064   4.528  17.090 -0.6414  0.0818 -0.4027
  397TMC3     C 5986   2.940   0.072  16.817 -0.4697 -0.0975 -0.2210
  397TMC3     O 5987   3.035   0.139  16.781  0.3458  0.5352 -0.4170
  397TMC3     H 5988   3.163   0.081  16.963 -1.2018 -0.0927  0.1991
  397TMC3    H1 5989   2.789   4.595  16.914 -0.3265 -0.5644 -1.0726
  397TMC3    H2 5990   3.103   4.442  17.143 -2.1032 -1.0790 -1.1909
  397TMC3    C7 5991   2.849   4.430  17.093 -0.4104 -0.0848 -0.0329
  397TMC3    C8 5992   3.284   4.620  17.106 -0.9554  0.3958  0.2636
  397TMC3    O1 5993   2.748   4.403  17.028 -0.0170  0.3212  0.2727
  397TMC3    O2 5994   3.284   4.570  17.214 -0.5763  0.8612  1.0651
  398MPD2     C 5995   0.882   1.558   0.060  0.2464  0.4734  0.4197
  398MPD2    C1 5996   0.928   1.470   0.152  0.0660 -0.7727 -0.2574
  398MPD2    C2 5997   1.023   1.515   0.248 -0.5956 -0.3364 -0.2034
  398MPD2    C3 5998   1.074   1.641   0.246 -0.4029  0.1701 -0.4260
  398MPD2    C4 5999   1.027   1.731   0.155  0.0162  0.3111 -1.2085
  398MPD2    C5 6000   0.934   1.686   0.061 -0.0616 -0.5493  0.3206
  398MPD2     H 6001   1.071   1.450   0.320  0.7597  1.2866  0.3648
  398MPD2    H1 6002   1.071   1.825   0.125 -1.4922  1.2719 -0.4376
  398MPD2    H2 6003   0.806   1.536  17.730  0.1601 -3.1265  1.5267
  398MPD2    H3 6004   0.901   1.755  17.729  2.5390  0.9356  0.5405
  398MPD2     N 6005   1.198   1.664   0.315 -0.0139  0.2967  0.1574
  398MPD2    H5 6006   1.237   1.593   0.376 -0.1090 -0.3333 -0.5210
  398MPD2    N1 6007   0.883   1.336   0.164  0.1218  0.4724  0.4446
  398MPD2    H7 6008   0.911   1.283   0.246  0.7759 -2.4356 -1.6264
  399TMC3    C1 6009   0.799   1.120   0.095 -0.0554 -0.1361 -0.1365
  399TMC3    C2 6010   0.898   1.064   0.170 -0.5483  0.0594 -0.2777
  399TMC3    C3 6011   0.896   0.929   0.171  0.8118 -0.9956 -0.4872
  399TMC3    C4 6012   0.700   1.045   0.032  0.0815  0.7778 -1.1113
  399TMC3    C5 6013   0.694   0.910   0.056 -0.0638 -0.5294  0.5890
  399TMC3    C6 6014   0.797   0.848   0.122 -0.3253 -0.0067  0.1491
  399TMC3     C 6015   0.798   1.268   0.076  0.0188 -0.5046  0.1622
  399TMC3     O 6016   0.749   1.308  17.715 -0.0869  1.0707  0.1812
  399TMC3     H 6017   0.978   1.113   0.223 -0.3776 -0.4457 -0.0720
  399TMC3    H1 6018   0.616   1.097  17.730 -1.3076 -1.2533 -0.8764
  399TMC3    H2 6019   0.793   0.740   0.135 -1.0821  0.1595  1.2400
  399TMC3    C7 6020   0.576   0.826   0.017  0.5229  0.5688  0.0566
  399TMC3    C8 6021   1.015   0.869   0.218  0.0138 -0.5361  0.6612
  399TMC3    O1 6022   0.589   0.704   0.002  0.4695  0.2595  0.0048
  399TMC3    O2 6023   1.121   0.932   0.220  0.8004  0.1020 -0.4644
  400TMC3    C1 6024   4.513   4.406  16.803 -0.5022 -0.6995 -0.3990
  400TMC3    C2 6025   4.411   4.361  16.731 -0.1921  0.6194 -0.0633
  400TMC3    C3 6026   4.331   4.460  16.673  0.2459  0.1565  1.1440
  400TMC3    C4 6027   4.545   4.540  16.822 -0.2550  0.1328  0.2825
  400TMC3    C5 6028   4.464   4.632  16.761  0.0082  0.6295  0.3316
  400TMC3    C6 6029   4.359   4.595  16.684  0.0189 -0.3837 -0.0562
  400TMC3     C 6030   4.553   4.316  16.902  0.3949 -0.0859 -0.4742
  400TMC3     O 6031   4.495   4.211  16.917 -0.7178 -0.3743 -0.2024
  400TMC3     H 6032   4.386   4.256  16.717  0.2305  0.6087 -0.7742
  400TMC3    H1 6033   4.620   4.576  16.892 -0.9541  2.8818 -0.3601
  400TMC3    H2 6034   4.290   4.663  16.635 -0.5510 -1.5208 -0.8252
  400TMC3    C7 6035   4.501   0.037  16.754  0.2853  0.2942  0.1654
  400TMC3    C8 6036   4.194   4.427  16.637 -0.5455 -0.4314 -0.8227
  400TMC3    O1 6037   4.588   0.077  16.833  0.0513 -0.3314 -0.4200
  400TMC3    O2 6038   4.118   4.526  16.628  0.9495  0.2810  0.8123
  401MPD2     C 6039   2.259   2.678   0.347 -0.3177  0.2753 -0.3865
  401MPD2    C1 6040   2.286   2.678   0.480 -0.8053 -0.2744 -0.2230
  401MPD2    C2 6041   2.356   2.571   0.538 -0.1344 -0.4078 -0.1168
  401MPD2    C3 6042   2.382   2.458   0.459  0.0705  0.0941  0.2053
  401MPD2    C4 6043   2.352   2.462   0.325  0.0103  0.2016 -0.1323
  401MPD2    C5 6044   2.293   2.575   0.270  0.0209  0.2731  0.6295
  401MPD2     H 6045   2.369   2.565   0.645 -0.8293 -1.7560 -0.1122
  401MPD2    H1 6046   2.373   2.378   0.260  0.9073 -1.4774  2.3363
  401MPD2    H2 6047   2.202   2.762   0.308  2.3315  1.3832 -1.9161
  401MPD2    H3 6048   2.277   2.584   0.163  2.4680 -0.0745  0.2442
  401MPD2     N 6049   2.429   2.340   0.525  0.1942 -0.0448 -0.3245
  401MPD2    H5 6050   2.422   2.332   0.626  2.2283  1.2060 -0.0917
  401MPD2    N1 6051   2.271   2.792   0.570 -0.5957  0.7333 -0.7217
  401MPD2    H7 6052   2.315   2.783   0.661 -3.1791  2.5708  0.7070
  402TMC3    C1 6053   2.496   2.107   0.551 -0.2950  0.3151 -0.2167
  402TMC3    C2 6054   2.531   2.113   0.684  0.9381  0.7040 -1.1850
  402TMC3    C3 6055   2.573   2.000   0.742 -0.1810 -0.4916 -1.3473
  402TMC3    C4 6056   2.487   1.986   0.490 -0.0331  0.4095  0.2492
  402TMC3    C5 6057   2.510   1.871   0.559  0.0784  0.4110  0.2696
  402TMC3    C6 6058   2.573   1.876   0.681  0.0753  0.8211 -0.0529
  402TMC3     C 6059   2.472   2.228   0.464 -0.2931 -0.0206 -0.3154
  402TMC3     O 6060   2.498   2.217   0.349  0.8133 -0.0603 -0.4016
  402TMC3     H 6061   2.539   2.211   0.728 -0.1831  1.5705 -2.9051
  402TMC3    H1 6062   2.451   1.983   0.387  0.1026  1.2540  0.1773
  402TMC3    H2 6063   2.604   1.792   0.742  2.8187  1.2171 -0.9063
  402TMC3    C7 6064   2.526   1.755   0.479  0.2734 -0.1909 -0.1759
  402TMC3    C8 6065   2.608   1.998   0.884 -0.4767  0.0682 -0.0185
  402TMC3    O1 6066   2.458   1.760   0.374 -0.6984  0.4029  0.2401
  402TMC3    O2 6067   2.674   1.909   0.925 -0.4663 -0.0108  0.3535
  403MPD2     C 6068   1.246   0.655  13.011 -0.1299  0.0046  0.5760
  403MPD2    C1 6069   1.163   0.746  13.082  0.0709 -0.5146  0.6026
  403MPD2    C2 6070   1.205   0.806  13.192  0.6274 -0.8128 -0.3876
  403MPD2    C3 6071   1.325   0.769  13.249 -0.2308  0.0152  0.1524
  403MPD2    C4 6072   1.407   0.680  13.174 -0.0216 -0.4588  0.4129
  403MPD2    C5 6073   1.365   0.625  13.058 -0.6214 -0.6135  0.4220
  403MPD2     H 6074   1.144   0.879  13.244  0.2201  0.8546 -3.2113
  403MPD2    H1 6075   1.504   0.642  13.204 -0.0149  0.5680  1.7220
  403MPD2    H2 6076   1.208   0.596  12.928  0.1496  1.5210 -0.6470
  403MPD2    H3 6077   1.433   0.559  13.005 -0.3951 -1.2176  1.4512
  403MPD2     N 6078   1.367   0.823  13.379  0.1039 -0.3045 -0.7946
  403MPD2    H5 6079   1.302   0.879  13.433  0.8514 -0.0402 -0.1786
  403MPD2    N1 6080   1.035   0.760  13.020  0.4077  0.2826  0.6454
  403MPD2    H7 6081   1.017   0.696  12.943 -1.5484  1.3514  0.2077
  404TMC3    C1 6082   0.803   0.743  13.031 -1.0929  0.2139 -0.0382
  404TMC3    C2 6083   0.727   0.685  13.129  0.1337  0.1151  0.2666
  404TMC3    C3 6084   0.640   0.581  13.092 -0.2858 -0.8488 -0.5612
  404TMC3    C4 6085   0.809   0.681  12.907  0.2462  0.3214  0.8383
  404TMC3    C5 6086   0.730   0.581  12.879 -0.0617 -0.0660 -0.3686
  404TMC3    C6 6087   0.637   0.532  12.966  0.1012 -0.2960  0.2760
  404TMC3     C 6088   0.923   0.812  13.072  0.4969 -0.6471 -0.4900
  404TMC3     O 6089   0.922   0.874  13.177  0.1489  0.5151  0.0383
  404TMC3     H 6090   0.735   0.720  13.232  1.7593  0.2586  0.0929
  404TMC3    H1 6091   0.879   0.713  12.831 -1.5019  0.7325 -0.6105
  404TMC3    H2 6092   0.578   0.443  12.949 -0.7127  0.1839  0.5732
  404TMC3    C7 6093   0.723   0.532  12.746 -0.1967 -0.6159 -0.6245
  404TMC3    C8 6094   0.636   0.479  13.199  0.8041  0.1830 -0.0170
  404TMC3    O1 6095   0.801   0.582  12.669 -0.0448 -0.5854 -0.1143
  404TMC3    O2 6096   0.674   0.369  13.162 -0.0478 -0.2900  0.6170
  405MPD2     C 6097   1.206   1.699  15.042  0.4300  0.1317  0.2996
  405MPD2    C1 6098   1.139   1.651  14.931  0.6965  0.2739 -0.5176
  405MPD2    C2 6099   1.062   1.746  14.862 -0.2601  0.8665  0.0135
  405MPD2    C3 6100   1.051   1.877  14.900  0.0722  0.0420 -0.9134
  405MPD2    C4 6101   1.113   1.924  15.015  0.6211  0.1329 -0.1997
  405MPD2    C5 6102   1.187   1.831  15.087  0.3726  0.4200 -0.3656
  405MPD2     H 6103   0.996   1.721  14.779 -0.9932  1.4259  0.4338
  405MPD2    H1 6104   1.095   2.023  15.056 -0.1684 -0.2372  0.3629
  405MPD2    H2 6105   1.262   1.628  15.101  1.3796  2.3338  2.0762
  405MPD2    H3 6106   1.242   1.854  15.177 -0.1064  0.3840 -0.0647
  405MPD2     N 6107   0.952   1.948  14.823 -0.0619  0.4057 -0.0111
  405MPD2    H5 6108   0.915   1.898  14.743 -0.8932  0.3989  0.3768
  405MPD2    N1 6109   1.136   1.516  14.902 -0.2272 -0.3005  0.6815
  405MPD2    H7 6110   1.200   1.456  14.952  2.6452  1.8235 -0.4527
  406TMC3    C1 6111   0.612   2.189  14.674 -0.3273 -0.0690  0.3678
  406TMC3    C2 6112   0.534   2.082  14.644 -0.0541 -0.3996 -0.2265
  406TMC3    C3 6113   0.586   1.966  14.697  0.2677 -0.0116  0.1698
  406TMC3    C4 6114   0.716   2.193  14.764  0.3055  0.6002  0.4231
  406TMC3    C5 6115   0.759   2.072  14.811 -0.3903  0.4072  0.2133
  406TMC3    C6 6116   0.703   1.955  14.763  0.5695  0.4179  0.2076
  406TMC3     C 6117   0.562   2.310  14.621  0.0708  0.0500  0.0558
  406TMC3     O 6118   0.542   2.411  14.692 -0.5808  0.2215  0.1551
  406TMC3     H 6119   0.443   2.099  14.587 -1.1091 -1.8199  1.0597
  406TMC3    H1 6120   0.764   2.286  14.791  1.6258  0.0193  0.1232
  406TMC3    H2 6121   0.722   1.859  14.809  0.5552  1.6563  2.7777
  406TMC3    C7 6122   0.894   2.063  14.861 -0.4898 -0.1267  0.2662
  406TMC3    C8 6123   0.520   1.844  14.668 -0.9056 -0.3448  0.0569
  406TMC3    O1 6124   0.945   2.160  14.916  0.4888 -0.0542 -0.2619
  406TMC3    O2 6125   0.397   1.845  14.688 -0.4417  0.0312 -0.1301
  407MPD2     C 6126   3.812   3.823   9.377  0.0811 -0.3083 -0.9832
  407MPD2    C1 6127   3.771   3.954   9.384  0.0379 -0.3776 -0.7896
  407MPD2    C2 6128   3.782   4.018   9.501  0.0609 -0.3362  0.5121
  407MPD2    C3 6129   3.832   3.954   9.613 -0.0238  0.2968  0.2560
  407MPD2    C4 6130   3.874   3.827   9.603 -0.6251  0.3289 -0.2086
  407MPD2    C5 6131   3.868   3.761   9.485  0.7825 -0.8770  0.5142
  407MPD2     H 6132   3.751   4.122   9.501  0.0976 -0.3151 -4.1928
  407MPD2    H1 6133   3.918   3.774   9.687  0.3119  2.1989  0.4650
  407MPD2    H2 6134   3.791   3.766   9.287 -0.4482  0.0909 -1.1119
  407MPD2    H3 6135   3.901   3.659   9.470 -1.4903 -1.7965  1.6353
  407MPD2     N 6136   3.835   4.028   9.727  0.7158  0.2893 -0.4069
  407MPD2    H5 6137   3.773   4.107   9.711  1.4248  0.8742 -0.2998
  407MPD2    N1 6138   3.707   4.023   9.284 -0.3179 -0.3403 -0.3461
  407MPD2    H7 6139   3.683   4.120   9.300  2.7140  0.5053 -0.9562
  408TMC3    C1 6140   3.656   4.071   9.053 -0.1309 -0.3206  0.1962
  408TMC3    C2 6141   3.716   4.054   8.934 -0.5849  0.4824  0.1059
  408TMC3    C3 6142   3.720   4.167   8.857  0.6232 -1.0598 -0.9453
  408TMC3    C4 6143   3.609   4.191   9.100 -0.0904  0.3844  0.3325
  408TMC3    C5 6144   3.599   4.296   9.017 -0.0145 -0.2523  0.0865
  408TMC3    C6 6145   3.652   4.283   8.892  0.0438  0.1347  0.5995
  408TMC3     C 6146   3.687   3.970   9.155 -0.5014  0.0018 -0.3491
  408TMC3     O 6147   3.721   3.863   9.104  0.4579 -0.2238  0.3546
  408TMC3     H 6148   3.754   3.961   8.892  1.6156  0.2058  2.7292
  408TMC3    H1 6149   3.557   4.207   9.193  0.0140  0.4658  0.3761
  408TMC3    H2 6150   3.649   4.372   8.832 -2.4056  0.4864  1.2405
  408TMC3    C7 6151   3.515   4.410   9.057 -0.1052  0.6991 -0.0934
  408TMC3    C8 6152   3.846   4.190   8.786 -0.1207  0.2093  0.4268
  408TMC3    O1 6153   3.554   4.520   9.020  0.3023  0.7844 -0.3810
  408TMC3    O2 6154   3.853   4.292   8.717  0.0177  0.2974  0.3872
  409MPD2     C 6155   3.074   4.149  16.886 -0.1624 -0.0376 -0.5452
  409MPD2    C1 6156   3.176   4.132  16.980  0.4792 -0.0006  0.0493
  409MPD2    C2 6157   3.286   4.216  16.966  0.0846 -0.2188  0.1396
  409MPD2    C3 6158   3.302   4.290  16.856  0.2134 -0.3415 -0.5483
  409MPD2    C4 6159   3.209   4.285  16.756  0.5662  0.4334 -0.9661
  409MPD2    C5 6160   3.095   4.222  16.777  0.7300  0.5573  0.0162
  409MPD2     H 6161   3.354   4.227  17.050  0.2392  0.4071 -0.0711
  409MPD2    H1 6162   3.218   4.346  16.667  2.2324 -2.1185 -2.5425
  409MPD2    H2 6163   2.976   4.102  16.889  0.8889 -2.1833 -0.1328
  409MPD2    H3 6164   3.007   4.233  16.715 -1.5709 -0.1928  3.1524
  409MPD2     N 6165   3.415   4.377  16.838 -0.7413  0.6383 -0.2733
  409MPD2    H5 6166   3.411   4.442  16.760 -2.3577 -0.1703 -0.8818
  409MPD2    N1 6167   3.172   4.037  17.085  0.1745  0.1390 -0.0222
  409MPD2    H7 6168   3.264   4.021  17.123 -1.3405 -2.1717  2.6672
  410TMC3    C1 6169   3.621   4.485  16.866 -0.2909  0.0484 -0.2823
  410TMC3    C2 6170   3.727   4.541  16.938  0.2399 -0.4315 -0.7544
  410TMC3    C3 6171   3.818   4.616  16.871  0.2581  0.3998 -0.5957
  410TMC3    C4 6172   3.604   4.522  16.735 -0.0880 -0.4766 -0.0952
  410TMC3    C5 6173   3.689   4.605  16.673  0.3771 -0.0952 -0.2705
  410TMC3    C6 6174   3.800   4.658  16.745 -0.0881  0.1270  0.5127
  410TMC3     C 6175   3.525   4.391  16.920  0.6606 -0.2907  0.1795
  410TMC3     O 6176   3.558   4.339  17.023  0.4160 -0.0590 -0.3395
  410TMC3     H 6177   3.734   4.526  17.046  0.7267 -0.0562 -0.7339
  410TMC3    H1 6178   3.535   4.480  16.662 -1.2881  1.0994  0.1304
  410TMC3    H2 6179   3.863   0.003  16.712  1.6736 -0.7281  1.7744
  410TMC3    C7 6180   3.660   4.633  16.536  0.1783 -0.2783 -0.2849
  410TMC3    C8 6181   3.941   4.657  16.939  0.2098 -0.2314  0.6559
  410TMC3    O1 6182   3.589   4.561  16.471  0.1342 -0.3942 -0.9302
  410TMC3    O2 6183   3.990   0.032  16.916  0.1031 -0.0951  0.0339
  411MPD2     C 6184   3.895   0.338  14.404  0.0147 -0.7248  0.6068
  411MPD2    C1 6185   3.785   0.340  14.489 -0.1152 -0.5129 -0.0267
  411MPD2    C2 6186   3.717   0.225  14.514 -0.2547  0.0784  0.4400
  411MPD2    C3 6187   3.760   0.107  14.457 -0.5473 -0.7411  0.3093
  411MPD2    C4 6188   3.885   0.103  14.398  0.4211 -0.3976 -0.7229
  411MPD2    C5 6189   3.948   0.218  14.360 -0.1008  0.3627  0.0810
  411MPD2     H 6190   3.623   0.238  14.567  0.5111  1.4870  1.4576
  411MPD2    H1 6191   3.926   0.020  14.341 -0.3861 -0.3198 -1.4106
  411MPD2    H2 6192   3.963   0.417  14.376 -1.0058  0.4551  1.4596
  411MPD2    H3 6193   4.038   0.228  14.301 -1.2277 -2.4017 -2.0998
  411MPD2     N 6194   3.678   4.732  14.455  0.3753 -0.1050 -0.2941
  411MPD2    H5 6195   3.718   4.660  14.395  0.7176  0.4290 -0.7129
  411MPD2    N1 6196   3.727   0.459  14.546  0.5721 -0.4346  0.2020
  411MPD2    H7 6197   3.642   0.453  14.601  1.0317  0.3461  0.9913
  412TMC3    C1 6198   3.484   4.607  14.468  0.1762 -0.5270  0.2623
  412TMC3    C2 6199   3.408   4.518  14.539 -0.0814 -0.1491  0.2820
  412TMC3    C3 6200   3.374   4.407  14.472 -0.2000  0.6258  0.5301
  412TMC3    C4 6201   3.510   4.597  14.334 -0.2526  0.0231 -0.5965
  412TMC3    C5 6202   3.464   4.489  14.269  0.1785  0.1973  0.5431
  412TMC3    C6 6203   3.404   4.393  14.338 -0.7190  0.4059 -0.2572
  412TMC3     C 6204   3.562   4.713  14.526  0.3857 -0.8006  0.5128
  412TMC3     O 6205   3.519   0.044  14.617  0.0266 -0.5330  0.6622
  412TMC3     H 6206   3.390   4.534  14.645 -0.4880  4.3355 -0.4599
  412TMC3    H1 6207   3.551   4.680  14.277  0.2244  0.6981  0.7213
  412TMC3    H2 6208   3.359   4.311  14.283  0.6079  0.2424 -1.0819
  412TMC3    C7 6209   3.389   4.518  14.144 -0.2982 -0.2475  0.3862
  412TMC3    C8 6210   3.242   4.361  14.505 -0.4574 -0.5499 -0.0414
  412TMC3    O1 6211   3.276   4.465  14.140  0.2559 -0.1009 -0.1640
  412TMC3    O2 6212   3.217   4.308  14.611  0.4785  0.2230 -0.7227
  413MPD2     C 6213   0.822   3.084  15.444  0.0190 -0.0202  0.5811
  413MPD2    C1 6214   0.724   2.991  15.451 -0.7674  0.4255 -0.5633
  413MPD2    C2 6215   0.757   2.856  15.458 -0.2889 -0.0960  0.0360
  413MPD2    C3 6216   0.884   2.813  15.470  0.0772 -0.7126  0.3979
  413MPD2    C4 6217   0.980   2.911  15.452  0.0499  0.0163  0.0316
  413MPD2    C5 6218   0.952   3.042  15.451  0.5791 -0.1738 -0.2512
  413MPD2     H 6219   0.675   2.787  15.468 -0.6582  0.2812 -0.4384
  413MPD2    H1 6220   1.088   2.896  15.453 -0.6398 -4.6927  1.6991
  413MPD2    H2 6221   0.807   3.191  15.430 -0.3506  0.1331  2.0770
  413MPD2    H3 6222   1.034   3.112  15.456  0.8240 -0.4530 -0.3778
  413MPD2     N 6223   0.907   2.674  15.486  0.2453 -0.1801 -0.3755
  413MPD2    H5 6224   0.834   2.606  15.466 -1.1281  0.5724  2.0441
  413MPD2    N1 6225   0.594   3.029  15.426  0.2942 -0.3421 -0.1366
  413MPD2    H7 6226   0.574   3.128  15.436 -0.6452 -0.7867  2.4614
  414TMC3    C1 6227   1.030   2.501  15.393 -0.1768 -0.2871  0.7132
  414TMC3    C2 6228   1.122   2.406  15.425  0.1059 -0.2516  0.4611
  414TMC3    C3 6229   1.144   2.311  15.333  0.7899  0.1982 -0.0609
  414TMC3    C4 6230   0.980   2.506  15.262  1.2180 -0.1498 -0.7644
  414TMC3    C5 6231   1.029   2.422  15.169  0.3936  0.0223 -0.1300
  414TMC3    C6 6232   1.100   2.316  15.207  0.3701 -0.4841  0.1123
  414TMC3     C 6233   1.031   2.624  15.468  0.0773  0.5329  0.3759
  414TMC3     O 6234   1.137   2.669  15.500  0.6158  0.5374 -0.2667
  414TMC3     H 6235   1.152   2.393  15.528 -1.1899 -0.1662  0.8508
  414TMC3    H1 6236   0.936   2.602  15.238 -1.7193 -1.0926  0.8088
  414TMC3    H2 6237   1.129   2.241  15.134  0.8079  0.7580 -0.9773
  414TMC3    C7 6238   1.059   2.482  15.042  0.2774 -0.2396  0.7766
  414TMC3    C8 6239   1.157   2.176  15.379 -0.2749  0.0523  0.4019
  414TMC3    O1 6240   1.061   2.606  15.033 -0.1825  0.3685 -0.3868
  414TMC3    O2 6241   1.088   2.092  15.317 -0.3750 -0.1749  0.6093
  415TMC3    C1 6242   1.399   1.315  10.389  0.4329  0.1070 -0.1134
  415TMC3    C2 6243   1.512   1.379  10.366 -0.4368 -0.8920  0.0507
  415TMC3    C3 6244   1.562   1.371  10.239 -0.0416  0.3194  0.0738
  415TMC3    C4 6245   1.334   1.239  10.300  0.4074 -0.2116 -0.0471
  415TMC3    C5 6246   1.379   1.234  10.173  0.6527  0.5720 -0.4429
  415TMC3    C6 6247   1.504   1.290  10.144  0.7283  0.7108  0.2265
  415TMC3     C 6248   1.330   1.342  10.506 -0.4343  0.9198 -0.0919
  415TMC3     O 6249   1.209   1.334  10.498 -0.3511  0.1976 -0.0307
  415TMC3     H 6250   1.562   1.434  10.446 -0.8876 -1.0974  0.4756
  415TMC3    H1 6251   1.244   1.187  10.332 -0.9343  1.3536 -1.3285
  415TMC3    H2 6252   1.545   1.273  10.045  1.7342 -0.2491  0.8051
  415TMC3    C7 6253   1.322   1.145  10.078 -0.5732 -0.1761  0.1543
  415TMC3    C8 6254   1.686   1.432  10.192 -0.3819 -0.7437  0.1958
  415TMC3    O1 6255   1.378   1.139   9.970 -0.0578 -0.6753 -0.4526
  415TMC3    O2 6256   1.743   1.367  10.104  0.3929 -0.2028 -0.5225
  416MPD2     C 6257   2.856   4.675  11.151  0.4163 -0.7384  1.2760
  416MPD2    C1 6258   2.767   4.609  11.229  0.3597 -0.0767  0.5627
  416MPD2    C2 6259   2.744   4.475  11.209 -0.4540 -0.5952 -0.7410
  416MPD2    C3 6260   2.803   4.411  11.099 -0.7478  0.1427  0.1361
  416MPD2    C4 6261   2.893   4.472  11.020 -0.3230 -0.1890  0.2772
  416MPD2    C5 6262   2.918   4.606  11.048  0.2963  0.3678  0.5441
  416MPD2     H 6263   2.679   4.419  11.275 -0.3115  0.2192  0.0890
  416MPD2    H1 6264   2.935   4.433  10.928 -0.6141  1.1953 -0.4446
  416MPD2    H2 6265   2.878   0.044  11.167  1.2982 -1.1127  2.5196
  416MPD2    H3 6266   2.991   4.665  10.993  1.3037  1.5997  3.1961
  416MPD2     N 6267   2.763   4.283  11.076  0.1474 -0.6342  0.3510
  416MPD2    H5 6268   2.696   4.239  11.139  0.2007 -2.1641 -0.6524
  416MPD2    N1 6269   2.709   4.685  11.333  0.1473  0.1640 -0.3576
  416MPD2    H7 6270   2.722   0.049  11.336 -2.0992  0.4516 -0.2693
  417TMC3    C1 6271   2.576   0.001  11.521  0.0163 -0.1750 -0.2952
  417TMC3    C2 6272   2.536   4.694  11.645  0.1999  0.1151  0.3628
  417TMC3    C3 6273   2.430   0.018  11.707 -0.4774 -0.4241 -0.1304
  417TMC3    C4 6274   2.509   0.100  11.452  0.0639  0.0550 -0.2427
  417TMC3    C5 6275   2.396   0.147  11.513 -0.4090  0.0119  0.7901
  417TMC3    C6 6276   2.355   0.112  11.639 -0.0991  0.0786  0.4841
  417TMC3     C 6277   2.637   4.635  11.437 -0.4194  0.1339 -0.9551
  417TMC3     O 6278   2.616   4.520  11.465 -0.4956 -0.1988  0.0104
  417TMC3     H 6279   2.603   4.622  11.691  1.5272  0.6508 -0.7283
  417TMC3    H1 6280   2.534   0.127  11.350 -0.9776  1.2428 -0.1885
  417TMC3    H2 6281   2.276   0.165  11.691  0.2319 -0.8937  1.9698
  417TMC3    C7 6282   2.298   0.206  11.421 -0.3898  0.5040  0.1280
  417TMC3    C8 6283   2.420   4.735  11.848  0.5734  0.3789 -0.1608
  417TMC3    O1 6284   2.335   0.219  11.304  0.6049  0.0961 -0.1133
  417TMC3    O2 6285   2.353   0.072  11.919 -0.2500 -0.2971 -0.2077
  418TMC3    C1 6286   1.607   1.878   0.441  0.0899  0.4287 -0.1878
  418TMC3    C2 6287   1.496   1.870   0.365  0.1720 -0.4499  0.6482
  418TMC3    C3 6288   1.397   1.781   0.395 -0.6679 -0.0444 -0.4824
  418TMC3    C4 6289   1.620   1.800   0.554  0.1107 -0.0176 -0.0385
  418TMC3    C5 6290   1.519   1.721   0.587  0.8431 -0.7103  0.8762
  418TMC3    C6 6291   1.402   1.700   0.510  0.1326  0.4371  0.2512
  418TMC3     C 6292   1.726   1.894   0.364 -0.4611  0.1246  0.5195
  418TMC3     O 6293   1.766   2.006   0.336  0.0073 -0.2942  0.1103
  418TMC3     H 6294   1.493   1.927   0.273 -0.6074 -0.6997  0.5177
  418TMC3    H1 6295   1.714   1.798   0.608  0.3674  1.9969 -0.3944
  418TMC3    H2 6296   1.325   1.632   0.543 -0.0483 -0.3972 -1.9472
  418TMC3    C7 6297   1.541   1.636   0.708  0.0082 -0.0042  0.5023
  418TMC3    C8 6298   1.290   1.764   0.292  0.3150  0.1460  0.0512
  418TMC3    O1 6299   1.626   1.692   0.780  0.4074  0.2130 -0.2819
  418TMC3    O2 6300   1.279   1.848   0.206  0.6091  0.5502 -0.3612
  419MPD2     C 6301   0.114   3.880  12.407 -0.0223  0.2163  0.4974
  419MPD2    C1 6302   0.068   3.999  12.349 -0.3035 -0.3856 -0.6220
  419MPD2    C2 6303   4.721   4.078  12.425 -0.5871  0.6157  0.3401
  419MPD2    C3 6304   4.676   4.042  12.549 -0.2432  0.0892 -0.5335
  419MPD2    C4 6305   4.714   3.918  12.593 -0.1475 -0.5214 -0.9046
  419MPD2    C5 6306   0.063   3.833  12.521 -0.4744 -0.4895  0.2010
  419MPD2     H 6307   4.693   4.173  12.382 -1.1864  1.0924  1.7781
  419MPD2    H1 6308   4.670   3.874  12.681 -1.0082  2.8932  0.3756
  419MPD2    H2 6309   0.187   3.815  12.360 -0.5555 -2.1554  2.9886
  419MPD2    H3 6310   0.096   3.736  12.554 -0.6990 -0.6348 -0.0038
  419MPD2     N 6311   4.595   4.132  12.626 -0.0296  0.3774 -0.2708
  419MPD2    H5 6312   4.569   4.221  12.585  0.9606  1.4014  1.3061
  419MPD2    N1 6313   0.106   4.039  12.218  0.4944 -0.1402  0.0131
  419MPD2    H7 6314   0.073   4.131  12.190  0.7352 -0.2642 -0.6785
  420TMC3    C1 6315   4.507   4.239  12.828 -0.3946 -0.0405  0.4616
  420TMC3    C2 6316   4.435   4.325  12.753 -0.3305  0.3005 -0.0946
  420TMC3    C3 6317   4.401   4.445  12.812 -0.6176  0.5968 -0.1746
  420TMC3    C4 6318   4.540   4.265  12.960 -0.7316 -0.3819  0.4211
  420TMC3    C5 6319   4.505   4.385  13.014 -0.2046  0.7588 -0.0457
  420TMC3    C6 6320   4.433   4.480  12.943  0.5373  0.1631  0.2251
  420TMC3     C 6321   4.577   4.117  12.763 -0.0057 -0.3677 -0.5549
  420TMC3     O 6322   4.636   4.039  12.841  0.3383 -0.0669 -0.6006
  420TMC3     H 6323   4.400   4.288  12.657 -0.2066 -0.4952  0.1668
  420TMC3    H1 6324   4.602   4.191  13.009  2.3819  1.8948 -0.0037
  420TMC3    H2 6325   4.410   4.581  12.975  1.7186  0.6952 -0.6489
  420TMC3    C7 6326   4.567   4.419  13.139 -0.5947  0.3888  0.0019
  420TMC3    C8 6327   4.325   4.546  12.741  0.0756  0.1538  0.1210
  420TMC3    O1 6328   4.590   4.330  13.216  0.4127  0.2461  0.4834
  420TMC3    O2 6329   4.278   4.636  12.805  0.1903 -0.0736 -0.3891
  421TMC3    C1 6330   1.503   0.867  13.560  0.1372 -0.1594 -0.3076
  421TMC3    C2 6331   1.391   0.886  13.639 -0.2630  0.7414  0.6844
  421TMC3    C3 6332   1.415   0.926  13.767  0.0021 -0.6215  0.0694
  421TMC3    C4 6333   1.628   0.872  13.614 -0.5332 -0.2994 -1.2937
  421TMC3    C5 6334   1.657   0.923  13.739 -0.1478  0.2735 -0.0813
  421TMC3    C6 6335   1.545   0.950  13.817  0.8741 -0.4404 -0.3879
  421TMC3     C 6336   1.488   0.797  13.437 -0.5554 -0.1050 -0.2719
  421TMC3     O 6337   1.588   0.763  13.374 -0.1124 -0.4859  0.2721
  421TMC3     H 6338   1.294   0.846  13.611 -0.0143 -0.6039  1.7489
  421TMC3    H1 6339   1.711   0.852  13.547 -0.3637 -0.8873 -0.9002
  421TMC3    H2 6340   1.559   0.994  13.915  1.8000  0.7608 -1.0627
  421TMC3    C7 6341   1.790   0.978  13.768  0.8833  0.2605  0.2536
  421TMC3    C8 6342   1.315   0.988  13.852  0.0535 -0.4054  0.8392
  421TMC3    O1 6343   1.863   1.028  13.681 -0.1701 -0.8527  0.7508
  421TMC3    O2 6344   1.351   0.991  13.971  0.1392 -0.3729  0.3249
  422TMC3    C1 6345   3.758   3.086  12.244  0.6147 -0.3305 -0.0697
  422TMC3    C2 6346   3.733   3.167  12.355 -0.8473  0.4010 -0.6901
  422TMC3    C3 6347   3.605   3.194  12.394  0.5561 -0.3509  0.1727
  422TMC3    C4 6348   3.652   3.007  12.205  0.1961 -0.1948  0.3313
  422TMC3    C5 6349   3.530   3.016  12.263 -1.3944  0.2826  0.0469
  422TMC3    C6 6350   3.499   3.114  12.355 -0.8015 -0.1871 -0.6103
  422TMC3     C 6351   3.880   3.094  12.154  0.0560 -0.0824 -0.6549
  422TMC3     O 6352   3.976   3.151  12.202  0.5381 -0.9335 -0.5764
  422TMC3     H 6353   3.813   3.230  12.391  0.8542 -1.3209 -1.5023
  422TMC3    H1 6354   3.670   2.923  12.139 -1.3537 -0.7960  0.6669
  422TMC3    H2 6355   3.396   3.127  12.387 -0.2940  2.1614  0.0818
  422TMC3    C7 6356   3.426   2.930  12.206 -0.3112 -0.5145  0.3496
  422TMC3    C8 6357   3.580   3.345  12.409 -0.4310  0.3898  0.2432
  422TMC3    O1 6358   3.467   2.875  12.100  0.0770  0.4351 -0.3467
  422TMC3    O2 6359   3.650   3.406  12.491 -0.3009 -0.3509 -0.1106
  423MPD2     C 6360   4.630   3.324   0.672 -0.1055  0.0994 -0.2611
  423MPD2    C1 6361   0.021   3.353   0.621  0.4386 -0.5488  0.3617
  423MPD2    C2 6362   0.050   3.318   0.493  0.4697 -0.0232 -0.0552
  423MPD2    C3 6363   4.693   3.248   0.416  0.2324  0.4146  0.1551
  423MPD2    C4 6364   4.570   3.213   0.465  0.9474 -0.4748  0.6862
  423MPD2    C5 6365   4.542   3.261   0.589  0.1374 -0.3586 -0.4990
  423MPD2     H 6366   0.149   3.338   0.454  0.6922  0.4704  0.7820
  423MPD2    H1 6367   4.504   3.156   0.401 -0.5355  1.2124  0.6985
  423MPD2    H2 6368   4.594   3.368   0.764  0.1589  0.8838 -0.5406
  423MPD2    H3 6369   4.439   3.257   0.623  0.9102 -2.2113  1.6709
  423MPD2     N 6370   4.725   3.199   0.291  0.9230 -0.1771  0.0769
  423MPD2    H5 6371   4.662   3.132   0.249  1.5362 -0.5810 -0.1945
  423MPD2    N1 6372   0.124   3.403   0.693 -0.2920 -0.6162  0.2638
  423MPD2    H7 6373   0.207   3.424   0.638 -0.8992  0.3563 -0.2862
  424TMC3    C1 6374   0.237   3.492   0.876 -0.0134  0.2064 -0.3282
  424TMC3    C2 6375   0.345   3.410   0.848  0.0735 -0.4635 -0.1282
  424TMC3    C3 6376   0.455   3.426   0.923  0.2158  0.3830 -0.5622
  424TMC3    C4 6377   0.239   3.596   0.959  0.1459 -0.9307  0.0546
  424TMC3    C5 6378   0.361   3.614   1.028  0.0183  0.2000 -0.5978
  424TMC3    C6 6379   0.465   3.531   1.006  0.2617  0.2058 -0.4930
  424TMC3     C 6380   0.114   3.457   0.818 -0.4335 -1.0419 -0.1066
  424TMC3     O 6381   0.011   3.483   0.882 -0.2355  0.1097  0.2557
  424TMC3     H 6382   0.327   3.313   0.803 -0.7689 -0.0181 -0.7485
  424TMC3    H1 6383   0.148   3.653   0.972  0.7297  0.5432 -2.3702
  424TMC3    H2 6384   0.562   3.556   1.047 -0.2428  0.6294  0.4652
  424TMC3    C7 6385   0.386   3.738   1.100 -0.4734 -0.3703  0.1554
  424TMC3    C8 6386   0.551   3.316   0.928 -0.4580  0.6026 -0.5708
  424TMC3    O1 6387   0.493   3.760   1.158  0.4721 -0.6697 -0.1094
  424TMC3    O2 6388   0.568   3.255   0.826  0.2675  0.0227 -0.0701
  425MPD2     C 6389   3.807   2.871  17.144 -0.2181 -0.9553 -0.2978
  425MPD2    C1 6390   3.750   2.749  17.167 -0.0930  0.0694  0.2106
  425MPD2    C2 6391   3.612   2.741  17.189 -0.0421  0.8212  0.5658
  425MPD2    C3 6392   3.541   2.854  17.203  0.6338 -0.2170  0.1256
  425MPD2    C4 6393   3.591   2.975  17.172  0.3600  0.7782 -0.0495
  425MPD2    C5 6394   3.728   2.983  17.139  0.4081 -0.0680 -0.0920
  425MPD2     H 6395   3.569   2.642  17.198 -2.7594  2.0328  0.7870
  425MPD2    H1 6396   3.522   3.058  17.173 -3.0146 -2.0397 -0.7290
  425MPD2    H2 6397   3.913   2.874  17.123 -0.0320  1.8925  0.9400
  425MPD2    H3 6398   3.766   3.083  17.119  2.6047 -0.5510  1.6819
  425MPD2     N 6399   3.400   2.833  17.222  0.2314 -0.1420  0.6025
  425MPD2    H5 6400   3.367   2.739  17.205  0.2708 -0.1347  0.4879
  425MPD2    N1 6401   3.832   2.641  17.181  0.1989  0.5113  0.7360
  425MPD2    H7 6402   3.929   2.649  17.154 -0.2454  0.1969 -0.9899
  426TMC3    C1 6403   3.897   2.417  17.244 -0.4299  0.2000  0.0526
  426TMC3    C2 6404   3.961   2.392  17.126 -0.7333 -0.2373  0.0485
  426TMC3    C3 6405   4.029   2.273  17.120  0.2901  0.3517  0.9818
  426TMC3    C4 6406   3.894   2.329  17.342 -0.2573 -0.1521  0.0403
  426TMC3    C5 6407   3.970   2.212  17.335 -0.6448 -0.2660 -0.1600
  426TMC3    C6 6408   4.038   2.184  17.219 -0.6205  0.5508 -0.1752
  426TMC3     C 6409   3.799   2.524  17.254 -0.1268  0.1289  0.0712
  426TMC3     O 6410   3.705   2.511  17.331 -0.1908 -0.0262 -0.2923
  426TMC3     H 6411   3.953   2.458  17.041 -2.4508  0.8858  1.0729
  426TMC3    H1 6412   3.825   2.339  17.426 -0.7611  2.4551 -0.6774
  426TMC3    H2 6413   4.090   2.091  17.203  0.1549  0.3784  3.3498
  426TMC3    C7 6414   3.916   2.091  17.386 -0.3384  0.4137  0.2623
  426TMC3    C8 6415   4.025   2.206  16.995  0.1219  0.3764  0.1493
  426TMC3    O1 6416   3.988   1.996  17.354 -0.1496  0.1613 -0.0500
  426TMC3    O2 6417   4.137   2.168  16.954 -0.0534 -0.7995  0.2455
  427MPD2     C 6418   2.851   0.424  14.736  0.4052 -0.5885 -0.0445
  427MPD2    C1 6419   2.805   0.303  14.791 -0.3454  1.1027  0.2518
  427MPD2    C2 6420   2.680   0.259  14.760  0.0603  0.0215  0.1109
  427MPD2    C3 6421   2.598   0.335  14.673  0.7849 -0.1325 -0.3514
  427MPD2    C4 6422   2.647   0.454  14.614  0.0086 -1.3635  0.0383
  427MPD2    C5 6423   2.775   0.488  14.641 -0.3554  0.3163  0.7032
  427MPD2     H 6424   2.646   0.172  14.815 -0.2238  0.3373  0.4413
  427MPD2    H1 6425   2.587   0.514  14.546  1.6287  0.8622  0.5547
  427MPD2    H2 6426   2.951   0.461  14.753  0.7338 -1.0984 -0.8812
  427MPD2    H3 6427   2.814   0.580  14.599 -0.3684  0.2421  0.5243
  427MPD2     N 6428   2.471   0.284  14.632  0.1725  0.1409 -0.0581
  427MPD2    H5 6429   2.419   0.334  14.560  2.0168 -0.0524 -1.5388
  427MPD2    N1 6430   2.883   0.233  14.891 -0.3468  0.1382 -0.0607
  427MPD2    H7 6431   2.830   0.173  14.953  0.9485 -0.3843  0.5619
  428TMC3    C1 6432   3.066   0.226  15.048  0.1268 -0.6931 -0.0785
  428TMC3    C2 6433   2.983   0.223  15.151  0.1852 -0.0102  0.3307
  428TMC3    C3 6434   3.033   0.190  15.274 -0.5159 -0.0374 -0.2635
  428TMC3    C4 6435   3.198   0.226  15.072 -0.6622 -0.7128 -0.1844
  428TMC3    C5 6436   3.246   0.216  15.196  0.3337 -0.5136  0.5154
  428TMC3    C6 6437   3.164   0.191  15.304  0.5110  0.4968 -0.0916
  428TMC3     C 6438   3.013   0.269  14.923  0.1287 -0.5836 -0.2623
  428TMC3     O 6439   3.094   0.329  14.854 -0.1653 -0.5167  0.6258
  428TMC3     H 6440   2.878   0.242  15.130  0.1415  1.2889  1.7332
  428TMC3    H1 6441   3.267   0.252  14.992  0.3626 -3.0386 -0.0605
  428TMC3    H2 6442   3.206   0.196  15.404 -1.0118  1.5957  0.4940
  428TMC3    C7 6443   3.384   0.240  15.225 -0.1329 -0.4817 -0.2538
  428TMC3    C8 6444   2.933   0.197  15.382 -0.7501 -0.0841  0.2749
  428TMC3    O1 6445   3.400   0.235  15.346  0.4468 -0.1161  0.2686
  428TMC3    O2 6446   2.871   0.302  15.377 -0.9065 -0.0019  0.1935
  429MPD2     C 6447   3.817   0.290  17.150  0.0942  0.2835  0.3697
  429MPD2    C1 6448   3.933   0.242  17.199 -0.5439  0.1782  0.6017
  429MPD2    C2 6449   4.044   0.320  17.179 -0.0409 -0.6246  0.0808
  429MPD2    C3 6450   4.032   0.449  17.120  0.0864 -0.0269 -0.4065
  429MPD2    C4 6451   3.909   0.497  17.081  0.0224 -0.6633 -0.3997
  429MPD2    C5 6452   3.797   0.408  17.091 -0.0578  0.3811 -0.5540
  429MPD2     H 6453   4.141   0.280  17.207  0.0243 -2.0218 -2.1267
  429MPD2    H1 6454   3.895   0.595  17.036  1.7876  0.4565  1.5458
  429MPD2    H2 6455   3.729   0.226  17.153  0.6525 -0.6466 -3.1495
  429MPD2    H3 6456   3.701   0.438  17.052  0.4829  1.3964 -1.1225
  429MPD2     N 6457   4.145   0.528  17.116  0.1641  0.0416  0.4070
  429MPD2    H5 6458   4.229   0.498  17.164  0.4789  0.2513 -0.0152
  429MPD2    N1 6459   3.952   0.120  17.258  0.3431  0.2367 -0.3723
  429MPD2    H7 6460   4.039   0.113  17.311 -0.4521  2.3726  1.2294
  430TMC3    C1 6461   4.295   0.711  17.073  0.2299 -0.0397  0.6098
  430TMC3    C2 6462   4.303   0.842  17.029  0.5504 -0.9487 -0.3259
  430TMC3    C3 6463   4.404   0.866  16.932 -0.1359 -0.0031  0.3244
  430TMC3    C4 6464   4.400   0.624  17.044 -0.9505  0.1495  0.0543
  430TMC3    C5 6465   4.508   0.659  16.968 -0.7698  0.1058 -0.4702
  430TMC3    C6 6466   4.506   0.782  16.907  0.4409  0.1858 -0.4783
  430TMC3     C 6467   4.159   0.659  17.067  0.1105 -0.5672 -0.7395
  430TMC3     O 6468   4.081   0.729  17.004 -0.3278 -0.2159  0.4241
  430TMC3     H 6469   4.213   0.901  17.045  0.4209 -1.3372  0.3871
  430TMC3    H1 6470   4.388   0.517  17.040 -0.1384  0.0500  0.4810
  430TMC3    H2 6471   4.575   0.817  16.832  0.7986  0.6966  0.0835
  430TMC3    C7 6472   4.558   0.552  16.890 -0.5272  0.9119  0.9821
  430TMC3    C8 6473   4.358   0.928  16.810 -0.0241  0.4997 -0.3839
  430TMC3    O1 6474   4.598   0.459  16.959  0.2346 -0.0909  0.3121
  430TMC3    O2 6475   4.377   0.856  16.714  0.3720 -0.4799 -0.3115
  431MPD2     C 6476   0.126   0.098  11.675 -0.1557 -0.0504  0.2257
  431MPD2    C1 6477   0.109   0.045  11.798  1.2185  0.1328 -0.1622
  431MPD2    C2 6478   0.141   4.650  11.816  0.3270  0.7921 -0.2517
  431MPD2    C3 6479   0.189   4.563  11.722 -0.5083  0.3380  0.3836
  431MPD2    C4 6480   0.200   4.619  11.593 -0.2361 -0.0073 -0.6017
  431MPD2    C5 6481   0.163   0.013  11.573  0.1278  0.0756  0.0979
  431MPD2     H 6482   0.132   4.621  11.920 -1.4510  0.5807 -0.4639
  431MPD2    H1 6483   0.226   4.566  11.502 -1.2261  1.3240 -1.6649
  431MPD2    H2 6484   0.111   0.204  11.658  0.8173  0.4633  2.5000
  431MPD2    H3 6485   0.174   0.057  11.474  0.8712 -3.6485 -1.4843
  431MPD2     N 6486   0.218   4.427  11.746  0.2974  0.6636 -0.3027
  431MPD2    H5 6487   0.258   4.372  11.670 -1.6074 -0.4357 -0.5187
  431MPD2    N1 6488   0.062   0.138  11.900 -0.5608 -0.4364 -0.1459
  431MPD2    H7 6489   0.043   0.233  11.872 -2.4743 -0.8923 -0.4139
  432TMC3    C1 6490   0.240   4.232  11.863  0.3245  0.3725  0.1607
  432TMC3    C2 6491   0.369   4.207  11.824 -0.4302 -0.1211 -0.1526
  432TMC3    C3 6492   0.434   4.093  11.874  0.0059  0.4127  0.2019
  432TMC3    C4 6493   0.188   4.154  11.960  0.2182  0.2593  0.7697
  432TMC3    C5 6494   0.258   4.052  12.019  0.8531  0.8754 -0.2121
  432TMC3    C6 6495   0.376   4.010  11.964  0.0846 -1.2471 -0.4629
  432TMC3     C 6496   0.188   4.363  11.862 -0.5057  0.7625  0.3385
  432TMC3     O 6497   0.123   4.406  11.958  0.1574  0.2736  0.5272
  432TMC3     H 6498   0.421   4.278  11.761 -0.2722  1.6087  1.9334
  432TMC3    H1 6499   0.098   4.188  12.010  0.5355  0.5464  1.1501
  432TMC3    H2 6500   0.423   3.918  11.996  2.1405 -0.3487 -0.8950
  432TMC3    C7 6501   0.210   3.976  12.144  0.5208  0.4703 -0.0156
  432TMC3    C8 6502   0.572   4.076  11.848 -0.3076 -0.8609 -0.5566
  432TMC3    O1 6503   0.274   3.874  12.168  0.1345  0.5525 -0.0281
  432TMC3    O2 6504   0.614   3.962  11.831  0.3189  0.3140 -0.0675
  433MPD2     C 6505   3.729   4.096  10.603  0.0558  0.3550  0.1024
  433MPD2    C1 6506   3.655   3.979  10.605  0.2312 -1.3064 -0.0681
  433MPD2    C2 6507   3.593   3.945  10.724 -0.4350 -0.5970  0.6466
  433MPD2    C3 6508   3.607   4.026  10.839  0.3075  0.2141 -0.0025
  433MPD2    C4 6509   3.674   4.143  10.827 -0.5787 -0.1422 -0.0915
  433MPD2    C5 6510   3.736   4.176  10.713  0.2965 -0.3100 -0.2176
  433MPD2     H 6511   3.539   3.851  10.728  1.4421 -1.7043 -0.2247
  433MPD2    H1 6512   3.682   4.218  10.905  2.4638  2.6456 -3.0636
  433MPD2    H2 6513   3.788   4.125  10.516  0.0177  0.3730  0.0829
  433MPD2    H3 6514   3.786   4.272  10.714 -1.2416  0.4810  1.7006
  433MPD2     N 6515   3.549   3.979  10.960  0.4749  0.2933  0.1332
  433MPD2    H5 6516   3.502   3.890  10.967  0.1840  0.4302 -0.1006
  433MPD2    N1 6517   3.634   3.893  10.496  0.0528  0.1571  0.4694
  433MPD2    H7 6518   3.561   3.823  10.507 -0.8951  0.9805 -0.5186
  434TMC3    C1 6519   3.727   3.754  10.328  0.4961  0.0342 -0.1033
  434TMC3    C2 6520   3.822   3.676  10.389  0.5820 -0.2781  0.2421
  434TMC3    C3 6521   3.790   3.546  10.407 -0.3262 -0.0803 -0.0595
  434TMC3    C4 6522   3.611   3.694  10.289  0.2170  0.0764 -0.1541
  434TMC3    C5 6523   3.591   3.565  10.291 -0.2190 -0.0101  0.9248
  434TMC3    C6 6524   3.685   3.480  10.351  0.8709  0.1783  0.2259
  434TMC3     C 6525   3.717   3.888  10.381 -0.5304 -0.1893  0.4788
  434TMC3     O 6526   3.804   3.962  10.340  0.0774 -0.4477 -0.0399
  434TMC3     H 6527   3.905   3.730  10.431  0.2301 -0.6694  1.4196
  434TMC3    H1 6528   3.531   3.757  10.252  0.5881  1.2940  1.1345
  434TMC3    H2 6529   3.686   3.372  10.342  1.5314  0.3071 -1.2417
  434TMC3    C7 6530   3.483   3.508  10.212  0.4563 -0.3462 -0.1044
  434TMC3    C8 6531   3.864   3.466  10.504  0.1917 -0.3696  0.2980
  434TMC3    O1 6532   3.421   3.570  10.131  0.1043 -0.2105 -0.7855
  434TMC3    O2 6533   3.799   3.381  10.560  0.5353  0.2701  0.6332
  435MPD2     C 6534   1.169   3.359  15.630 -0.5389 -0.1559  0.2427
  435MPD2    C1 6535   1.090   3.308  15.730 -0.0909 -0.0268  0.4469
  435MPD2    C2 6536   1.148   3.213  15.808 -0.6515 -0.4419 -0.2039
  435MPD2    C3 6537   1.275   3.166  15.786 -0.5676 -0.3823  0.1965
  435MPD2    C4 6538   1.348   3.224  15.689  0.5737 -0.6859 -0.0005
  435MPD2    C5 6539   1.302   3.321  15.615  0.2413  0.0532 -0.0259
  435MPD2     H 6540   1.086   3.172  15.886 -1.0102 -0.3385 -0.4346
  435MPD2    H1 6541   1.452   3.195  15.678  0.5818 -0.8091  0.3792
  435MPD2    H2 6542   1.123   3.423  15.555 -1.0147 -1.8336 -0.9135
  435MPD2    H3 6543   1.354   3.362  15.529 -1.3808  0.7897 -0.6570
  435MPD2     N 6544   1.315   3.058  15.867 -0.3112 -0.5127  0.5960
  435MPD2    H5 6545   1.244   3.012  15.922 -0.4581  0.2405  1.0358
  435MPD2    N1 6546   0.954   3.352  15.743 -0.1928 -0.5620 -0.1008
  435MPD2    H7 6547   0.909   3.303  15.819 -1.0809 -1.5324 -1.2439
  436TMC3    C1 6548   0.634   3.571  15.894  0.4677 -0.2262  0.5916
  436TMC3    C2 6549   0.734   3.574  15.798  0.4365  0.7557  0.0089
  436TMC3    C3 6550   0.758   3.463  15.721 -0.2746  1.0075  0.5041
  436TMC3    C4 6551   0.559   3.457  15.908  0.3701  0.5507 -0.5572
  436TMC3    C5 6552   0.595   3.351  15.833 -0.0891  0.1926  0.9204
  436TMC3    C6 6553   0.701   3.344  15.746 -0.7295 -0.6157  0.1498
  436TMC3     C 6554   0.626   3.688  15.984 -0.5239 -0.1587  0.2370
  436TMC3     O 6555   0.696   3.779  15.955 -0.2228 -0.2765  0.5309
  436TMC3     H 6556   0.792   3.661  15.770  2.8138 -0.6934  0.4897
  436TMC3    H1 6557   0.466   3.458  15.964  0.5965  0.3839 -0.1783
  436TMC3    H2 6558   0.719   3.267  15.672  0.7114 -0.0672 -0.0580
  436TMC3    C7 6559   0.505   3.243  15.836 -0.0462 -0.4148 -0.3852
  436TMC3    C8 6560   0.896   3.462  15.685  0.3032 -0.1453  0.0134
  436TMC3    O1 6561   0.382   3.258  15.843  0.7595  0.5482 -0.4551
  436TMC3    O2 6562   0.955   3.550  15.623 -0.0832  0.4896  0.4248
  437TMC3    C1 6563   4.378   0.917  12.374 -0.0558 -0.2799 -0.6417
  437TMC3    C2 6564   4.304   1.023  12.421 -0.0245 -0.1153  0.0224
  437TMC3    C3 6565   4.321   1.147  12.370 -0.7608  0.0553 -0.2525
  437TMC3    C4 6566   4.469   0.930  12.271  0.5163  0.3550  0.3541
  437TMC3    C5 6567   4.489   1.056  12.228 -0.7184 -0.0557  0.1995
  437TMC3    C6 6568   4.414   1.166  12.263  0.3567  0.0373 -0.4068
  437TMC3     C 6569   4.347   0.791  12.428  0.5820 -0.2915 -0.1312
  437TMC3     O 6570   4.292   0.789  12.538  0.0425  0.0639  0.2671
  437TMC3     H 6571   4.237   0.989  12.499  1.5429  0.4705  1.6218
  437TMC3    H1 6572   4.525   0.844  12.235 -0.8608 -0.2450 -0.3487
  437TMC3    H2 6573   4.439   1.268  12.235  0.8423  0.0553  0.0869
  437TMC3    C7 6574   4.623   1.081  12.174  0.0801  0.1272  0.1434
  437TMC3    C8 6575   4.265   1.261  12.430 -0.0996 -0.0713  0.1412
  437TMC3    O1 6576   4.641   1.171  12.090 -0.0381  0.2518 -0.4855
  437TMC3    O2 6577   4.270   1.357  12.359 -0.1561 -0.2069 -0.0357
  438MPD2     C 6578   1.911   1.811  16.723 -0.0953  0.2034  0.4616
  438MPD2    C1 6579   1.954   1.689  16.768 -0.6333 -0.6864 -0.3174
  438MPD2    C2 6580   1.930   1.658  16.902 -0.2946 -0.0509  0.0719
  438MPD2    C3 6581   1.846   1.740  16.979  0.1343 -0.0209  0.2784
  438MPD2    C4 6582   1.820   1.868  16.938 -0.0608 -0.3607 -0.1151
  438MPD2    C5 6583   1.863   1.904  16.810 -0.1677 -0.5139 -0.2190
  438MPD2     H 6584   1.960   1.561  16.940 -2.8451 -1.0162 -0.3082
  438MPD2    H1 6585   1.757   1.924  17.007 -1.2239  0.5621 -1.9197
  438MPD2    H2 6586   1.928   1.859  16.627 -1.1629  0.5851  0.4695
  438MPD2    H3 6587   1.845   2.008  16.788  0.1568 -0.5433 -0.6336
  438MPD2     N 6588   1.802   1.694  17.108 -0.3246 -0.1327  0.0295
  438MPD2    H5 6589   1.737   1.751  17.160  1.5702  1.4229  0.7201
  438MPD2    N1 6590   2.015   1.585  16.691 -0.2242 -0.2689 -0.2109
  438MPD2    H7 6591   2.029   1.495  16.735 -1.1949 -0.0373  0.5546
  439TMC3    C1 6592   2.105   1.483  16.495 -0.2933 -0.3145 -0.9429
  439TMC3    C2 6593   2.116   1.475  16.354  0.6295 -0.0991 -0.2422
  439TMC3    C3 6594   2.221   1.404  16.305 -0.3483 -0.2079 -0.4746
  439TMC3    C4 6595   2.174   1.397  16.572  0.4531  1.1207 -0.6392
  439TMC3    C5 6596   2.268   1.322  16.509 -0.0514 -0.3366 -0.9976
  439TMC3    C6 6597   2.297   1.323  16.376 -0.1219  0.1803 -0.0581
  439TMC3     C 6598   2.041   1.596  16.554  0.0460 -0.3849  0.2779
  439TMC3     O 6599   2.011   1.688  16.484  0.4072  0.5124 -0.5874
  439TMC3     H 6600   2.058   1.543  16.292 -0.8931 -0.2149  1.0466
  439TMC3    H1 6601   2.163   1.403  16.680  1.7375  2.9242 -0.6085
  439TMC3    H2 6602   2.375   1.266  16.328  1.2778  0.9736  1.2532
  439TMC3    C7 6603   2.320   1.209  16.584  0.3819  0.0399 -0.0510
  439TMC3    C8 6604   2.252   1.425  16.164 -0.2439 -0.5312  0.0152
  439TMC3    O1 6605   2.421   1.153  16.544 -0.5648 -0.0241 -0.1216
  439TMC3    O2 6606   2.360   1.379  16.130 -0.4306 -0.6030 -0.2634
  440MPD2     C 6607   0.528   1.811  14.991  0.1712 -0.1653  0.0748
  440MPD2    C1 6608   0.615   1.851  15.082  0.6328 -0.1738 -0.2774
  440MPD2    C2 6609   0.697   1.755  15.141 -0.8221  0.4255 -0.0185
  440MPD2    C3 6610   0.688   1.621  15.108  0.2824 -0.2617 -0.2182
  440MPD2    C4 6611   0.601   1.584  15.013 -0.2113 -0.1308  0.1565
  440MPD2    C5 6612   0.523   1.681  14.959  1.0266 -0.0099 -0.3209
  440MPD2     H 6613   0.768   1.785  15.217 -1.8310  1.4453  0.5111
  440MPD2    H1 6614   0.596   1.479  14.989 -0.4929 -0.4122  1.4364
  440MPD2    H2 6615   0.445   1.869  14.951  0.5900  1.3635  1.3991
  440MPD2    H3 6616   0.438   1.642  14.905  0.7186 -0.8106  0.7358
  440MPD2     N 6617   0.767   1.521  15.167 -0.2328 -0.1355  0.3270
  440MPD2    H5 6618   0.752   1.424  15.140 -0.7378  0.2991 -0.9649
  440MPD2    N1 6619   0.623   1.986  15.129  0.1210  0.2692  0.2453
  440MPD2    H7 6620   0.689   2.013  15.201 -1.4199  0.8466  1.4423
  441TMC3    C1 6621   0.969   1.434  15.258  0.5245  0.8283 -0.8908
  441TMC3    C2 6622   1.092   1.481  15.307 -0.2368 -0.7683  0.0690
  441TMC3    C3 6623   1.127   1.449  15.430 -0.4025  0.0630 -0.2239
  441TMC3    C4 6624   0.897   1.335  15.330 -0.0520 -0.2107 -0.0497
  441TMC3    C5 6625   0.948   1.301  15.455  0.2129  0.5270 -0.2628
  441TMC3    C6 6626   1.060   1.364  15.514  0.2596  0.3186 -0.6816
  441TMC3     C 6627   0.879   1.544  15.247 -0.4192 -0.0480  0.7136
  441TMC3     O 6628   0.921   1.646  15.300  1.0869 -0.2845 -0.7255
  441TMC3     H 6629   1.147   1.544  15.238 -0.8206 -0.7935 -0.4206
  441TMC3    H1 6630   0.807   1.285  15.297  1.1842 -2.4975  0.0320
  441TMC3    H2 6631   1.093   1.352  15.617 -1.4438  0.3537 -0.1234
  441TMC3    C7 6632   0.910   1.184  15.518 -0.2462 -0.0379  0.3316
  441TMC3    C8 6633   1.225   1.529  15.489  0.8006  0.2623 -0.5255
  441TMC3    O1 6634   0.791   1.156  15.524 -0.2424  0.1766  0.2175
  441TMC3    O2 6635   1.310   1.473  15.552  0.7878 -0.0631  0.1562
  442MPD2     C 6636   3.816   2.541  16.289  0.5186 -0.0971 -0.5997
  442MPD2    C1 6637   3.720   2.464  16.339  0.3569  0.7871  0.0163
  442MPD2    C2 6638   3.723   2.325  16.325  0.2545  0.1808 -0.2167
  442MPD2    C3 6639   3.815   2.259  16.243  0.1055  0.5004  0.1471
  442MPD2    C4 6640   3.911   2.343  16.191  0.8088 -0.8330 -0.5841
  442MPD2    C5 6641   3.903   2.483  16.203  0.4836  0.0915  0.5119
  442MPD2     H 6642   3.636   2.273  16.363 -0.0932  0.7463 -0.2479
  442MPD2    H1 6643   3.990   2.305  16.126  2.2524 -0.2067  0.8132
  442MPD2    H2 6644   3.828   2.647  16.306  3.9323 -0.3275 -1.5186
  442MPD2    H3 6645   3.984   2.548  16.173 -0.1612  1.2842  1.3716
  442MPD2     N 6646   3.832   2.124  16.205  0.4470 -0.4951 -0.2285
  442MPD2    H5 6647   3.899   2.104  16.132 -1.3185  1.0778 -2.3142
  442MPD2    N1 6648   3.619   2.524  16.416  0.5036  0.5769  0.0980
  442MPD2    H7 6649   3.538   2.468  16.437  0.0967  1.3098  0.4783
  443TMC3    C1 6650   3.501   2.691  16.534  0.7601  0.5979  0.5204
  443TMC3    C2 6651   3.452   2.813  16.500  0.0980 -0.3436 -0.0683
  443TMC3    C3 6652   3.330   2.861  16.544 -0.6397  0.6922 -0.2942
  443TMC3    C4 6653   3.421   2.605  16.602  0.0730 -0.4873  0.1231
  443TMC3    C5 6654   3.307   2.657  16.659  0.1302 -0.0106 -0.0792
  443TMC3    C6 6655   3.253   2.778  16.623 -0.2357  0.0858 -0.4936
  443TMC3     C 6656   3.628   2.647  16.476 -1.0547  0.6599 -0.3841
  443TMC3     O 6657   3.711   2.737  16.463 -0.0019  0.1660  0.5410
  443TMC3     H 6658   3.509   2.875  16.432  1.7370 -0.0335  1.6090
  443TMC3    H1 6659   3.468   2.515  16.641  0.3547 -1.3619 -2.1721
  443TMC3    H2 6660   3.151   2.803  16.648  0.5902  1.6141  1.2878
  443TMC3    C7 6661   3.224   2.565  16.735  0.0771 -0.9987 -0.6535
  443TMC3    C8 6662   3.265   2.979  16.477 -0.8871  0.1348  0.1808
  443TMC3    O1 6663   3.254   2.447  16.722 -0.0014 -0.1731 -0.0983
  443TMC3    O2 6664   3.191   3.045  16.551 -0.0956  0.1152  0.3577
  444MPD2     C 6665   3.808   1.855  17.084  1.0085 -0.0477  0.2972
  444MPD2    C1 6666   3.727   1.768  17.019 -0.4060  0.1609  0.7046
  444MPD2    C2 6667   3.782   1.684  16.925 -1.3576 -0.4982 -0.6994
  444MPD2    C3 6668   3.913   1.679  16.905 -0.4592  0.5403 -0.7285
  444MPD2    C4 6669   4.000   1.763  16.975 -0.6975  0.2975 -0.0434
  444MPD2    C5 6670   3.942   1.854  17.064 -0.0691 -0.0174  0.5912
  444MPD2     H 6671   3.724   1.611  16.869 -0.3132 -1.7757 -0.1220
  444MPD2    H1 6672   4.106   1.762  16.955 -1.0853 -1.5411 -2.0252
  444MPD2    H2 6673   3.770   1.927  17.157 -0.3563 -0.4947  0.0403
  444MPD2    H3 6674   4.000   1.920  17.127 -1.6325  0.8487  1.1163
  444MPD2     N 6675   3.960   1.586  16.805  0.5294 -0.0858  0.5983
  444MPD2    H5 6676   3.885   1.538  16.757  0.6596  1.1736 -0.8745
  444MPD2    N1 6677   3.589   1.755  17.041 -0.3258  0.0453  0.8309
  444MPD2    H7 6678   3.541   1.683  16.988 -0.2716  1.4433 -1.0828
  445TMC3    C1 6679   4.123   1.481  16.659 -0.2018  0.5096  0.0948
  445TMC3    C2 6680   4.034   1.462  16.561 -0.2126  0.7551 -0.1562
  445TMC3    C3 6681   4.062   1.361  16.467  0.1027 -0.1886 -0.3034
  445TMC3    C4 6682   4.245   1.425  16.647  0.0132 -0.3356 -0.6082
  445TMC3    C5 6683   4.271   1.332  16.554 -0.2872 -0.0778  0.4441
  445TMC3    C6 6684   4.181   1.304  16.453 -0.2570 -0.0488 -0.3345
  445TMC3     C 6685   4.092   1.560  16.781  0.2256  0.7552 -0.6986
  445TMC3     O 6686   4.187   1.575  16.859  0.3170 -0.1623  0.3102
  445TMC3     H 6687   3.937   1.510  16.570  0.0896  0.8484  2.7333
  445TMC3    H1 6688   4.306   1.452  16.732 -0.6395  0.2538 -0.3250
  445TMC3    H2 6689   4.208   1.224  16.385  0.1756  1.6277 -2.1243
  445TMC3    C7 6690   4.372   1.231  16.574 -0.6446  0.5430  0.0134
  445TMC3    C8 6691   3.956   1.333  16.371  0.5510  1.0340 -0.6758
  445TMC3    O1 6692   4.402   1.159  16.479  0.1216  0.1493  0.1680
  445TMC3    O2 6693   3.864   1.412  16.375  0.1038 -0.5644  0.0428
  446MPD2     C 6694   3.512   2.998  10.870 -0.3982  0.3446  0.2573
  446MPD2    C1 6695   3.455   3.101  10.802 -0.6440 -0.2874  0.2528
  446MPD2    C2 6696   3.498   3.233  10.823 -0.4491  0.5654 -0.1206
  446MPD2    C3 6697   3.620   3.261  10.888  0.3015  0.3922  0.9511
  446MPD2    C4 6698   3.679   3.153  10.955 -0.8558 -0.0752  0.0254
  446MPD2    C5 6699   3.617   3.031  10.957 -0.4906 -0.5875 -0.0699
  446MPD2     H 6700   3.464   3.308  10.752 -0.0263  0.4860 -0.4058
  446MPD2    H1 6701   3.771   3.162  11.011 -1.6158  2.3227  0.8858
  446MPD2    H2 6702   3.471   2.898  10.867 -1.3970  0.6594  3.3281
  446MPD2    H3 6703   3.658   2.957  11.024 -0.4997  0.5350  1.1645
  446MPD2     N 6704   3.667   3.397  10.898  0.0205  0.1735  0.1502
  446MPD2    H5 6705   3.621   3.474  10.850  0.1709  0.8029  1.0257
  446MPD2    N1 6706   3.349   3.063  10.714 -0.2051 -0.0059 -0.4404
  446MPD2    H7 6707   3.311   2.969  10.715  1.0650 -0.5269 -2.1332
  447TMC3    C1 6708   3.815   3.567  10.981 -0.1517  1.0474  0.3998
  447TMC3    C2 6709   3.862   3.604  10.862  0.2142 -0.7310 -0.6522
  447TMC3    C3 6710   3.973   3.690  10.862  0.7232  0.0803 -0.0085
  447TMC3    C4 6711   3.883   3.603  11.100 -0.9522 -0.5659 -0.1408
  447TMC3    C5 6712   4.003   3.665  11.093  1.4947 -0.0931  0.8558
  447TMC3    C6 6713   4.042   3.718  10.974  0.4712  0.1820  0.2808
  447TMC3     C 6714   3.770   3.430  10.984 -0.4169 -0.0313 -0.5423
  447TMC3     O 6715   3.826   3.362  11.067 -0.5875  0.3483  0.6916
  447TMC3     H 6716   3.815   3.567  10.772 -2.2272 -1.1804  0.8152
  447TMC3    H1 6717   3.835   3.564  11.189 -0.8181  1.1374  0.6812
  447TMC3    H2 6718   4.134   3.774  10.968  0.6268 -0.0874  0.1671
  447TMC3    C7 6719   4.108   3.606  11.172 -0.4994  0.1743 -0.2636
  447TMC3    C8 6720   3.992   3.760  10.740 -0.1385  0.6379 -0.1767
  447TMC3    O1 6721   4.221   3.630  11.131 -0.1869  0.1600  0.0473
  447TMC3    O2 6722   3.900   3.760  10.666  0.2862 -0.5043 -0.2788
  448TMC3    C1 6723   2.069   2.827  16.963  0.0520 -0.2446  0.2268
  448TMC3    C2 6724   2.040   2.712  16.892 -0.6504  1.2349 -0.2768
  448TMC3    C3 6725   2.033   2.589  16.958  0.2901 -0.2984  0.3010
  448TMC3    C4 6726   2.118   2.817  17.091 -0.6681 -0.8559  0.0574
  448TMC3    C5 6727   2.124   2.697  17.145  0.3714  0.4947  0.1919
  448TMC3    C6 6728   2.087   2.581  17.081  0.0116  0.8411 -0.1050
  448TMC3     C 6729   2.088   2.944  16.876 -0.1637 -0.3991  1.0144
  448TMC3     O 6730   2.019   2.960  16.774 -0.6295 -0.0195 -0.1533
  448TMC3     H 6731   1.999   2.734  16.794 -0.0025 -1.7786 -1.2205
  448TMC3    H1 6732   2.141   2.909  17.143 -1.3776 -1.1824  0.9601
  448TMC3    H2 6733   2.085   2.489  17.139  1.3402 -0.0490 -1.4579
  448TMC3    C7 6734   2.192   2.677  17.271  0.2386  0.0020  0.3982
  448TMC3    C8 6735   2.011   2.471  16.877  0.4758 -0.3237 -0.2678
  448TMC3    O1 6736   2.266   2.768  17.305 -0.1293  0.2399  0.5877
  448TMC3    O2 6737   2.065   2.369  16.918 -0.7564  0.4484  0.3910
  449MPD2     C 6738   3.459   1.557  13.651  1.1989 -0.5363  0.6247
  449MPD2    C1 6739   3.392   1.626  13.555 -0.1988 -0.0011  0.6353
  449MPD2    C2 6740   3.268   1.685  13.581 -0.0752  0.3581  0.4588
  449MPD2    C3 6741   3.210   1.682  13.706 -0.6380 -0.4029 -0.4996
  449MPD2    C4 6742   3.281   1.611  13.804 -0.4217 -0.5319  0.5698
  449MPD2    C5 6743   3.397   1.551  13.776 -0.3762  0.8728  0.1203
  449MPD2     H 6744   3.215   1.729  13.497  0.0585 -0.5937 -0.1347
  449MPD2    H1 6745   3.246   1.605  13.906 -2.9734  3.4298 -0.0589
  449MPD2    H2 6746   3.559   1.517  13.641  0.4949 -2.0943 -0.1430
  449MPD2    H3 6747   3.438   1.492  13.857 -1.6135  0.1401  0.2174
  449MPD2     N 6748   3.082   1.739  13.722  0.3049 -0.5085 -0.7225
  449MPD2    H5 6749   3.041   1.778  13.638  1.2058 -1.5091 -1.6336
  449MPD2    N1 6750   3.434   1.656  13.419  0.9361 -0.3208  0.0396
  449MPD2    H7 6751   3.367   1.707  13.363 -0.9969 -1.7267  1.0987
  450TMC3    C1 6752   3.558   1.680  13.233  0.3112 -0.3686 -0.3134
  450TMC3    C2 6753   3.563   1.584  13.141  0.0393  0.1378  1.2608
  450TMC3    C3 6754   3.498   1.600  13.023 -0.1490 -0.2076 -0.4455
  450TMC3    C4 6755   3.483   1.794  13.222 -0.3566  0.2259  0.5497
  450TMC3    C5 6756   3.412   1.809  13.105 -0.4499 -0.1144  0.2181
  450TMC3    C6 6757   3.419   1.713  13.007  0.1880  0.2720  0.6583
  450TMC3     C 6758   3.561   1.625  13.365 -0.7239 -0.4371  0.3569
  450TMC3     O 6759   3.637   1.536  13.402  0.3716 -0.4123 -0.0640
  450TMC3     H 6760   3.617   1.494  13.168 -0.4281 -0.1587  1.2096
  450TMC3    H1 6761   3.482   1.867  13.301 -2.5594 -0.2063  0.9403
  450TMC3    H2 6762   3.368   1.733  12.914  0.0305  0.3798  0.7671
  450TMC3    C7 6763   3.279   1.848  13.152 -0.0595  0.4571  0.1322
  450TMC3    C8 6764   3.496   1.486  12.921  0.1451  0.0801  0.2517
  450TMC3    O1 6765   3.266   1.847  13.272 -0.1748  0.0329 -0.0455
  450TMC3    O2 6766   3.406   1.488  12.838  0.1131  0.2462  0.2569
  451MPD2     C 6767   0.383   0.172   0.842  0.4777 -0.0338  0.6168
  451MPD2    C1 6768   0.294   0.086   0.788 -0.5879  0.4052  0.0058
  451MPD2    C2 6769   0.347   4.705   0.731 -0.4343  0.1687  0.5892
  451MPD2    C3 6770   0.485   4.691   0.705  0.1930 -0.4259 -0.0560
  451MPD2    C4 6771   0.567   0.054   0.744 -0.3998  0.1463  0.0188
  451MPD2    C5 6772   0.522   0.146   0.827 -0.5495  0.2030  0.4694
  451MPD2     H 6773   0.276   4.633   0.693 -0.7005  0.9619 -0.4051
  451MPD2    H1 6774   0.669   0.064   0.710 -0.6655 -0.0285 -0.8259
  451MPD2    H2 6775   0.349   0.257   0.900  0.5657  2.1032 -2.5043
  451MPD2    H3 6776   0.598   0.215   0.862 -0.5092  0.0030  0.7820
  451MPD2     N 6777   0.538   4.585   0.629  0.5062  0.0861 -0.5137
  451MPD2    H5 6778   0.629   4.599   0.584  0.8393  0.8396  0.3984
  451MPD2    N1 6779   0.155   0.102   0.815 -0.1688 -0.2974  0.1918
  451MPD2    H7 6780   0.122   0.170   0.882  0.6429  0.3487 -0.0579
  452TMC3    C1 6781   0.558   4.367   0.543 -0.6748  0.4660 -0.3504
  452TMC3    C2 6782   0.530   4.234   0.562 -0.3306  0.8237  0.1892
  452TMC3    C3 6783   0.575   4.145   0.469 -0.5824 -0.3742 -0.2049
  452TMC3    C4 6784   0.636   4.415   0.442  0.5190 -0.0738 -0.2798
  452TMC3    C5 6785   0.671   4.327   0.348 -0.4577 -0.1906 -0.1334
  452TMC3    C6 6786   0.649   4.190   0.361 -0.1563  0.7812 -0.2689
  452TMC3     C 6787   0.481   4.455   0.623  0.0465  0.6297 -0.8172
  452TMC3     O 6788   0.388   4.407   0.694  0.4385 -0.6442  0.3121
  452TMC3     H 6789   0.463   4.194   0.637 -0.9479  1.2863 -0.1191
  452TMC3    H1 6790   0.666   4.519   0.429 -0.5140  0.2492 -0.0581
  452TMC3    H2 6791   0.693   4.122   0.288 -0.8105  0.8751 -0.7527
  452TMC3    C7 6792   0.713   4.364   0.219 -0.5388  0.2531 -0.3536
  452TMC3    C8 6793   0.488   4.041   0.436 -0.2395  0.7340 -0.8753
  452TMC3    O1 6794   0.817   4.318   0.173  0.8737 -0.4235 -0.4642
  452TMC3    O2 6795   0.371   4.079   0.418 -0.4016 -0.3155 -0.0133
  453TMC3    C1 6796   1.113   2.325  12.179  0.0923  0.3429  0.7333
  453TMC3    C2 6797   1.028   2.235  12.238 -0.2768  0.0356  0.1658
  453TMC3    C3 6798   0.893   2.255  12.225  0.0911 -0.0464  0.1999
  453TMC3    C4 6799   1.065   2.433  12.116  0.9364  0.0451  0.3804
  453TMC3    C5 6800   0.934   2.452  12.103  0.1518 -0.4505  0.1566
  453TMC3    C6 6801   0.842   2.357  12.152 -0.2351  1.1379 -0.2515
  453TMC3     C 6802   1.254   2.295  12.148  0.6612 -0.5344 -0.2876
  453TMC3     O 6803   1.317   2.377  12.083  0.4278  0.0578  0.0690
  453TMC3     H 6804   1.060   2.166  12.315 -0.9924 -0.8149 -0.3050
  453TMC3    H1 6805   1.129   2.512  12.079 -0.0626  0.6076 -0.1599
  453TMC3    H2 6806   0.735   2.357  12.133 -0.7449  1.4931  2.5272
  453TMC3    C7 6807   0.884   2.585  12.081  0.4451 -0.0340 -0.4424
  453TMC3    C8 6808   0.809   2.148  12.270 -0.5106  0.6319  0.2039
  453TMC3    O1 6809   0.955   2.662  12.014  0.0488 -0.0318 -0.5238
  453TMC3    O2 6810   0.690   2.177  12.282 -0.1663  0.4276 -0.3616
  454MPD2     C 6811   0.031   1.293  16.243 -0.4625 -1.1399  0.4633
  454MPD2    C1 6812   0.002   1.385  16.143  0.2926 -0.1253 -0.5971
  454MPD2    C2 6813   4.690   1.509  16.182 -0.4324  0.3406 -0.2562
  454MPD2    C3 6814   4.652   1.539  16.309  0.4814  0.6772 -0.6748
  454MPD2    C4 6815   4.672   1.441  16.402 -0.2371 -0.5744 -0.2540
  454MPD2    C5 6816   4.727   1.322  16.371  0.1766 -0.8529  0.9912
  454MPD2     H 6817   4.664   1.572  16.098 -0.0503  1.1462  0.2292
  454MPD2    H1 6818   4.640   1.460  16.504  0.3077  0.8700 -0.3574
  454MPD2    H2 6819   0.073   1.197  16.215  2.1616  0.7025 -1.9604
  454MPD2    H3 6820   0.004   1.251  16.452  0.9590 -1.4517  0.3370
  454MPD2     N 6821   4.584   1.656  16.326  0.9220  0.3817 -0.3384
  454MPD2    H5 6822   4.586   1.724  16.251 -1.0131 -1.3004 -1.9202
  454MPD2    N1 6823   0.020   1.358  16.007  0.2010  0.3620 -1.3840
  454MPD2    H7 6824   0.019   1.439  15.945 -1.7404  0.7654 -0.8116
  455TMC3    C1 6825   4.400   1.776  16.401  0.8328  0.4524 -0.6998
  455TMC3    C2 6826   4.317   1.804  16.510 -0.0544 -0.2925 -0.0364
  455TMC3    C3 6827   4.180   1.788  16.497  0.6118  0.0199  0.0276
  455TMC3    C4 6828   4.346   1.744  16.285  0.1392  0.5743 -0.6243
  455TMC3    C5 6829   4.211   1.731  16.270 -0.6371  0.8503  0.0339
  455TMC3    C6 6830   4.123   1.760  16.374 -0.0818  0.0844  0.5441
  455TMC3     C 6831   4.521   1.699  16.437  0.5395 -0.6199  0.3077
  455TMC3     O 6832   4.506   1.647  16.547  0.2491 -0.1346  0.6846
  455TMC3     H 6833   4.375   1.812  16.602  0.4218  0.4886 -0.4044
  455TMC3    H1 6834   4.397   1.731  16.190  1.9006 -0.4944  0.4654
  455TMC3    H2 6835   4.017   1.742  16.365  0.4314 -2.8808  0.5067
  455TMC3    C7 6836   4.178   1.608  16.209 -0.0300 -0.4221  0.5533
  455TMC3    C8 6837   4.110   1.868  16.591 -0.6789 -0.5571 -0.1789
  455TMC3    O1 6838   4.066   1.575  16.181  0.2318 -0.1494 -0.1124
  455TMC3    O2 6839   4.192   1.922  16.666  0.1569  0.0186  0.3613
  456MPD2     C 6840   2.341   1.989  15.636  0.6190  0.2837  0.8795
  456MPD2    C1 6841   2.458   1.951  15.696 -0.4949  0.1836 -0.4583
  456MPD2    C2 6842   2.451   1.913  15.838  0.1409  0.2929  0.5775
  456MPD2    C3 6843   2.326   1.915  15.900  0.6685 -0.4413  0.5915
  456MPD2    C4 6844   2.212   1.959  15.831 -0.3855 -0.1241  0.3471
  456MPD2    C5 6845   2.226   2.004  15.701  0.0690  0.3281 -0.2723
  456MPD2     H 6846   2.532   1.876  15.899  0.5646 -1.9706 -1.3492
  456MPD2    H1 6847   2.114   1.978  15.874 -0.9007  0.8266 -1.2282
  456MPD2    H2 6848   2.337   2.016  15.531 -0.3308 -3.1644  0.0181
  456MPD2    H3 6849   2.142   2.050  15.649 -0.2444 -1.4456 -1.3334
  456MPD2     N 6850   2.320   1.879  16.033  0.1623  0.3556 -0.3297
  456MPD2    H5 6851   2.412   1.860  16.070  0.2646  0.2452 -0.6468
  456MPD2    N1 6852   2.573   1.945  15.618 -0.5179  0.5648 -0.2050
  456MPD2    H7 6853   2.566   1.976  15.522 -1.5468 -0.5082 -0.4779
  457TMC3    C1 6854   2.220   1.856  16.248  0.1876 -0.5142 -0.6769
  457TMC3    C2 6855   2.153   1.944  16.329 -0.0856 -0.1357  0.1123
  457TMC3    C3 6856   2.178   1.949  16.460 -0.5168 -0.0110 -0.0833
  457TMC3    C4 6857   2.320   1.781  16.296  0.5096  0.1549 -0.1325
  457TMC3    C5 6858   2.350   1.795  16.430  0.6728  0.1176 -0.1189
  457TMC3    C6 6859   2.286   1.886  16.515  0.3604  0.2148  0.7685
  457TMC3     C 6860   2.205   1.892  16.107 -0.1769 -0.0383  0.1221
  457TMC3     O 6861   2.097   1.944  16.080 -0.1423  0.3669 -0.3410
  457TMC3     H 6862   2.070   1.997  16.285  0.1175 -0.5498 -0.7702
  457TMC3    H1 6863   2.356   1.699  16.235 -0.6402 -0.2449 -0.2782
  457TMC3    H2 6864   2.319   1.907  16.616 -0.4647  0.7646  0.9213
  457TMC3    C7 6865   2.422   1.695  16.498  0.1038 -0.0960  0.2992
  457TMC3    C8 6866   2.123   2.053  16.543 -0.3444  1.5052  0.1949
  457TMC3    O1 6867   2.404   1.694  16.619  0.1345 -0.0526 -0.1505
  457TMC3    O2 6868   2.203   2.093  16.631 -0.1433 -0.5713 -0.3570
  458MPD2     C 6869   0.398   1.066  12.210 -0.0464  0.8487 -0.3982
  458MPD2    C1 6870   0.342   0.964  12.287  0.4562  0.0219  0.3971
  458MPD2    C2 6871   0.205   0.944  12.288 -0.8776  1.0018  0.7362
  458MPD2    C3 6872   0.120   1.009  12.202 -0.3488 -0.2979  0.1573
  458MPD2    C4 6873   0.183   1.094  12.110  0.1103 -0.2960  0.0658
  458MPD2    C5 6874   0.314   1.129  12.129  0.2965  0.5411  0.4541
  458MPD2     H 6875   0.157   0.881  12.362 -0.0376  0.8471  1.1517
  458MPD2    H1 6876   0.132   1.158  12.039 -1.8303 -1.8898  0.0271
  458MPD2    H2 6877   0.503   1.093  12.207 -0.5934  2.7402 -2.1104
  458MPD2    H3 6878   0.356   1.198  12.057 -1.3373  1.5389  0.4595
  458MPD2     N 6879   4.718   0.995  12.218  0.1371  0.5746 -0.3857
  458MPD2    H5 6880   4.680   0.932  12.288 -2.4733  1.3546 -1.1196
  458MPD2    N1 6881   0.423   0.894  12.377  0.0711  0.3332 -0.6578
  458MPD2    H7 6882   0.519   0.928  12.368  0.5573 -0.0506  3.1214
  459TMC3    C1 6883   0.456   0.752  12.569  0.1151 -0.2430 -0.2841
  459TMC3    C2 6884   0.549   0.847  12.608 -0.1557  0.4913  0.6661
  459TMC3    C3 6885   0.564   0.869  12.738  1.4121  0.2281 -0.6461
  459TMC3    C4 6886   0.366   0.694  12.656  0.0529  0.2139  0.0819
  459TMC3    C5 6887   0.385   0.720  12.786  0.0295 -0.6847 -0.0483
  459TMC3    C6 6888   0.485   0.804  12.831  0.6182 -0.2932 -0.1447
  459TMC3     C 6889   0.387   0.773  12.436  0.5755 -0.4534 -0.0806
  459TMC3     O 6890   0.291   0.703  12.407 -0.7271 -0.3644  0.6019
  459TMC3     H 6891   0.624   0.891  12.544 -0.5330 -1.3852 -1.0365
  459TMC3    H1 6892   0.296   0.623  12.614  0.7043 -0.7488  0.6266
  459TMC3    H2 6893   0.491   0.813  12.939 -1.3668  1.1813 -0.1520
  459TMC3    C7 6894   0.344   0.619  12.882  0.1263  0.2368  0.2528
  459TMC3    C8 6895   0.634   0.986  12.795 -0.1251  0.2686 -0.6966
  459TMC3    O1 6896   0.355   0.501  12.855  0.2520  0.1767  0.3922
  459TMC3    O2 6897   0.664   0.990  12.910  0.0788 -0.5107  0.1509
  460MPD2     C 6898   4.307   3.859  10.576  0.1090  0.0899  0.3935
  460MPD2    C1 6899   4.173   3.868  10.598 -0.3077 -0.4295  0.0324
  460MPD2    C2 6900   4.095   3.915  10.494 -0.2126 -0.4850 -0.2746
  460MPD2    C3 6901   4.153   3.980  10.387 -0.2823 -0.5264 -0.3110
  460MPD2    C4 6902   4.288   3.974  10.358  0.7754 -0.1274 -0.2840
  460MPD2    C5 6903   4.363   3.903  10.454  0.1614  0.7533  0.4525
  460MPD2     H 6904   3.987   3.920  10.504 -0.2575  1.1674 -1.6180
  460MPD2    H1 6905   4.331   4.015  10.267  0.3998 -1.9313 -1.2954
  460MPD2    H2 6906   4.380   3.810  10.641  0.3864 -0.2333 -0.1628
  460MPD2    H3 6907   4.468   3.884  10.435 -0.4303 -1.4454 -0.7025
  460MPD2     N 6908   4.063   4.044  10.295 -0.2000 -0.4235  0.6718
  460MPD2    H5 6909   3.965   4.019  10.308  0.2143 -1.8295  1.1258
  460MPD2    N1 6910   4.124   3.806  10.721  0.3850  0.4102  1.0716
  460MPD2    H7 6911   4.192   3.782  10.792  1.3483  2.1091  0.7269
  461TMC3    C1 6912   3.986   4.191  10.124 -0.6864 -0.3989  0.2484
  461TMC3    C2 6913   3.906   4.095  10.063  0.3367  0.5519  0.4694
  461TMC3    C3 6914   3.867   4.125   9.935 -0.2848  1.1798  0.1663
  461TMC3    C4 6915   4.007   4.318  10.081 -0.1862 -0.7496 -0.3060
  461TMC3    C5 6916   3.957   4.338   9.961  0.0210 -0.5988  0.2120
  461TMC3    C6 6917   3.900   4.244   9.878 -0.0691 -0.7074 -0.8483
  461TMC3     C 6918   4.092   4.153  10.219 -0.3541  0.1690 -0.5782
  461TMC3     O 6919   4.184   4.233  10.240 -0.3744  0.7705  0.1542
  461TMC3     H 6920   3.922   3.993  10.096  0.6313  0.9588  1.5706
  461TMC3    H1 6921   4.064   4.391  10.138 -0.1950  0.7154 -2.1536
  461TMC3    H2 6922   3.892   4.261   9.771  1.5301 -1.7873 -1.1228
  461TMC3    C7 6923   3.953   4.476   9.913 -0.3875  0.3327 -0.3123
  461TMC3    C8 6924   3.886   4.008   9.851 -0.5957  0.2205 -0.0727
  461TMC3    O1 6925   4.019   4.555   9.982  0.8199  0.1607 -0.4478
  461TMC3    O2 6926   3.959   3.919   9.888 -0.3365 -0.0863  0.9155
  462TMC3    C1 6927   3.721   4.564  17.686  0.5161  0.2721  0.1718
  462TMC3    C2 6928   3.835   4.517   0.001 -0.5481  0.5403 -0.1231
  462TMC3    C3 6929   3.819   4.393   0.066 -0.3424  0.1809 -0.1511
  462TMC3    C4 6930   3.597   4.502  17.685 -0.4053 -0.3547 -0.3618
  462TMC3    C5 6931   3.599   4.378  17.744  0.3519  0.1375 -0.6548
  462TMC3    C6 6932   3.701   4.332   0.074 -0.3443  0.5145 -0.4929
  462TMC3     C 6933   3.722   4.704  17.638  0.0133 -0.3222  0.5151
  462TMC3     O 6934   3.810   0.035  17.686  0.0384  0.2893 -0.5490
  462TMC3     H 6935   3.923   4.579   0.007  0.5363 -1.0342  0.3630
  462TMC3    H1 6936   3.509   4.550  17.643 -1.6147 -0.4728  2.0599
  462TMC3    H2 6937   3.716   4.227   0.095  2.4645  0.9240 -0.3440
  462TMC3    C7 6938   3.489   4.287  17.717  0.4524 -0.0666 -0.1170
  462TMC3    C8 6939   3.938   4.315   0.059 -0.5533 -0.8183 -0.4048
  462TMC3    O1 6940   3.483   4.194   0.051  0.6997  0.4846 -0.7710
  462TMC3    O2 6941   4.015   4.327  17.708  0.1827 -0.4026  0.2663
  463MPD2     C 6942   0.866   2.036   1.100 -0.1664 -0.4004  0.1464
  463MPD2    C1 6943   0.811   2.159   1.125 -0.3322  0.0261  0.3898
  463MPD2    C2 6944   0.895   2.265   1.162  0.3852  0.2061 -0.8423
  463MPD2    C3 6945   1.028   2.241   1.185  0.0692  0.3375 -0.2167
  463MPD2    C4 6946   1.086   2.117   1.169  0.1845  0.0512 -0.3951
  463MPD2    C5 6947   1.003   2.022   1.116 -0.9437  0.3336  0.8854
  463MPD2     H 6948   0.853   2.364   1.180  0.9249  0.1877  0.5404
  463MPD2    H1 6949   1.193   2.098   1.163  0.1009 -0.9239  1.1827
  463MPD2    H2 6950   0.804   1.955   1.063 -1.9271  0.7253  0.6343
  463MPD2    H3 6951   1.047   1.933   1.073 -2.2335  0.7940 -1.4015
  463MPD2     N 6952   1.121   2.341   1.225 -0.3767 -0.7848 -0.6114
  463MPD2    H5 6953   1.195   2.306   1.284  1.0043  0.1431 -1.7757
  463MPD2    N1 6954   0.675   2.188   1.090 -0.5062 -0.0498  0.5020
  463MPD2    H7 6955   0.646   2.283   1.109  1.1866  0.0468  2.6242
  464TMC3    C1 6956   0.447   2.146   1.068  0.1942 -0.1673  0.0996
  464TMC3    C2 6957   0.420   2.274   1.020  0.4153  0.6965  0.2821
  464TMC3    C3 6958   0.291   2.316   1.029  0.3069  0.1229 -0.8227
  464TMC3    C4 6959   0.346   2.060   1.108  0.1635  0.5161  0.4151
  464TMC3    C5 6960   0.215   2.111   1.120 -0.5399  0.2091 -0.3839
  464TMC3    C6 6961   0.191   2.239   1.083 -0.0702  0.1724  0.6816
  464TMC3     C 6962   0.581   2.095   1.054 -0.4374  0.6783  0.1732
  464TMC3     O 6963   0.592   1.973   1.057 -0.2209 -0.0700 -0.1610
  464TMC3     H 6964   0.497   2.334   0.972 -1.3095  0.5816 -2.6271
  464TMC3    H1 6965   0.366   1.965   1.158  0.7212 -1.2734 -3.1991
  464TMC3    H2 6966   0.096   2.284   1.106 -0.7475  0.0094 -1.8199
  464TMC3    C7 6967   0.131   2.068   1.238 -0.3338  0.0186 -0.5118
  464TMC3    C8 6968   0.256   2.450   0.993  0.1811 -0.6147  0.2808
  464TMC3    O1 6969   0.185   2.046   1.349 -0.5002  0.0820 -0.3991
  464TMC3    O2 6970   0.136   2.471   0.989  0.0141  0.2519 -0.3285
  465MPD2     C 6971   1.440   2.441  17.119  0.4738  0.3919 -0.5528
  465MPD2    C1 6972   1.416   2.312  17.151 -0.1180  0.1775 -0.5281
  465MPD2    C2 6973   1.411   2.223  17.048 -0.0673  0.5806 -0.2838
  465MPD2    C3 6974   1.430   2.254  16.918  0.3058  0.3552 -0.2876
  465MPD2    C4 6975   1.463   2.388  16.889  0.0597  0.5491 -0.2501
  465MPD2    C5 6976   1.458   2.481  16.995  0.4019  0.0570  0.3917
  465MPD2     H 6977   1.387   2.122  17.079 -0.1940  0.5164 -0.5884
  465MPD2    H1 6978   1.495   2.413  16.788  2.5238  0.4507  0.5038
  465MPD2    H2 6979   1.450   2.521  17.192  0.0208 -1.9882  2.1169
  465MPD2    H3 6980   1.482   2.586  16.982 -1.6194  0.3906 -0.6523
  465MPD2     N 6981   1.441   2.144  16.834 -0.7598 -0.0791  0.3810
  465MPD2    H5 6982   1.432   2.052  16.875  0.5684 -0.0322  0.7728
  465MPD2    N1 6983   1.387   2.266  17.284  0.2750  0.8427 -0.0613
  465MPD2    H7 6984   1.377   2.166  17.298  1.7326  0.8440  1.0531
  466TMC3    C1 6985   1.544   1.789  16.677 -0.5909 -0.4926 -0.3061
  466TMC3    C2 6986   1.503   1.771  16.551 -0.1136 -0.0466  0.0893
  466TMC3    C3 6987   1.444   1.870  16.476 -0.1689  1.0099 -0.4871
  466TMC3    C4 6988   1.535   1.907  16.734  0.2908 -0.8137  0.2501
  466TMC3    C5 6989   1.479   2.009  16.656 -0.4287  0.4185 -0.1376
  466TMC3    C6 6990   1.431   1.994  16.528  0.3674  0.7911 -0.2640
  466TMC3     C 6991   1.489   1.686  16.754  0.3532 -0.3056  0.4746
  466TMC3     O 6992   1.503   1.718  16.870 -0.6833  0.2528  0.3747
  466TMC3     H 6993   1.521   1.673  16.508  1.4568  1.2654 -2.2571
  466TMC3    H1 6994   1.576   1.921  16.833  1.3734  0.0154 -0.3044
  466TMC3    H2 6995   1.397   2.077  16.466 -2.0654  0.3492  0.5008
  466TMC3    C7 6996   1.469   2.148  16.701  0.4470  0.1467  0.4513
  466TMC3    C8 6997   1.325   1.808  16.415 -1.1024  0.0604 -0.4692
  466TMC3    O1 6998   1.464   2.240  16.619 -0.5654 -0.1110 -0.4459
  466TMC3    O2 6999   1.323   1.687  16.414  0.1142 -0.1630 -0.2421
  467TMC3    C1 7000   2.180   0.629  13.890  0.0251 -0.1797  0.4413
  467TMC3    C2 7001   2.193   0.758  13.838 -0.5787  0.1142 -0.4544
  467TMC3    C3 7002   2.118   0.793  13.731 -0.3658  0.5846  0.0518
  467TMC3    C4 7003   2.077   0.551  13.855  0.2032  0.3981 -0.4343
  467TMC3    C5 7004   2.001   0.597  13.758  0.9482  0.2608 -0.6918
  467TMC3    C6 7005   2.024   0.717  13.687 -0.2674  0.1299 -0.0154
  467TMC3     C 7006   2.308   0.578  13.943  0.5775  0.2396 -0.2041
  467TMC3     O 7007   2.392   0.660  13.983 -0.4593  0.1413 -0.0443
  467TMC3     H 7008   2.287   0.810  13.851 -0.7955  0.0746  1.3311
  467TMC3    H1 7009   2.062   0.459  13.911 -2.0086  0.4562 -0.9368
  467TMC3    H2 7010   1.973   0.748  13.597  0.0377 -0.0234 -0.2435
  467TMC3    C7 7011   1.879   0.527  13.710 -0.0680  0.1982  0.3192
  467TMC3    C8 7012   2.210   0.836  13.625  0.3342  0.7419  0.4228
  467TMC3    O1 7013   1.840   0.555  13.600  0.0543 -0.0781  0.0629
  467TMC3    O2 7014   2.266   0.944  13.636  0.3836  0.0881 -0.1795
  468MPD2     C 7015   0.746   3.540  11.085 -0.5777  0.0801  0.9854
  468MPD2    C1 7016   0.880   3.561  11.077  0.0349 -0.0422  0.6318
  468MPD2    C2 7017   0.970   3.454  11.100  0.6566  0.0922 -0.5391
  468MPD2    C3 7018   0.917   3.337  11.150  0.5590 -0.6021 -0.3601
  468MPD2    C4 7019   0.780   3.316  11.161  0.6393  0.3268 -0.1436
  468MPD2    C5 7020   0.695   3.422  11.136 -0.1892 -0.2161 -0.7241
  468MPD2     H 7021   1.071   3.484  11.078 -0.0235  0.2017 -3.4943
  468MPD2    H1 7022   0.750   3.224  11.210  0.6671  0.2184 -0.3284
  468MPD2    H2 7023   0.669   3.605  11.046  1.1671  0.9797 -0.9842
  468MPD2    H3 7024   0.590   3.405  11.159  0.4789 -2.6292  0.4981
  468MPD2     N 7025   0.990   3.227  11.187 -0.6021  0.1003 -0.4385
  468MPD2    H5 7026   0.949   3.146  11.232  0.1842 -0.1208 -0.1211
  468MPD2    N1 7027   0.939   3.684  11.032  0.1575  0.4900 -0.3163
  468MPD2    H7 7028   1.040   3.680  11.023  0.0911  1.1113 -1.3942
  469TMC3    C1 7029   0.980   3.912  10.997  0.1302 -0.2126 -0.2348
  469TMC3    C2 7030   1.098   3.870  10.939 -0.2523 -0.5593  0.7790
  469TMC3    C3 7031   1.214   3.912  10.993 -0.3507  0.2865  0.4382
  469TMC3    C4 7032   0.979   4.012  11.090  0.5198  0.3384 -0.2603
  469TMC3    C5 7033   1.098   4.053  11.140  0.0811 -0.3711 -0.0723
  469TMC3    C6 7034   1.220   3.995  11.102  0.2297 -0.2661  0.0178
  469TMC3     C 7035   0.877   3.804  11.016 -0.2596  0.0504 -0.0767
  469TMC3     O 7036   0.760   3.836  11.013 -0.4607  0.0645  0.0064
  469TMC3     H 7037   1.109   3.790  10.867 -3.8848 -1.7605  1.5554
  469TMC3    H1 7038   0.881   4.043  11.127  1.5229 -0.1225  2.7506
  469TMC3    H2 7039   1.319   4.019  11.139 -0.0811 -0.4785  0.9628
  469TMC3    C7 7040   1.089   4.122  11.269 -0.2993 -0.1565  0.0366
  469TMC3    C8 7041   1.332   3.836  10.965 -0.0889  0.9411 -0.8934
  469TMC3    O1 7042   0.984   4.175  11.301 -0.0900  0.1458  0.0978
  469TMC3    O2 7043   1.371   3.831  10.850  0.6767  0.1207 -0.4036
  470TMC3    C1 7044   3.098   4.365   0.230  0.6156 -0.8496  0.2452
  470TMC3    C2 7045   3.222   4.394   0.281  0.1380 -0.0755 -0.3622
  470TMC3    C3 7046   3.256   4.335   0.401 -0.3743 -0.0425 -0.3060
  470TMC3    C4 7047   3.004   4.297   0.298 -0.6266  0.0953  0.0927
  470TMC3    C5 7048   3.039   4.249   0.423 -0.1665  0.0464  0.4653
  470TMC3    C6 7049   3.167   4.258   0.469 -0.0391 -0.7187 -0.3964
  470TMC3     C 7050   3.061   4.415   0.096  0.2207  0.0487  0.0147
  470TMC3     O 7051   2.949   4.379   0.058  0.4776 -0.3278  0.2828
  470TMC3     H 7052   3.289   4.466   0.236 -0.3131 -0.1344 -1.1335
  470TMC3    H1 7053   2.906   4.275   0.255  1.2397  0.1764 -4.2070
  470TMC3    H2 7054   3.205   4.199   0.552 -0.1303  0.5413  0.5336
  470TMC3    C7 7055   2.927   4.229   0.512  0.4239 -0.0842  0.3278
  470TMC3    C8 7056   3.358   4.393   0.490  0.1207 -0.7937 -0.2128
  470TMC3    O1 7057   2.813   4.230   0.473 -0.0405  0.1287 -0.3447
  470TMC3    O2 7058   3.343   4.368   0.614 -0.6662 -0.4066  0.2825
  471MPD2     C 7059   3.922   1.112  16.640 -0.0417  0.0896 -0.3056
  471MPD2    C1 7060   3.986   0.996  16.604  0.9133  1.4487 -0.1778
  471MPD2    C2 7061   4.101   0.961  16.667  0.2758  0.3965 -0.8253
  471MPD2    C3 7062   4.147   1.044  16.768  0.4473  0.1522 -0.1492
  471MPD2    C4 7063   4.088   1.161  16.805  0.6806 -0.4993 -0.0672
  471MPD2    C5 7064   3.967   1.192  16.741 -0.0795 -0.4350  0.0047
  471MPD2     H 7065   4.154   0.868  16.649 -0.2596 -0.1198  0.2766
  471MPD2    H1 7066   4.118   1.234  16.880  0.2300  0.3281 -0.6853
  471MPD2    H2 7067   3.830   1.141  16.590 -0.8793  0.7859  1.6096
  471MPD2    H3 7068   3.923   1.288  16.763 -1.3017 -0.6300 -1.5289
  471MPD2     N 7069   4.256   1.011  16.849  0.0693 -0.2522  0.5115
  471MPD2    H5 7070   4.275   1.075  16.925  0.5029 -0.6216  0.7144
  471MPD2    N1 7071   3.939   0.913  16.498 -0.3059  0.2760  0.5730
  471MPD2    H7 7072   3.991   0.826  16.491 -1.0610 -0.0208 -1.2699
  472TMC3    C1 7073   3.789   0.817  16.344 -0.6073  0.9868  0.2482
  472TMC3    C2 7074   3.689   0.843  16.256 -0.8370 -0.2793 -0.3508
  472TMC3    C3 7075   3.677   0.757  16.149 -0.0761 -0.4430  0.2272
  472TMC3    C4 7076   3.856   0.700  16.344 -0.0824 -0.2488  0.4488
  472TMC3    C5 7077   3.842   0.613  16.235  0.4729 -0.2209 -0.2772
  472TMC3    C6 7078   3.749   0.639  16.139 -0.7795  0.8156 -0.2062
  472TMC3     C 7079   3.821   0.926  16.431 -0.2290 -0.4761 -0.9811
  472TMC3     O 7080   3.736   1.013  16.438  0.5520 -0.3871 -0.3138
  472TMC3     H 7081   3.634   0.936  16.251 -2.1578 -0.9872  1.4234
  472TMC3    H1 7082   3.933   0.679  16.418 -0.7694 -1.3225  0.8591
  472TMC3    H2 7083   3.758   0.588  16.044 -0.5828  1.8829 -0.7648
  472TMC3    C7 7084   3.860   0.468  16.266  0.7004  0.0381  0.0673
  472TMC3    C8 7085   3.552   0.759  16.072 -0.6080  0.3657 -0.4560
  472TMC3    O1 7086   3.912   0.439  16.375 -0.1580  0.3408 -0.3462
  472TMC3    O2 7087   3.505   0.866  16.038  0.4821 -0.1788  0.0510
  473MPD2     C 7088   3.520   2.672  13.586 -0.8371  0.7257 -0.0501
  473MPD2    C1 7089   3.452   2.797  13.568 -0.1878 -0.5299  0.2318
  473MPD2    C2 7090   3.450   2.889  13.671 -0.1044  0.8947  0.2474
  473MPD2    C3 7091   3.522   2.859  13.787 -0.0556  0.4875  0.4529
  473MPD2    C4 7092   3.575   2.732  13.806  0.7572 -0.3665  0.0243
  473MPD2    C5 7093   3.582   2.649  13.701 -0.1092 -0.8780 -0.1559
  473MPD2     H 7094   3.402   2.986  13.659 -3.5739 -0.6875  1.4956
  473MPD2    H1 7095   3.633   2.714  13.896  0.4216 -0.8795  0.1389
  473MPD2    H2 7096   3.527   2.594  13.511 -2.7745  0.4840  0.0347
  473MPD2    H3 7097   3.634   2.555  13.718  2.9679  0.9236  0.3094
  473MPD2     N 7098   3.540   2.951  13.889  0.5185  0.3590  0.2378
  473MPD2    H5 7099   3.574   2.927  13.982 -1.1626 -3.5244 -0.1512
  473MPD2    N1 7100   3.378   2.836  13.456  0.1781  0.3097 -0.4360
  473MPD2    H7 7101   3.322   2.920  13.465 -1.0100 -0.4156 -1.1129
  474TMC3    C1 7102   3.570   3.184  13.978  0.6375  0.1772 -0.0612
  474TMC3    C2 7103   3.643   3.297  13.939  0.3828 -0.6718  0.1812
  474TMC3    C3 7104   3.661   3.400  14.031 -0.8224  0.4841 -0.2798
  474TMC3    C4 7105   3.536   3.165  14.105 -0.3749  0.3731 -0.0972
  474TMC3    C5 7106   3.565   3.266  14.192 -0.1095 -0.4596 -0.8193
  474TMC3    C6 7107   3.617   3.395  14.160 -0.3619 -0.5429 -0.1114
  474TMC3     C 7108   3.532   3.091  13.865 -1.1774 -0.4224 -0.2548
  474TMC3     O 7109   3.523   3.148  13.758 -0.0201  0.4185 -0.3692
  474TMC3     H 7110   3.680   3.299  13.838  0.4656 -0.5616  0.2136
  474TMC3    H1 7111   3.527   3.066  14.150 -3.1150 -0.0711 -1.6292
  474TMC3    H2 7112   3.609   3.481  14.225 -1.2477 -0.4749 -0.3108
  474TMC3    C7 7113   3.533   3.223  14.327 -0.5974 -0.0050  0.4531
  474TMC3    C8 7114   3.656   3.527  13.963  0.0832  0.2136  0.5246
  474TMC3    O1 7115   3.444   3.137  14.343  0.2565  0.1086  0.2739
  474TMC3    O2 7116   3.614   3.525  13.848 -0.0081 -0.6466  0.2376
  475MPD2     C 7117   2.358   1.217  10.716 -0.5224 -0.0077  0.1820
  475MPD2    C1 7118   2.416   1.322  10.792 -0.1551  0.3514 -0.5328
  475MPD2    C2 7119   2.322   1.398  10.866  0.2364  0.2560 -0.3558
  475MPD2    C3 7120   2.184   1.366  10.877 -0.1636  0.1474 -0.4386
  475MPD2    C4 7121   2.137   1.251  10.818 -0.1175  0.5428 -0.2757
  475MPD2    C5 7122   2.225   1.182  10.734 -0.3821  0.3787 -0.0673
  475MPD2     H 7123   2.356   1.468  10.941 -0.7567 -0.7290  1.0256
  475MPD2    H1 7124   2.036   1.213  10.830  0.6725 -1.5310 -0.1624
  475MPD2    H2 7125   2.422   1.146  10.665 -0.8485 -1.8208  2.2797
  475MPD2    H3 7126   2.193   1.084  10.698 -0.5329  0.0362  1.0074
  475MPD2     N 7127   2.091   1.463  10.936  0.9167  0.4411  0.7770
  475MPD2    H5 7128   1.992   1.442  10.932  0.5226  2.2946  0.6682
  475MPD2    N1 7129   2.555   1.342  10.789 -0.3445 -0.2395  0.0977
  475MPD2    H7 7130   2.605   1.263  10.751  0.8094 -0.7007  2.5794
  476TMC3    C1 7131   2.553   1.585  10.810  0.6853  0.0501 -0.0227
  476TMC3    C2 7132   2.478   1.617  10.701  0.1503 -0.7052  0.8612
  476TMC3    C3 7133   2.440   1.753  10.682  0.8834  0.8122  0.2595
  476TMC3    C4 7134   2.604   1.677  10.902  0.4239 -0.5259  0.0511
  476TMC3    C5 7135   2.567   1.805  10.877  0.2167  0.2164 -0.2560
  476TMC3    C6 7136   2.490   1.840  10.772 -0.9624 -0.0017  0.0099
  476TMC3     C 7137   2.627   1.459  10.816  0.2486 -0.0315  0.3825
  476TMC3     O 7138   2.751   1.476  10.826 -0.4387 -0.2897 -0.6085
  476TMC3     H 7139   2.446   1.530  10.645  2.9834 -0.2496 -1.4278
  476TMC3    H1 7140   2.662   1.661  10.992 -0.2796 -1.2937  0.3698
  476TMC3    H2 7141   2.460   1.944  10.770  1.6899  0.7891  1.7769
  476TMC3    C7 7142   2.511   1.864  11.001 -0.1534 -0.7275 -0.3486
  476TMC3    C8 7143   2.305   1.773  10.635  0.4974 -0.1214 -0.4782
  476TMC3    O1 7144   2.497   1.798  11.106 -0.2249  0.1002 -0.3342
  476TMC3    O2 7145   2.252   1.880  10.670 -0.4716  0.2107 -0.0278
  477MPD2     C 7146   4.574   2.667  11.170  0.1942  1.0791 -0.5192
  477MPD2    C1 7147   4.469   2.678  11.254 -0.0551 -1.0080 -0.5930
  477MPD2    C2 7148   4.486   2.626  11.381  0.2811 -0.5173  0.3843
  477MPD2    C3 7149   4.603   2.564  11.417 -0.8448  0.2446 -0.1190
  477MPD2    C4 7150   4.703   2.543  11.327 -0.6391 -0.8570 -0.0145
  477MPD2    C5 7151   4.686   2.601  11.201 -0.4743 -0.9832 -0.9379
  477MPD2     H 7152   4.419   2.649  11.463 -2.2696 -1.2387 -1.5076
  477MPD2    H1 7153   0.065   2.509  11.355 -0.6718 -1.1778 -0.2811
  477MPD2    H2 7154   4.561   2.720  11.077  0.3322 -0.2618 -1.2975
  477MPD2    H3 7155   0.025   2.592  11.123 -0.6495  0.1009 -1.2328
  477MPD2     N 7156   4.612   2.524  11.550  0.0316  0.6758  0.2951
  477MPD2    H5 7157   4.530   2.547  11.605  0.2632 -1.1366  1.4029
  477MPD2    N1 7158   4.362   2.762  11.225 -0.5865 -0.1103 -0.7292
  477MPD2    H7 7159   4.377   2.810  11.137 -0.6155  1.0331 -0.1093
  478TMC3    C1 7160   4.176   2.904  11.237 -0.4895  0.2867  0.3784
  478TMC3    C2 7161   4.045   2.913  11.272 -0.1132 -0.2808 -0.5899
  478TMC3    C3 7162   3.972   3.019  11.228 -0.2972  0.1729  0.1975
  478TMC3    C4 7163   4.227   2.985  11.138  0.1576 -0.0791  0.8286
  478TMC3    C5 7164   4.154   3.097  11.109  0.2736 -0.6218 -0.6855
  478TMC3    C6 7165   4.029   3.120  11.153 -0.3962  1.0475  0.2593
  478TMC3     C 7166   4.255   2.794  11.293  0.5271 -0.5639 -0.4716
  478TMC3     O 7167   4.221   2.739  11.395 -0.6555  0.0626  0.3676
  478TMC3     H 7168   4.005   2.840  11.342 -0.0730  0.7605  0.5286
  478TMC3    H1 7169   4.329   2.974  11.101 -1.6595 -0.3658 -4.0431
  478TMC3    H2 7170   3.975   3.205  11.114 -2.3930 -0.5122 -0.3536
  478TMC3    C7 7171   4.212   3.180  11.004 -0.1790 -0.4704 -0.1179
  478TMC3    C8 7172   3.848   3.043  11.304 -0.0558 -0.2707 -0.5732
  478TMC3    O1 7173   4.330   3.161  10.986 -0.0392  0.3650  0.3681
  478TMC3    O2 7174   3.818   2.953  11.385 -0.3634  0.2372  0.3364
  479MPD2     C 7175   3.661   0.394  15.016 -0.3670  0.9193  0.0991
  479MPD2    C1 7176   3.595   0.343  15.126 -1.0046 -0.6251 -0.2928
  479MPD2    C2 7177   3.663   0.336  15.247 -0.1023  0.2147 -0.4862
  479MPD2    C3 7178   3.788   0.397  15.263  0.1603  0.2435 -0.0100
  479MPD2    C4 7179   3.844   0.462  15.156  0.2258  0.0240  0.1027
  479MPD2    C5 7180   3.782   0.462  15.032 -0.3585 -0.3399  0.9238
  479MPD2     H 7181   3.613   0.292  15.333 -0.6267 -1.4389 -1.6535
  479MPD2    H1 7182   3.943   0.505  15.167  0.5331 -0.6742  0.0493
  479MPD2    H2 7183   3.621   0.400  14.916 -0.4141  1.4697  0.1472
  479MPD2    H3 7184   3.831   0.504  14.945 -1.7895  0.9589  0.7375
  479MPD2     N 7185   3.855   0.421  15.387  0.4761 -0.2509 -0.0741
  479MPD2    H5 7186   3.953   0.443  15.372  0.1333  0.8517 -0.7322
  479MPD2    N1 7187   3.465   0.287  15.115 -0.0530 -0.2262  0.2411
  479MPD2    H7 7188   3.430   0.272  15.021 -0.4773 -1.3952  0.5871
  480TMC3    C1 7189   3.516   0.276  15.669  0.2232 -0.5795  0.0052
  480TMC3    C2 7190   3.434   0.378  15.645  0.0216 -0.2825  0.2421
  480TMC3    C3 7191   3.482   0.473  15.563 -0.1974 -0.0294  0.2946
  480TMC3    C4 7192   3.646   0.281  15.631  0.2584  0.1267  0.0796
  480TMC3    C5 7193   3.680   0.381  15.544  1.0176  0.3083  0.7738
  480TMC3    C6 7194   3.607   0.486  15.513 -0.4852 -0.1870  0.1910
  480TMC3     C 7195   3.472   0.157  15.743  0.1015 -0.3018  0.3395
  480TMC3     O 7196   3.557   0.091  15.801 -0.2911 -0.2337 -0.0376
  480TMC3     H 7197   3.335   0.382  15.689  0.5605 -1.1994  1.5666
  480TMC3    H1 7198   3.719   0.209  15.667 -1.7341 -2.3913 -0.8875
  480TMC3    H2 7199   3.637   0.573  15.454 -0.1016 -0.8218 -0.5516
  480TMC3    C7 7200   3.817   0.387  15.513  0.0164  0.1586 -0.6452
  480TMC3    C8 7201   3.377   0.555  15.497 -0.1602 -0.1382  0.4796
  480TMC3    O1 7202   3.880   0.376  15.620 -0.1261 -0.3923  0.1988
  480TMC3    O2 7203   3.266   0.553  15.544 -0.0273  0.0373  0.6254
  481MPD2     C 7204   0.426   4.272  14.126  0.6956  0.1053 -0.3409
  481MPD2    C1 7205   0.298   4.249  14.169  0.3578  0.3909 -0.2592
  481MPD2    C2 7206   0.274   4.195  14.292  0.5762 -0.3913  0.8703
  481MPD2    C3 7207   0.376   4.172  14.384 -0.0435 -1.1701  0.4089
  481MPD2    C4 7208   0.508   4.196  14.345  0.2605  0.1572 -0.1487
  481MPD2    C5 7209   0.529   4.247  14.220 -0.3071 -0.7849 -0.9375
  481MPD2     H 7210   0.171   4.188  14.327 -0.0430 -2.1449 -1.3291
  481MPD2    H1 7211   0.590   4.196  14.417  0.1757 -0.8172 -0.0535
  481MPD2    H2 7212   0.452   4.311  14.029  0.9927  1.7422  0.3951
  481MPD2    H3 7213   0.630   4.262  14.182  0.3265  0.4589  1.2257
  481MPD2     N 7214   0.350   4.113  14.507  0.2472  0.5434 -0.0632
  481MPD2    H5 7215   0.428   4.086  14.567 -0.2296  1.7260  1.0880
  481MPD2    N1 7216   0.195   4.275  14.076 -0.5947 -0.1272  0.1912
  481MPD2    H7 7217   0.221   4.318  13.988 -1.5027  1.4664  0.6989
  482TMC3    C1 7218   4.712   4.294  13.993  0.7732 -0.5142  0.0579
  482TMC3    C2 7219   4.596   4.235  13.978  0.8235  0.3171  0.4516
  482TMC3    C3 7220   4.504   4.297  13.899  0.2653 -0.3143 -0.3781
  482TMC3    C4 7221   0.015   4.412  13.925 -0.2476 -0.9859  0.2476
  482TMC3    C5 7222   4.650   4.475  13.856 -0.2170  0.2544 -0.0275
  482TMC3    C6 7223   4.523   4.418  13.842  0.0285 -0.2075 -0.2943
  482TMC3     C 7224   0.067   4.221  14.082  0.3918 -0.1244 -0.1721
  482TMC3     O 7225   0.019   4.142  14.164  0.3012 -0.5107 -0.1303
  482TMC3     H 7226   4.578   4.138  14.025 -0.9248  0.3623 -0.1358
  482TMC3    H1 7227   0.117   4.447  13.916 -0.5549  0.1094  1.0141
  482TMC3    H2 7228   4.442   4.468  13.790  0.4212  1.3966  0.6144
  482TMC3    C7 7229   4.696   4.565  13.749  0.2092  0.0847 -0.2110
  482TMC3    C8 7230   4.374   4.228  13.906  1.0295  0.1258  0.2680
  482TMC3    O1 7231   0.023   4.660  13.793  0.7435 -0.9294  0.0926
  482TMC3    O2 7232   4.363   4.119  13.961 -0.0846 -0.2774  0.1035
  483TMC3    C1 7233   2.251   3.006   0.648 -0.5617  0.0280  0.2942
  483TMC3    C2 7234   2.282   3.132   0.599 -0.4187 -0.6625 -0.5722
  483TMC3    C3 7235   2.370   3.202   0.675 -0.0986  0.2853 -0.3209
  483TMC3    C4 7236   2.308   2.960   0.756  0.6912  0.4502 -0.7013
  483TMC3    C5 7237   2.396   3.031   0.826  0.2002 -0.2177  0.0305
  483TMC3    C6 7238   2.436   3.152   0.785 -0.0990  0.0417  0.3628
  483TMC3     C 7239   2.217   2.913   0.539  1.0604  0.0068  0.0362
  483TMC3     O 7240   2.170   2.951   0.430  0.4800  0.1123  0.1630
  483TMC3     H 7241   2.242   3.176   0.508 -0.4293 -2.0484 -1.2340
  483TMC3    H1 7242   2.267   2.869   0.797 -1.8069  2.1128  0.5166
  483TMC3    H2 7243   2.518   3.209   0.827 -0.6440 -0.3725  2.0308
  483TMC3    C7 7244   2.477   2.952   0.916  0.5346 -0.9044  0.5094
  483TMC3    C8 7245   2.408   3.327   0.617  0.7486 -0.1951 -0.1678
  483TMC3    O1 7246   2.497   2.836   0.882 -0.4141  0.3063  0.3523
  483TMC3    O2 7247   2.378   3.353   0.499  0.2098 -0.2013 -0.4045
  484MPD2     C 7248   0.609   1.328  12.677  0.4482  0.4635 -0.3854
  484MPD2    C1 7249   0.678   1.227  12.742 -0.3201  0.0813  0.5772
  484MPD2    C2 7250   0.773   1.256  12.844 -0.1060  0.1238  0.1695
  484MPD2    C3 7251   0.827   1.377  12.862 -0.7479  0.1639 -0.0155
  484MPD2    C4 7252   0.766   1.475  12.783  0.0312  1.0509  0.1806
  484MPD2    C5 7253   0.661   1.450  12.695  0.3826  0.2682 -0.8372
  484MPD2     H 7254   0.806   1.172  12.904 -0.6354  0.5468  1.0506
  484MPD2    H1 7255   0.787   1.581  12.797 -0.2830  1.1866 -0.3852
  484MPD2    H2 7256   0.530   1.315  12.605 -0.9393 -1.5418  1.5248
  484MPD2    H3 7257   0.619   1.527  12.631  1.7450 -0.0621 -2.1161
  484MPD2     N 7258   0.925   1.409  12.960 -0.4708  0.0874 -0.3456
  484MPD2    H5 7259   0.953   1.506  12.956 -1.5292  0.5031  2.9664
  484MPD2    N1 7260   0.626   1.095  12.710 -0.5002  0.3117 -0.2189
  484MPD2    H7 7261   0.564   1.088  12.630  0.0088 -0.7693 -0.5132
  485TMC3    C1 7262   1.103   1.377  13.104 -0.4444 -0.3783 -0.1307
  485TMC3    C2 7263   1.167   1.304  13.198 -0.3055 -0.0714  0.1014
  485TMC3    C3 7264   1.290   1.348  13.237 -1.1874 -0.9324  0.8351
  485TMC3    C4 7265   1.167   1.485  13.050  0.0498  0.1654  0.1511
  485TMC3    C5 7266   1.295   1.514  13.078 -0.7045 -0.5319 -0.4850
  485TMC3    C6 7267   1.359   1.454  13.182  0.7092 -0.4428 -0.2280
  485TMC3     C 7268   0.996   1.315  13.032  0.0430 -0.1799 -0.4839
  485TMC3     O 7269   0.961   1.198  13.060 -0.4326  0.2911 -0.1988
  485TMC3     H 7270   1.130   1.206  13.227 -0.7400 -0.3119 -1.2701
  485TMC3    H1 7271   1.129   1.528  12.958  0.7739 -0.2203 -0.3310
  485TMC3    H2 7272   1.449   1.493  13.230  0.6494  1.8589 -1.9999
  485TMC3    C7 7273   1.380   1.553  12.967  0.6686  1.0048 -0.2068
  485TMC3    C8 7274   1.377   1.231  13.232  0.7265 -0.6347  0.8267
  485TMC3    O1 7275   1.496   1.508  12.984 -0.1927 -0.0966 -0.1244
  485TMC3    O2 7276   1.346   1.135  13.298 -0.3615 -0.5045 -0.0074
  486MPD2     C 7277   2.816   0.241  12.945  0.1282 -0.0569 -0.5528
  486MPD2    C1 7278   2.812   0.182  12.824 -0.5028 -0.6611 -0.1949
  486MPD2    C2 7279   2.731   0.241  12.722  0.4702 -0.7164  0.5908
  486MPD2    C3 7280   2.657   0.351  12.755 -0.1021  0.5573  0.0269
  486MPD2    C4 7281   2.654   0.410  12.883  0.1102  0.5820  0.1578
  486MPD2    C5 7282   2.736   0.353  12.978  0.8032  0.1467  0.2632
  486MPD2     H 7283   2.742   0.213  12.618 -1.0838  1.5334 -0.1701
  486MPD2    H1 7284   2.582   0.482  12.922  0.9713  1.7265 -0.3505
  486MPD2    H2 7285   2.875   0.198  13.026 -0.6313  0.0655  0.0653
  486MPD2    H3 7286   2.748   0.388  13.080 -0.4542  3.4111 -0.6926
  486MPD2     N 7287   2.594   0.420  12.648  0.6390 -0.7833 -0.2548
  486MPD2    H5 7288   2.620   0.394  12.554 -1.5610 -3.1793 -0.1970
  486MPD2    N1 7289   2.887   0.067  12.808 -0.3065  0.5322 -0.4174
  486MPD2    H7 7290   2.942   0.026  12.882 -1.3979  1.4181  0.8752
  487TMC3    C1 7291   3.017   4.636  12.691 -0.1107  0.2018  0.6550
  487TMC3    C2 7292   2.988   4.536  12.601 -0.0622  0.0433 -0.4088
  487TMC3    C3 7293   3.056   4.419  12.612 -0.0731  0.5208 -0.6041
  487TMC3    C4 7294   3.099   4.624  12.795  0.5571  0.3837 -0.5319
  487TMC3    C5 7295   3.164   4.503  12.812 -0.2950  0.2130  0.1030
  487TMC3    C6 7296   3.156   4.411  12.709 -0.0358 -0.5158  0.1062
  487TMC3     C 7297   2.916   0.005  12.682 -0.0893 -0.8154  0.0266
  487TMC3     O 7298   2.849   0.020  12.578 -0.2032 -0.0162  0.3172
  487TMC3     H 7299   2.914   4.548  12.522  0.8275 -0.5881 -1.3266
  487TMC3    H1 7300   3.115   4.707  12.863 -1.3991  0.8501 -0.6639
  487TMC3    H2 7301   3.193   4.312  12.734 -2.1572 -1.4036 -0.2454
  487TMC3    C7 7302   3.156   4.457  12.953  0.6252  0.0773 -0.3589
  487TMC3    C8 7303   2.951   4.320  12.633 -0.1330  0.1216  0.3218
  487TMC3    O1 7304   3.136   4.549  13.030 -0.0070  0.0941  0.3388
  487TMC3    O2 7305   2.842   4.369  12.661 -0.1454 -0.1574  0.8756
  488MPD2     C 7306   2.946   1.830  16.340 -0.3902 -0.8500  0.2171
  488MPD2    C1 7307   3.004   1.941  16.400  0.1800 -0.8532 -0.1360
  488MPD2    C2 7308   2.984   1.950  16.539  0.9998  0.5801 -0.3599
  488MPD2    C3 7309   2.923   1.852  16.616  0.4312  0.5830  0.2088
  488MPD2    C4 7310   2.872   1.749  16.554 -0.5163 -0.3483 -0.2437
  488MPD2    C5 7311   2.882   1.735  16.415 -0.6977 -0.5678 -0.0232
  488MPD2     H 7312   3.028   2.035  16.590  1.3583 -0.7219  1.4839
  488MPD2    H1 7313   2.821   1.663  16.595 -0.9588  0.0713  0.0915
  488MPD2    H2 7314   2.958   1.809  16.234 -0.3094 -2.2254  0.4967
  488MPD2    H3 7315   2.848   1.646  16.364 -1.3085  0.0896 -0.7674
  488MPD2     N 7316   2.928   1.868  16.758 -0.0817 -0.3572 -0.1184
  488MPD2    H5 7317   2.992   1.941  16.789 -1.1006  1.0092 -1.2348
  488MPD2    N1 7318   3.079   2.041  16.333  0.0462  0.6846  0.3038
  488MPD2    H7 7319   3.121   2.115  16.388 -0.6001 -0.3815  2.2178
  489TMC3    C1 7320   2.890   1.825  16.995 -0.6212  0.1958 -0.6353
  489TMC3    C2 7321   2.973   1.933  16.993  0.0868 -0.4629  0.3191
  489TMC3    C3 7322   2.923   2.032  17.069  0.0862 -0.0431 -0.3580
  489TMC3    C4 7323   2.783   1.799  17.073  0.3683  0.4681  0.0742
  489TMC3    C5 7324   2.744   1.907  17.150  0.2514  0.7756 -0.1552
  489TMC3    C6 7325   2.813   2.027  17.154  0.6657  0.3856 -0.1001
  489TMC3     C 7326   2.860   1.795  16.854  0.3969 -0.0361  0.5169
  489TMC3     O 7327   2.762   1.724  16.839  0.3596  0.6471 -0.7879
  489TMC3     H 7328   3.069   1.932  16.943  0.2024  1.3881  0.5046
  489TMC3    H1 7329   2.735   1.703  17.086 -0.7134  0.8741 -0.9690
  489TMC3    H2 7330   2.784   2.109  17.220 -2.7008 -0.1562 -0.9149
  489TMC3    C7 7331   2.637   1.891  17.244  0.6898 -0.4334  0.8419
  489TMC3    C8 7332   2.978   2.161  17.018 -0.1731  0.1891 -0.1795
  489TMC3    O1 7333   2.601   1.787  17.294  0.4077  0.1392 -0.2440
  489TMC3    O2 7334   3.078   2.157  16.950 -0.2640 -0.6146 -0.0162
  490MPD2     C 7335   3.800   1.386  17.140 -0.0175  0.5244  0.5464
  490MPD2    C1 7336   3.671   1.361  17.181 -0.5887  0.7897  0.4271
  490MPD2    C2 7337   3.634   1.390  17.308 -0.2131 -0.5065 -0.2786
  490MPD2    C3 7338   3.725   1.443  17.394  0.3263 -0.2131 -0.2154
  490MPD2    C4 7339   3.852   1.470  17.355 -0.3332 -0.1551 -0.1328
  490MPD2    C5 7340   3.892   1.441  17.227 -0.1158 -0.3994  0.4768
  490MPD2     H 7341   3.537   1.355  17.343 -0.6968 -0.3575 -1.4419
  490MPD2    H1 7342   3.920   1.521  17.423  1.8623 -2.6447 -0.4599
  490MPD2    H2 7343   3.831   1.356  17.040  0.8486 -1.4228  1.4050
  490MPD2    H3 7344   3.990   1.466  17.187 -0.8098 -2.0336 -2.2916
  490MPD2     N 7345   3.713   1.457  17.533  0.2923 -0.2172 -0.1156
  490MPD2    H5 7346   3.799   1.470  17.586  0.7875 -4.3220  0.0744
  490MPD2    N1 7347   3.579   1.290  17.102 -0.2847  0.0321 -0.3749
  490MPD2    H7 7348   3.496   1.267  17.155 -1.6101 -0.2208 -2.5736
  491TMC3    C1 7349   3.506   1.161  16.923  0.0270  1.1047  0.1091
  491TMC3    C2 7350   3.481   1.075  17.022 -0.2574  0.0131  0.1372
  491TMC3    C3 7351   3.541   0.951  17.017  0.1578 -0.2370  0.6516
  491TMC3    C4 7352   3.562   1.118  16.807 -0.6852 -0.0351 -0.9433
  491TMC3    C5 7353   3.619   0.996  16.800  0.2112  0.2167 -0.5786
  491TMC3    C6 7354   3.622   0.916  16.914 -0.0941 -0.0701 -0.3622
  491TMC3     C 7355   3.593   1.268  16.967  0.2951  0.4332  0.3873
  491TMC3     O 7356   3.683   1.296  16.890  0.1960 -0.6490 -0.3766
  491TMC3     H 7357   3.416   1.093  17.107 -0.0862  0.8343  0.0966
  491TMC3    H1 7358   3.564   1.180  16.718  0.0901  1.7639  0.3328
  491TMC3    H2 7359   3.686   0.830  16.929 -1.5292 -1.6566 -3.3408
  491TMC3    C7 7360   3.576   0.915  16.688  0.4158 -0.3990  0.4191
  491TMC3    C8 7361   3.454   0.845  17.069  0.7589  1.1102 -0.3561
  491TMC3    O1 7362   3.501   0.961  16.602  0.2064  0.4793 -0.1552
  491TMC3    O2 7363   3.387   0.874  17.164 -0.3959 -0.5131  0.0346
  492MPD2     C 7364   4.177   1.414  11.962  0.0377 -0.0458 -0.0001
  492MPD2    C1 7365   4.120   1.367  11.844 -0.3647 -0.5007  0.3531
  492MPD2    C2 7366   4.022   1.275  11.855 -0.6476 -0.5474  0.4801
  492MPD2    C3 7367   3.980   1.228  11.978 -0.0553 -0.4114  0.4779
  492MPD2    C4 7368   4.035   1.276  12.092 -0.3262 -0.5355 -0.2162
  492MPD2    C5 7369   4.137   1.364  12.079  0.1737  0.6825  0.1493
  492MPD2     H 7370   3.977   1.244  11.761  0.9281  0.2025 -0.5376
  492MPD2    H1 7371   4.004   1.256  12.194  0.3918 -1.0104 -0.0889
  492MPD2    H2 7372   4.262   1.482  11.960 -0.7036  0.8774  0.3786
  492MPD2    H3 7373   4.181   1.406  12.169 -0.1711 -1.1258  1.1705
  492MPD2     N 7374   3.874   1.136  11.995  0.6259  0.0089  0.7277
  492MPD2    H5 7375   3.842   1.130  12.092  0.7613  2.0761  0.8898
  492MPD2    N1 7376   4.179   1.403  11.721  1.3972 -0.7527  0.1203
  492MPD2    H7 7377   4.261   1.463  11.724  0.1789  0.7956  1.9163
  493TMC3    C1 7378   4.217   1.429  11.484 -0.0026 -0.7588 -0.2694
  493TMC3    C2 7379   4.280   1.548  11.500  0.8752  0.3114  0.1982
  493TMC3    C3 7380   4.345   1.605  11.397  0.4333  0.4141 -0.9238
  493TMC3    C4 7381   4.204   1.384  11.358  0.7044 -1.4119 -0.2661
  493TMC3    C5 7382   4.270   1.440  11.258  0.2967 -0.7040  0.3612
  493TMC3    C6 7383   4.340   1.557  11.268  0.8784  0.8055 -0.3998
  493TMC3     C 7384   4.156   1.349  11.595  1.1026 -0.3863  0.4682
  493TMC3     O 7385   4.073   1.268  11.560 -0.5529  0.2793 -0.0365
  493TMC3     H 7386   4.266   1.613  11.586 -0.0260  1.1478 -0.5989
  493TMC3    H1 7387   4.156   1.288  11.345  1.5100 -1.7251 -0.9250
  493TMC3    H2 7388   4.418   1.582  11.197  0.5289 -0.6882 -1.2875
  493TMC3    C7 7389   4.222   1.397  11.130 -1.0087 -0.3665  0.4593
  493TMC3    C8 7390   4.422   1.725  11.436 -0.0085 -0.2757 -0.4555
  493TMC3    O1 7391   4.118   1.330  11.124  0.2955 -0.2884  0.6040
  493TMC3    O2 7392   4.451   1.731  11.556 -0.5856 -0.3027  0.2419
  494TMC3    C1 7393   4.190   2.852   0.185 -0.0145 -0.6203  0.4064
  494TMC3    C2 7394   4.172   2.716   0.204  0.8423  0.1310  0.0847
  494TMC3    C3 7395   4.229   2.631   0.106  0.3614 -0.3105  0.8107
  494TMC3    C4 7396   4.251   2.904   0.072 -0.3878 -0.0761  0.3783
  494TMC3    C5 7397   4.295   2.817  17.723 -0.1068  0.0772  0.3658
  494TMC3    C6 7398   4.288   2.680  17.738  0.5045  0.9546  0.6696
  494TMC3     C 7399   4.183   2.931   0.301  0.1504  0.0492  0.3901
  494TMC3     O 7400   4.249   3.034   0.317 -0.5646 -0.4900  0.1553
  494TMC3     H 7401   4.126   2.672   0.292  0.6905 -1.0608 -0.5862
  494TMC3    H1 7402   4.265   3.011   0.057 -1.8351 -0.2172 -1.9506
  494TMC3    H2 7403   4.359   2.618  17.684 -1.2743  0.5344 -1.1602
  494TMC3    C7 7404   4.388   2.850  17.618  0.3081  0.0720 -0.1232
  494TMC3    C8 7405   4.266   2.498   0.152 -1.2414 -0.1470  0.5069
  494TMC3    O1 7406   4.367   2.790  17.512  0.3632  0.0879  0.2284
  494TMC3    O2 7407   4.373   2.458   0.111 -0.2358 -0.0839  0.2902
  495TMC3    C1 7408   3.692   0.686  14.573 -0.3052 -0.5649 -0.1014
  495TMC3    C2 7409   3.607   0.711  14.468  0.0135 -1.0716  0.1588
  495TMC3    C3 7410   3.470   0.737  14.503 -0.2331  0.3871 -0.3346
  495TMC3    C4 7411   3.648   0.681  14.703  0.3568 -0.1053 -0.7035
  495TMC3    C5 7412   3.520   0.717  14.738  0.5955  0.4981 -0.9017
  495TMC3    C6 7413   3.432   0.744  14.634 -0.0627  0.3015  0.4578
  495TMC3     C 7414   3.787   0.583  14.538  0.4020 -0.0074 -0.8362
  495TMC3     O 7415   3.871   0.620  14.458  0.3071  0.0748 -0.3169
  495TMC3     H 7416   3.642   0.705  14.366 -1.0934 -1.7334 -0.1888
  495TMC3    H1 7417   3.723   0.655  14.777 -2.0297 -1.3218  1.2700
  495TMC3    H2 7418   3.331   0.777  14.655 -0.1242 -0.1053  0.8097
  495TMC3    C7 7419   3.481   0.697  14.871 -0.1528 -0.1227 -0.1413
  495TMC3    C8 7420   3.379   0.675  14.421  0.7872 -0.3771  0.3255
  495TMC3    O1 7421   3.568   0.735  14.951  0.5872 -0.6424  0.4375
  495TMC3    O2 7422   3.262   0.700  14.448 -0.1518  0.4711  0.2191
  496MPD2     C 7423   0.990   4.697  15.657  0.3528 -0.1685  0.2179
  496MPD2    C1 7424   0.870   4.625  15.630  0.5431  0.6475  0.0797
  496MPD2    C2 7425   0.781   4.595  15.732 -0.1722  0.5209 -0.7589
  496MPD2    C3 7426   0.798   4.654  15.859 -0.2855  0.0483 -0.1382
  496MPD2    C4 7427   0.923   4.713  15.887  0.4688 -0.4400  0.5027
  496MPD2    C5 7428   1.009   0.014  15.785  0.1823  0.3841  0.1545
  496MPD2     H 7429   0.695   4.532  15.711 -0.0399 -0.7035  2.3112
  496MPD2    H1 7430   0.955   0.005  15.986 -2.9776  2.1486  0.8806
  496MPD2    H2 7431   1.063   4.718  15.580 -0.8320  1.8532 -0.3381
  496MPD2    H3 7432   1.102   0.067  15.804 -0.2290  1.6433 -1.3586
  496MPD2     N 7433   0.701   4.635  15.957  0.1565 -0.0310  0.3574
  496MPD2    H5 7434   0.615   4.588  15.929 -0.0613  1.2207 -1.1124
  496MPD2    N1 7435   0.855   4.585  15.497  0.9570 -0.3325 -0.1343
  496MPD2    H7 7436   0.923   4.621  15.431  0.4370 -0.1469 -0.5609
  497TMC3    C1 7437   0.571   4.672  16.151 -0.1703  0.4523  0.0889
  497TMC3    C2 7438   0.471   4.591  16.092  0.1510 -0.1553 -0.3846
  497TMC3    C3 7439   0.345   4.596  16.151 -0.2979 -0.3945  0.0422
  497TMC3    C4 7440   0.552   0.003  16.266 -0.5419 -0.8584  0.7366
  497TMC3    C5 7441   0.432   4.722  16.332  0.7580 -0.5079 -0.6401
  497TMC3    C6 7442   0.324   4.656  16.274 -0.6413  0.2074  0.5398
  497TMC3     C 7443   0.695   4.688  16.082  0.0778 -0.7760  0.1018
  497TMC3     O 7444   0.771   0.033  16.132  0.0677  0.1328 -0.1974
  497TMC3     H 7445   0.485   4.537  15.999 -2.1729 -1.4368  0.0290
  497TMC3    H1 7446   0.625   0.080  16.291  0.1322 -1.4550  0.5978
  497TMC3    H2 7447   0.236   4.653  16.336  1.1481 -2.3244  2.9464
  497TMC3    C7 7448   0.411   0.049  16.459 -0.0981  0.0811 -0.0681
  497TMC3    C8 7449   0.230   4.563  16.061 -0.3969 -0.7726 -0.4353
  497TMC3    O1 7450   0.298   0.051  16.493 -0.0823 -0.1457 -0.2551
  497TMC3    O2 7451   0.250   4.468  15.985  0.3387 -1.0011  0.2622
  498MPD2     C 7452   2.134   1.688  10.251 -0.0958 -0.3127  0.4058
  498MPD2    C1 7453   2.030   1.773  10.285  0.9340 -0.1085 -0.0928
  498MPD2    C2 7454   1.899   1.727  10.288  0.3903  0.2346 -0.0495
  498MPD2    C3 7455   1.870   1.601  10.241  0.2922 -0.0695  0.7623
  498MPD2    C4 7456   1.971   1.523  10.181  0.2841  0.0828  0.0183
  498MPD2    C5 7457   2.099   1.566  10.193 -0.2378 -0.3604  0.2086
  498MPD2     H 7458   1.819   1.785  10.332  0.3951  0.8386 -0.8223
  498MPD2    H1 7459   1.956   1.430  10.128  3.6157 -0.7286  0.4460
  498MPD2    H2 7460   2.240   1.707  10.249  0.0358 -0.9770  1.0186
  498MPD2    H3 7461   2.175   1.500  10.154  1.0782  0.8122  0.8107
  498MPD2     N 7462   1.738   1.547  10.259  0.1257  0.0094  0.1269
  498MPD2    H5 7463   1.672   1.600  10.316 -1.4021 -2.1538  0.3501
  498MPD2    N1 7464   2.049   1.907  10.319  0.1001 -0.0444 -0.1948
  498MPD2    H7 7465   1.969   1.966  10.339 -0.7558 -1.9125  1.9687
  499TMC3    C1 7466   2.172   2.108  10.354  0.3043 -0.3312 -0.2501
  499TMC3    C2 7467   2.294   2.167  10.347 -0.1901 -0.0592 -0.0112
  499TMC3    C3 7468   2.306   2.304  10.307 -0.3170  0.1834  0.1229
  499TMC3    C4 7469   2.064   2.189  10.312  0.1894 -0.1470  0.3805
  499TMC3    C5 7470   2.078   2.323  10.286  0.0036 -0.4790  0.2070
  499TMC3    C6 7471   2.198   2.379  10.273  0.5396  0.4687 -0.4952
  499TMC3     C 7472   2.169   1.965  10.336 -0.5433  0.1765 -0.0525
  499TMC3     O 7473   2.279   1.913  10.319  0.1252 -0.4948 -0.6207
  499TMC3     H 7474   2.377   2.108  10.382  0.9202 -0.1745 -2.7868
  499TMC3    H1 7475   1.970   2.136  10.302 -0.9413  1.8389  0.3764
  499TMC3    H2 7476   2.205   2.486  10.259 -0.3936  0.0612 -3.9308
  499TMC3    C7 7477   1.972   2.397  10.226 -0.6836  0.0326 -0.6223
  499TMC3    C8 7478   2.436   2.349  10.251 -0.2910  1.2614 -0.1420
  499TMC3    O1 7479   1.997   2.490  10.148  0.1904  0.0806  0.0279
  499TMC3    O2 7480   2.435   2.463  10.210  0.8451 -0.2037 -0.1035
  500MPD2     C 7481   2.851   2.468  10.477 -0.1381 -0.2840  0.2609
  500MPD2    C1 7482   2.905   2.573  10.400 -0.4198  0.0271 -0.6804
  500MPD2    C2 7483   2.830   2.674  10.347  0.4758  0.7642 -0.2570
  500MPD2    C3 7484   2.693   2.676  10.359  0.6619  0.6942 -0.8668
  500MPD2    C4 7485   2.640   2.574  10.443  0.2206 -0.3649 -0.9463
  500MPD2    C5 7486   2.717   2.473  10.505 -0.0991  0.1400  0.2840
  500MPD2     H 7487   2.869   2.757  10.290 -0.8769  0.7673 -1.1687
  500MPD2    H1 7488   2.533   2.569  10.458  0.0437  2.1637 -1.3566
  500MPD2    H2 7489   2.905   2.378  10.501  0.2027  0.7233  3.3059
  500MPD2    H3 7490   2.680   2.402  10.577 -0.0214 -0.7666 -0.5739
  500MPD2     N 7491   2.610   2.776  10.308  0.1917  0.0178  0.2536
  500MPD2    H5 7492   2.512   2.781  10.334  0.1978  0.6892  0.1392
  500MPD2    N1 7493   3.040   2.583  10.367  0.4135 -0.0010  0.5871
  500MPD2    H7 7494   3.070   2.654  10.301 -1.0652  0.8321  0.8290
  501TMC3    C1 7495   3.270   2.554  10.405  0.1728 -0.1810  0.3893
  501TMC3    C2 7496   3.291   2.670  10.328  0.3491 -0.2846  0.1399
  501TMC3    C3 7497   3.414   2.727  10.328 -0.3793  0.0359  0.2213
  501TMC3    C4 7498   3.371   2.481  10.465 -0.3566  0.2965  0.7880
  501TMC3    C5 7499   3.494   2.549  10.461  0.3218  0.2992 -0.0834
  501TMC3    C6 7500   3.510   2.666  10.402 -0.6095  0.3802 -0.5693
  501TMC3     C 7501   3.134   2.508  10.427  0.1827  0.0315 -0.5239
  501TMC3     O 7502   3.130   2.419  10.512  0.0998  0.0168  0.2275
  501TMC3     H 7503   3.207   2.718  10.280  0.2500 -0.3066  0.2916
  501TMC3    H1 7504   3.345   2.386  10.511  2.6893 -1.2239 -0.5952
  501TMC3    H2 7505   3.608   2.712  10.403 -0.6302  0.4561 -2.3195
  501TMC3    C7 7506   3.556   2.534  10.587  0.6520  0.3653 -0.2401
  501TMC3    C8 7507   3.427   2.867  10.297 -0.5486 -0.4606  0.1119
  501TMC3    O1 7508   3.514   2.448  10.657  0.4377  0.8251 -0.3549
  501TMC3    O2 7509   3.537   2.910  10.319  0.4371 -0.3320 -0.2804
  502TMC3    C1 7510   2.672   1.145  14.660 -0.1700  0.1941  0.4473
  502TMC3    C2 7511   2.651   1.218  14.543  0.0877 -0.2419 -0.1479
  502TMC3    C3 7512   2.523   1.250  14.503  0.1582  0.2207 -0.5890
  502TMC3    C4 7513   2.564   1.122  14.742  0.0707  0.3645 -0.1559
  502TMC3    C5 7514   2.441   1.158  14.696  0.2506  0.1186  0.6638
  502TMC3    C6 7515   2.421   1.221  14.581  0.0144  0.1295 -0.3411
  502TMC3     C 7516   2.802   1.177  14.719  0.3809  0.6523  0.0636
  502TMC3     O 7517   2.886   1.233  14.644 -0.4014  0.3949  0.1711
  502TMC3     H 7518   2.738   1.230  14.480 -0.8884 -1.8404 -1.8120
  502TMC3    H1 7519   2.581   1.053  14.823 -0.2537 -0.9948 -1.2575
  502TMC3    H2 7520   2.325   1.267  14.565 -0.6537 -1.2564 -0.2544
  502TMC3    C7 7521   2.322   1.112  14.761  0.5721  0.0101 -0.1439
  502TMC3    C8 7522   2.505   1.367  14.423 -0.2979 -0.1258 -0.0762
  502TMC3    O1 7523   2.218   1.130  14.700 -0.1263  0.3539  0.7043
  502TMC3    O2 7524   2.415   1.446  14.455 -0.0767 -0.2713  0.2115
  503MPD2     C 7525   4.728   1.930  16.692 -0.3339  0.2255 -0.3080
  503MPD2    C1 7526   4.700   1.941  16.824  0.0811  0.0467 -0.4776
  503MPD2    C2 7527   0.026   1.857  16.909  0.2996  0.4469  0.1072
  503MPD2    C3 7528   0.102   1.756  16.865 -0.0320  0.1610 -0.8221
  503MPD2    C4 7529   0.125   1.742  16.729 -0.0112 -0.2347 -1.1203
  503MPD2    C5 7530   0.068   1.828  16.644 -0.3493  0.1627 -0.1286
  503MPD2     H 7531   0.003   1.863  17.014  0.1457 -1.6043  0.1824
  503MPD2    H1 7532   0.168   1.654  16.682 -1.4903 -2.4531  1.6199
  503MPD2    H2 7533   4.713   2.009  16.619  0.2868 -0.0236 -0.7029
  503MPD2    H3 7534   0.076   1.822  16.536 -0.6887  0.5795 -0.1791
  503MPD2     N 7535   0.162   1.667  16.957  0.3404 -0.1212  0.2832
  503MPD2    H5 7536   0.146   1.683  17.056 -0.0662 -3.6438  0.7697
  503MPD2    N1 7537   4.617   2.039  16.880  0.0567 -0.2515  0.2861
  503MPD2    H7 7538   4.591   2.035  16.978  0.6107  0.7691  0.4732
  504TMC3    C1 7539   0.270   1.483  17.057  0.4392  0.1633  0.5764
  504TMC3    C2 7540   0.224   1.531  17.181  0.1293 -0.2086  0.3224
  504TMC3    C3 7541   0.297   1.490  17.294 -0.3647  0.4044  0.0639
  504TMC3    C4 7542   0.379   1.402  17.043  0.1385 -0.2516  0.2274
  504TMC3    C5 7543   0.446   1.365  17.159 -0.5048 -0.4010  0.6440
  504TMC3    C6 7544   0.402   1.395  17.283 -0.4156  0.0196 -0.0851
  504TMC3     C 7545   0.232   1.555  16.934 -0.4277 -0.2084 -0.0794
  504TMC3     O 7546   0.266   1.514  16.826  0.1598 -0.4170 -0.0951
  504TMC3     H 7547   0.125   1.575  17.183  0.0558 -0.3281 -0.6246
  504TMC3    H1 7548   0.423   1.379  16.947  0.7070  0.6800  0.2690
  504TMC3    H2 7549   0.447   1.362  17.376 -1.5207  0.5688  0.6443
  504TMC3    C7 7550   0.582   1.318  17.139 -0.0675  0.3271 -0.0238
  504TMC3    C8 7551   0.221   1.501  17.416  0.0691  0.1512 -0.2353
  504TMC3    O1 7552   0.615   1.282  17.032  0.6351 -0.2302  0.0510
  504TMC3    O2 7553   0.105   1.542  17.404  0.0242  0.0555  0.0228
  505MPD2     C 7554   0.227   0.984  10.464 -0.6750 -0.4428 -0.5727
  505MPD2    C1 7555   0.329   0.909  10.512  0.0592  0.3094  0.2175
  505MPD2    C2 7556   0.406   0.957  10.617 -0.7325 -0.7400  0.1556
  505MPD2    C3 7557   0.392   1.090  10.658  0.1676  0.1081  0.4970
  505MPD2    C4 7558   0.295   1.162  10.600  0.4342  0.4400  0.2461
  505MPD2    C5 7559   0.216   1.113  10.504  0.4205  0.2174 -0.0525
  505MPD2     H 7560   0.497   0.913  10.656  0.8438  1.2257 -1.3203
  505MPD2    H1 7561   0.285   1.270  10.608 -0.2308  0.4205 -0.3566
  505MPD2    H2 7562   0.158   0.933  10.398 -3.8250  1.2946  1.4209
  505MPD2    H3 7563   0.139   1.174  10.459 -0.2769  0.9307  2.1236
  505MPD2     N 7564   0.477   1.134  10.756 -0.1678 -0.4144 -0.3537
  505MPD2    H5 7565   0.543   1.070  10.798  0.1102 -0.4625 -0.8649
  505MPD2    N1 7566   0.362   0.787  10.446  0.2732 -0.4030 -0.0740
  505MPD2    H7 7567   0.327   0.775  10.351  1.3849  1.9116 -0.7725
  506TMC3    C1 7568   0.509   0.606  10.401 -0.0860 -0.5800 -0.3334
  506TMC3    C2 7569   0.583   0.662  10.303 -0.8941  0.0005  0.3206
  506TMC3    C3 7570   0.711   0.616  10.289  0.0014  0.1825 -0.0606
  506TMC3    C4 7571   0.555   0.500  10.473  0.1952 -0.6709  0.8167
  506TMC3    C5 7572   0.685   0.456  10.458  0.1745 -0.0057 -0.4440
  506TMC3    C6 7573   0.762   0.519  10.365  0.2517 -0.1528 -0.6751
  506TMC3     C 7574   0.453   0.694  10.493 -0.0814 -1.4982 -0.4352
  506TMC3     O 7575   0.504   0.689  10.606  0.2362 -0.6143 -0.5816
  506TMC3     H 7576   0.544   0.748  10.249  0.3924 -1.2081 -2.5313
  506TMC3    H1 7577   0.494   0.449  10.546 -1.3207  0.3123  0.2348
  506TMC3    H2 7578   0.864   0.497  10.338  0.0445  0.8024 -2.2374
  506TMC3    C7 7579   0.763   0.441  10.577  0.5172  0.3888 -0.2242
  506TMC3    C8 7580   0.784   0.681  10.177 -0.0236 -0.3755 -0.2161
  506TMC3    O1 7581   0.863   0.368  10.577  0.6109 -0.0819  0.8444
  506TMC3    O2 7582   0.722   0.703  10.071 -0.1762 -0.2844  0.6117
  507TMC3    C1 7583   1.007   1.131  14.935 -0.2097  0.5116 -0.7712
  507TMC3    C2 7584   0.936   1.077  14.833  0.3035 -0.0868 -0.6957
  507TMC3    C3 7585   0.935   1.141  14.713 -0.1819  0.1396 -0.2024
  507TMC3    C4 7586   1.086   1.242  14.924  0.5574 -0.4666  0.0079
  507TMC3    C5 7587   1.080   1.303  14.801 -0.6551 -0.7168  0.6591
  507TMC3    C6 7588   1.013   1.249  14.692  0.3026  0.1633  0.2402
  507TMC3     C 7589   1.003   1.066  15.061  0.0127 -0.3044  0.3035
  507TMC3     O 7590   1.106   1.078  15.126  0.1324 -0.2896 -0.7640
  507TMC3     H 7591   0.859   1.002  14.844 -0.0853  0.4346  0.1062
  507TMC3    H1 7592   1.122   1.280  15.019  1.3587 -1.7904  0.2369
  507TMC3    H2 7593   1.040   1.287  14.594  2.4552 -1.3471  0.2599
  507TMC3    C7 7594   1.077   1.450  14.801  0.2883 -0.2343 -0.1865
  507TMC3    C8 7595   0.799   1.170  14.673 -0.3531 -0.0265  0.5986
  507TMC3    O1 7596   1.019   1.500  14.701  0.3368 -0.2816 -0.5658
  507TMC3    O2 7597   0.709   1.092  14.683  0.0334 -0.0522  0.1601
  508MPD2     C 7598   1.982   3.691  15.970 -0.0367  0.8688  0.4743
  508MPD2    C1 7599   2.083   3.781  15.965 -0.0199 -0.0965 -0.6732
  508MPD2    C2 7600   2.117   3.843  15.843 -0.3033  0.5688  0.3027
  508MPD2    C3 7601   2.044   3.821  15.726  0.1737 -0.2445 -0.1692
  508MPD2    C4 7602   1.946   3.728  15.737 -0.2771  0.2073  0.6570
  508MPD2    C5 7603   1.914   3.679  15.857  0.1668 -0.7853 -0.8144
  508MPD2     H 7604   2.196   3.916  15.838  0.9920 -0.7898  0.9606
  508MPD2    H1 7605   1.901   3.685  15.648  1.1206 -1.6389  0.8647
  508MPD2    H2 7606   1.936   3.651  16.059  0.1530 -0.6213 -0.1088
  508MPD2    H3 7607   1.823   3.621  15.840 -0.9365  1.0588 -1.1641
  508MPD2     N 7608   2.078   3.888  15.601  0.0643  0.3476 -0.5267
  508MPD2    H5 7609   2.156   3.953  15.604 -1.9041  2.6464  1.2139
  508MPD2    N1 7610   2.154   3.793  16.087 -0.4158  0.1184 -0.0424
  508MPD2    H7 7611   2.121   3.736  16.165  1.4394  1.1206  1.4826
  509TMC3    C1 7612   1.982   4.115  15.208  0.5400  0.2430 -0.2506
  509TMC3    C2 7613   2.087   4.195  15.239 -0.1873 -0.2662  0.4236
  509TMC3    C3 7614   2.184   4.140  15.320 -0.5955 -0.0533 -0.2902
  509TMC3    C4 7615   1.960   3.995  15.274  0.0978  0.5050 -0.0677
  509TMC3    C5 7616   2.045   3.961  15.374 -0.4894 -0.4973  0.0306
  509TMC3    C6 7617   2.159   4.035  15.394  0.2272  0.1080 -0.2361
  509TMC3     C 7618   1.885   4.144  15.106  0.6410  0.3512 -0.1120
  509TMC3     O 7619   1.786   4.078  15.098 -0.1832  0.0420 -0.6942
  509TMC3     H 7620   2.128   4.278  15.183 -1.1883 -0.2645 -0.3012
  509TMC3    H1 7621   1.871   3.935  15.257 -0.6146  0.8921  2.2722
  509TMC3    H2 7622   2.241   4.001  15.456  0.5005 -0.4588 -0.9058
  509TMC3    C7 7623   1.999   3.885  15.490 -0.2645 -0.2127  0.0451
  509TMC3    C8 7624   2.315   4.200  15.334 -0.3263  0.3011 -0.5029
  509TMC3    O1 7625   1.881   3.854  15.486 -0.6233  0.1353  0.2593
  509TMC3    O2 7626   2.402   4.122  15.370  0.5778  0.0034 -0.1742
  510MPD2     C 7627   4.609   0.685  14.340  0.0748 -0.6315  0.1330
  510MPD2    C1 7628   4.684   0.613  14.426 -0.2958  1.0485 -0.6449
  510MPD2    C2 7629   0.088   0.608  14.410 -0.5624 -0.6491 -0.0444
  510MPD2    C3 7630   0.141   0.668  14.294  0.4128  0.2488  0.4175
  510MPD2    C4 7631   0.060   0.730  14.198  0.2999  0.2029 -0.3936
  510MPD2    C5 7632   4.662   0.731  14.225  0.4404  0.5686  0.0183
  510MPD2     H 7633   0.152   0.550  14.476  0.1966 -0.5902 -0.7300
  510MPD2    H1 7634   0.098   0.784  14.112  0.4287  0.5834 -0.0997
  510MPD2    H2 7635   4.501   0.686  14.344  0.0298  1.3769 -1.3614
  510MPD2    H3 7636   4.594   0.785  14.161  0.5926  0.5322 -0.1754
  510MPD2     N 7637   0.281   0.656  14.265  0.2596  0.6687  0.1503
  510MPD2    H5 7638   0.329   0.597  14.333  0.3782  0.7171  0.1084
  510MPD2    N1 7639   4.611   0.545  14.528  0.2113 -0.2525 -0.2771
  510MPD2    H7 7640   4.511   0.558  14.538  0.5947  2.4777 -0.0810
  511TMC3    C1 7641   4.561   0.388  14.691 -0.3634  0.2956 -0.0928
  511TMC3    C2 7642   4.487   0.456  14.789 -0.2747 -0.1331 -0.0080
  511TMC3    C3 7643   4.401   0.377  14.856 -0.0852  0.3565 -0.0255
  511TMC3    C4 7644   4.556   0.254  14.675 -0.0310 -0.1313  0.0512
  511TMC3    C5 7645   4.463   0.182  14.741 -0.5953  0.5358  0.9536
  511TMC3    C6 7646   4.383   0.239  14.836 -0.2185 -0.2392  0.1730
  511TMC3     C 7647   4.665   0.460  14.625  0.7434 -0.1467 -0.1852
  511TMC3     O 7648   0.050   0.428  14.640 -0.0090  0.1932  0.4262
  511TMC3     H 7649   4.509   0.557  14.822  1.5273 -1.1217  1.7595
  511TMC3    H1 7650   4.616   0.203  14.601 -0.0656 -0.2352  0.0951
  511TMC3    H2 7651   4.304   0.186  14.889 -1.2129  0.7218 -0.3318
  511TMC3    C7 7652   4.426   0.054  14.690 -0.0836  0.2428  0.0193
  511TMC3    C8 7653   4.334   0.438  14.970  0.3359  0.0981 -0.5263
  511TMC3    O1 7654   4.421   0.051  14.568 -0.5747  0.3616  0.2679
  511TMC3    O2 7655   4.314   0.560  14.973  0.4714  0.1505 -0.0239
  512TMC3    C1 7656   3.095   0.073  13.352  0.3297 -0.4078 -0.0637
  512TMC3    C2 7657   3.178   4.729  13.420  0.1173  0.2258  0.9875
  512TMC3    C3 7658   3.296   4.689  13.377  0.1802  0.2549 -0.1713
  512TMC3    C4 7659   3.134   0.123  13.232  0.5006  0.9655 -0.1861
  512TMC3    C5 7660   3.263   0.092  13.192  0.6798  0.0321 -0.6217
  512TMC3    C6 7661   3.350   0.023  13.274  0.1464  0.2434  0.0028
  512TMC3     C 7662   2.979   0.120  13.417 -0.7231 -0.3331  0.2133
  512TMC3     O 7663   2.942   0.045  13.506  0.1198 -0.6533  0.2580
  512TMC3     H 7664   3.141   4.677  13.509 -2.6692  1.9949  0.8631
  512TMC3    H1 7665   3.059   0.178  13.176 -0.6392  1.2961  1.6589
  512TMC3    H2 7666   3.448   4.729  13.241  0.7863  3.9094 -1.5179
  512TMC3    C7 7667   3.288   0.104  13.050  0.2552  0.7221 -0.0843
  512TMC3    C8 7668   3.376   4.607  13.458  0.1954 -0.0789 -0.5804
  512TMC3    O1 7669   3.219   0.194  12.990  0.3959 -0.1274  0.1173
  512TMC3    O2 7670   3.307   4.524  13.523  0.2670 -0.1249 -0.0050
  513MPD2     C 7671   0.725   4.541  13.390 -0.0822 -0.1838 -0.5892
  513MPD2    C1 7672   0.706   4.567  13.258 -0.0409  0.1251 -0.2161
  513MPD2    C2 7673   0.788   4.670  13.211  0.1112  0.7860  0.0333
  513MPD2    C3 7674   0.886   4.731  13.291  0.2371  0.7942  0.9037
  513MPD2    C4 7675   0.895   4.706  13.427  0.6011  0.3490  0.2582
  513MPD2    C5 7676   0.816   4.606  13.476  0.0944 -0.1333  0.5538
  513MPD2     H 7677   0.793   4.691  13.105  0.1431  2.3309  0.3408
  513MPD2    H1 7678   0.973   0.009  13.491 -0.8206  3.3200  0.1255
  513MPD2    H2 7679   0.679   4.450  13.427  0.6582  0.8809  2.8699
  513MPD2    H3 7680   0.850   4.564  13.570 -1.2158 -0.3593  0.9342
  513MPD2     N 7681   0.972   0.080  13.222 -0.1221  0.0829  0.2346
  513MPD2    H5 7682   0.957   0.092  13.123  0.2409  0.0507  0.1738
  513MPD2    N1 7683   0.630   4.486  13.165 -0.5315  0.0979  0.1412
  513MPD2    H7 7684   0.604   4.394  13.197 -2.0666  0.3226 -0.4325
  514TMC3    C1 7685   0.528   4.445  12.957 -0.4140 -0.3195 -0.2106
  514TMC3    C2 7686   0.469   4.510  12.849 -0.1348 -0.1719 -0.1992
  514TMC3    C3 7687   0.438   4.421  12.747 -0.2495 -0.4087  0.1817
  514TMC3    C4 7688   0.561   4.317  12.960 -0.7194  0.1554  0.6564
  514TMC3    C5 7689   0.522   4.230  12.861 -0.4197 -0.2701  0.0988
  514TMC3    C6 7690   0.458   4.284  12.749  0.4698 -0.1285 -0.2798
  514TMC3     C 7691   0.587   4.535  13.050  0.1685  0.1587 -0.4639
  514TMC3     O 7692   0.572   4.652  13.021 -0.5051  0.6994 -0.3456
  514TMC3     H 7693   0.442   4.614  12.836  0.8787  0.1316  0.1268
  514TMC3    H1 7694   0.628   4.288  13.040  1.7722  0.6418 -1.2458
  514TMC3    H2 7695   0.438   4.214  12.669 -0.7709  1.6729 -1.5510
  514TMC3    C7 7696   0.632   4.157  12.824 -0.2023 -0.0230  0.4545
  514TMC3    C8 7697   0.417   4.472  12.614 -0.2896 -0.0841 -0.8334
  514TMC3    O1 7698   0.623   4.039  12.799  0.3881  0.0694 -0.5433
  514TMC3    O2 7699   0.338   4.420  12.535  0.3308  1.1116 -0.0821
  515MPD2     C 7700   3.436   2.243  14.709 -0.0150  0.3890 -0.6161
  515MPD2    C1 7701   3.492   2.138  14.642 -0.2303  0.1670  0.1229
  515MPD2    C2 7702   3.620   2.101  14.670  0.7967 -0.2805 -0.3132
  515MPD2    C3 7703   3.691   2.146  14.783 -0.5872 -0.7190 -0.1375
  515MPD2    C4 7704   3.633   2.255  14.852 -0.0923  0.3420  0.1803
  515MPD2    C5 7705   3.502   2.294  14.818  0.5761  0.2758  0.6409
  515MPD2     H 7706   3.674   2.046  14.594 -0.8771  0.8156 -2.2820
  515MPD2    H1 7707   3.679   2.303  14.938 -1.7635  0.2569  1.1236
  515MPD2    H2 7708   3.339   2.279  14.677 -0.0428  0.9841  0.1160
  515MPD2    H3 7709   3.453   2.379  14.864 -1.9773 -0.6790 -0.3100
  515MPD2     N 7710   3.820   2.101  14.825 -0.1567  0.1697 -0.3666
  515MPD2    H5 7711   3.848   2.139  14.915 -0.1593 -0.6412 -0.0278
  515MPD2    N1 7712   3.421   2.080  14.523  0.3032 -0.4948  0.1551
  515MPD2    H7 7713   3.470   2.011  14.468 -1.1164 -0.2944 -1.3819
  516TMC3    C1 7714   3.255   2.042  14.361  0.7616  0.3638 -0.5377
  516TMC3    C2 7715   3.188   2.103  14.261 -1.0096 -0.1720  0.4800
  516TMC3    C3 7716   3.181   2.040  14.142 -0.3377  0.0119  0.2704
  516TMC3    C4 7717   3.304   1.913  14.340  0.2929 -0.2028  0.0372
  516TMC3    C5 7718   3.278   1.843  14.226  0.3362 -0.3570 -0.2523
  516TMC3    C6 7719   3.213   1.905  14.125 -0.4147 -0.2380  0.5953
  516TMC3     C 7720   3.301   2.129  14.469 -0.3618 -0.1651 -0.0591
  516TMC3     O 7721   3.217   2.215  14.503 -0.2168  0.1358  0.5513
  516TMC3     H 7722   3.150   2.204  14.266 -0.1513  0.1401  0.6533
  516TMC3    H1 7723   3.358   1.864  14.420  0.2680  2.1596  1.5127
  516TMC3    H2 7724   3.196   1.849  14.034 -1.3381  0.3969  0.3764
  516TMC3    C7 7725   3.318   1.704  14.221 -0.3619 -0.5743  0.2182
  516TMC3    C8 7726   3.119   2.114  14.033 -1.0227  0.0627  0.1946
  516TMC3    O1 7727   3.410   1.673  14.296 -0.1743  1.0917 -0.2283
  516TMC3    O2 7728   3.031   2.190  14.063  0.1461  0.2739 -0.4148
  517MPD2     C 7729   2.656   3.181  17.252  0.2562  0.2674 -0.0117
  517MPD2    C1 7730   2.755   3.153  17.351 -0.1735 -0.5498  0.0153
  517MPD2    C2 7731   2.783   3.250  17.446 -0.8904 -0.7779 -0.1944
  517MPD2    C3 7732   2.700   3.368  17.463 -0.6763 -0.0875 -0.7558
  517MPD2    C4 7733   2.602   3.394  17.367 -0.9014  0.5570  0.8337
  517MPD2    C5 7734   2.577   3.298  17.268 -0.2345  0.2372 -0.3780
  517MPD2     H 7735   2.866   3.242  17.515 -0.1998 -2.5667 -1.2387
  517MPD2    H1 7736   2.544   3.486  17.368  0.0218  1.1573 -1.5340
  517MPD2    H2 7737   2.634   3.118  17.166  0.4633 -0.0259  0.1504
  517MPD2    H3 7738   2.490   3.307  17.204 -0.2678 -0.2586 -0.4099
  517MPD2     N 7739   2.733   3.472  17.555  0.6801 -0.0041  0.1866
  517MPD2    H5 7740   2.678   3.557  17.551  0.1158 -0.2568  2.5181
  517MPD2    N1 7741   2.836   3.040  17.349  0.1938 -0.1109  0.2345
  517MPD2    H7 7742   2.906   3.046  17.423 -1.3795 -1.9680  1.8834
  518TMC3    C1 7743   2.953   2.862  17.285 -0.0660 -0.3257 -0.2140
  518TMC3    C2 7744   2.947   2.724  17.295 -0.7189 -0.3953  0.3089
  518TMC3    C3 7745   3.063   2.659  17.298 -0.2108 -0.0464 -0.3266
  518TMC3    C4 7746   3.069   2.928  17.276 -0.5630 -0.6980  0.7858
  518TMC3    C5 7747   3.182   2.856  17.291  0.0315 -0.2917 -0.7407
  518TMC3    C6 7748   3.185   2.717  17.299  0.2265 -0.1100  0.5019
  518TMC3     C 7749   2.840   2.941  17.259  0.2226 -0.1154 -0.7149
  518TMC3     O 7750   2.758   2.898  17.182 -0.0195  0.1872  0.5002
  518TMC3     H 7751   2.851   2.673  17.302 -0.5727 -0.6785  0.2308
  518TMC3    H1 7752   3.065   3.036  17.275  1.7350 -0.6189 -1.1115
  518TMC3    H2 7753   3.270   2.653  17.318  0.7288  0.7701  1.1959
  518TMC3    C7 7754   3.303   2.924  17.267  0.4823  0.1611 -0.0946
  518TMC3    C8 7755   3.068   2.512  17.309 -0.2675  0.2008  0.6597
  518TMC3    O1 7756   3.316   3.045  17.288  0.4864 -0.2873 -0.1327
  518TMC3    O2 7757   3.171   2.460  17.269 -0.3169 -0.0216  0.0110
  519MPD2     C 7758   0.210   1.631  14.195  0.0260 -0.3973 -0.3807
  519MPD2    C1 7759   0.220   1.617  14.056  0.3450 -0.2964 -0.2554
  519MPD2    C2 7760   0.268   1.502  14.005 -0.1620 -0.1830 -0.0548
  519MPD2    C3 7761   0.284   1.388  14.084  0.0700 -0.3130  0.6483
  519MPD2    C4 7762   0.287   1.409  14.217  0.4865 -0.0629  0.0581
  519MPD2    C5 7763   0.260   1.526  14.268  0.4417 -0.2968  0.1778
  519MPD2     H 7764   0.292   1.497  13.899 -1.1066  0.0133 -0.2832
  519MPD2    H1 7765   0.314   1.329  14.285  2.6381  1.2555  0.7660
  519MPD2    H2 7766   0.189   1.722  14.250  2.0928 -0.9490  1.3371
  519MPD2    H3 7767   0.253   1.529  14.376  1.3564  0.4078  0.2222
  519MPD2     N 7768   0.306   1.257  14.025  0.5575  0.3249 -0.0612
  519MPD2    H5 7769   0.330   1.174  14.078  0.3660 -1.4684 -2.7239
  519MPD2    N1 7770   0.186   1.723  13.973 -0.0685 -0.1358  0.0539
  519MPD2    H7 7771   0.219   1.719  13.877  1.0028  0.0915  0.4098
  520TMC3    C1 7772   0.285   1.110  13.846  0.3302  0.6080  0.7673
  520TMC3    C2 7773   0.203   1.075  13.741 -0.1209 -0.0049  0.4470
  520TMC3    C3 7774   0.242   0.978  13.651 -0.2630  0.7960 -0.0193
  520TMC3    C4 7775   0.402   1.051  13.866  0.1463 -0.2276 -0.0759
  520TMC3    C5 7776   0.438   0.952  13.775  0.0769 -0.5861  0.2777
  520TMC3    C6 7777   0.365   0.923  13.666 -0.5819 -0.5285  0.0933
  520TMC3     C 7778   0.258   1.240  13.897  0.4978 -0.4292 -0.6084
  520TMC3     O 7779   0.179   1.304  13.833  0.5208 -0.4157 -0.1631
  520TMC3     H 7780   0.112   1.128  13.718  0.8462  1.7706  0.7391
  520TMC3    H1 7781   0.470   1.077  13.947 -1.3475  1.1981  0.7301
  520TMC3    H2 7782   0.397   0.853  13.590 -0.9930 -1.8799  1.1728
  520TMC3    C7 7783   0.572   0.901  13.788 -0.2695 -0.0617  0.3982
  520TMC3    C8 7784   0.184   0.972  13.524 -0.3485 -0.5123 -0.6029
  520TMC3    O1 7785   0.619   0.911  13.903  0.1588 -0.2025 -0.5299
  520TMC3    O2 7786   0.245   0.907  13.440  0.2155  0.5121  0.3590
  521MPD2     C 7787   1.017   4.115  17.386  0.1474  0.2581 -0.0753
  521MPD2    C1 7788   0.985   4.021  17.285  0.4167  0.5185 -1.0926
  521MPD2    C2 7789   1.089   3.949  17.224  0.0683 -0.0892  0.9714
  521MPD2    C3 7790   1.216   3.955  17.268 -0.4400  0.0858 -0.7004
  521MPD2    C4 7791   1.246   4.050  17.363 -0.5587 -0.2207  0.3821
  521MPD2    C5 7792   1.149   4.128  17.425  0.1800 -0.1352  0.3625
  521MPD2     H 7793   1.063   3.888  17.139 -0.3008  0.5705  0.6085
  521MPD2    H1 7794   1.346   4.064  17.403 -1.5269  2.8664  1.7204
  521MPD2    H2 7795   0.944   4.181  17.433 -1.2062  0.6623 -2.7108
  521MPD2    H3 7796   1.191   4.199  17.494  0.6270 -0.4563  0.4183
  521MPD2     N 7797   1.316   3.891  17.183 -0.0020  0.2045 -0.5237
  521MPD2    H5 7798   1.281   3.836  17.106  1.9536 -1.2937 -0.3495
  521MPD2    N1 7799   0.852   4.014  17.246  0.0051  0.9717 -0.9132
  521MPD2    H7 7800   0.785   4.076  17.290 -2.4803 -2.4009  0.0130
  522TMC3    C1 7801   1.531   3.819  17.102  0.3916 -0.1876 -0.4797
  522TMC3    C2 7802   1.643   3.750  17.141  0.0985  0.1325  0.7556
  522TMC3    C3 7803   1.715   3.698  17.043 -0.1496 -0.3361  0.5233
  522TMC3    C4 7804   1.490   3.829  16.976  0.2525 -0.2728  0.0900
  522TMC3    C5 7805   1.560   3.758  16.884 -0.2726 -0.5106  0.2126
  522TMC3    C6 7806   1.666   3.684  16.916  0.1529  0.0711 -0.6633
  522TMC3     C 7807   1.450   3.884  17.209  0.1486 -0.0206  0.0706
  522TMC3     O 7808   1.509   3.919  17.314 -0.3366  0.0424 -0.2016
  522TMC3     H 7809   1.677   3.747  17.244 -1.6934 -2.2516  1.2630
  522TMC3    H1 7810   1.401   3.886  16.956  1.0353  1.2448  0.9343
  522TMC3    H2 7811   1.720   3.628  16.840  1.3937 -1.1531  1.1353
  522TMC3    C7 7812   1.529   3.770  16.737 -0.0287  0.6486 -0.2187
  522TMC3    C8 7813   1.849   3.668  17.067  0.4552 -0.4656  0.1352
  522TMC3    O1 7814   1.585   3.695  16.658 -0.0588  0.0568  0.3174
  522TMC3    O2 7815   1.885   3.665  17.183 -0.3079  0.2880  0.0057
  523MPD2     C 7816   3.877   0.015   9.814 -0.9975  0.5147 -0.4316
  523MPD2    C1 7817   3.809   4.635   9.783  0.6251 -0.2573  0.3847
  523MPD2    C2 7818   3.693   4.640   9.703 -0.2383 -0.2036 -0.1172
  523MPD2    C3 7819   3.641   0.028   9.661  0.3957 -0.1350 -0.3802
  523MPD2    C4 7820   3.709   0.140   9.696 -0.5843  0.1796 -0.5452
  523MPD2    C5 7821   3.823   0.133   9.767  0.0135 -0.1854  0.0798
  523MPD2     H 7822   3.648   4.546   9.677  1.6222 -1.6460  1.8788
  523MPD2    H1 7823   3.686   0.234   9.647  1.2263 -0.5913 -2.9030
  523MPD2    H2 7824   3.960   0.022   9.884  0.3517 -0.5724 -1.9189
  523MPD2    H3 7825   3.873   0.227   9.785  1.1512 -1.0223  1.3395
  523MPD2     N 7826   3.534   0.040   9.569 -0.1022 -0.3878 -0.1017
  523MPD2    H5 7827   3.506   0.136   9.557 -2.6169 -1.3391 -1.9694
  523MPD2    N1 7828   3.844   4.501   9.831 -0.3016  0.0175  0.5659
  523MPD2    H7 7829   3.788   4.425   9.795  0.7481 -1.0617  1.2130
  524TMC3    C1 7830   3.357   4.703   9.424 -0.0363 -1.2904  0.2664
  524TMC3    C2 7831   3.259   4.613   9.452  0.0574  0.3792  0.4608
  524TMC3    C3 7832   3.129   4.653   9.470  1.0270 -0.7419 -0.4016
  524TMC3    C4 7833   3.336   0.098   9.415 -0.2105 -0.3718  0.2524
  524TMC3    C5 7834   3.204   0.134   9.427 -0.3647 -0.4047 -0.5098
  524TMC3    C6 7835   3.102   0.045   9.456  0.4843 -0.5766  0.5172
  524TMC3     C 7836   3.473   4.667   9.511 -0.9686 -0.5098 -0.1565
  524TMC3     O 7837   3.491   4.547   9.528  0.0599  0.2842  0.0701
  524TMC3     H 7838   3.290   4.511   9.437 -0.1395  0.3438  0.2981
  524TMC3    H1 7839   3.418   0.162   9.384 -1.5555  1.1355 -0.2193
  524TMC3    H2 7840   3.002   0.086   9.461  1.2507  1.4357 -0.6626
  524TMC3    C7 7841   3.170   0.273   9.397 -0.3283  0.1518 -0.2415
  524TMC3    C8 7842   3.026   4.559   9.488  0.2168  0.4046  0.0769
  524TMC3    O1 7843   3.266   0.345   9.406  0.0053  0.2783 -0.2131
  524TMC3    O2 7844   2.912   4.599   9.471 -0.2867  0.1998 -0.4031
  525MPD2     C 7845   1.553   1.042  14.298  0.4280  0.1650  0.5265
  525MPD2    C1 7846   1.671   1.060  14.371  0.3892  0.0730 -0.0272
  525MPD2    C2 7847   1.719   1.184  14.406  0.0394  0.4177  0.1925
  525MPD2    C3 7848   1.644   1.296  14.373  0.3547  0.2535 -0.4950
  525MPD2    C4 7849   1.533   1.275  14.290 -0.9182  0.0065 -0.3274
  525MPD2    C5 7850   1.488   1.154  14.250 -0.0373 -0.1525 -0.0947
  525MPD2     H 7851   1.811   1.203  14.459 -2.1501  1.9083  3.4727
  525MPD2    H1 7852   1.477   1.363  14.259  0.8824  0.5268 -2.0616
  525MPD2    H2 7853   1.512   0.946  14.270  0.2776  0.3874 -0.0183
  525MPD2    H3 7854   1.390   1.156  14.204  0.7878  2.5882 -1.7148
  525MPD2     N 7855   1.674   1.426  14.421 -0.5378 -0.8633  0.0248
  525MPD2    H5 7856   1.606   1.499  14.400 -0.2158 -0.6942 -0.4431
  525MPD2    N1 7857   1.737   0.953  14.443 -0.3659  0.3863 -0.2169
  525MPD2    H7 7858   1.825   0.975  14.488 -0.0031 -0.3414 -0.5678
  526TMC3    C1 7859   1.742   0.756  14.571  0.4375 -0.3588 -0.4053
  526TMC3    C2 7860   1.682   0.744  14.693 -0.1601  0.5401 -0.2668
  526TMC3    C3 7861   1.763   0.706  14.797  0.2693  0.0551 -0.4812
  526TMC3    C4 7862   1.873   0.759  14.554  0.2861 -0.2684 -0.3474
  526TMC3    C5 7863   1.951   0.733  14.660  0.1553  0.4675 -0.2584
  526TMC3    C6 7864   1.899   0.698  14.781  1.1939 -0.3618  0.2516
  526TMC3     C 7865   1.668   0.837  14.480  0.0091  0.2562 -0.0811
  526TMC3     O 7866   1.557   0.798  14.446 -0.2723 -0.3861  0.1680
  526TMC3     H 7867   1.577   0.769  14.701 -0.3072 -0.3039  0.4251
  526TMC3    H1 7868   1.917   0.793  14.460  0.5335  0.4565  0.0265
  526TMC3    H2 7869   1.968   0.693  14.865  2.4666  0.8979 -0.7197
  526TMC3    C7 7870   2.090   0.726  14.632 -0.2083  0.1275 -0.0815
  526TMC3    C8 7871   1.726   0.709  14.940 -0.3806 -0.5922 -0.3974
  526TMC3    O1 7872   2.154   0.639  14.686 -0.4336 -0.8340  0.1302
  526TMC3    O2 7873   1.813   0.712  15.023  0.4724  0.3980 -0.5056
  527MPD2     C 7874   0.215   4.159   1.349 -0.5074  0.1252 -0.5150
  527MPD2    C1 7875   0.126   4.131   1.242  0.0363  1.2841 -0.4760
  527MPD2    C2 7876   0.156   4.023   1.159 -0.4951  0.2865  0.2251
  527MPD2    C3 7877   0.262   3.936   1.180  0.2861 -0.4262 -0.2556
  527MPD2    C4 7878   0.343   3.961   1.295  0.8010  0.1262 -0.1994
  527MPD2    C5 7879   0.316   4.071   1.376 -0.8104  0.4651 -0.7482
  527MPD2     H 7880   0.090   4.006   1.075 -0.0805  1.8721 -0.4100
  527MPD2    H1 7881   0.420   3.895   1.332 -0.3646 -1.2086 -0.1491
  527MPD2    H2 7882   0.196   4.240   1.419  0.8319 -0.9348  1.0666
  527MPD2    H3 7883   0.374   4.085   1.467 -0.2565 -2.3824 -0.6540
  527MPD2     N 7884   0.281   3.828   1.090  0.1105 -0.4784  0.7423
  527MPD2    H5 7885   0.211   3.817   1.018  0.7551  1.2910 -0.1641
  527MPD2    N1 7886   0.010   4.199   1.212 -0.3082  0.0034  0.1072
  527MPD2    H7 7887   4.690   4.167   1.134  1.7872 -0.7996 -1.0920
  528TMC3    C1 7888   4.553   4.311   1.244  0.2817 -0.4108 -0.8656
  528TMC3    C2 7889   4.523   4.255   1.120  0.6588 -0.8825 -0.1336
  528TMC3    C3 7890   4.401   4.194   1.099  0.4546 -0.1115  0.3997
  528TMC3    C4 7891   4.462   4.313   1.345  0.3628 -0.0425  0.5023
  528TMC3    C5 7892   4.340   4.244   1.321  0.4558 -0.0324 -0.3736
  528TMC3    C6 7893   4.308   4.188   1.199 -0.6942  0.3049  0.2248
  528TMC3     C 7894   4.684   4.299   1.288 -0.2741 -0.1311  0.4724
  528TMC3     O 7895   4.725   4.358   1.387  0.7881  0.7799 -0.4381
  528TMC3     H 7896   4.594   4.264   1.039  0.5962  0.0895 -0.0714
  528TMC3    H1 7897   4.475   4.361   1.442  1.5157 -1.5847  1.0988
  528TMC3    H2 7898   4.216   4.132   1.190 -0.6804  0.4498 -0.8155
  528TMC3    C7 7899   4.232   4.267   1.413 -0.2952 -1.0271  0.0136
  528TMC3    C8 7900   4.394   4.108   0.979 -0.0236  0.4521  0.3990
  528TMC3    O1 7901   4.270   4.324   1.516  0.0680 -0.3135 -0.5089
  528TMC3    O2 7902   4.503   4.082   0.926  0.7119 -0.1897  0.0724
  529MPD2     C 7903   2.234   1.970   1.046 -0.0318 -0.7620  0.2150
  529MPD2    C1 7904   2.234   1.882   0.941 -0.2102  0.4062  0.0329
  529MPD2    C2 7905   2.210   1.929   0.804  0.9194 -0.5222  0.1544
  529MPD2    C3 7906   2.176   2.058   0.785  0.1240  0.2727  1.2540
  529MPD2    C4 7907   2.168   2.144   0.890  0.4402  1.0499 -0.1188
  529MPD2    C5 7908   2.206   2.100   1.015 -0.2147  0.3973  0.8204
  529MPD2     H 7909   2.213   1.858   0.722  0.4330  0.7916 -1.0190
  529MPD2    H1 7910   2.128   2.245   0.883  0.8579  1.1744 -0.7315
  529MPD2    H2 7911   2.255   1.940   1.148 -1.3503 -0.0940  0.6819
  529MPD2    H3 7912   2.206   2.172   1.096 -2.1587 -0.2899  1.4265
  529MPD2     N 7913   2.141   2.103   0.657 -0.3756 -0.3110  0.0292
  529MPD2    H5 7914   2.123   2.203   0.656 -1.2554 -0.4732 -0.3331
  529MPD2    N1 7915   2.264   1.744   0.961 -0.1744  0.1121  0.3403
  529MPD2    H7 7916   2.237   1.677   0.890  1.1941 -1.7791  1.5941
  530TMC3    C1 7917   2.318   1.541   1.076 -0.6911 -0.1457 -0.1739
  530TMC3    C2 7918   2.417   1.486   1.162 -0.4604  0.3037  0.6036
  530TMC3    C3 7919   2.423   1.349   1.172  0.3401  0.2049 -0.3580
  530TMC3    C4 7920   2.225   1.460   1.012 -0.2847 -0.0750 -0.5495
  530TMC3    C5 7921   2.224   1.325   1.042 -0.1478  0.2254 -0.1752
  530TMC3    C6 7922   2.322   1.265   1.118 -0.4898 -0.5902  0.0707
  530TMC3     C 7923   2.322   1.690   1.075  0.5653  0.1515  0.4929
  530TMC3     O 7924   2.391   1.739   1.166  0.2496  0.3703 -0.4267
  530TMC3     H 7925   2.508   1.539   1.189 -0.1061  0.2779 -0.5155
  530TMC3    H1 7926   2.150   1.500   0.944  0.0816  1.4657 -0.0617
  530TMC3    H2 7927   2.322   1.157   1.115  1.5772 -0.5836  0.3702
  530TMC3    C7 7928   2.134   1.248   0.961  0.0335  0.9647  0.8415
  530TMC3    C8 7929   2.550   1.281   1.216 -0.8874  0.6289 -0.2999
  530TMC3    O1 7930   2.118   1.291   0.844 -0.0747 -0.0049  0.0297
  530TMC3    O2 7931   2.576   1.171   1.170 -0.6806 -0.5829  0.3532
  531MPD2     C 7932   1.149   4.193  12.849 -0.7362  0.6982  0.1807
  531MPD2    C1 7933   1.089   4.318  12.853 -0.1195  0.1693  0.1578
  531MPD2    C2 7934   0.959   4.325  12.840 -0.6216  0.0666 -0.6596
  531MPD2    C3 7935   0.878   4.216  12.823  0.7865 -0.7877  0.0688
  531MPD2    C4 7936   0.934   4.095  12.802 -0.2637 -0.4395 -0.2424
  531MPD2    C5 7937   1.072   4.082  12.823  0.4546 -0.0555  0.0019
  531MPD2     H 7938   0.913   4.421  12.858 -0.1770  0.3918 -1.2547
  531MPD2    H1 7939   0.873   4.007  12.785  0.2925 -0.5702 -1.5391
  531MPD2    H2 7940   1.254   4.188  12.876 -0.9878 -0.2968  0.9819
  531MPD2    H3 7941   1.115   3.983  12.812  0.5768  0.0641 -0.5968
  531MPD2     N 7942   0.741   4.241  12.828 -0.4704  0.1065  0.0905
  531MPD2    H5 7943   0.710   4.337  12.832  1.4429  0.7731 -1.0500
  531MPD2    N1 7944   1.170   4.423  12.912 -0.0019 -0.0266  0.0729
  531MPD2    H7 7945   1.254   4.399  12.963  0.2040  0.4494 -0.0396
  532TMC3    C1 7946   1.212   4.629  13.018  0.5241 -0.1613  0.2193
  532TMC3    C2 7947   1.149   0.012  13.057 -0.0373 -0.4349  0.3038
  532TMC3    C3 7948   1.199   0.070  13.171 -0.0947 -1.3021 -0.3972
  532TMC3    C4 7949   1.330   4.586  13.073 -0.2000 -0.8333 -0.1931
  532TMC3    C5 7950   1.376   4.661  13.174  0.2636  0.0266 -0.0719
  532TMC3    C6 7951   1.314   0.026  13.237  0.2314 -0.4855 -0.1808
  532TMC3     C 7952   1.136   4.554  12.920  0.3732  0.8117  0.5123
  532TMC3     O 7953   1.042   4.603  12.867 -0.3512 -0.3832  0.0171
  532TMC3     H 7954   1.068   0.048  12.994  0.6772  0.3346 -0.1730
  532TMC3    H1 7955   1.381   4.501  13.028  2.4459  0.3542  0.5758
  532TMC3    H2 7956   1.347   0.070  13.330 -0.1880 -3.0468  1.1712
  532TMC3    C7 7957   1.500   4.626  13.227 -0.1545  0.3159 -0.4779
  532TMC3    C8 7958   1.098   0.111  13.271  0.2459 -0.7311 -0.2067
  532TMC3    O1 7959   1.583   4.714  13.241  0.3377  0.4239  0.1279
  532TMC3    O2 7960   1.136   0.126  13.388 -0.3531 -0.1059 -0.7318
  533TMC3    C1 7961   1.767   1.587  14.556 -0.3510  0.3140  0.7600
  533TMC3    C2 7962   1.878   1.646  14.607  0.2546 -0.1512 -0.6590
  533TMC3    C3 7963   1.864   1.762  14.675  0.4540  0.1856 -0.5693
  533TMC3    C4 7964   1.643   1.620  14.601  0.3059 -0.3987 -1.2593
  533TMC3    C5 7965   1.631   1.733  14.681  0.5212 -0.0427 -0.6956
  533TMC3    C6 7966   1.738   1.815  14.706  0.1437 -1.0432 -0.2078
  533TMC3     C 7967   1.784   1.460  14.497 -0.1318 -0.4198  0.7862
  533TMC3     O 7968   1.884   1.396  14.524 -0.1924  0.3883  0.1175
  533TMC3     H 7969   1.976   1.601  14.594  0.8111  1.1199 -0.7851
  533TMC3    H1 7970   1.557   1.556  14.585 -0.2131 -0.1446  0.5356
  533TMC3    H2 7971   1.722   1.905  14.764 -4.3190 -0.3748 -2.4609
  533TMC3    C7 7972   1.547   1.700  14.796 -0.1252 -0.3951  0.6713
  533TMC3    C8 7973   1.981   1.849  14.681  0.5729  0.1417 -0.3175
  533TMC3    O1 7974   1.513   1.583  14.796 -0.2484  0.2539 -0.3145
  533TMC3    O2 7975   2.079   1.810  14.611  0.5770  0.5411  0.1910
  534MPD2     C 7976   4.642   2.003   1.419 -0.3322 -0.3130  0.6442
  534MPD2    C1 7977   4.629   2.050   1.289  0.1356  0.2295  0.0796
  534MPD2    C2 7978   4.506   2.061   1.234 -0.0350  0.6456 -0.7920
  534MPD2    C3 7979   4.394   2.022   1.302 -0.1071  0.0902  0.0633
  534MPD2    C4 7980   4.407   1.971   1.424  0.1779  0.5639  0.6810
  534MPD2    C5 7981   4.530   1.963   1.480  0.2323 -0.2794 -0.3854
  534MPD2     H 7982   4.496   2.102   1.134 -1.6839 -0.9848 -1.3109
  534MPD2    H1 7983   4.321   1.930   1.475 -1.6101  2.0339 -1.1468
  534MPD2    H2 7984   4.730   2.004   1.482  2.0996 -2.0547 -2.7165
  534MPD2    H3 7985   4.549   1.922   1.578 -1.4919 -0.5570 -0.1617
  534MPD2     N 7986   4.265   2.009   1.251 -0.2464 -0.0266 -0.3337
  534MPD2    H5 7987   4.188   1.990   1.315 -0.8909  0.7117 -0.8869
  534MPD2    N1 7988   4.736   2.087   1.206  1.0619 -0.5260 -0.6183
  534MPD2    H7 7989   4.713   2.106   1.109  0.5998  2.0808  0.0143
  535TMC3    C1 7990   4.085   2.004   1.094 -0.5136 -0.1701  0.1141
  535TMC3    C2 7991   3.995   1.961   1.192 -0.4758 -0.0539 -0.2478
  535TMC3    C3 7992   3.860   1.974   1.163  1.0145  0.3886 -0.2777
  535TMC3    C4 7993   4.042   2.060   0.976  0.1838 -0.6208 -0.2032
  535TMC3    C5 7994   3.907   2.068   0.958  0.0471 -0.4622  0.2865
  535TMC3    C6 7995   3.814   2.020   1.042 -0.5888 -0.6268 -0.3782
  535TMC3     C 7996   4.227   2.031   1.119 -0.3215  0.1009  0.3341
  535TMC3     O 7997   4.301   2.042   1.022 -0.5701 -0.2471 -0.5054
  535TMC3     H 7998   4.021   1.905   1.281  1.0211 -0.8435 -1.1825
  535TMC3    H1 7999   4.113   2.090   0.901  0.5940  0.9563  0.8216
  535TMC3    H2 8000   3.709   2.022   1.016 -0.2170  2.7623 -1.6027
  535TMC3    C7 8001   3.864   2.159   0.853  0.3489  0.0992 -0.7858
  535TMC3    C8 8002   3.754   1.933   1.252  0.0901 -0.6669  0.3491
  535TMC3    O1 8003   3.751   2.151   0.810  0.1662  0.6572 -0.4819
  535TMC3    O2 8004   3.643   1.909   1.206 -0.2843 -0.2341  0.1473
  536MPD2     C 8005   2.671   1.051  16.167  0.1110 -0.0273 -0.6142
  536MPD2    C1 8006   2.785   1.016  16.098  0.6446 -0.1540  0.2567
  536MPD2    C2 8007   2.829   1.106  15.995  0.5373  0.5525  0.3555
  536MPD2    C3 8008   2.759   1.226  15.975  0.1848  0.2509 -0.4239
  536MPD2    C4 8009   2.651   1.261  16.047 -0.3611 -1.0303 -0.1320
  536MPD2    C5 8010   2.613   1.177  16.148 -0.6956 -0.4324 -0.2424
  536MPD2     H 8011   2.914   1.082  15.933 -0.2393 -1.5623  0.0789
  536MPD2    H1 8012   2.588   1.346  16.023 -0.1828 -0.3890  1.6836
  536MPD2    H2 8013   2.629   0.984  16.241 -4.0168  2.1854 -0.9893
  536MPD2    H3 8014   2.526   1.203  16.208 -1.0872 -1.3034 -0.4269
  536MPD2     N 8015   2.801   1.320  15.881  0.0849  0.0123 -0.4227
  536MPD2    H5 8016   2.743   1.403  15.876  0.2960  0.2319  0.7502
  536MPD2    N1 8017   2.841   0.887  16.130  0.3424 -0.2508  0.4139
  536MPD2    H7 8018   2.794   0.822  16.193  1.0524 -2.3262 -1.2005
  537TMC3    C1 8019   3.002   0.716  16.118 -0.1207 -0.0443  0.1241
  537TMC3    C2 8020   3.132   0.718  16.168 -0.3159 -0.4176  0.4810
  537TMC3    C3 8021   3.164   0.614  16.257  0.5606  0.2786 -0.6818
  537TMC3    C4 8022   2.916   0.616  16.148  0.5053  0.1602 -0.8784
  537TMC3    C5 8023   2.952   0.524  16.241 -0.0584 -0.0648  0.3225
  537TMC3    C6 8024   3.072   0.524  16.296  0.3949 -0.5898 -0.0055
  537TMC3     C 8025   2.960   0.851  16.082 -0.2770 -0.4820 -0.1867
  537TMC3     O 8026   3.034   0.914  16.008 -0.2529 -0.2058  0.1755
  537TMC3     H 8027   3.190   0.809  16.158 -1.0801  0.2486  1.9989
  537TMC3    H1 8028   2.816   0.621  16.106 -0.3253  3.0676  1.4856
  537TMC3    H2 8029   3.092   0.471  16.388  0.5759 -1.0749 -0.3243
  537TMC3    C7 8030   2.847   0.423  16.271 -0.2353  0.1983 -0.6743
  537TMC3    C8 8031   3.259   0.656  16.354 -0.3587 -0.7530 -0.4343
  537TMC3    O1 8032   2.744   0.429  16.206 -0.2569 -0.5485 -0.1474
  537TMC3    O2 8033   3.288   0.774  16.365 -0.1494 -0.3294  0.0395
  538TMC3    C1 8034   4.147   4.060  11.150 -0.2262 -0.5554 -1.0468
  538TMC3    C2 8035   4.268   4.007  11.097 -1.4779 -0.2049 -0.1338
  538TMC3    C3 8036   4.334   4.087  11.007 -0.4509  0.0538 -0.3780
  538TMC3    C4 8037   4.086   4.164  11.080 -0.2535  0.3510 -0.0016
  538TMC3    C5 8038   4.152   4.231  10.983  0.7564 -0.9590  0.2291
  538TMC3    C6 8039   4.278   4.194  10.940 -0.1185 -0.7040  0.3245
  538TMC3     C 8040   4.085   3.991  11.262  0.2390  0.4312  0.1856
  538TMC3     O 8041   4.117   3.880  11.298 -0.4047 -0.1517 -0.2902
  538TMC3     H 8042   4.326   3.926  11.141 -1.7922  0.5105  1.6158
  538TMC3    H1 8043   3.984   4.187  11.110 -0.0374 -1.1579  1.9389
  538TMC3    H2 8044   4.328   4.262  10.872 -0.4319 -1.7861 -0.9620
  538TMC3    C7 8045   4.085   4.345  10.924 -0.3781 -0.0669 -0.0649
  538TMC3    C8 8046   4.460   4.029  10.964  0.7281 -0.4481  0.1695
  538TMC3    O1 8047   3.996   4.399  10.988  0.2831  0.3527 -0.0215
  538TMC3    O2 8048   4.528   3.987  11.059  1.2786  0.5793  0.7336
  539MPD2     C 8049   3.637   3.164  11.487 -0.2419 -0.0694  0.6943
  539MPD2    C1 8050   3.687   3.223  11.375  1.2771  0.3524  0.0227
  539MPD2    C2 8051   3.649   3.354  11.358 -0.3242 -0.9517 -0.1338
  539MPD2    C3 8052   3.545   3.417  11.425  0.0870 -0.2504 -0.1747
  539MPD2    C4 8053   3.489   3.346  11.534 -0.0872  0.0360  0.1630
  539MPD2    C5 8054   3.538   3.225  11.561 -0.1730  0.0448 -0.1759
  539MPD2     H 8055   3.700   3.401  11.274  1.0936 -0.4746  1.0014
  539MPD2    H1 8056   3.408   3.387  11.593  0.5242 -0.1326  1.1250
  539MPD2    H2 8057   3.681   3.069  11.517 -2.4307 -1.1743  0.4024
  539MPD2    H3 8058   3.493   3.170  11.643  1.0599 -2.0115 -0.8754
  539MPD2     N 8059   3.494   3.540  11.391  0.1399  0.5018  0.5636
  539MPD2    H5 8060   3.439   3.586  11.463  0.4397 -0.0733  1.1635
  539MPD2    N1 8061   3.794   3.170  11.298 -0.2049 -0.0531 -0.6261
  539MPD2    H7 8062   3.826   3.230  11.222  1.5120  0.1602  0.2846
  540TMC3    C1 8063   3.470   3.750  11.270 -0.3981 -0.0668  0.2107
  540TMC3    C2 8064   3.521   3.825  11.174 -0.5705  0.3857 -0.0620
  540TMC3    C3 8065   3.493   3.962  11.179  0.4659  0.5130 -0.5009
  540TMC3    C4 8066   3.387   3.793  11.368  0.3417 -0.6989  1.1456
  540TMC3    C5 8067   3.377   3.929  11.381  0.2800 -0.0563 -0.0867
  540TMC3    C6 8068   3.436   4.013  11.293  0.5715  0.4402  1.0727
  540TMC3     C 8069   3.521   3.610  11.270 -0.0786 -0.1403  0.7557
  540TMC3     O 8070   3.562   3.562  11.165  0.3767 -0.1231 -0.1157
  540TMC3     H 8071   3.575   3.784  11.089 -0.9463 -1.8536  0.7923
  540TMC3    H1 8072   3.338   3.731  11.442  0.3401  0.0371  1.7726
  540TMC3    H2 8073   3.431   4.121  11.296  0.5396  0.4674 -0.0737
  540TMC3    C7 8074   3.280   3.973  11.482  0.0559 -0.0193  0.3591
  540TMC3    C8 8075   3.542   4.051  11.077  0.4940  0.5700 -0.2392
  540TMC3    O1 8076   3.203   3.890  11.518 -0.5591 -0.3277 -0.2283
  540TMC3    O2 8077   3.554   4.172  11.101 -0.1776  0.1952 -0.1872
  541MPD2     C 8078   2.534   0.031  13.321 -0.0151  0.7110 -0.2666
  541MPD2    C1 8079   2.554   4.663  13.230  0.1508 -0.1526 -0.2146
  541MPD2    C2 8080   2.530   4.691  13.093 -0.1572  0.8561  0.3253
  541MPD2    C3 8081   2.494   0.078  13.050  0.4545  0.1503  0.0671
  541MPD2    C4 8082   2.488   0.181  13.139  0.6559 -0.4087  0.0757
  541MPD2    C5 8083   2.511   0.155  13.272 -0.3214 -0.2273 -0.2016
  541MPD2     H 8084   2.538   4.606  13.026  0.2054  1.5768 -0.5520
  541MPD2    H1 8085   2.464   0.282  13.108  1.6985 -0.1897 -0.0042
  541MPD2    H2 8086   2.544   0.018  13.428 -0.0142 -1.8610 -0.5578
  541MPD2    H3 8087   2.498   0.240  13.338 -2.0864  0.5026 -1.4893
  541MPD2     N 8088   2.439   0.108  12.922  0.6270  0.0229  0.1823
  541MPD2    H5 8089   2.400   0.201  12.913 -0.1809 -0.5832 -2.4322
  541MPD2    N1 8090   2.585   4.525  13.260  0.1403  0.3250 -0.6664
  541MPD2    H7 8091   2.597   4.461  13.183  1.2216 -0.3974  0.0953
  542TMC3    C1 8092   2.406   0.079  12.687 -0.6760  0.9053 -0.1451
  542TMC3    C2 8093   2.499   0.059  12.586  0.7132  0.2950  1.1277
  542TMC3    C3 8094   2.482   0.138  12.478  0.2087 -0.1287  0.5491
  542TMC3    C4 8095   2.315   0.185  12.685 -0.4501  0.5670  0.2252
  542TMC3    C5 8096   2.303   0.255  12.576  0.0513 -0.1214 -0.3189
  542TMC3    C6 8097   2.394   0.243  12.472 -0.0009 -0.0230 -0.5521
  542TMC3     C 8098   2.450   0.020  12.812 -0.4275 -1.1300 -0.1637
  542TMC3     O 8099   2.501   4.648  12.805  0.2724  0.2739  0.2678
  542TMC3     H 8100   2.555   4.703  12.584  1.6983  0.9536 -1.2585
  542TMC3    H1 8101   2.242   0.200  12.764  0.5996  1.7999  0.9711
  542TMC3    H2 8102   2.391   0.312  12.388 -1.0151  0.2603 -0.2827
  542TMC3    C7 8103   2.200   0.352  12.566  0.1914  0.4665 -0.6031
  542TMC3    C8 8104   2.548   0.106  12.354 -0.6787 -0.4420  0.6084
  542TMC3    O1 8105   2.153   0.402  12.668 -0.4809  0.1833 -0.3187
  542TMC3    O2 8106   2.539   0.180  12.259  0.2150  0.1384 -0.0916
  543TMC3    C1 8107   1.759   1.564  17.303 -0.3814 -0.1018 -0.8519
  543TMC3    C2 8108   1.746   1.441  17.351  0.2514  0.4310 -0.1133
  543TMC3    C3 8109   1.714   1.419  17.480 -0.7273  0.1104  0.1839
  543TMC3    C4 8110   1.745   1.679  17.385  0.3637 -0.2341 -0.1281
  543TMC3    C5 8111   1.711   1.652  17.520 -0.5569 -0.2964 -0.3745
  543TMC3    C6 8112   1.692   1.525  17.565 -0.2951 -0.2456 -0.0303
  543TMC3     C 8113   1.811   1.570  17.163 -0.1296  0.5041 -0.2847
  543TMC3     O 8114   1.862   1.465  17.124  0.6079  0.0201  0.1778
  543TMC3     H 8115   1.742   1.357  17.284  0.3093  0.2817  0.0699
  543TMC3    H1 8116   1.726   1.777  17.342 -2.0002 -0.1552  1.1081
  543TMC3    H2 8117   1.662   1.505  17.667  1.9249  1.0359  0.8743
  543TMC3    C7 8118   1.678   1.763  17.611  0.0394 -0.0536  0.5587
  543TMC3    C8 8119   1.703   1.277  17.523 -0.4633 -0.6430 -0.2616
  543TMC3    O1 8120   1.612   1.726  17.707  0.1470 -0.2204 -0.4491
  543TMC3    O2 8121   1.760   1.206  17.444 -0.4279  0.0253 -0.4078
  544MPD2     C 8122   1.521   0.878   0.049  0.1510  0.1781 -0.0316
  544MPD2    C1 8123   1.595   0.880  17.674  0.0394 -0.1759  0.4686
  544MPD2    C2 8124   1.628   1.005  17.625  0.0485 -0.6073 -0.8759
  544MPD2    C3 8125   1.599   1.126  17.689 -0.6472 -0.5342 -0.0244
  544MPD2    C4 8126   1.511   1.117   0.053  0.3313 -0.8200  0.1645
  544MPD2    C5 8127   1.486   0.996   0.110  0.0697 -0.0677 -0.3485
  544MPD2     H 8128   1.696   1.012  17.540 -1.0956  0.5846 -1.6975
  544MPD2    H1 8129   1.476   1.209   0.098 -1.1093 -1.1653 -0.2345
  544MPD2    H2 8130   1.486   0.782   0.085 -0.1784  0.5273  0.5982
  544MPD2    H3 8131   1.423   0.988   0.197  1.8274 -0.5549  0.8878
  544MPD2     N 8132   1.631   1.255  17.642  0.0507  0.9316 -0.1201
  544MPD2    H5 8133   1.591   1.329  17.698 -0.0218  0.3924  0.5455
  544MPD2    N1 8134   1.644   0.755  17.635 -0.8680 -0.0593  0.5188
  544MPD2    H7 8135   1.605   0.675  17.684 -1.3922 -0.0821  0.0643
  545TMC3    C1 8136   1.779   0.599  17.530 -0.1786  0.0691  0.0419
  545TMC3    C2 8137   1.908   0.560  17.538  0.6587 -0.0177 -0.0301
  545TMC3    C3 8138   1.939   0.433  17.551 -0.7368 -0.2602  0.4722
  545TMC3    C4 8139   1.678   0.505  17.536  0.5376  0.2255 -0.2404
  545TMC3    C5 8140   1.709   0.370  17.532 -0.1642 -0.3543 -0.0186
  545TMC3    C6 8141   1.846   0.336  17.538  0.5516 -0.3914  0.1099
  545TMC3     C 8142   1.747   0.739  17.545 -0.7202  0.2260 -0.4727
  545TMC3     O 8143   1.827   0.821  17.504  0.1559 -0.1918  0.0836
  545TMC3     H 8144   1.984   0.636  17.536 -0.5348  1.1763 -0.3641
  545TMC3    H1 8145   1.572   0.527  17.529  1.0254  3.1958  1.8411
  545TMC3    H2 8146   1.878   0.237  17.566 -3.2760 -2.2119 -2.0225
  545TMC3    C7 8147   1.603   0.271  17.535 -0.4829  0.5275 -0.0857
  545TMC3    C8 8148   2.053   0.399  17.634  0.2370 -0.8718 -0.7365
  545TMC3    O1 8149   1.489   0.309  17.519 -0.5083 -0.1031 -0.0501
  545TMC3    O2 8150   2.096   0.288  17.617  0.2480 -0.3009  0.2964
  546MPD2     C 8151   3.118   0.991  17.408  0.3304 -0.5538  0.0517
  546MPD2    C1 8152   3.130   1.034  17.277 -0.3512 -0.5743  0.0423
  546MPD2    C2 8153   3.174   1.160  17.247 -0.2063  0.3567  0.2906
  546MPD2    C3 8154   3.203   1.250  17.351 -0.3988  1.0760  0.1750
  546MPD2    C4 8155   3.204   1.201  17.481  0.2017  0.2056 -0.1817
  546MPD2    C5 8156   3.154   1.075  17.507 -0.9573  0.0134  0.2466
  546MPD2     H 8157   3.164   1.194  17.145  0.5062  2.4167  0.9072
  546MPD2    H1 8158   3.232   1.263  17.565  1.1651  0.2285 -0.5169
  546MPD2    H2 8159   3.094   0.888  17.433 -1.0747 -0.0704  0.7436
  546MPD2    H3 8160   3.168   1.045  17.610 -1.3154 -1.0606 -0.0159
  546MPD2     N 8161   3.227   1.384  17.333 -0.2584 -0.2705 -0.8688
  546MPD2    H5 8162   3.217   1.449  17.410 -0.4518  0.1960 -1.2910
  546MPD2    N1 8163   3.088   0.941  17.183  0.2226 -0.0333  0.0098
  546MPD2    H7 8164   3.057   0.852  17.220 -1.3397  0.0659 -1.0602
  547TMC3    C1 8165   2.994   0.850  16.999  0.2831 -0.1299  0.7582
  547TMC3    C2 8166   2.896   0.875  16.911  0.5789 -0.0507 -0.6993
  547TMC3    C3 8167   2.780   0.805  16.905 -0.0058 -0.2519 -0.2028
  547TMC3    C4 8168   2.969   0.749  17.089  0.3577  0.2302  0.6704
  547TMC3    C5 8169   2.859   0.662  17.076  0.3813 -0.1718 -0.3135
  547TMC3    C6 8170   2.761   0.706  16.997  0.4504 -0.4222  0.2800
  547TMC3     C 8171   3.046   0.968  17.054  0.1939  0.1670  0.5558
  547TMC3     O 8172   3.038   1.078  16.992 -0.3910  0.9787  0.2168
  547TMC3     H 8173   2.884   0.973  16.866  1.8403 -0.2720 -1.4987
  547TMC3    H1 8174   3.042   0.708  17.157  2.1935  0.8282 -0.9513
  547TMC3    H2 8175   2.667   0.653  16.988  0.2909 -0.3312  1.4530
  547TMC3    C7 8176   2.816   0.614  17.201  0.0252  0.2409  0.0475
  547TMC3    C8 8177   2.663   0.868  16.845 -0.3051  0.5772 -0.8094
  547TMC3    O1 8178   2.853   0.664  17.302 -0.0642 -0.4834 -0.8399
  547TMC3    O2 8179   2.674   0.912  16.732  0.4211 -0.4700  0.4530
  548MPD2     C 8180   3.001   1.549  13.029 -0.4559 -0.4760  0.3646
  548MPD2    C1 8181   2.940   1.486  12.922 -0.3304 -0.4080  0.6208
  548MPD2    C2 8182   3.000   1.371  12.869  0.0365 -0.4016  0.1535
  548MPD2    C3 8183   3.122   1.325  12.910  0.3458 -0.4963 -0.0508
  548MPD2    C4 8184   3.181   1.390  13.021  0.0324 -0.0246 -0.2931
  548MPD2    C5 8185   3.120   1.499  13.079 -0.1867 -0.3425 -0.0705
  548MPD2     H 8186   2.949   1.310  12.795 -0.9313  0.2361  0.2899
  548MPD2    H1 8187   3.280   1.361  13.057  0.2554  3.6871  2.0187
  548MPD2    H2 8188   2.956   1.636  13.077  0.6094 -0.4540  1.3036
  548MPD2    H3 8189   3.177   1.547  13.157 -1.6730  0.3332  0.5882
  548MPD2     N 8190   3.184   1.214  12.859  0.8061  0.1866  0.6632
  548MPD2    H5 8191   3.270   1.187  12.907 -0.3835 -2.2308  1.4339
  548MPD2    N1 8192   2.816   1.542  12.878  0.1650  0.9947  0.1217
  548MPD2    H7 8193   2.792   1.628  12.926 -1.5178 -1.6009  3.9122
  549TMC3    C1 8194   2.608   1.551  12.773 -0.7542  0.2546  0.1359
  549TMC3    C2 8195   2.605   1.686  12.792  0.8307 -1.3769 -0.2219
  549TMC3    C3 8196   2.477   1.736  12.784  0.4218  0.0738  0.3002
  549TMC3    C4 8197   2.501   1.479  12.737  0.1777  0.1520  0.8663
  549TMC3    C5 8198   2.373   1.534  12.733 -0.3855 -0.2254  0.1781
  549TMC3    C6 8199   2.359   1.661  12.771  0.0150  0.3636 -0.4547
  549TMC3     C 8200   2.730   1.484  12.788 -0.3337  0.6765  0.6300
  549TMC3     O 8201   2.731   1.369  12.746  1.1285  0.1246  0.2121
  549TMC3     H 8202   2.683   1.758  12.812 -0.6620 -0.0481  0.9177
  549TMC3    H1 8203   2.517   1.385  12.686  0.2671  0.8566 -0.4032
  549TMC3    H2 8204   2.263   1.709  12.758 -0.6025  0.4024  4.2221
  549TMC3    C7 8205   2.303   1.497  12.606 -0.2007 -0.4027 -0.2520
  549TMC3    C8 8206   2.464   1.863  12.715 -0.0572 -0.3520 -0.9311
  549TMC3    O1 8207   2.298   1.584  12.519 -0.0167 -0.9331 -0.0613
  549TMC3    O2 8208   2.352   1.909  12.717 -0.1497 -0.0369 -0.1149
  550TMC3    C1 8209   2.194   4.437  12.128 -0.2772  0.6651 -0.1727
  550TMC3    C2 8210   2.255   4.406  12.247  0.2537 -0.5491 -0.0012
  550TMC3    C3 8211   2.273   4.508  12.338  0.0820 -0.1443  0.2358
  550TMC3    C4 8212   2.142   4.564  12.105 -0.1598  0.2610 -0.1686
  550TMC3    C5 8213   2.174   4.661  12.192  0.1389 -0.2199  0.6159
  550TMC3    C6 8214   2.255   4.635  12.298 -0.2798 -0.5509  0.2941
  550TMC3     C 8215   2.194   4.333  12.033  0.2440  0.2652 -0.3033
  550TMC3     O 8216   2.282   4.248  12.047 -0.7738 -0.3147 -0.1855
  550TMC3     H 8217   2.298   4.308  12.265  1.2801  0.1456  1.3110
  550TMC3    H1 8218   2.092   4.590  12.012  3.3012 -0.1813 -2.1294
  550TMC3    H2 8219   2.273   4.717  12.367  1.1707 -0.1031 -0.6097
  550TMC3    C7 8220   2.078   0.030  12.223 -0.0802  0.2728 -0.1276
  550TMC3    C8 8221   2.193   4.506  12.460  0.5080 -1.1932  0.7675
  550TMC3    O1 8222   2.118   0.129  12.278 -0.1065  0.1298 -0.3609
  550TMC3    O2 8223   2.215   4.588  12.549  0.3066  0.3814 -0.7157
  551TMC3    C1 8224   3.884   2.433  13.452 -0.6813  0.0272  0.2546
  551TMC3    C2 8225   3.996   2.383  13.398  0.6039  0.4472 -0.1473
  551TMC3    C3 8226   4.114   2.379  13.472 -0.6695 -0.1285  0.0603
  551TMC3    C4 8227   3.892   2.512  13.560  0.7560 -0.8782 -0.3627
  551TMC3    C5 8228   4.010   2.507  13.629 -0.3394 -0.5080 -0.1083
  551TMC3    C6 8229   4.123   2.449  13.587  0.2622 -0.0881 -0.1925
  551TMC3     C 8230   3.777   2.444  13.354 -0.5799  0.1423 -0.0212
  551TMC3     O 8231   3.766   2.350  13.279  0.1541  0.4777  0.4820
  551TMC3     H 8232   3.987   2.317  13.313  0.5782  0.4397 -0.1387
  551TMC3    H1 8233   3.809   2.573  13.596  0.1074 -0.9238 -1.7752
  551TMC3    H2 8234   4.213   2.443  13.647  0.7885 -1.0897 -1.0869
  551TMC3    C7 8235   4.022   2.588  13.751  0.2133 -0.1339  0.0156
  551TMC3    C8 8236   4.232   2.398  13.387  0.1270  0.1965  1.0323
  551TMC3    O1 8237   4.105   2.537  13.827  0.3922  0.2355  0.2868
  551TMC3    O2 8238   4.261   2.310  13.303 -0.3138 -0.2140  0.3313
  552MPD2     C 8239   1.545   4.422  13.619 -0.5628 -0.3546 -0.1045
  552MPD2    C1 8240   1.449   4.405  13.716  0.1029  0.2097 -0.3168
  552MPD2    C2 8241   1.490   4.369  13.846  0.4155  0.0443  0.4399
  552MPD2    C3 8242   1.623   4.364  13.882  0.4626 -0.1427 -0.3548
  552MPD2    C4 8243   1.718   4.375  13.783  0.4376 -0.0554 -0.7050
  552MPD2    C5 8244   1.681   4.404  13.655  0.2160 -0.1902 -0.4073
  552MPD2     H 8245   1.410   4.364  13.920 -0.9169 -3.3295 -1.2715
  552MPD2    H1 8246   1.823   4.360  13.801  0.4635  0.4521 -0.4281
  552MPD2    H2 8247   1.522   4.464  13.522  2.1713 -0.2188 -0.6990
  552MPD2    H3 8248   1.760   4.413  13.581 -0.9942 -1.8020 -1.9039
  552MPD2     N 8249   1.667   4.355  14.015 -0.2380  0.4881  0.0689
  552MPD2    H5 8250   1.768   4.356  14.028  0.1237  0.4104 -2.6945
  552MPD2    N1 8251   1.314   4.419  13.694 -0.0418  0.1400 -0.8380
  552MPD2    H7 8252   1.253   4.391  13.770  0.1302 -2.6315 -1.7437
  553TMC3    C1 8253   1.109   4.421  13.566 -0.2174  1.0682  0.6668
  553TMC3    C2 8254   1.068   4.429  13.436 -0.8494 -0.5494  0.4063
  553TMC3    C3 8255   0.979   4.342  13.394 -0.3633 -0.1511  0.0118
  553TMC3    C4 8256   1.061   4.324  13.655  0.8751  0.2209  0.1083
  553TMC3    C5 8257   0.972   4.235  13.604  0.8386  0.1105 -0.7410
  553TMC3    C6 8258   0.921   4.248  13.479 -0.1061 -0.2136 -0.3006
  553TMC3     C 8259   1.253   4.455  13.578  0.1848 -0.4874 -0.4898
  553TMC3     O 8260   1.305   4.513  13.487 -0.0764 -0.3385  0.3623
  553TMC3     H 8261   1.118   4.494  13.366  0.1681  0.8832  2.4846
  553TMC3    H1 8262   1.098   4.307  13.755  1.0923 -0.9327 -0.1582
  553TMC3    H2 8263   0.838   4.182  13.453 -0.5976  0.5187 -0.6099
  553TMC3    C7 8264   0.952   4.114  13.676 -0.0221 -0.2580  0.5759
  553TMC3    C8 8265   1.004   4.293  13.265 -0.0754  0.4107 -0.0541
  553TMC3    O1 8266   0.836   4.076  13.675 -0.4066 -0.0719  0.6163
  553TMC3    O2 8267   1.116   4.309  13.224  0.2265 -0.6607 -0.6489
  554TMC3    C1 8268   2.925   3.625  11.348 -0.6486 -0.3449 -0.2708
  554TMC3    C2 8269   2.894   3.533  11.252 -0.3764 -0.7758  0.3900
  554TMC3    C3 8270   2.944   3.555  11.127  1.1613 -0.2488  0.7290
  554TMC3    C4 8271   3.005   3.736  11.326 -0.0579 -0.5724  0.1695
  554TMC3    C5 8272   3.064   3.747  11.207  0.3127  0.3470  0.1639
  554TMC3    C6 8273   3.034   3.658  11.103  0.4268 -0.1329  0.1497
  554TMC3     C 8274   2.946   3.574  11.481  0.1254 -0.3418  0.3747
  554TMC3     O 8275   2.946   3.659  11.569  0.1844 -0.2083  0.2079
  554TMC3     H 8276   2.838   3.442  11.268 -3.0555  1.1218  1.7012
  554TMC3    H1 8277   3.037   3.796  11.410  0.4984 -1.6941  0.7418
  554TMC3    H2 8278   3.064   3.675  11.000  0.1397  0.4773  0.1653
  554TMC3    C7 8279   3.115   3.872  11.157  0.1068 -0.7234 -0.6390
  554TMC3    C8 8280   2.850   3.535  11.015  0.1415 -0.1881 -0.4866
  554TMC3    O1 8281   3.193   3.854  11.061  1.0065  0.0410  0.1681
  554TMC3    O2 8282   2.902   3.545  10.904 -0.4386  0.7968 -0.4133
  555TMC3    C1 8283   2.368   3.107  15.257 -0.3097 -0.7093 -0.0054
  555TMC3    C2 8284   2.278   3.175  15.330 -0.1880  0.1429  0.2191
  555TMC3    C3 8285   2.221   3.109  15.433  0.0535  0.0325 -0.0618
  555TMC3    C4 8286   2.383   2.970  15.259 -0.0666 -0.3631  0.4891
  555TMC3    C5 8287   2.326   2.907  15.366 -0.2221  0.1192  0.0145
  555TMC3    C6 8288   2.236   2.973  15.445 -0.0466 -0.3602 -0.2979
  555TMC3     C 8289   2.372   3.163  15.120  0.3809 -0.0890  0.4077
  555TMC3     O 8290   2.450   3.251  15.095  0.4257 -0.2592 -0.2428
  555TMC3     H 8291   2.259   3.281  15.313  1.7368  0.1416 -1.8718
  555TMC3    H1 8292   2.454   2.925  15.190  0.9934  2.0330  0.0355
  555TMC3    H2 8293   2.183   2.911  15.517 -2.6627 -2.7963 -4.2998
  555TMC3    C7 8294   2.320   2.764  15.367  0.6775 -0.1294  0.4172
  555TMC3    C8 8295   2.143   3.174  15.535 -0.4050 -0.3143 -0.5031
  555TMC3    O1 8296   2.214   2.718  15.401  0.2800  0.2448  0.1573
  555TMC3    O2 8297   2.092   3.287  15.507 -0.1017 -0.4512 -0.0892
  556MPD2     C 8298   0.157   0.022  10.190  0.7577 -0.1208 -0.6769
  556MPD2    C1 8299   0.227   4.674  10.269  0.9671  0.6742  0.6079
  556MPD2    C2 8300   0.244   4.543  10.225 -0.1863  0.0089 -0.6698
  556MPD2    C3 8301   0.174   4.495  10.120  0.3994  0.8220  0.0898
  556MPD2    C4 8302   0.101   4.581  10.043 -0.5836 -0.3971  0.2050
  556MPD2    C5 8303   0.101   4.712  10.072  0.1975  0.5137 -0.1210
  556MPD2     H 8304   0.300   4.474  10.287  0.2149  0.0916 -0.9401
  556MPD2    H1 8305   0.049   4.560   9.951 -0.8606  1.5465 -0.0901
  556MPD2    H2 8306   0.133   0.125  10.213  2.5917  0.0459  0.5044
  556MPD2    H3 8307   0.042   0.048  10.017  1.1474  0.6482 -0.9691
  556MPD2     N 8308   0.182   4.356  10.096 -0.7642  0.4066 -0.1114
  556MPD2    H5 8309   0.253   4.302  10.145 -1.1859  1.5097  1.6937
  556MPD2    N1 8310   0.281   4.708  10.391  0.5486 -0.4400 -0.2042
  556MPD2    H7 8311   0.344   4.644  10.437  0.0758 -0.4919  0.3765
  557TMC3    C1 8312   0.095   4.151  10.064  0.6243  0.2033 -0.0528
  557TMC3    C2 8313   0.095   4.044   9.978  0.6104  0.3117  0.7798
  557TMC3    C3 8314   0.046   3.925  10.030 -0.2740 -0.2023  0.6108
  557TMC3    C4 8315   0.065   4.147  10.199 -0.2540 -0.2347  0.1900
  557TMC3    C5 8316   0.042   4.023  10.247  0.9497  0.0077  0.6167
  557TMC3    C6 8317   0.032   3.912  10.169  0.2262 -0.6524  0.7580
  557TMC3     C 8318   0.107   4.284  10.009 -0.7101 -0.9092 -0.9006
  557TMC3     O 8319   0.031   4.318   9.923 -0.6268  0.0250  0.1743
  557TMC3     H 8320   0.107   4.053   9.871  1.9053 -0.0871  0.8887
  557TMC3    H1 8321   0.049   4.238  10.255 -3.0002 -0.2939 -0.5024
  557TMC3    H2 8322   0.003   3.822  10.222  1.5994  0.3863  3.3038
  557TMC3    C7 8323   4.708   4.017  10.380 -0.7265  0.1030  0.4598
  557TMC3    C8 8324   0.019   3.796   9.954 -0.4921  0.9729 -0.3758
  557TMC3    O1 8325   4.608   4.090  10.390 -0.1451 -0.4884 -0.2679
  557TMC3    O2 8326   0.047   3.696  10.018  0.2696  0.1399  0.3587
  558TMC3    C1 8327   2.537   2.941  10.171  0.4906 -0.8274 -0.1970
  558TMC3    C2 8328   2.450   2.997  10.259 -0.4544  0.6766 -0.2243
  558TMC3    C3 8329   2.346   3.060  10.203 -0.5652  0.3265 -0.1902
  558TMC3    C4 8330   2.534   2.962  10.032 -0.8561 -0.3872 -0.2664
  558TMC3    C5 8331   2.424   3.031   9.986 -0.0252  0.2700  0.4468
  558TMC3    C6 8332   2.329   3.072  10.071 -0.3034 -0.6226 -0.9657
  558TMC3     C 8333   2.649   2.870  10.219 -0.4296 -0.5285 -0.1570
  558TMC3     O 8334   2.757   2.898  10.167 -0.0603 -0.5787 -0.1321
  558TMC3     H 8335   2.470   2.970  10.362 -1.4352 -1.1690 -0.5069
  558TMC3    H1 8336   2.597   2.911   9.959 -0.9052 -2.1101  0.9040
  558TMC3    H2 8337   2.244   3.130  10.035  0.1374  0.3205 -0.4620
  558TMC3    C7 8338   2.372   2.989   9.865  0.2765 -0.0191 -0.3327
  558TMC3    C8 8339   2.221   3.082  10.274  0.5089  0.2415 -0.5273
  558TMC3    O1 8340   2.448   2.961   9.774 -0.4960  0.2527 -0.0763
  558TMC3    O2 8341   2.132   3.155  10.231 -0.8783  0.2744  0.1504
  559MPD2     C 8342   2.464   3.353  10.234  0.0446 -0.6919 -0.8862
  559MPD2    C1 8343   2.480   3.317  10.367 -0.0172  0.1571  0.0595
  559MPD2    C2 8344   2.601   3.267  10.410 -0.8779  0.2141  0.9702
  559MPD2    C3 8345   2.711   3.260  10.325 -0.1003  0.3092 -0.2072
  559MPD2    C4 8346   2.692   3.311  10.199  0.7859 -0.7843  0.3287
  559MPD2    C5 8347   2.570   3.337  10.148 -0.1113 -0.1329  0.3370
  559MPD2     H 8348   2.611   3.233  10.512  3.5912 -1.8268 -0.1340
  559MPD2    H1 8349   2.777   3.308  10.132  0.6589  0.2341  0.1287
  559MPD2    H2 8350   2.374   3.403  10.199  0.7895  1.4709  0.2886
  559MPD2    H3 8351   2.569   3.367  10.044  1.8779  0.5218  0.5095
  559MPD2     N 8352   2.829   3.193  10.365 -0.1492  0.0137  0.3601
  559MPD2    H5 8353   2.829   3.161  10.462 -0.3072 -0.2276  0.2802
  559MPD2    N1 8354   2.372   3.335  10.456  0.0951  0.3407  0.1407
  559MPD2    H7 8355   2.283   3.370  10.423 -1.3916 -1.1937  2.5558
  560TMC3    C1 8356   3.013   3.068  10.386 -0.7657  0.5286  0.2069
  560TMC3    C2 8357   2.927   3.002  10.463 -0.6472  0.1155 -0.2406
  560TMC3    C3 8358   2.972   2.966  10.587  0.0633 -0.4096 -0.4940
  560TMC3    C4 8359   3.136   3.108  10.435 -0.5305 -0.2772  0.7651
  560TMC3    C5 8360   3.172   3.077  10.565 -0.4014  0.9830  0.2054
  560TMC3    C6 8361   3.084   3.015  10.646 -0.3170  0.4159  0.0355
  560TMC3     C 8362   2.949   3.166  10.298  0.1151  0.5632  0.0494
  560TMC3     O 8363   2.992   3.197  10.187 -0.3426  0.7432  0.5559
  560TMC3     H 8364   2.838   2.958  10.420 -0.1680 -1.8444  0.7640
  560TMC3    H1 8365   3.205   3.160  10.369  0.8963  0.4282  2.7969
  560TMC3    H2 8366   3.093   3.001  10.753 -0.2168  2.5425  0.3003
  560TMC3    C7 8367   3.280   3.147  10.631 -0.0875  0.2245  0.0643
  560TMC3    C8 8368   2.874   2.910  10.672  0.2640 -0.5795  0.5017
  560TMC3    O1 8369   3.315   3.256  10.587  0.2600  0.2236 -0.0667
  560TMC3    O2 8370   2.756   2.932  10.646 -0.5491 -0.6153 -0.0186
  561TMC3    C1 8371   0.997   2.001  11.663 -0.2419  0.3118  0.4443
  561TMC3    C2 8372   0.957   1.914  11.759 -0.2822 -0.0366 -0.3656
  561TMC3    C3 8373   0.902   1.973  11.874 -1.0738 -0.2304  1.2362
  561TMC3    C4 8374   0.990   2.134  11.683 -0.2125  0.6216 -0.4448
  561TMC3    C5 8375   0.931   2.189  11.793  0.0158 -0.8489 -0.2124
  561TMC3    C6 8376   0.891   2.111  11.895  0.3036  0.5694  0.2885
  561TMC3     C 8377   0.969   1.953  11.529  0.2232  0.5621  0.6049
  561TMC3     O 8378   0.876   1.880  11.516  0.3372  0.1167  0.2624
  561TMC3     H 8379   0.946   1.808  11.737 -3.0771  0.5611 -1.8761
  561TMC3    H1 8380   1.013   2.204  11.603  2.0986  1.2412  0.7693
  561TMC3    H2 8381   0.860   2.155  11.989  0.8857  0.6051  0.4642
  561TMC3    C7 8382   0.855   2.313  11.780  0.7976 -0.3013  0.6042
  561TMC3    C8 8383   0.789   1.907  11.943  0.4403 -0.0819  0.5470
  561TMC3    O1 8384   0.747   2.315  11.838  0.2034  0.0238  0.1906
  561TMC3    O2 8385   0.785   1.790  11.978  0.2372  0.2925  0.1565
  562TMC3    C1 8386   1.676   3.107  16.235  0.0609  0.8572 -0.2734
  562TMC3    C2 8387   1.623   3.221  16.178  0.4221 -0.9696 -0.0773
  562TMC3    C3 8388   1.663   3.260  16.052  0.1991  0.3378 -0.4726
  562TMC3    C4 8389   1.768   3.028  16.175 -0.6676  0.2036  0.5485
  562TMC3    C5 8390   1.811   3.069  16.046 -0.1712  0.1532 -0.0349
  562TMC3    C6 8391   1.764   3.180  15.983 -0.8216 -0.3453  0.7708
  562TMC3     C 8392   1.603   3.054  16.344 -0.1805 -0.0805  0.3818
  562TMC3     O 8393   1.522   3.126  16.402 -0.5336  0.0673 -0.0069
  562TMC3     H 8394   1.553   3.284  16.233  0.1604  0.9501 -2.5826
  562TMC3    H1 8395   1.817   2.945  16.225 -0.3295  0.4727  0.6574
  562TMC3    H2 8396   1.818   3.218  15.896  0.2844 -0.5871  1.3495
  562TMC3    C7 8397   1.868   2.972  15.946 -0.2640  0.4018  0.4909
  562TMC3    C8 8398   1.588   3.359  15.986 -0.0280  0.2780  0.3217
  562TMC3    O1 8399   1.866   2.996  15.826  0.4269 -0.0796  0.4247
  562TMC3    O2 8400   1.505   3.411  16.056  0.3094 -0.5863 -0.0772
  563MPD2     C 8401   4.056   4.532  15.680 -0.4533  0.3116  0.4312
  563MPD2    C1 8402   4.108   4.589  15.794 -0.2965 -0.1342  0.5920
  563MPD2    C2 8403   4.232   4.541  15.830  0.1259 -0.4207 -0.3805
  563MPD2    C3 8404   4.298   4.439  15.761 -0.0564  0.2163  0.4172
  563MPD2    C4 8405   4.237   4.379  15.648 -0.0218  0.2738  0.7112
  563MPD2    C5 8406   4.120   4.432  15.608  0.6390 -0.4671  0.9267
  563MPD2     H 8407   4.285   4.572  15.920  0.1256 -1.5786  0.0208
  563MPD2    H1 8408   4.288   4.304  15.587  0.2361  0.7616  0.3205
  563MPD2    H2 8409   3.960   4.561  15.641 -1.3964 -0.8622  1.8643
  563MPD2    H3 8410   4.086   4.382  15.518  3.2260 -0.2215 -0.1949
  563MPD2     N 8411   4.410   4.385  15.832  0.0810 -0.7063  0.3884
  563MPD2    H5 8412   4.433   4.421  15.923 -1.4689  1.1496  0.0409
  563MPD2    N1 8413   4.042   4.694  15.867  0.0424 -0.0259  0.0425
  563MPD2    H7 8414   3.947   4.712  15.836  0.2766  1.8824  0.4767
  564TMC3    C1 8415   4.006   4.726  16.099  0.0805 -0.0877 -0.6495
  564TMC3    C2 8416   3.888   4.669  16.064 -0.6159 -0.2759 -0.8520
  564TMC3    C3 8417   3.837   4.564  16.138  0.1593 -0.2504  0.2885
  564TMC3    C4 8418   4.075   4.671  16.207 -0.4319  0.1781  0.4019
  564TMC3    C5 8419   4.026   4.560  16.276  0.3646  0.1523 -0.0584
  564TMC3    C6 8420   3.902   4.510  16.246  0.0913 -0.1266  0.0161
  564TMC3     C 8421   4.091   0.010  15.985  0.0178 -0.5397  0.2155
  564TMC3     O 8422   4.208   0.027  16.013  0.1273  0.7399 -0.0416
  564TMC3     H 8423   3.820   4.709  15.989 -0.1768  0.1032 -1.0466
  564TMC3    H1 8424   4.172   4.709  16.235  0.0908  0.8781 -2.4142
  564TMC3    H2 8425   3.864   4.420  16.293  0.5021 -0.2100  0.1858
  564TMC3    C7 8426   4.124   4.457  16.288  0.3893 -0.1366 -0.6213
  564TMC3    C8 8427   3.782   4.455  16.067 -0.2736  0.4027 -0.3875
  564TMC3    O1 8428   4.234   4.495  16.328  0.5074 -0.0056  0.2432
  564TMC3    O2 8429   3.746   4.359  16.133  0.1275 -0.7063  0.1099
  565TMC3    C1 8430   0.406   1.234  10.006 -0.9146 -0.3155 -0.6356
  565TMC3    C2 8431   0.364   1.125  10.075  0.6332 -0.1343  0.0168
  565TMC3    C3 8432   0.328   1.012  10.007  0.2831  0.2802  0.7262
  565TMC3    C4 8433   0.427   1.223   9.872  0.0370  0.7476 -0.1142
  565TMC3    C5 8434   0.398   1.100   9.807  0.0534  0.3568 -0.1829
  565TMC3    C6 8435   0.359   0.985   9.874 -0.4682 -1.2674  0.3249
  565TMC3     C 8436   0.473   1.346  10.070 -0.1416  0.4093  0.4271
  565TMC3     O 8437   0.488   1.448  10.005  0.9045  0.0629 -0.5084
  565TMC3     H 8438   0.346   1.132  10.181 -1.6248 -1.8324 -0.2584
  565TMC3    H1 8439   0.477   1.307   9.827  2.3222  0.2922  1.6185
  565TMC3    H2 8440   0.310   0.902   9.825  3.2470 -1.6952 -2.6136
  565TMC3    C7 8441   0.436   1.089   9.670  0.1113  0.4575  0.0286
  565TMC3    C8 8442   0.277   0.901  10.080 -0.4867 -0.6676 -0.0676
  565TMC3    O1 8443   0.462   1.196   9.618 -0.0034 -0.1791 -0.5974
  565TMC3    O2 8444   0.192   0.918  10.165 -0.3924 -0.3690  0.4448
  566MPD2     C 8445   2.160   2.130  14.317 -0.0907  0.2316  0.3258
  566MPD2    C1 8446   2.133   2.260  14.277  0.0949 -0.5460 -0.6843
  566MPD2    C2 8447   1.998   2.299  14.267 -0.0454 -0.7981  0.2874
  566MPD2    C3 8448   1.899   2.215  14.305 -0.8424 -0.6188 -0.5909
  566MPD2    C4 8449   1.930   2.090  14.358  0.1314  0.2096 -0.4250
  566MPD2    C5 8450   2.058   2.052  14.364  0.0007 -0.0730 -0.5233
  566MPD2     H 8451   1.967   2.399  14.239 -1.3677 -1.4710 -0.6247
  566MPD2    H1 8452   1.861   2.021  14.406 -0.4071 -0.0629 -1.5826
  566MPD2    H2 8453   2.261   2.090  14.321 -0.2503 -0.1499  0.5018
  566MPD2    H3 8454   2.083   1.954  14.405  1.4170  0.2773 -0.5347
  566MPD2     N 8455   1.768   2.262  14.292 -0.1544 -0.3214 -0.1144
  566MPD2    H5 8456   1.759   2.353  14.247  2.3435  1.4791  3.0229
  566MPD2    N1 8457   2.239   2.343  14.242 -0.7372 -0.7509  0.1195
  566MPD2    H7 8458   2.335   2.326  14.269 -0.5403 -0.3620 -0.3310
  567TMC3    C1 8459   2.346   2.551  14.181  0.2210 -0.3062 -0.0765
  567TMC3    C2 8460   2.333   2.646  14.084 -0.0329 -0.0523  0.0130
  567TMC3    C3 8461   2.406   2.760  14.101 -0.4255  0.1153 -0.7031
  567TMC3    C4 8462   2.410   2.570  14.296  0.0856 -0.1766 -0.8325
  567TMC3    C5 8463   2.453   2.700  14.321 -0.4875  0.0818  0.0219
  567TMC3    C6 8464   2.479   2.790  14.221 -0.0967 -0.2417 -0.0119
  567TMC3     C 8465   2.224   2.467  14.183  0.6196  0.1486  0.2068
  567TMC3     O 8466   2.132   2.525  14.131  0.3798  0.7318  0.4966
  567TMC3     H 8467   2.261   2.641  14.003 -1.4767 -0.4206  1.3213
  567TMC3    H1 8468   2.375   2.507  14.376  2.0831  0.2962  0.4075
  567TMC3    H2 8469   2.519   2.889  14.244  3.3581 -1.2812 -1.5821
  567TMC3    C7 8470   2.487   2.746  14.452 -0.2786  0.9085 -0.3318
  567TMC3    C8 8471   2.337   2.874  14.056  0.3727 -0.4623  0.0299
  567TMC3    O1 8472   2.580   2.825  14.467  0.4115 -0.3454  0.1652
  567TMC3    O2 8473   2.317   2.959  14.146  0.0914 -0.4621  0.0926
  568MPD2     C 8474   3.723   2.997  16.278 -0.4281  0.1663  0.4391
  568MPD2    C1 8475   3.726   3.091  16.376 -0.3864 -0.2377  0.0543
  568MPD2    C2 8476   3.746   3.222  16.339  0.3480  0.2285  0.1478
  568MPD2    C3 8477   3.790   3.252  16.210 -0.4121  0.6690  0.3575
  568MPD2    C4 8478   3.786   3.156  16.110  0.0268 -0.4103  0.0474
  568MPD2    C5 8479   3.742   3.034  16.148  0.0221 -0.3765 -0.0443
  568MPD2     H 8480   3.764   3.298  16.413 -0.1011 -1.2386  1.7794
  568MPD2    H1 8481   3.819   3.175  16.008 -0.1589  2.7667  0.5856
  568MPD2    H2 8482   3.695   2.893  16.290  1.2009 -0.6731 -3.0950
  568MPD2    H3 8483   3.740   2.951  16.078  0.5795  0.8475 -1.4949
  568MPD2     N 8484   3.831   3.390  16.186  0.1307  0.9851  0.3068
  568MPD2    H5 8485   3.830   3.455  16.264  3.2373 -1.5785  2.5164
  568MPD2    N1 8486   3.705   3.049  16.513  0.2253 -0.0007  0.0797
  568MPD2    H7 8487   3.712   2.951  16.538 -0.8795  0.2003  1.1767
  569TMC3    C1 8488   3.874   3.593  16.071 -0.3490  0.4531 -0.0592
  569TMC3    C2 8489   3.884   3.648  16.198  0.8983 -0.2913 -0.7129
  569TMC3    C3 8490   3.963   3.758  16.221 -0.2429 -0.2929 -0.7572
  569TMC3    C4 8491   3.941   3.652  15.974  0.5245 -0.9548 -1.1193
  569TMC3    C5 8492   4.005   3.769  15.995 -0.1480 -0.3473 -0.1068
  569TMC3    C6 8493   4.021   3.826  16.115  0.3808  0.3056  0.9186
  569TMC3     C 8494   3.851   3.449  16.065 -0.3064 -0.1600  0.0899
  569TMC3     O 8495   3.872   3.394  15.956  0.2765 -0.2615  0.1780
  569TMC3     H 8496   3.827   3.611  16.283  2.6024 -1.1019  0.0885
  569TMC3    H1 8497   3.935   3.609  15.874  1.3161 -0.4304 -1.3935
  569TMC3    H2 8498   4.063   3.925  16.131 -0.3301  0.5658  1.1705
  569TMC3    C7 8499   3.973   3.858  15.882  0.1066 -0.2411  0.2700
  569TMC3    C8 8500   3.901   3.856  16.303  0.1020  0.4313  0.5888
  569TMC3    O1 8501   3.988   3.810  15.771 -0.0024  0.1080 -0.0024
  569TMC3    O2 8502   3.781   3.844  16.330 -0.3670 -0.2840 -0.3755
  570TMC3    C1 8503   3.210   2.143  16.176 -0.2075 -0.4794  0.3053
  570TMC3    C2 8504   3.302   2.103  16.082  0.2989 -0.2716 -0.1002
  570TMC3    C3 8505   3.419   2.181  16.061 -0.5307 -1.0395  0.1969
  570TMC3    C4 8506   3.221   2.261  16.243 -0.0455  0.3242 -0.2486
  570TMC3    C5 8507   3.322   2.341  16.204  0.2025  0.0393 -0.7668
  570TMC3    C6 8508   3.423   2.302  16.118  0.3044 -0.1597  0.0755
  570TMC3     C 8509   3.110   2.043  16.199 -0.5243 -0.0202 -0.3286
  570TMC3     O 8510   3.094   1.953  16.120  0.9905 -0.2042 -0.2379
  570TMC3     H 8511   3.314   2.002  16.047 -0.4101 -0.2672 -0.3568
  570TMC3    H1 8512   3.140   2.301  16.303  0.0291 -2.7126  1.8485
  570TMC3    H2 8513   3.515   2.359  16.108  1.6126 -2.1962  0.4094
  570TMC3    C7 8514   3.305   2.481  16.234 -0.5559 -0.2750 -0.2159
  570TMC3    C8 8515   3.494   2.168  15.937  0.0507  0.0683 -0.2498
  570TMC3    O1 8516   3.263   2.505  16.347  0.3119 -0.4903  0.4211
  570TMC3    O2 8517   3.595   2.235  15.935 -0.1865 -0.0358 -0.4721
  571MPD2     C 8518   0.608   3.857  17.680 -0.7710  0.3784  0.3844
  571MPD2    C1 8519   0.692   3.778  17.606  0.6070 -0.6744  0.8197
  571MPD2    C2 8520   0.827   3.800  17.616  0.2265  0.6406 -0.4473
  571MPD2    C3 8521   0.869   3.898  17.699 -0.4895 -0.0144  0.1921
  571MPD2    C4 8522   0.778   3.986   0.019  0.0792 -0.0669 -0.4624
  571MPD2    C5 8523   0.645   3.963   0.010 -0.2480  0.1568  0.1016
  571MPD2     H 8524   0.894   3.730  17.566 -1.4775 -1.6843  0.4940
  571MPD2    H1 8525   0.814   4.074   0.072 -1.1181  0.8944 -1.2389
  571MPD2    H2 8526   0.502   3.834  17.677 -0.2570 -1.9677  0.4804
  571MPD2    H3 8527   0.569   4.019   0.063 -1.4002 -1.2558 -0.0480
  571MPD2     N 8528   1.014   3.932  17.700  0.2358 -0.4614 -0.3950
  571MPD2    H5 8529   1.033   4.020   0.001 -2.2668  0.1080 -0.4116
  571MPD2    N1 8530   0.647   3.663  17.540  0.1525  0.6003  0.7752
  571MPD2    H7 8531   0.561   3.617  17.568  0.5322  1.0108  2.6295
  572TMC3    C1 8532   1.249   3.899  17.687 -0.4053 -0.2742 -0.1717
  572TMC3    C2 8533   1.342   3.813  17.737  0.0661 -0.6157 -0.2414
  572TMC3    C3 8534   1.456   3.867   0.035  0.0956  0.0675 -0.2798
  572TMC3    C4 8535   1.271   4.038  17.697 -0.5224  0.0690 -0.0138
  572TMC3    C5 8536   1.392   4.083  17.732  0.3394  0.0338 -0.0286
  572TMC3    C6 8537   1.480   4.000   0.040  0.6937 -0.1201  0.0258
  572TMC3     C 8538   1.118   3.851  17.662 -0.7049 -0.0584 -0.4451
  572TMC3     O 8539   1.116   3.728  17.654 -0.1934  0.2498 -0.6196
  572TMC3     H 8540   1.329   3.706  17.730  0.4659 -0.6197 -0.9810
  572TMC3    H1 8541   1.197   4.114  17.673 -2.0921 -1.5488 -0.3369
  572TMC3    H2 8542   1.580   4.033   0.068  0.4420  0.0744  0.6886
  572TMC3    C7 8543   1.402   4.223   0.003 -0.6791  0.1725 -0.4377
  572TMC3    C8 8544   1.508   3.806   0.152  0.5065 -0.0940  0.1657
  572TMC3    O1 8545   1.312   4.289  17.692 -0.5197  0.2684  0.3350
  572TMC3    O2 8546   1.619   3.841   0.196  0.1078  0.0940  0.2934
  573MPD2     C 8547   2.130   4.655   0.236  0.4652 -0.1515  0.6493
  573MPD2    C1 8548   2.071   4.548   0.295  0.2256 -0.4505  0.1751
  573MPD2    C2 8549   2.043   4.429   0.229 -0.3750  0.1807 -0.0314
  573MPD2    C3 8550   2.085   4.417   0.097  0.1578 -0.7137  0.5048
  573MPD2    C4 8551   2.142   4.529   0.033 -0.9216  0.2011  0.2575
  573MPD2    C5 8552   2.166   4.648   0.102  0.8585  0.0143 -0.3023
  573MPD2     H 8553   1.981   4.349   0.268  0.8099  0.6312  2.7716
  573MPD2    H1 8554   2.179   4.534  17.676 -0.0838 -0.3120  0.5368
  573MPD2    H2 8555   2.145   0.009   0.294  1.1733  0.2841 -0.2055
  573MPD2    H3 8556   2.208   4.736   0.056 -0.2698  0.4948 -0.3934
  573MPD2     N 8557   2.048   4.310   0.012 -0.1873 -0.3435  0.1182
  573MPD2    H5 8558   2.048   4.320  17.656 -0.5424  1.7894  0.3388
  573MPD2    N1 8559   2.022   4.567   0.426  0.0397  0.2854  0.2083
  573MPD2    H7 8560   2.062   4.645   0.477 -0.6304  0.7806 -0.0296
  574TMC3    C1 8561   1.899   4.139  17.694  0.0543  0.2044  0.0334
  574TMC3    C2 8562   1.831   4.242  17.631  1.0450  0.4940 -0.7276
  574TMC3    C3 8563   1.742   4.194  17.535  1.0690  1.0963  0.5708
  574TMC3    C4 8564   1.877   4.005  17.674  0.6490  0.0337 -0.3252
  574TMC3    C5 8565   1.785   3.961  17.585  0.4681  0.0554  0.0699
  574TMC3    C6 8566   1.722   4.060  17.512  0.4467 -0.1126 -1.0648
  574TMC3     C 8567   1.993   4.190   0.048 -0.4462  0.4499  0.2729
  574TMC3     O 8568   1.999   4.124   0.150  0.3203  0.2772  0.2833
  574TMC3     H 8569   1.822   4.341  17.675  1.1661  1.0364 -1.9251
  574TMC3    H1 8570   1.919   3.928  17.736  0.2472  0.8438  0.9468
  574TMC3    H2 8571   1.647   4.034  17.438  0.4166 -0.1973 -1.0055
  574TMC3    C7 8572   1.765   3.823  17.577  0.0974  0.0009 -0.2026
  574TMC3    C8 8573   1.638   4.281  17.471  0.4740  0.2530 -0.1090
  574TMC3    O1 8574   1.849   3.752  17.625 -0.2604  0.0953  0.0306
  574TMC3    O2 8575   1.537   4.231  17.424  0.6750 -0.1907  0.2133
  575TMC3    C1 8576   4.719   0.581  10.806  0.7792 -0.5575 -0.5946
  575TMC3    C2 8577   0.008   0.454  10.840 -0.7487  0.3944 -0.7484
  575TMC3    C3 8578   0.015   0.369  10.734 -0.3039 -0.4028  0.6206
  575TMC3    C4 8579   4.721   0.624  10.673  0.6205 -0.6513 -0.0111
  575TMC3    C5 8580   0.005   0.533  10.573  0.0346  0.1424 -0.5351
  575TMC3    C6 8581   0.020   0.398  10.603  0.6032 -0.4896 -0.2381
  575TMC3     C 8582   4.700   0.688  10.901  0.0425  0.2073  0.4724
  575TMC3     O 8583   4.673   0.802  10.863 -0.2312  0.3846  0.5521
  575TMC3     H 8584   0.023   0.414  10.940  1.6113  0.2504 -1.1478
  575TMC3    H1 8585   4.707   0.724  10.634 -0.3846 -0.6082  0.4557
  575TMC3    H2 8586   0.004   0.333  10.518 -0.3421  0.4551 -0.7773
  575TMC3    C7 8587   0.063   0.578  10.452  0.3559  0.4532 -0.4384
  575TMC3    C8 8588   4.726   0.228  10.772 -0.3270 -0.0829 -0.3846
  575TMC3    O1 8589   0.039   0.693  10.421 -0.4378  0.1114 -0.1330
  575TMC3    O2 8590   4.701   0.204  10.890 -0.2068 -0.0137  0.5793
  576MPD2     C 8591   4.210   2.423  12.198  0.0234  0.2496 -0.4746
  576MPD2    C1 8592   4.342   2.445  12.232  0.1714  0.3543 -0.7923
  576MPD2    C2 8593   4.370   2.470  12.367  0.2692 -0.9096  0.3529
  576MPD2    C3 8594   4.277   2.496  12.457  0.1456 -0.0840  0.1192
  576MPD2    C4 8595   4.143   2.477  12.422  0.2652  0.7064  0.0136
  576MPD2    C5 8596   4.113   2.444  12.296  0.8087 -0.7737  0.5626
  576MPD2     H 8597   4.473   2.480  12.401 -0.1374 -1.6069  1.7694
  576MPD2    H1 8598   4.058   2.488  12.488 -0.1519  1.2248 -0.6160
  576MPD2    H2 8599   4.179   2.401  12.097  2.1888 -0.2271 -1.0281
  576MPD2    H3 8600   4.012   2.411  12.275  0.5917  0.4778 -0.4268
  576MPD2     N 8601   4.321   2.550  12.585 -0.5704  0.0650 -0.0067
  576MPD2    H5 8602   4.419   2.569  12.606 -1.0475  0.2526  2.0746
  576MPD2    N1 8603   4.449   2.444  12.145 -0.3088  0.1986  0.5354
  576MPD2    H7 8604   4.540   2.450  12.190  0.6479  0.8591 -1.4855
  577TMC3    C1 8605   4.569   2.429  11.948  0.3936  0.2497  0.8167
  577TMC3    C2 8606   4.658   2.346  12.010  0.3160 -0.5817  0.3718
  577TMC3    C3 8607   0.020   2.290  11.930 -0.2862  0.0039 -0.1136
  577TMC3    C4 8608   4.585   2.474  11.816  0.3514 -1.1338 -0.2765
  577TMC3    C5 8609   4.700   2.437  11.754  0.2095 -0.7965  0.2859
  577TMC3    C6 8610   0.058   2.350  11.811 -0.1505 -0.1150 -0.0822
  577TMC3     C 8611   4.443   2.452  12.006  0.8603 -0.1555  0.5429
  577TMC3     O 8612   4.349   2.461  11.929 -0.4749 -0.4900  0.4618
  577TMC3     H 8613   4.627   2.305  12.106  0.9521 -0.4082  0.6519
  577TMC3    H1 8614   4.504   2.530  11.770  1.3952 -1.0169 -1.9743
  577TMC3    H2 8615   0.139   2.312  11.750  1.3112  1.9764  0.5517
  577TMC3    C7 8616   4.721   2.452  11.606  0.3831 -0.9816 -0.2370
  577TMC3    C8 8617   0.115   2.203  12.002 -0.0501 -0.1084 -0.0090
  577TMC3    O1 8618   0.081   2.394  11.549  0.6349  0.2044 -0.2770
  577TMC3    O2 8619   0.077   2.166  12.115 -0.3201  0.6834 -0.2930
  578MPD2     C 8620   2.552   2.225   1.164  0.3434 -0.1172  0.3297
  578MPD2    C1 8621   2.623   2.135   1.093 -0.0243  0.1896  0.3809
  578MPD2    C2 8622   2.711   2.055   1.167  0.3882 -0.2389  0.3963
  578MPD2    C3 8623   2.730   2.070   1.303 -0.3171  0.5443  0.1233
  578MPD2    C4 8624   2.667   2.170   1.371 -0.0965  0.0274 -0.6516
  578MPD2    C5 8625   2.588   2.251   1.297  0.2538 -0.0112 -0.2810
  578MPD2     H 8626   2.757   1.971   1.116  2.3229  1.6009 -0.9269
  578MPD2    H1 8627   2.694   2.207   1.469 -1.6308 -0.2434 -0.1173
  578MPD2    H2 8628   2.487   2.300   1.120 -1.5366  0.1035  3.4824
  578MPD2    H3 8629   2.551   2.328   1.364 -1.0050 -0.6075 -0.3034
  578MPD2     N 8630   2.808   1.969   1.360  0.3558 -0.4005  0.1094
  578MPD2    H5 8631   2.866   1.907   1.303  0.3431  0.5489 -0.9180
  578MPD2    N1 8632   2.584   2.114   0.951 -0.3283 -0.0632 -0.7523
  578MPD2    H7 8633   2.515   2.175   0.909 -2.8386 -2.2095  0.2141
  579TMC3    C1 8634   2.924   1.848   1.522  0.3035 -0.4010  0.2331
  579TMC3    C2 8635   3.027   1.860   1.614 -0.4330  0.2553 -0.7007
  579TMC3    C3 8636   3.133   1.777   1.591  0.4264 -0.3186 -0.4677
  579TMC3    C4 8637   2.917   1.745   1.424 -0.6983 -0.5342 -0.2937
  579TMC3    C5 8638   3.024   1.666   1.414  0.2375  0.2274  0.4603
  579TMC3    C6 8639   3.135   1.677   1.495  0.1423  0.4222 -0.9445
  579TMC3     C 8640   2.836   1.957   1.492 -0.0682 -0.2195  0.2307
  579TMC3     O 8641   2.820   2.040   1.578  0.0478  0.3845 -0.0055
  579TMC3     H 8642   3.022   1.939   1.687 -2.0371 -0.9811  0.5260
  579TMC3    H1 8643   2.825   1.726   1.371 -0.6747 -2.3902  0.3037
  579TMC3    H2 8644   3.216   1.606   1.491 -1.3178 -1.3601  1.2517
  579TMC3    C7 8645   3.031   1.570   1.308 -0.5190  0.0084 -1.2617
  579TMC3    C8 8646   3.257   1.818   1.654  0.5416  0.3833  0.3659
  579TMC3    O1 8647   3.143   1.528   1.301  0.0022 -0.1408  0.7259
  579TMC3    O2 8648   3.253   1.880   1.756  0.1701 -0.3038 -0.5151
  580TMC3    C1 8649   2.674   1.739  12.366  0.4337  0.3156  0.2125
  580TMC3    C2 8650   2.796   1.785  12.349 -1.4142 -0.2953 -0.1020
  580TMC3    C3 8651   2.900   1.707  12.397 -0.5249  0.2020  0.3714
  580TMC3    C4 8652   2.653   1.610  12.401 -0.7456  0.3551 -0.0169
  580TMC3    C5 8653   2.764   1.526  12.429  0.6185  0.2624 -0.6105
  580TMC3    C6 8654   2.891   1.574  12.432 -0.6546 -0.2148  0.3625
  580TMC3     C 8655   2.580   1.804  12.281  0.2652  0.5022 -0.1452
  580TMC3     O 8656   2.620   1.881  12.192 -0.2011 -0.1103  0.0624
  580TMC3     H 8657   2.817   1.887  12.318  0.3608 -1.4214 -2.6259
  580TMC3    H1 8658   2.552   1.574  12.388 -0.1164 -0.5645 -2.2682
  580TMC3    H2 8659   2.971   1.519  12.479  0.0325  0.3053 -0.1936
  580TMC3    C7 8660   2.744   1.385  12.408  0.1180 -0.1994  0.2397
  580TMC3    C8 8661   3.032   1.739  12.350 -0.0229  0.3791 -0.0359
  580TMC3    O1 8662   2.631   1.345  12.378  0.1009 -0.2395  0.2880
  580TMC3    O2 8663   3.082   1.835  12.401  0.4324 -0.0567  0.4379
  581MPD2     C 8664   0.293   1.267  15.091  0.9423 -0.1690  0.1833
  581MPD2    C1 8665   0.185   1.198  15.038 -0.5702 -0.2401  0.3214
  581MPD2    C2 8666   0.094   1.258  14.947 -0.1320 -0.6340 -1.1877
  581MPD2    C3 8667   0.114   1.388  14.916 -0.4735 -0.5523  0.7399
  581MPD2    C4 8668   0.218   1.461  14.977 -0.1299  0.5780  0.0698
  581MPD2    C5 8669   0.300   1.400  15.066  0.1121  0.4285 -0.3937
  581MPD2     H 8670   0.019   1.194  14.901 -0.4926 -0.4013 -0.9180
  581MPD2    H1 8671   0.254   1.557  14.944  2.1232 -0.0232  0.7921
  581MPD2    H2 8672   0.371   1.230  15.156  0.2069 -1.8645  0.0965
  581MPD2    H3 8673   0.387   1.453  15.104  1.1399 -2.6589  1.4833
  581MPD2     N 8674   0.030   1.456  14.819  0.1750 -0.3379 -0.0088
  581MPD2    H5 8675   4.709   1.399  14.759 -0.6511 -3.1789  3.5097
  581MPD2    N1 8676   0.182   1.063  15.088 -0.0274 -0.1819  0.9995
  581MPD2    H7 8677   0.253   1.038  15.157 -0.8738 -0.7033  1.6718
  582TMC3    C1 8678   0.113   0.831  15.120  0.6307 -0.0582  0.4813
  582TMC3    C2 8679   0.147   0.836  15.252  0.2171 -1.2659 -0.1682
  582TMC3    C3 8680   0.142   0.722  15.327 -0.0951  0.3419  0.3362
  582TMC3    C4 8681   0.078   0.711  15.058 -0.5435 -0.2427  0.7314
  582TMC3    C5 8682   0.076   0.597  15.138 -0.2970 -0.2094 -0.2271
  582TMC3    C6 8683   0.116   0.598  15.270 -0.0272 -0.2919 -0.1686
  582TMC3     C 8684   0.104   0.955  15.043 -0.4897  0.0115  0.6086
  582TMC3     O 8685   0.035   0.950  14.946 -0.4587 -0.5206  0.5765
  582TMC3     H 8686   0.169   0.928  15.305  0.5955 -1.2177 -0.4036
  582TMC3    H1 8687   0.046   0.696  14.956 -4.4916  1.8937  1.6492
  582TMC3    H2 8688   0.091   0.510  15.329 -1.8993 -0.2245 -0.8732
  582TMC3    C7 8689   4.727   0.485  15.092 -0.1349 -0.5151 -0.0138
  582TMC3    C8 8690   0.149   0.732  15.469 -0.3903 -0.1135  0.3372
  582TMC3    O1 8691   0.036   0.400  15.015  0.2474 -0.3414  0.3257
  582TMC3    O2 8692   0.164   0.842  15.518  0.0786  0.9093 -0.4275
  583MPD2     C 8693   0.219   2.227  16.585  0.9623 -0.2242 -0.1264
  583MPD2    C1 8694   0.280   2.341  16.538  0.0933  0.0762 -0.5513
  583MPD2    C2 8695   0.236   2.467  16.581  0.1435  0.0474  0.1838
  583MPD2    C3 8696   0.140   2.486  16.681 -0.0002  0.4523 -0.0937
  583MPD2    C4 8697   0.085   2.372  16.731  0.9957  0.0778  0.6215
  583MPD2    C5 8698   0.132   2.242  16.686  0.2126  0.4015 -0.2317
  583MPD2     H 8699   0.274   2.562  16.544 -2.0748  0.8604 -0.0219
  583MPD2    H1 8700   4.736   2.376  16.797 -0.2445 -0.1591 -0.9594
  583MPD2    H2 8701   0.237   2.127  16.546  0.5908 -0.2412 -0.2537
  583MPD2    H3 8702   0.073   2.159  16.723  0.1296  0.1142 -1.0034
  583MPD2     N 8703   0.094   2.622  16.712 -0.3510  0.5841 -0.3100
  583MPD2    H5 8704   0.134   2.702  16.663  0.0919 -0.8861 -2.3640
  583MPD2    N1 8705   0.383   2.335  16.443 -0.1934  0.1847  0.5214
  583MPD2    H7 8706   0.423   2.423  16.414 -1.4583  1.0602  1.3823
  584TMC3    C1 8707   0.012   2.791  16.866  0.3601 -0.1314  0.0936
  584TMC3    C2 8708   0.075   2.890  16.790  0.7393  0.3868 -0.3263
  584TMC3    C3 8709   0.057   3.022  16.830  1.3085 -0.7787 -0.0985
  584TMC3    C4 8710   4.664   2.827  16.968  0.2880  0.4192  0.0176
  584TMC3    C5 8711   4.655   2.954  17.009 -0.0158  0.2719 -0.2513
  584TMC3    C6 8712   4.713   3.056  16.932  0.3186  0.1418 -0.0493
  584TMC3     C 8713   0.016   2.647  16.824 -0.7912 -0.3723 -0.5980
  584TMC3     O 8714   4.718   2.571  16.911 -1.3066  0.0051 -0.7338
  584TMC3     H 8715   0.144   2.861  16.712  0.0345 -1.4746 -0.2584
  584TMC3    H1 8716   4.634   2.742  17.029  0.7212  0.1123 -0.1922
  584TMC3    H2 8717   4.694   3.160  16.955 -2.3969 -0.1237 -1.1113
  584TMC3    C7 8718   4.584   2.965  17.129  0.1436  0.4554 -0.2515
  584TMC3    C8 8719   0.126   3.124  16.749  0.2960 -0.3265 -0.9180
  584TMC3    O1 8720   4.504   2.875  17.150  0.3169  0.4304 -0.3880
  584TMC3    O2 8721   0.176   3.091  16.641 -0.0713 -0.0894  0.5836
  585MPD2     C 8722   3.308   2.088   0.418 -0.0902  0.5951  0.2380
  585MPD2    C1 8723   3.376   2.121   0.303 -0.1764  0.1911  0.6834
  585MPD2    C2 8724   3.440   2.013   0.236  0.6086 -0.4499 -0.1313
  585MPD2    C3 8725   3.416   1.877   0.273 -0.1331  0.0165  0.4428
  585MPD2    C4 8726   3.340   1.860   0.384 -0.1600 -0.0839  0.2009
  585MPD2    C5 8727   3.298   1.959   0.461 -0.4615 -0.0592 -0.3625
  585MPD2     H 8728   3.497   2.041   0.148  0.3687 -0.4198 -0.2761
  585MPD2    H1 8729   3.311   1.758   0.408 -0.1956 -0.5064 -1.5896
  585MPD2    H2 8730   3.262   2.165   0.480 -0.1893 -0.3587  1.3405
  585MPD2    H3 8731   3.249   1.946   0.556 -3.9020 -0.8017 -2.2174
  585MPD2     N 8732   3.482   1.764   0.222 -0.5478  0.3301 -0.5467
  585MPD2    H5 8733   3.435   1.675   0.224 -1.8736  1.0432 -0.1043
  585MPD2    N1 8734   3.402   2.250   0.264  0.3270  0.3813 -0.2809
  585MPD2    H7 8735   3.381   2.323   0.331 -1.3935 -1.5012  1.2147
  586TMC3    C1 8736   3.657   1.631   0.137 -0.2925 -1.0599 -0.7288
  586TMC3    C2 8737   3.786   1.605   0.152 -0.3548  0.2111  0.3627
  586TMC3    C3 8738   3.836   1.485   0.112 -0.6156  0.3791 -0.0300
  586TMC3    C4 8739   3.573   1.547   0.072 -0.5617 -0.0165  0.1427
  586TMC3    C5 8740   3.624   1.438   0.005 -0.4988 -0.2421  0.6007
  586TMC3    C6 8741   3.754   1.406   0.035 -0.2189  0.1506  0.3909
  586TMC3     C 8742   3.610   1.763   0.177 -0.1367 -0.1578  0.1043
  586TMC3     O 8743   3.689   1.854   0.179 -0.2008  0.9122  0.3716
  586TMC3     H 8744   3.854   1.673   0.202 -0.4987 -0.2004  1.1113
  586TMC3    H1 8745   3.473   1.575   0.041  0.0959  1.1073 -0.9275
  586TMC3    H2 8746   3.794   1.316  17.735  1.1145  1.4818 -1.0974
  586TMC3    C7 8747   3.597   1.455  17.611  0.1395 -0.0378 -0.4644
  586TMC3    C8 8748   3.969   1.490   0.063 -0.1172  0.2336  0.4814
  586TMC3    O1 8749   3.479   1.468  17.577 -0.2057 -0.2674  0.0262
  586TMC3    O2 8750   3.979   1.460  17.688 -0.0409 -0.0389  0.5218
  587TMC3    C1 8751   2.118   0.424  16.743 -0.1148  0.7097 -0.4479
  587TMC3    C2 8752   2.081   0.551  16.693 -0.3937 -0.1845  0.2961
  587TMC3    C3 8753   2.185   0.640  16.673 -0.1374 -0.1874  0.3382
  587TMC3    C4 8754   2.249   0.391  16.760 -0.3656  0.2119  0.0309
  587TMC3    C5 8755   2.349   0.476  16.719  0.6002  0.0886 -0.1122
  587TMC3    C6 8756   2.315   0.602  16.682  0.0467 -0.3762 -0.0341
  587TMC3     C 8757   2.016   0.323  16.768 -0.3069 -0.7892 -0.8196
  587TMC3     O 8758   2.051   0.215  16.806 -0.2415  0.5833  0.2767
  587TMC3     H 8759   1.981   0.581  16.664 -0.1151  1.4382  1.0364
  587TMC3    H1 8760   2.289   0.295  16.792 -2.4089  0.0748  2.2113
  587TMC3    H2 8761   2.393   0.675  16.662 -0.6703  0.3390 -0.2129
  587TMC3    C7 8762   2.485   0.451  16.767 -0.6734  0.1374 -0.4706
  587TMC3    C8 8763   2.158   0.769  16.604  0.2696 -0.0457  0.0694
  587TMC3    O1 8764   2.490   0.382  16.864  0.0945 -0.1896 -0.4512
  587TMC3    O2 8765   2.238   0.809  16.522 -0.5397 -0.5126  0.1219
  588TMC3    C1 8766   4.371   3.036   9.925  0.1114  0.5648  0.0857
  588TMC3    C2 8767   4.323   2.923   9.992 -0.8881 -0.4147  0.4139
  588TMC3    C3 8768   4.337   2.926  10.127 -0.1536  0.1828  0.0665
  588TMC3    C4 8769   4.426   3.138   9.992  0.0266  0.2498 -0.6750
  588TMC3    C5 8770   4.426   3.138  10.126  0.2112  0.5477  0.2269
  588TMC3    C6 8771   4.379   3.030  10.199  1.3065 -0.7744  0.2402
  588TMC3     C 8772   4.365   3.047   9.776 -0.4068 -0.0921 -0.1011
  588TMC3     O 8773   4.412   2.963   9.699  0.7497 -0.0423 -0.6161
  588TMC3     H 8774   4.298   2.829   9.945  0.0928  0.9639 -2.9066
  588TMC3    H1 8775   4.462   3.221   9.932 -1.0303  0.1398 -1.4594
  588TMC3    H2 8776   4.404   3.034  10.304  2.7933 -0.0098 -0.1438
  588TMC3    C7 8777   4.435   3.264  10.199 -0.2198 -0.0496 -0.3404
  588TMC3    C8 8778   4.268   2.813  10.194  0.0195  0.0708 -0.3479
  588TMC3    O1 8779   4.444   3.258  10.318 -0.1046  0.6942 -0.5029
  588TMC3    O2 8780   4.183   2.757  10.131 -0.0768  0.2418  0.2523
  589TMC3    C1 8781   3.391   0.203   1.180  0.2312  1.1337  0.2057
  589TMC3    C2 8782   3.515   0.244   1.223  0.1475 -0.3749 -0.0056
  589TMC3    C3 8783   3.631   0.188   1.173  0.8815  0.3604 -0.3267
  589TMC3    C4 8784   3.382   0.130   1.066  0.0268 -0.6879  0.4707
  589TMC3    C5 8785   3.499   0.083   1.003  1.0716  0.1552  0.2775
  589TMC3    C6 8786   3.617   0.106   1.066  0.0433 -0.0904 -0.0123
  589TMC3     C 8787   3.270   0.236   1.252 -0.0341 -0.0012  0.1473
  589TMC3     O 8788   3.171   0.259   1.188  0.3728  0.0886 -0.3027
  589TMC3     H 8789   3.537   0.311   1.306 -1.0430 -0.2564  0.2163
  589TMC3    H1 8790   3.282   0.122   1.025 -0.1300 -0.5191  0.8254
  589TMC3    H2 8791   3.695   0.037   1.032  0.8980  0.4991  0.7575
  589TMC3    C7 8792   3.492   4.724   0.893 -0.0722  0.2283 -0.4641
  589TMC3    C8 8793   3.759   0.210   1.243  0.0481  0.0011 -0.3368
  589TMC3    O1 8794   3.388   4.658   0.885 -0.1547  0.2760  0.4114
  589TMC3    O2 8795   3.763   0.266   1.354 -0.1431 -0.5502  0.4324
  590MPD2     C 8796   2.940   3.730  16.579  0.3060 -0.1584  0.3996
  590MPD2    C1 8797   2.888   3.775  16.466  0.1985 -0.7180  0.0022
  590MPD2    C2 8798   2.968   3.836  16.374  0.2608  0.2139  0.1245
  590MPD2    C3 8799   3.097   3.871  16.412  0.2770 -0.1078  0.1237
  590MPD2    C4 8800   3.155   3.823  16.524 -0.1956 -0.2895 -0.4434
  590MPD2    C5 8801   3.070   3.748  16.609 -0.4551 -0.3076 -0.1269
  590MPD2     H 8802   2.927   3.889  16.289  0.3784  1.4741  0.8449
  590MPD2    H1 8803   3.254   3.853  16.555 -0.6248 -1.2214  1.8497
  590MPD2    H2 8804   2.888   3.663  16.646  1.6073 -0.3115  1.2448
  590MPD2    H3 8805   3.108   3.706  16.701  0.4219  0.2779 -0.2247
  590MPD2     N 8806   3.167   3.939  16.310  0.4483  0.6861  0.0624
  590MPD2    H5 8807   3.114   3.967  16.228  0.0364 -2.2020 -0.6282
  590MPD2    N1 8808   2.743   3.762  16.448 -0.4974 -0.0973 -0.3823
  590MPD2    H7 8809   2.696   3.724  16.530  1.9436 -1.9163  0.2061
  591TMC3    C1 8810   3.334   4.043  16.188 -0.1911  0.2496  0.1329
  591TMC3    C2 8811   3.453   4.020  16.128 -0.0452  0.6197 -0.4439
  591TMC3    C3 8812   3.483   4.093  16.018  0.6170 -0.5928  0.6075
  591TMC3    C4 8813   3.263   4.157  16.161  1.0142 -0.3575  0.1666
  591TMC3    C5 8814   3.314   4.241  16.065  0.4326 -0.1853 -0.9022
  591TMC3    C6 8815   3.419   4.208  15.987 -0.4040 -0.0777 -0.4866
  591TMC3     C 8816   3.301   3.971  16.311 -0.2138  0.2297  0.1492
  591TMC3     O 8817   3.389   3.927  16.386  0.3975  0.0274  0.8872
  591TMC3     H 8818   3.503   3.927  16.154  0.2559  0.9583  0.1816
  591TMC3    H1 8819   3.182   4.182  16.229  1.5181 -1.3466  1.1396
  591TMC3    H2 8820   3.446   4.261  15.896  2.4971  0.9543  0.9807
  591TMC3    C7 8821   3.238   4.373  16.063  0.7941  0.4808  0.1850
  591TMC3    C8 8822   3.567   4.024  15.920  0.2207 -0.3380  0.2780
  591TMC3    O1 8823   3.142   4.380  16.132 -0.1102  0.1773  0.0245
  591TMC3    O2 8824   3.648   3.943  15.962 -0.2827  0.5968  0.1686
  592MPD2     C 8825   3.464   1.159  11.360  0.7903 -0.1314 -0.4354
  592MPD2    C1 8826   3.447   1.157  11.502 -0.1586  0.5541  0.5224
  592MPD2    C2 8827   3.375   1.056  11.569  0.0916  0.3478  0.4076
  592MPD2    C3 8828   3.310   0.967  11.487  0.4800  0.5244  0.1647
  592MPD2    C4 8829   3.318   0.972  11.348  0.4350 -0.2823 -0.5804
  592MPD2    C5 8830   3.392   1.065  11.289  0.0463  0.3229 -0.2787
  592MPD2     H 8831   3.366   1.043  11.676  1.9538 -0.9504  0.4072
  592MPD2    H1 8832   3.263   0.902  11.287  2.3429 -1.7808 -0.5616
  592MPD2    H2 8833   3.521   1.240  11.317  2.1201 -1.4198 -1.0988
  592MPD2    H3 8834   3.396   1.070  11.180 -1.5042 -2.0935 -0.4689
  592MPD2     N 8835   3.227   0.874  11.553  0.2725  0.7506 -0.0100
  592MPD2    H5 8836   3.239   0.877  11.654 -1.9814  1.0860  0.2575
  592MPD2    N1 8837   3.542   1.231  11.572  0.0126  0.3063  0.4008
  592MPD2    H7 8838   3.616   1.280  11.522  1.1454  0.3312  2.1078
  593TMC3    C1 8839   3.649   1.336  11.741  0.0891  0.5112  0.2331
  593TMC3    C2 8840   3.641   1.405  11.856  0.5373  0.2853 -0.0403
  593TMC3    C3 8841   3.731   1.502  11.877  0.1772 -0.6365  0.0244
  593TMC3    C4 8842   3.745   1.363  11.643 -0.6745  0.2394 -0.3406
  593TMC3    C5 8843   3.818   1.483  11.663 -0.0922  0.0320  0.4063
  593TMC3    C6 8844   3.812   1.551  11.776 -0.0938  0.6432 -0.8654
  593TMC3     C 8845   3.532   1.262  11.708  0.3014 -0.0884 -0.2246
  593TMC3     O 8846   3.434   1.262  11.781 -0.1222  0.0242 -0.3742
  593TMC3     H 8847   3.572   1.375  11.934  0.2443 -0.7330 -0.6877
  593TMC3    H1 8848   3.773   1.300  11.560 -0.6180 -2.2431  1.5743
  593TMC3    H2 8849   3.871   1.640  11.793  0.7199 -0.3059  1.3019
  593TMC3    C7 8850   3.901   1.536  11.559  0.2194  0.0839 -0.7766
  593TMC3    C8 8851   3.745   1.541  12.018 -0.2313  0.0032 -0.4786
  593TMC3    O1 8852   3.950   1.646  11.589 -0.3824 -0.7778  0.9354
  593TMC3    O2 8853   3.650   1.545  12.096  0.0838 -0.6143  0.1483
  594MPD2     C 8854   2.296   4.415  14.581  0.1726 -0.9206  0.1300
  594MPD2    C1 8855   2.223   4.488  14.491 -0.6981  0.0027 -0.3201
  594MPD2    C2 8856   2.282   4.597  14.423  0.4630  0.1653 -0.7244
  594MPD2    C3 8857   2.416   4.622  14.440 -0.0342  0.3740 -0.5390
  594MPD2    C4 8858   2.487   4.545  14.529  0.1405 -0.2744 -0.4612
  594MPD2    C5 8859   2.423   4.445  14.604 -0.2500 -0.6057 -1.2408
  594MPD2     H 8860   2.227   4.661  14.354  1.2491  0.1621 -1.3531
  594MPD2    H1 8861   2.592   4.564  14.549 -0.3986 -0.9060  3.1057
  594MPD2    H2 8862   2.244   4.345  14.646  0.0860 -1.3047 -0.3505
  594MPD2    H3 8863   2.483   4.382  14.669  0.4930  0.1792 -1.1795
  594MPD2     N 8864   2.470   4.736  14.376 -0.9306  0.8424  0.5909
  594MPD2    H5 8865   2.406   0.057  14.323  1.0754  2.0306 -0.5403
  594MPD2    N1 8866   2.086   4.442  14.468 -0.0146  0.0427  0.7966
  594MPD2    H7 8867   2.058   4.368  14.531  2.7840 -0.3592  1.5389
  595TMC3    C1 8868   2.790   0.334  14.299  0.7967 -0.4034 -0.2650
  595TMC3    C2 8869   2.763   0.199  14.312 -0.3241  0.4776 -0.0301
  595TMC3    C3 8870   2.629   0.163  14.303  0.7097 -0.3656  0.2145
  595TMC3    C4 8871   2.695   0.429  14.288 -0.4401  0.4795  0.4821
  595TMC3    C5 8872   2.564   0.386  14.298 -0.4628 -0.1766 -0.0579
  595TMC3    C6 8873   2.533   0.257  14.302 -0.5357  0.0758  0.3683
  595TMC3     C 8874   2.924   0.389  14.324  0.1974  0.0075 -0.0010
  595TMC3     O 8875   2.938   0.512  14.339 -0.5599  0.4570  0.2357
  595TMC3     H 8876   2.836   0.123  14.337 -0.5472  0.3630  0.2781
  595TMC3    H1 8877   2.723   0.533  14.292 -2.0628  0.8149  3.1038
  595TMC3    H2 8878   2.430   0.222  14.304 -0.2752 -0.5018  2.7279
  595TMC3    C7 8879   2.450   0.473  14.321  0.3713 -0.0480  0.0716
  595TMC3    C8 8880   2.606   0.038  14.379 -0.5873  0.1178  0.6869
  595TMC3    O1 8881   2.367   0.426  14.402 -0.0800 -0.0590 -0.9065
  595TMC3    O2 8882   2.699   4.698  14.403 -0.1808 -0.2178  0.0964
  596MPD2     C 8883   1.026   2.417  16.818  0.2752  0.1006  0.3030
  596MPD2    C1 8884   1.036   2.533  16.743 -0.0116 -0.2008  0.4197
  596MPD2    C2 8885   1.089   2.520  16.616  0.6518  0.0608 -0.4274
  596MPD2    C3 8886   1.135   2.400  16.561  0.1857  0.0070 -0.5042
  596MPD2    C4 8887   1.128   2.286  16.639  0.1623 -0.3725  0.0643
  596MPD2    C5 8888   1.080   2.296  16.764 -0.5885  0.1805  0.4722
  596MPD2     H 8889   1.101   2.607  16.554  3.0539 -0.9947 -1.4207
  596MPD2    H1 8890   1.162   2.190  16.603 -0.5077 -0.8449  0.6965
  596MPD2    H2 8891   0.970   2.410  16.910 -1.0818  2.9059 -0.3353
  596MPD2    H3 8892   1.084   2.215  16.835  0.3220 -1.1507 -1.1078
  596MPD2     N 8893   1.189   2.403  16.424 -0.5750 -0.2841 -0.4236
  596MPD2    H5 8894   1.203   2.493  16.378  0.4120  0.2533  0.9193
  596MPD2    N1 8895   0.979   2.656  16.775  0.2390  0.6751 -0.2493
  596MPD2    H7 8896   0.983   2.731  16.706 -1.0750 -1.6224 -2.8013
  597TMC3    C1 8897   0.901   2.815  16.914  0.9154 -0.3273 -0.1512
  597TMC3    C2 8898   0.976   2.903  16.847  0.0101  0.3248  0.3422
  597TMC3    C3 8899   0.925   3.030  16.824 -0.0389  0.4564  0.4301
  597TMC3    C4 8900   0.797   2.856  16.984  0.3275  0.0210 -1.0200
  597TMC3    C5 8901   0.757   2.986  16.971  1.0371 -0.1806  0.6930
  597TMC3    C6 8902   0.808   3.074  16.884  0.5599 -0.7769  0.2728
  597TMC3     C 8903   0.921   2.676  16.902  0.4113  0.0679  0.2660
  597TMC3     O 8904   0.872   2.596  16.979 -0.2240 -0.2814  0.1764
  597TMC3     H 8905   1.063   2.881  16.787 -0.7435  0.6067 -0.8562
  597TMC3    H1 8906   0.753   2.790  17.058 -0.4077  2.4948  0.7366
  597TMC3    H2 8907   0.780   3.179  16.885 -0.2263 -0.9876  0.1501
  597TMC3    C7 8908   0.656   3.030  17.071 -0.1838  0.6009  0.2902
  597TMC3    C8 8909   1.018   3.127  16.760 -0.3863  0.0034 -0.4784
  597TMC3    O1 8910   0.645   2.960  17.172  0.0447  0.5221 -0.2205
  597TMC3    O2 8911   1.127   3.083  16.727 -0.1942  0.2061 -0.3041
  598TMC3    C1 8912   4.173   4.163  15.298  0.2996  0.1820 -0.6457
  598TMC3    C2 8913   4.090   4.059  15.339 -0.4711  0.0864 -0.2091
  598TMC3    C3 8914   3.968   4.048  15.277 -1.1440  0.6638 -0.1185
  598TMC3    C4 8915   4.133   4.269  15.221  0.6528 -0.6641 -0.6687
  598TMC3    C5 8916   4.009   4.254  15.159  0.1181  0.2825  0.0708
  598TMC3    C6 8917   3.933   4.138  15.180 -0.2096  0.5821 -0.3662
  598TMC3     C 8918   4.318   4.167  15.341 -0.1681  0.3077  0.2646
  598TMC3     O 8919   4.389   4.258  15.302  0.1543 -0.2116 -0.1315
  598TMC3     H 8920   4.119   3.982  15.409 -1.3332  0.0855  0.1513
  598TMC3    H1 8921   4.204   4.348  15.196  0.7668 -0.7627 -0.6537
  598TMC3    H2 8922   3.855   4.122  15.106  0.6184  0.9737 -1.3243
  598TMC3    C7 8923   3.990   4.305  15.024 -0.0130 -0.1432 -0.2532
  598TMC3    C8 8924   3.916   3.910  15.254 -0.1613 -0.3991  0.1301
  598TMC3    O1 8925   3.931   4.234  14.945  0.4435 -0.1494  0.1815
  598TMC3    O2 8926   3.976   3.813  15.300 -0.0726 -0.2554  0.3580
  599MPD2     C 8927   4.511   1.785  15.908 -0.1928 -0.0479  0.2388
  599MPD2    C1 8928   4.426   1.692  15.856  0.3557 -0.6820  0.7977
  599MPD2    C2 8929   4.294   1.704  15.886  0.0765  0.5384 -0.2853
  599MPD2    C3 8930   4.238   1.826  15.926  0.0073 -0.2266 -0.2384
  599MPD2    C4 8931   4.322   1.924  15.959  0.8225  0.1337  0.2232
  599MPD2    C5 8932   4.453   1.894  15.959  0.0944 -0.3099 -0.3406
  599MPD2     H 8933   4.226   1.620  15.882  0.6893  0.0067  0.3271
  599MPD2    H1 8934   4.293   2.021  15.997  0.7191  1.4525 -3.2477
  599MPD2    H2 8935   4.619   1.785  15.896 -0.0847 -1.4207  1.2280
  599MPD2    H3 8936   4.526   1.972  15.977 -1.7135  0.8723  1.9548
  599MPD2     N 8937   4.104   1.858  15.936  0.1094 -0.4457 -0.4519
  599MPD2    H5 8938   4.078   1.945  15.980  1.6449 -0.3905  0.3512
  599MPD2    N1 8939   4.486   1.574  15.807 -0.3374 -0.5369  0.1055
  599MPD2    H7 8940   4.588   1.580  15.811 -0.4195  0.9896  0.1355
  600TMC3    C1 8941   3.874   1.823  15.963  0.7415  0.5741  0.2491
  600TMC3    C2 8942   3.759   1.755  15.927 -0.5354  0.5003  0.0092
  600TMC3    C3 8943   3.638   1.778  15.996 -0.4216 -0.4471  0.0452
  600TMC3    C4 8944   3.873   1.892  16.079 -0.4880  1.0416 -0.4955
  600TMC3    C5 8945   3.752   1.919  16.143  0.8340 -0.1900  0.2917
  600TMC3    C6 8946   3.633   1.864  16.102  0.4892 -0.2803 -0.3332
  600TMC3     C 8947   3.996   1.778  15.907 -0.2056  0.7149  0.3912
  600TMC3     O 8948   3.997   1.683  15.829  0.1352  0.2634  0.2112
  600TMC3     H 8949   3.750   1.698  15.835 -1.1053 -1.5245  1.3259
  600TMC3    H1 8950   3.962   1.907  16.138  0.9075 -1.9589 -1.8412
  600TMC3    H2 8951   3.546   1.886  16.163 -0.4551  2.4698 -2.6641
  600TMC3    C7 8952   3.738   2.032  16.236 -0.1245 -0.0767 -0.2489
  600TMC3    C8 8953   3.510   1.734  15.946 -0.5539 -0.0749 -0.0755
  600TMC3    O1 8954   3.637   2.034  16.307  0.6995 -0.6270 -0.1319
  600TMC3    O2 8955   3.408   1.793  15.979 -0.6020  0.3721  0.4946
  601MPD2     C 8956   1.619   4.651   0.160  0.2809 -0.0749  0.6094
  601MPD2    C1 8957   1.500   4.631   0.103 -0.0774  0.2792  1.0318
  601MPD2    C2 8958   1.462   4.500   0.079 -0.1688 -0.2969 -0.4530
  601MPD2    C3 8959   1.556   4.396   0.091  0.3629  0.3602  0.5217
  601MPD2    C4 8960   1.671   4.415   0.154 -0.6308 -0.5951  0.1582
  601MPD2    C5 8961   1.704   4.543   0.190 -0.3643 -0.0660 -0.2794
  601MPD2     H 8962   1.360   4.479   0.047 -1.1244  0.7423  1.8694
  601MPD2    H1 8963   1.744   4.337   0.173 -0.2321 -0.2622  0.0030
  601MPD2    H2 8964   1.662   0.007   0.194  0.7708 -0.5622  1.3255
  601MPD2    H3 8965   1.802   4.567   0.228 -1.1614  1.2289  0.9525
  601MPD2     N 8966   1.518   4.262   0.071  0.2345  0.3454 -0.2370
  601MPD2    H5 8967   1.582   4.200   0.121 -0.1845  0.7508  0.8023
  601MPD2    N1 8968   1.404   0.002   0.084 -0.0413 -0.5484 -0.0900
  601MPD2    H7 8969   1.310   4.720   0.050  0.7381 -3.2486 -0.8242
  602TMC3    C1 8970   1.319   0.225   0.091  0.1335  0.4024  0.0986
  602TMC3    C2 8971   1.352   0.357   0.074 -0.4948  0.9574  0.7785
  602TMC3    C3 8972   1.274   0.427  17.730 -0.0326 -0.0371  0.4465
  602TMC3    C4 8973   1.203   0.175   0.046  0.4279  0.4827 -0.3404
  602TMC3    C5 8974   1.131   0.257  17.711  0.0867 -0.2340  0.1257
  602TMC3    C6 8975   1.164   0.380  17.669 -0.6574 -0.1863  0.1825
  602TMC3     C 8976   1.425   0.134   0.125 -0.3803  0.2180 -0.5275
  602TMC3     O 8977   1.533   0.185   0.161  0.0819 -0.1569 -0.6293
  602TMC3     H 8978   1.443   0.400   0.115  0.0893  0.8503 -0.3864
  602TMC3    H1 8979   1.168   0.077   0.077 -1.4656  1.0789 -0.6124
  602TMC3    H2 8980   1.136   0.429  17.576  2.1190 -1.5765 -1.4051
  602TMC3    C7 8981   1.008   0.207  17.658 -0.7980 -0.8619 -0.1830
  602TMC3    C8 8982   1.312   0.558  17.684 -0.2099 -0.6175 -0.7438
  602TMC3    O1 8983   0.986   0.087  17.672 -0.5455  0.0718 -0.5144
  602TMC3    O2 8984   1.431   0.589  17.695 -0.1904  0.0478  0.0502
  603TMC3    C1 8985   4.318   0.448  10.613  0.1574 -0.4374 -0.6499
  603TMC3    C2 8986   4.366   0.440  10.739 -0.3692  0.3330 -0.2517
  603TMC3    C3 8987   4.349   0.552  10.813 -0.3304 -0.0281  0.3085
  603TMC3    C4 8988   4.240   0.545  10.556  0.5830  0.5905 -0.0639
  603TMC3    C5 8989   4.208   0.645  10.642 -0.0015 -0.1124  0.3527
  603TMC3    C6 8990   4.269   0.657  10.765 -0.2586  0.1909  0.0944
  603TMC3     C 8991   4.405   0.381  10.519 -0.3232 -1.1558 -0.8219
  603TMC3     O 8992   4.460   0.279  10.556  0.0842  0.1909  0.1343
  603TMC3     H 8993   4.422   0.352  10.771  0.3056  0.8728  0.0559
  603TMC3    H1 8994   4.200   0.546  10.456  2.2168 -2.0239 -0.7619
  603TMC3    H2 8995   4.232   0.730  10.836 -0.7247 -0.8158  0.8912
  603TMC3    C7 8996   4.185   0.771  10.572 -0.3478 -0.6623  0.0306
  603TMC3    C8 8997   4.382   0.538  10.955 -0.4326  0.4799  0.1258
  603TMC3    O1 8998   4.263   0.868  10.571 -0.3479 -0.6643  0.1660
  603TMC3    O2 8999   4.454   0.445  10.982  0.7127  0.2097 -0.3950
  604MPD2     C 9000   0.432   3.970  16.360 -0.0808  0.2614 -0.2880
  604MPD2    C1 9001   0.344   3.869  16.332 -0.0474  0.8282 -0.3989
  604MPD2    C2 9002   0.391   3.772  16.247 -0.6079  0.6404 -0.1479
  604MPD2    C3 9003   0.510   3.779  16.178 -0.1242  1.2719  0.3494
  604MPD2    C4 9004   0.589   3.892  16.195 -0.3447  0.2612  0.9390
  604MPD2    C5 9005   0.546   3.982  16.288 -0.7020 -0.3277 -0.3677
  604MPD2     H 9006   0.328   3.683  16.244 -0.0560  0.3085 -1.4368
  604MPD2    H1 9007   0.677   3.914  16.137  0.5712 -2.0423  1.4677
  604MPD2    H2 9008   0.406   4.039  16.439 -0.4658 -2.8786  2.3597
  604MPD2    H3 9009   0.620   4.059  16.307 -2.8824  0.8794  3.3330
  604MPD2     N 9010   0.531   3.676  16.083 -0.3884 -0.1252 -0.5854
  604MPD2    H5 9011   0.465   3.599  16.092 -1.7004  1.1023  0.3171
  604MPD2    N1 9012   0.225   3.869  16.407 -0.0248 -0.4342 -0.1737
  604MPD2    H7 9013   0.203   3.949  16.465  1.5398  0.9850 -1.5288
  605TMC3    C1 9014   0.018   3.814  16.483 -0.3286 -0.4709 -0.7871
  605TMC3    C2 9015   0.068   3.855  16.603 -0.1749  0.0861  0.2781
  605TMC3    C3 9016   0.001   3.958  16.665  0.0720 -0.6018 -0.3981
  605TMC3    C4 9017   4.646   3.871  16.426 -0.1923 -0.3459 -0.3608
  605TMC3    C5 9018   4.572   3.964  16.499 -0.1712 -0.8583  0.7348
  605TMC3    C6 9019   4.627   4.012  16.610 -0.0184  0.1556  0.1679
  605TMC3     C 9020   0.126   3.775  16.403 -0.3606  0.4574  0.7132
  605TMC3     O 9021   0.111   3.687  16.318 -0.1691  1.2124  0.3411
  605TMC3     H 9022   0.161   3.815  16.641 -0.2299 -2.5660 -2.3224
  605TMC3    H1 9023   4.630   3.849  16.321  0.3108 -1.4165 -0.2157
  605TMC3    H2 9024   4.577   4.090  16.667 -0.6652  1.3271 -2.0062
  605TMC3    C7 9025   4.480   4.049  16.425 -0.7845 -0.3337  0.1079
  605TMC3    C8 9026   0.105   4.052  16.695  0.3128  0.4858 -0.5811
  605TMC3    O1 9027   4.442   4.151  16.487 -0.7729  0.1289 -0.2787
  605TMC3    O2 9028   0.179   4.080  16.600 -0.4560  0.1740 -0.3989
  606TMC3    C1 9029   1.084   2.819   0.167  0.0564 -0.3977  0.3713
  606TMC3    C2 9030   1.173   2.743   0.236  0.0656 -0.9593 -0.3577
  606TMC3    C3 9031   1.254   2.677   0.153 -0.0100 -0.0981  0.1933
  606TMC3    C4 9032   1.049   2.801   0.038 -0.6125 -0.7521  0.1759
  606TMC3    C5 9033   1.125   2.717  17.707 -0.4841 -0.7729  0.1332
  606TMC3    C6 9034   1.236   2.657   0.020  0.1514 -0.3509 -0.3824
  606TMC3     C 9035   1.033   2.935   0.244 -0.1531  0.5665 -0.4638
  606TMC3     O 9036   1.051   2.940   0.367  0.3918 -1.0080 -0.2090
  606TMC3     H 9037   1.195   2.757   0.341 -2.3845 -0.3386  0.0576
  606TMC3    H1 9038   0.957   2.841  17.741 -0.8547 -2.7926 -1.2289
  606TMC3    H2 9039   1.305   2.587  17.719  0.3159 -0.3468 -0.1399
  606TMC3    C7 9040   1.064   2.659  17.583 -0.1433 -0.2934 -0.1253
  606TMC3    C8 9041   1.353   2.596   0.217 -0.2289  0.1846  0.3364
  606TMC3    O1 9042   1.001   2.734  17.508  0.4547  0.0496  0.1280
  606TMC3    O2 9043   1.461   2.593   0.164 -0.6175  0.7639  0.3264
  607MPD2     C 9044   3.364   0.461  11.722  0.8031 -0.4873 -0.8619
  607MPD2    C1 9045   3.425   0.464  11.839 -0.3376 -0.2833  0.1512
  607MPD2    C2 9046   3.463   0.348  11.900  0.6870  0.3518 -0.8397
  607MPD2    C3 9047   3.423   0.222  11.858 -0.5250  0.4004  0.0332
  607MPD2    C4 9048   3.347   0.215  11.741  0.2096 -0.4334 -0.2643
  607MPD2    C5 9049   3.315   0.339  11.689  0.3108 -0.9016  0.6397
  607MPD2     H 9050   3.524   0.355  11.989 -0.2143  2.4031 -0.3781
  607MPD2    H1 9051   3.302   0.124  11.703  0.9546 -1.6988  1.9198
  607MPD2    H2 9052   3.333   0.550  11.668 -0.8056 -0.5979 -0.1114
  607MPD2    H3 9053   3.240   0.341  11.611  2.2377  0.1470 -1.1983
  607MPD2     N 9054   3.456   0.117  11.946  0.3968  0.2728  0.2465
  607MPD2    H5 9055   3.492   0.153  12.034  0.7394 -1.9346  1.0251
  607MPD2    N1 9056   3.457   0.591  11.901  0.4805  0.1548  0.0230
  607MPD2    H7 9057   3.501   0.585  11.993  0.0583  1.3387  0.3051
  608TMC3    C1 9058   3.548   0.803  11.924  0.5035  0.2303 -0.4464
  608TMC3    C2 9059   3.548   0.774  12.058  0.3095 -0.3229  0.6743
  608TMC3    C3 9060   3.637   0.848  12.141 -0.0340 -0.0817  1.1640
  608TMC3    C4 9061   3.627   0.906  11.871  1.1887  0.5299  0.1343
  608TMC3    C5 9062   3.708   0.970  11.954  0.5910  0.0871 -0.0702
  608TMC3    C6 9063   3.719   0.942  12.089 -0.7380 -0.1165 -0.4784
  608TMC3     C 9064   3.463   0.717  11.849 -0.2295  0.0502  0.5254
  608TMC3     O 9065   3.432   0.755  11.735  0.0961  0.2748 -0.1023
  608TMC3     H 9066   3.490   0.700  12.112 -1.4749 -0.7488 -1.8137
  608TMC3    H1 9067   3.615   0.924  11.764  0.6857 -2.1038 -0.2531
  608TMC3    H2 9068   3.781   0.993  12.162 -0.8260 -1.6288  0.6408
  608TMC3    C7 9069   3.808   1.057  11.895 -0.7902  1.0285 -0.3644
  608TMC3    C8 9070   3.686   0.790  12.259  0.3065 -0.2495 -0.3622
  608TMC3    O1 9071   3.824   1.064  11.773 -0.5947 -0.3488  0.1162
  608TMC3    O2 9072   3.694   0.867  12.350 -0.8041 -0.2926  0.2775
  609TMC3    C1 9073   1.324   4.489   8.956  0.0445 -0.1621 -0.1401
  609TMC3    C2 9074   1.264   4.367   8.971 -0.1390 -1.5079 -0.4787
  609TMC3    C3 9075   1.338   4.263   9.019 -0.5669  0.2822 -0.5834
  609TMC3    C4 9076   1.459   4.510   8.963  0.5790 -0.7272 -0.1881
  609TMC3    C5 9077   1.530   4.402   8.998 -0.3933 -0.0806 -0.2709
  609TMC3    C6 9078   1.472   4.282   9.034  0.1525  0.5416  0.6226
  609TMC3     C 9079   1.228   4.594   8.912 -1.0844 -0.4100  0.6976
  609TMC3     O 9080   1.106   4.581   8.922  0.5539 -0.3102  0.4762
  609TMC3     H 9081   1.156   4.362   8.972 -0.0945 -1.9147  1.5180
  609TMC3    H1 9082   1.512   4.597   8.925 -0.9026  0.7342  1.0795
  609TMC3    H2 9083   1.528   4.195   9.068 -0.4600  0.2000  0.7481
  609TMC3    C7 9084   1.672   4.403   8.974 -0.1731  1.2423  0.1192
  609TMC3    C8 9085   1.278   4.134   9.063 -0.1796  0.9550  0.6236
  609TMC3    O1 9086   1.732   4.507   8.989  0.4407  0.1434 -0.1882
  609TMC3    O2 9087   1.351   4.040   9.079  0.0843 -0.2381 -0.6364
  610TMC3    C1 9088   4.030   0.589  12.607  0.0468  0.3693  0.4715
  610TMC3    C2 9089   4.029   0.651  12.487  0.2150  0.4266 -0.1866
  610TMC3    C3 9090   4.033   0.566  12.377 -0.5703 -0.6926 -0.0165
  610TMC3    C4 9091   4.034   0.455  12.627 -0.3864 -0.7227 -0.2364
  610TMC3    C5 9092   4.040   0.373  12.519 -0.3705  0.2614 -0.2210
  610TMC3    C6 9093   4.031   0.425  12.398 -0.1814 -0.9484  0.2969
  610TMC3     C 9094   3.964   0.657  12.716  0.5988 -0.6982 -0.1173
  610TMC3     O 9095   3.907   0.762  12.684 -0.0506  0.1292 -0.3263
  610TMC3     H 9096   4.021   0.759  12.484  0.5028  0.4290 -0.9061
  610TMC3    H1 9097   4.045   0.415  12.727  3.5162  0.4923 -0.2033
  610TMC3    H2 9098   4.032   0.365  12.308 -0.7251 -1.4655  0.6336
  610TMC3    C7 9099   4.067   0.229  12.542  0.7047  0.8943  0.5358
  610TMC3    C8 9100   4.025   0.613  12.240 -0.2690  0.4151  0.0886
  610TMC3    O1 9101   4.095   0.202  12.657 -0.2908  0.6850  0.6155
  610TMC3    O2 9102   3.993   0.529  12.156  0.9782  0.4227 -0.3797
  611MPD2     C 9103   3.169   0.305  10.230 -0.1492  0.1039 -0.5567
  611MPD2    C1 9104   3.080   0.400  10.178 -0.4596  0.5404  0.2090
  611MPD2    C2 9105   3.124   0.530  10.167  0.2767 -0.0163  0.3670
  611MPD2    C3 9106   3.243   0.566  10.220 -0.1107  0.5020 -0.0544
  611MPD2    C4 9107   3.318   0.471  10.288 -0.0963  0.0192 -0.0731
  611MPD2    C5 9108   3.282   0.341  10.295  0.6210  0.4073  0.5022
  611MPD2     H 9109   3.060   0.600  10.115  0.6588  0.7429  0.9097
  611MPD2    H1 9110   3.411   0.494  10.338 -0.0950 -0.9578  0.3766
  611MPD2    H2 9111   3.151   0.199  10.212  0.1055  0.1272 -0.9374
  611MPD2    H3 9112   3.342   0.265  10.343  0.0129 -1.0138 -0.9981
  611MPD2     N 9113   3.299   0.698  10.218 -0.7387 -0.0116  0.4543
  611MPD2    H5 9114   3.389   0.713  10.261  0.2117 -0.6922 -1.3020
  611MPD2    N1 9115   2.961   0.359  10.112  0.1944  0.3711 -0.5675
  611MPD2    H7 9116   2.955   0.259  10.096  2.3443  0.0475  0.5941
  612TMC3    C1 9117   3.291   0.938  10.201  0.4625 -0.3352 -0.1132
  612TMC3    C2 9118   3.428   0.944  10.212 -0.3216  0.9992  0.2677
  612TMC3    C3 9119   3.488   1.067  10.213 -1.0233 -0.2829  0.2451
  612TMC3    C4 9120   3.216   1.054  10.193 -0.0143  0.0413 -0.1987
  612TMC3    C5 9121   3.287   1.171  10.195  0.3953  0.8745 -0.1772
  612TMC3    C6 9122   3.417   1.181  10.184  0.0892 -0.1438  0.6731
  612TMC3     C 9123   3.223   0.810  10.191 -0.0806  0.0201  0.8856
  612TMC3     O 9124   3.106   0.828  10.168 -0.3394 -0.5898 -0.1032
  612TMC3     H 9125   3.481   0.850  10.224 -1.9880  0.0246  0.0150
  612TMC3    H1 9126   3.108   1.050  10.190  0.0305 -1.0679 -0.2956
  612TMC3    H2 9127   3.454   1.282  10.194 -1.9102  0.6225  0.2114
  612TMC3    C7 9128   3.206   1.290  10.227  0.8006 -0.2983  0.1385
  612TMC3    C8 9129   3.628   1.070  10.197 -0.3428 -0.6048  0.3621
  612TMC3    O1 9130   3.090   1.278  10.197  0.0281  0.3192  0.1503
  612TMC3    O2 9131   3.678   1.175  10.162  0.5811 -0.3468  0.3691
  613MPD2     C 9132   2.430   2.638  16.861  0.0916 -0.3112 -0.2210
  613MPD2    C1 9133   2.378   2.681  16.736 -0.1961 -0.2158  0.1900
  613MPD2    C2 9134   2.323   2.597  16.644  0.4807 -0.3339 -0.4713
  613MPD2    C3 9135   2.316   2.463  16.668 -0.3236  1.0414  0.4324
  613MPD2    C4 9136   2.362   2.419  16.789 -0.2268  0.0383  0.6789
  613MPD2    C5 9137   2.422   2.502  16.883 -0.1454  0.5176  0.1492
  613MPD2     H 9138   2.283   2.631  16.549  0.7469 -2.4313 -1.3428
  613MPD2    H1 9139   2.370   2.312  16.801  1.4164 -0.0693 -1.3337
  613MPD2    H2 9140   2.485   2.708  16.923  0.3378 -1.4509  0.8618
  613MPD2    H3 9141   2.470   2.464  16.973 -1.5301 -1.2887  0.1186
  613MPD2     N 9142   2.291   2.359  16.580  0.1905 -0.3459 -0.0930
  613MPD2    H5 9143   2.314   2.263  16.604  0.5981 -0.4085 -0.7253
  613MPD2    N1 9144   2.386   2.818  16.710  0.1916  0.6829 -0.6381
  613MPD2    H7 9145   2.455   2.872  16.761  1.3203 -1.9052  0.6155
  614TMC3    C1 9146   2.388   3.001  16.561 -0.3074  0.3247 -0.0840
  614TMC3    C2 9147   2.521   2.970  16.523  0.0275 -0.4918 -0.7461
  614TMC3    C3 9148   2.550   2.964  16.387  0.5538 -0.4289  0.5667
  614TMC3    C4 9149   2.302   3.068  16.468 -0.4615  0.1035 -1.1199
  614TMC3    C5 9150   2.340   3.059  16.341  0.0523  0.7845  0.1995
  614TMC3    C6 9151   2.459   3.013  16.293  0.5894 -0.6651 -0.7375
  614TMC3     C 9152   2.323   2.879  16.608  0.6270  0.4825  0.1670
  614TMC3     O 9153   2.234   2.843  16.531 -0.2832  0.2359 -0.4899
  614TMC3     H 9154   2.591   2.915  16.585 -1.2284 -1.1461  0.1063
  614TMC3    H1 9155   2.206   3.112  16.492 -0.4706 -0.4311 -0.1464
  614TMC3    H2 9156   2.479   3.006  16.187 -0.1617 -1.7579 -0.8033
  614TMC3    C7 9157   2.254   3.137  16.258 -0.5330  0.6350  0.2576
  614TMC3    C8 9158   2.622   2.845  16.347  0.4645 -0.2995 -0.6234
  614TMC3    O1 9159   2.208   3.239  16.308  0.4466  0.7403  0.4505
  614TMC3    O2 9160   2.629   2.761  16.433 -0.4187  0.3536  0.1864
  615MPD2     C 9161   1.784   3.944  16.070 -0.5524  0.2316 -0.1766
  615MPD2    C1 9162   1.856   4.048  16.021  0.3649 -0.2958  0.5716
  615MPD2    C2 9163   1.843   4.075  15.889  0.9052 -0.2614  0.2116
  615MPD2    C3 9164   1.755   4.017  15.809 -0.3895 -0.3666  0.2375
  615MPD2    C4 9165   1.684   3.906  15.853 -0.2543  0.0532  0.2599
  615MPD2    C5 9166   1.698   3.880  15.987  0.5980  0.2617  0.1405
  615MPD2     H 9167   1.921   4.138  15.850 -0.6210 -0.1440 -2.6706
  615MPD2    H1 9168   1.605   3.852  15.801 -1.0763  1.6369 -0.1432
  615MPD2    H2 9169   1.772   3.919  16.175 -1.3957  0.5477 -0.1928
  615MPD2    H3 9170   1.638   3.805  16.037 -0.7158  1.4998  0.4414
  615MPD2     N 9171   1.725   4.060  15.679 -0.2236 -0.5035 -0.2402
  615MPD2    H5 9172   1.654   4.006  15.631  0.5176 -1.0352 -0.7368
  615MPD2    N1 9173   1.943   4.128  16.102  0.5000  0.3990  0.1601
  615MPD2    H7 9174   1.997   4.194  16.047 -1.6518  1.5098 -0.6499
  616TMC3    C1 9175   2.060   4.203  16.292  0.7212 -0.4152  0.5634
  616TMC3    C2 9176   2.087   4.315  16.223 -0.0508  0.2729  0.1889
  616TMC3    C3 9177   2.200   4.381  16.266  0.2236  0.2288  0.3837
  616TMC3    C4 9178   2.144   4.151  16.384 -0.4596  0.1476 -0.6393
  616TMC3    C5 9179   2.256   4.218  16.414  0.1111  1.7659 -0.1848
  616TMC3    C6 9180   2.289   4.341  16.364 -0.1937 -0.7188 -0.1834
  616TMC3     C 9181   1.975   4.101  16.230  0.0131  0.6649 -0.5876
  616TMC3     O 9182   1.940   4.013  16.307  0.2138  0.1484  0.0770
  616TMC3     H 9183   2.008   4.351  16.157  0.5537  1.1385 -0.0603
  616TMC3    H1 9184   2.133   4.051  16.424 -0.7017  0.2392 -0.4811
  616TMC3    H2 9185   2.382   4.392  16.387 -0.3446  0.3303 -1.8774
  616TMC3    C7 9186   2.326   4.166  16.531 -1.1341 -0.7391  0.1173
  616TMC3    C8 9187   2.240   4.495  16.183 -0.5558 -0.5215 -0.1224
  616TMC3    O1 9188   2.264   4.101  16.613  0.2600 -0.2996  0.1066
  616TMC3    O2 9189   2.154   4.540  16.109  0.3113 -0.1922 -0.6659
  617MPD2     C 9190   0.316   2.184  13.342 -0.3283  0.4865 -0.0162
  617MPD2    C1 9191   0.301   2.284  13.438  0.5059  0.1753  0.0414
  617MPD2    C2 9192   0.169   2.307  13.482  0.5951 -0.3891  0.2758
  617MPD2    C3 9193   0.058   2.236  13.425  0.1006 -0.2134 -0.2632
  617MPD2    C4 9194   0.081   2.143  13.326 -0.4407  0.1298 -0.0077
  617MPD2    C5 9195   0.209   2.113  13.283  0.2922  0.2883  0.1219
  617MPD2     H 9196   0.149   2.376  13.562  1.8632  1.7125 -1.2353
  617MPD2    H1 9197   0.005   2.076  13.287 -0.0039 -0.0223 -0.5928
  617MPD2    H2 9198   0.418   2.159  13.315 -1.4376 -5.3520  1.2144
  617MPD2    H3 9199   0.232   2.047  13.200  0.4977 -0.8382  1.0800
  617MPD2     N 9200   4.665   2.235  13.480 -0.0389 -0.6796 -0.1409
  617MPD2    H5 9201   4.595   2.178  13.434 -1.7333  1.4136 -0.1862
  617MPD2    N1 9202   0.414   2.336  13.503  0.2843 -0.3639  0.4942
  617MPD2    H7 9203   0.498   2.280  13.492 -0.1973 -1.3473  1.7427
  618TMC3    C1 9204   0.530   2.511  13.620 -0.0922  0.5441 -0.2189
  618TMC3    C2 9205   0.586   2.435  13.721 -0.3203 -0.8184 -0.0635
  618TMC3    C3 9206   0.686   2.494  13.792 -0.1255 -0.1383  1.2995
  618TMC3    C4 9207   0.562   2.647  13.601 -0.4211 -0.1343 -0.2277
  618TMC3    C5 9208   0.656   2.704  13.687 -0.2674  0.8765  0.8870
  618TMC3    C6 9209   0.716   2.627  13.788  0.1037  0.4303  0.3943
  618TMC3     C 9210   0.407   2.461  13.552  0.4677  0.0875 -0.1272
  618TMC3     O 9211   0.332   2.553  13.529 -0.0430 -1.3310  0.2757
  618TMC3     H 9212   0.557   2.330  13.722  1.1893 -1.2122  2.0610
  618TMC3    H1 9213   0.509   2.692  13.518 -0.1114  1.5552  0.5056
  618TMC3    H2 9214   0.798   2.665  13.848  0.1343 -0.1937  0.7480
  618TMC3    C7 9215   0.693   2.843  13.667  0.1029  0.7374 -0.2849
  618TMC3    C8 9216   0.753   2.409  13.888  0.0027 -0.5287 -0.3718
  618TMC3    O1 9217   0.604   2.921  13.634  1.0040  0.2287 -0.1746
  618TMC3    O2 9218   0.810   2.477  13.975 -0.2106 -0.4285 -0.2379
  619MPD2     C 9219   1.310   3.586  13.835  0.1551  0.0515  0.0798
  619MPD2    C1 9220   1.244   3.653  13.734 -0.0048  0.3717 -0.1203
  619MPD2    C2 9221   1.111   3.673  13.750  0.9056  0.1847 -0.8022
  619MPD2    C3 9222   1.042   3.639  13.865 -0.8732 -0.0807  0.2809
  619MPD2    C4 9223   1.111   3.573  13.968 -0.3480 -1.0061  0.1433
  619MPD2    C5 9224   1.248   3.554  13.946  0.2086 -0.2791  0.0741
  619MPD2     H 9225   1.052   3.715  13.670 -2.1290 -0.5115  1.0776
  619MPD2    H1 9226   1.062   3.530  14.054  0.0577 -0.0882  0.8448
  619MPD2    H2 9227   1.413   3.553  13.830 -0.1495 -1.2863  2.5095
  619MPD2    H3 9228   1.311   3.504  14.019 -0.0181  1.6442  1.5887
  619MPD2     N 9229   0.902   3.640  13.874 -0.1059 -0.0127 -0.4589
  619MPD2    H5 9230   0.866   3.610  13.964 -0.4815  1.1168 -0.2195
  619MPD2    N1 9231   1.303   3.686  13.606  0.1217  0.1828 -0.3945
  619MPD2    H7 9232   1.237   3.720  13.536 -0.6738  0.7018  0.6045
  620TMC3    C1 9233   1.470   3.730  13.445  0.1981 -0.3728  0.1144
  620TMC3    C2 9234   1.370   3.754  13.358 -0.4925  0.1693  0.2336
  620TMC3    C3 9235   1.408   3.793  13.235 -0.3893 -0.7641  0.2646
  620TMC3    C4 9236   1.599   3.761  13.418  0.1814 -0.8882 -0.6349
  620TMC3    C5 9237   1.628   3.813  13.288  0.4817 -0.5979 -1.0426
  620TMC3    C6 9238   1.530   3.821  13.196 -0.5865 -0.2917 -0.4541
  620TMC3     C 9239   1.440   3.699  13.585 -0.0495  0.6666  0.2749
  620TMC3     O 9240   1.530   3.686  13.669 -0.1640  0.1427  0.1246
  620TMC3     H 9241   1.264   3.761  13.380 -0.8624  0.5060 -1.6930
  620TMC3    H1 9242   1.673   3.756  13.498  0.6853  0.5661 -1.0171
  620TMC3    H2 9243   1.549   3.867  13.099  2.7867 -3.4682 -1.3017
  620TMC3    C7 9244   1.730   3.924  13.279  0.5328 -0.4914  0.5971
  620TMC3    C8 9245   1.309   3.886  13.180  0.6694 -0.0898 -0.1480
  620TMC3    O1 9246   1.849   3.899  13.257  0.0951 -0.7956 -0.9362
  620TMC3    O2 9247   1.356   4.004  13.170 -0.1974 -0.3100  0.1417
  621MPD2     C 9248   1.313   0.518   9.388  0.1662 -0.5733  0.1581
  621MPD2    C1 9249   1.333   0.497   9.523  0.1827 -0.5162  0.6488
  621MPD2    C2 9250   1.468   0.482   9.564  0.6595 -0.1099 -0.6763
  621MPD2    C3 9251   1.574   0.463   9.476  0.4627  0.2051  0.5892
  621MPD2    C4 9252   1.549   0.478   9.340  0.0252 -0.4741 -0.6786
  621MPD2    C5 9253   1.419   0.498   9.303 -0.2124 -0.1099 -0.6288
  621MPD2     H 9254   1.489   0.477   9.671  1.0118 -3.0565 -0.8671
  621MPD2    H1 9255   1.627   0.483   9.264  0.0974  0.9625 -0.5048
  621MPD2    H2 9256   1.217   0.544   9.345 -0.1711 -2.1134 -0.0261
  621MPD2    H3 9257   1.406   0.527   9.199 -0.0311  2.6780  0.1449
  621MPD2     N 9258   1.708   0.442   9.529 -0.5192  0.0623  0.5400
  621MPD2    H5 9259   1.705   0.439   9.631 -0.4261 -1.1996  0.5037
  621MPD2    N1 9260   1.230   0.486   9.619  0.1744  0.1421 -0.5599
  621MPD2    H7 9261   1.271   0.478   9.712 -1.0920 -1.7584 -0.1763
  622TMC3    C1 9262   1.012   0.489   9.704 -0.0704  0.4923 -0.5055
  622TMC3    C2 9263   0.883   0.529   9.691  0.5115  0.2958 -0.2071
  622TMC3    C3 9264   0.794   0.500   9.790 -0.0113 -0.5336 -0.1716
  622TMC3    C4 9265   1.046   0.410   9.812 -0.3806  0.0442  0.0991
  622TMC3    C5 9266   0.946   0.372   9.904  0.0194  0.5980 -0.7367
  622TMC3    C6 9267   0.821   0.418   9.894 -0.0386  0.2503 -0.1651
  622TMC3     C 9268   1.096   0.498   9.589 -0.1135 -0.6744  0.6356
  622TMC3     O 9269   1.037   0.542   9.489  0.2119 -0.2340 -0.0410
  622TMC3     H 9270   0.860   0.609   9.621  0.2157  1.5497  1.3121
  622TMC3    H1 9271   1.150   0.384   9.832 -0.4527 -0.3080  0.0225
  622TMC3    H2 9272   0.754   0.408   9.978  0.1380 -2.3766 -0.3438
  622TMC3    C7 9273   0.989   0.329  10.041 -0.9277 -0.0145 -1.1349
  622TMC3    C8 9274   0.653   0.508   9.747 -0.4074 -0.0059 -0.2867
  622TMC3    O1 9275   0.916   0.351  10.134  0.4226  0.5576 -0.5525
  622TMC3    O2 9276   0.638   0.586   9.652 -0.3212  0.0783 -0.2342
  623MPD2     C 9277   0.507   4.205  15.807  0.1964  0.1663 -0.1360
  623MPD2    C1 9278   0.437   4.203  15.926 -0.0535 -0.2944  0.3214
  623MPD2    C2 9279   0.494   4.235  16.045 -0.4049 -0.4166  0.2521
  623MPD2    C3 9280   0.627   4.277  16.056  0.2316 -0.4526 -0.9063
  623MPD2    C4 9281   0.693   4.294  15.936  0.6828  0.3914  0.0043
  623MPD2    C5 9282   0.632   4.265  15.811 -0.1062  0.4044 -0.4078
  623MPD2     H 9283   0.425   4.229  16.129  2.0052 -1.9760  2.1458
  623MPD2    H1 9284   0.787   4.348  15.930  1.3092 -1.1281 -3.7188
  623MPD2    H2 9285   0.469   4.177  15.709  1.2094 -1.2020 -0.1394
  623MPD2    H3 9286   0.690   4.285  15.721  1.7915 -0.1202  0.6870
  623MPD2     N 9287   0.665   4.323  16.182  0.0984 -0.2668  0.2499
  623MPD2    H5 9288   0.596   4.314  16.256  1.2517 -0.0909  1.3553
  623MPD2    N1 9289   0.301   4.186  15.940 -0.2821 -0.1542  0.4733
  623MPD2    H7 9290   0.264   4.193  16.034 -1.1040  0.8041  0.0774
  624TMC3    C1 9291   0.936   4.248  16.525 -0.1686  0.0414  0.2365
  624TMC3    C2 9292   0.832   4.257  16.613 -0.0017 -0.2477 -0.0220
  624TMC3    C3 9293   0.709   4.315  16.567 -0.3360 -0.2766 -0.3780
  624TMC3    C4 9294   0.934   4.312  16.396 -0.4518 -0.2863  0.3574
  624TMC3    C5 9295   0.814   4.368  16.362 -0.2223 -0.3909 -0.6367
  624TMC3    C6 9296   0.701   4.369  16.441 -0.6819  0.3042 -0.1106
  624TMC3     C 9297   1.057   4.175  16.568 -0.0774 -0.5245  0.8065
  624TMC3     O 9298   1.074   4.161  16.686  0.3987 -0.3943 -0.5142
  624TMC3     H 9299   0.839   4.206  16.708  0.3924  0.1574  0.1647
  624TMC3    H1 9300   1.020   4.328  16.333  0.2030  0.8836  1.5395
  624TMC3    H2 9301   0.617   4.420  16.396  0.2864  1.3049 -0.7599
  624TMC3    C7 9302   0.793   4.370  16.222 -0.0866 -0.5188  0.5062
  624TMC3    C8 9303   0.589   4.279  16.636  0.0109  0.4427  0.1865
  624TMC3    O1 9304   0.887   4.407  16.149  0.1615 -0.1161 -0.6944
  624TMC3    O2 9305   0.487   4.298  16.574 -0.0048  0.0064  0.3819
  625MPD2     C 9306   0.751   0.625   0.559  0.1765 -0.1909 -0.5599
  625MPD2    C1 9307   0.819   0.749   0.577  0.0681  0.2084 -0.0807
  625MPD2    C2 9308   0.924   0.746   0.660  0.0207 -0.2225  0.5897
  625MPD2    C3 9309   0.973   0.633   0.723  0.3973 -0.7322 -0.0215
  625MPD2    C4 9310   0.901   0.514   0.709  0.1636 -0.1570  0.5510
  625MPD2    C5 9311   0.793   0.510   0.620 -0.1034  0.0671 -0.1235
  625MPD2     H 9312   0.978   0.839   0.676 -0.1917  0.2899 -1.6649
  625MPD2    H1 9313   0.945   0.426   0.754  0.6068  0.1989  0.8171
  625MPD2    H2 9314   0.670   0.614   0.487 -0.8285 -2.8651  1.0175
  625MPD2    H3 9315   0.730   0.423   0.606  0.1244  0.1598 -1.6921
  625MPD2     N 9316   1.095   0.645   0.783  0.2737  0.0456  0.3267
  625MPD2    H5 9317   1.137   0.736   0.797 -1.2366  0.4757  2.1103
  625MPD2    N1 9318   0.769   0.877   0.531  0.5386  0.3778  0.3794
  625MPD2    H7 9319   0.813   0.962   0.562  0.0174  1.3539 -1.5116
  626TMC3    C1 9320   0.587   1.026   0.471 -0.3709  0.4768  0.3664
  626TMC3    C2 9321   0.504   1.057   0.372 -0.1041  0.6480 -0.2627
  626TMC3    C3 9322   0.446   1.178   0.358  0.1128  0.2236 -0.4656
  626TMC3    C4 9323   0.621   1.118   0.565 -0.4599  0.0610 -0.3429
  626TMC3    C5 9324   0.559   1.244   0.558 -0.0342  0.1878  0.0584
  626TMC3    C6 9325   0.462   1.268   0.458 -0.0008  0.1709 -0.2960
  626TMC3     C 9326   0.652   0.895   0.458 -0.7558  0.2688  0.0657
  626TMC3     O 9327   0.588   0.807   0.403 -0.0669  0.2784  0.4310
  626TMC3     H 9328   0.485   0.984   0.294 -3.0132  1.0523  0.0597
  626TMC3    H1 9329   0.701   1.107   0.638  0.2571 -0.5534 -1.2291
  626TMC3    H2 9330   0.405   1.360   0.467 -0.0770  0.2094 -1.1296
  626TMC3    C7 9331   0.572   1.328   0.677 -0.2368 -0.2002 -0.3536
  626TMC3    C8 9332   0.392   1.216   0.236 -0.7852 -0.3648 -0.2312
  626TMC3    O1 9333   0.664   1.295   0.749  0.0691  0.5668  0.4279
  626TMC3    O2 9334   0.444   1.173   0.135  0.1021 -0.5813 -0.0964
  627MPD2     C 9335   4.620   1.453  13.972  0.6572 -0.0943  0.4654
  627MPD2    C1 9336   4.601   1.432  14.108 -0.4658  1.0993  0.7632
  627MPD2    C2 9337   4.543   1.311  14.144  0.7427  0.6007 -0.2662
  627MPD2    C3 9338   4.492   1.222  14.057 -0.7251 -0.4555  0.1043
  627MPD2    C4 9339   4.507   1.250  13.923  0.5454 -0.3683  0.4316
  627MPD2    C5 9340   4.573   1.365  13.878 -0.2124 -0.1333  0.6111
  627MPD2     H 9341   4.522   1.295  14.249  1.0365 -3.3158 -0.7960
  627MPD2    H1 9342   4.462   1.191  13.843  1.1926  1.4559 -1.2764
  627MPD2    H2 9343   4.678   1.537  13.934 -1.3008 -0.2108 -2.7610
  627MPD2    H3 9344   4.590   1.378  13.772  0.8069 -0.8140  0.6870
  627MPD2     N 9345   4.424   1.110  14.108 -0.0107 -0.2823  1.0599
  627MPD2    H5 9346   4.406   1.087  14.205 -1.1961 -0.7737  0.7284
  627MPD2    N1 9347   4.652   1.514  14.210 -0.0482  0.5848  0.4393
  627MPD2    H7 9348   4.680   1.610  14.193 -1.6025  1.2553  1.7317
  628TMC3    C1 9349   4.712   1.567  14.433 -0.7016  0.3265  0.3404
  628TMC3    C2 9350   0.011   1.531  14.564 -0.1689  0.1081  0.2169
  628TMC3    C3 9351   4.734   1.623  14.667  0.1357 -0.0466 -0.5154
  628TMC3    C4 9352   4.676   1.696  14.409 -0.0304  0.0894 -0.9404
  628TMC3    C5 9353   4.675   1.780  14.518  0.0027 -0.4127  0.0831
  628TMC3    C6 9354   4.707   1.749  14.644  0.0263 -0.2513  0.1080
  628TMC3     C 9355   4.694   1.461  14.339 -0.7955  0.0101 -0.5632
  628TMC3     O 9356   4.715   1.343  14.370  0.2944  0.2230 -0.4876
  628TMC3     H 9357   0.026   1.425  14.576 -1.6120 -0.0714  0.4651
  628TMC3    H1 9358   4.644   1.733  14.312  0.9577  1.2757 -0.8074
  628TMC3    H2 9359   4.704   1.818  14.728  1.1010 -1.2909  0.9950
  628TMC3    C7 9360   4.641   1.919  14.514 -0.4649  0.0168  0.2620
  628TMC3    C8 9361   0.033   1.592  14.802 -0.0612 -0.0349 -0.1677
  628TMC3    O1 9362   4.670   1.996  14.604 -0.3073 -0.1277 -0.4259
  628TMC3    O2 9363   0.059   1.672  14.890  0.6298  0.4329  0.1830
  629MPD2     C 9364   2.590   0.098  16.025  0.0306  0.1977 -0.4567
  629MPD2    C1 9365   2.653   0.020  16.116  0.9146 -0.4056 -0.0454
  629MPD2    C2 9366   2.575   4.654  16.169 -0.2508 -0.5830 -0.2464
  629MPD2    C3 9367   2.447   4.625  16.132  0.4281 -0.0501  0.2493
  629MPD2    C4 9368   2.386   4.716  16.047  0.4797  0.0744  0.6395
  629MPD2    C5 9369   2.460   0.084  15.999  0.1798  0.5267 -1.0652
  629MPD2     H 9370   2.611   4.585  16.244 -0.9289 -1.4985 -0.7574
  629MPD2    H1 9371   2.284   4.703  16.011  0.9607  2.3071 -1.4729
  629MPD2    H2 9372   2.650   0.172  15.972 -0.3635  0.8092 -0.0577
  629MPD2    H3 9373   2.412   0.152  15.929 -0.4930  1.6623  0.4928
  629MPD2     N 9374   2.374   4.517  16.187  0.1767  0.3278 -0.1726
  629MPD2    H5 9375   2.428   4.459  16.250 -1.8415 -0.2008  1.0720
  629MPD2    N1 9376   2.788   0.048  16.151 -0.1599 -0.2443 -0.0656
  629MPD2    H7 9377   2.836   0.130  16.117 -1.2075  1.4181  2.5237
  630TMC3    C1 9378   2.983   0.002  16.269 -0.0017  0.5568  0.5261
  630TMC3    C2 9379   3.054   0.079  16.180  0.1148  0.1826  0.4790
  630TMC3    C3 9380   3.179   0.107  16.215 -0.1618  0.2578  0.3739
  630TMC3    C4 9381   3.030   4.699  16.393  1.0159 -0.0336 -0.4689
  630TMC3    C5 9382   3.166   4.707  16.410  0.3271 -0.5341 -0.3422
  630TMC3    C6 9383   3.243   0.054  16.322 -0.0759  0.6236 -0.4884
  630TMC3     C 9384   2.852   4.705  16.248  0.1040  0.0268  0.5923
  630TMC3     O 9385   2.798   4.627  16.330  0.1638  0.8652 -0.2765
  630TMC3     H 9386   3.007   0.117  16.089 -0.9716  0.7873  1.2910
  630TMC3    H1 9387   2.976   4.634  16.459  0.6252  0.4251 -0.3407
  630TMC3    H2 9388   3.351   0.061  16.328 -0.1847  1.8434  0.0866
  630TMC3    C7 9389   3.214   4.678  16.543  0.2694  0.2670 -0.1644
  630TMC3    C8 9390   3.242   0.227  16.161  0.0115  0.2990  0.0477
  630TMC3    O1 9391   3.147   4.613  16.617 -0.2101 -0.7615  0.4551
  630TMC3    O2 9392   3.340   0.262  16.225  0.6984  0.2260 -0.1849
  631MPD2     C 9393   0.967   3.945  15.277 -0.2527 -0.2633 -0.4806
  631MPD2    C1 9394   0.991   4.063  15.216  0.8067 -0.5512  0.3987
  631MPD2    C2 9395   1.126   4.101  15.208 -0.1044  0.2731 -0.3440
  631MPD2    C3 9396   1.234   4.021  15.249  0.1957  0.2145  0.7029
  631MPD2    C4 9397   1.201   3.896  15.291 -0.2783 -0.0721  0.1124
  631MPD2    C5 9398   1.067   3.863  15.306 -0.9250 -0.2265 -0.0271
  631MPD2     H 9399   1.158   4.196  15.167  0.6283  0.4969  0.7436
  631MPD2    H1 9400   1.276   3.823  15.319 -0.1478 -0.0759 -0.2501
  631MPD2    H2 9401   0.865   3.912  15.290 -0.6003  1.5162  1.2868
  631MPD2    H3 9402   1.055   3.767  15.354 -1.9069  0.2474  0.7055
  631MPD2     N 9403   1.357   4.082  15.257  0.1802 -0.3122  0.4313
  631MPD2    H5 9404   1.355   4.181  15.232  0.1657 -0.0271  1.5753
  631MPD2    N1 9405   0.882   4.142  15.179 -0.3946  0.0231  0.3069
  631MPD2    H7 9406   0.786   4.124  15.206 -0.4580 -0.3332 -0.1423
  632TMC3    C1 9407   0.786   4.349  15.119 -0.3741  0.3173 -1.0320
  632TMC3    C2 9408   0.754   4.362  15.251 -0.1990  0.0823  0.2592
  632TMC3    C3 9409   0.769   4.487  15.297 -0.6552 -0.7108 -0.0349
  632TMC3    C4 9410   0.817   4.455  15.035 -0.1294 -0.4970  0.3476
  632TMC3    C5 9411   0.828   4.578  15.088 -0.7126  0.4883  0.6213
  632TMC3    C6 9412   0.815   4.593  15.226  0.7336  0.3924 -0.3872
  632TMC3     C 9413   0.901   4.263  15.113 -0.1226  0.6884 -0.7356
  632TMC3     O 9414   0.990   4.300  15.035 -0.1661 -0.0834 -0.2759
  632TMC3     H 9415   0.723   4.280  15.314  0.8159  0.0527  0.7283
  632TMC3    H1 9416   0.839   4.437  14.931 -0.6129  0.2671  0.1095
  632TMC3    H2 9417   0.812   4.691  15.274  2.2619  0.2680 -0.0573
  632TMC3    C7 9418   0.869   4.686  14.999 -0.2169 -0.2270 -0.5100
  632TMC3    C8 9419   0.755   4.504  15.441 -0.7990  0.3849 -0.3500
  632TMC3    O1 9420   0.852   4.662  14.882  0.1133 -0.1674 -0.6086
  632TMC3    O2 9421   0.674   4.438  15.503 -0.2877  0.4457 -0.4243
  633MPD2     C 9422   0.275   1.938  17.166 -0.1599 -0.7903  0.2071
  633MPD2    C1 9423   0.395   1.917  17.088 -0.3598 -0.3798 -0.1111
  633MPD2    C2 9424   0.492   1.836  17.138 -0.0485  0.4250  0.1503
  633MPD2    C3 9425   0.486   1.787  17.266  0.6411  0.7993  0.7222
  633MPD2    C4 9426   0.386   1.820  17.348  0.3781 -0.7747 -0.6500
  633MPD2    C5 9427   0.273   1.878  17.293 -0.5641  0.4690  0.3404
  633MPD2     H 9428   0.579   1.830  17.074  0.1934 -2.3119  0.7433
  633MPD2    H1 9429   0.392   1.788  17.451 -0.0539  1.5998  0.1186
  633MPD2    H2 9430   0.201   2.013  17.140 -0.7222 -0.6893  2.0302
  633MPD2    H3 9431   0.184   1.889  17.353 -0.4707  0.6262  0.4505
  633MPD2     N 9432   0.596   1.728  17.330 -0.3349  0.0711  0.2399
  633MPD2    H5 9433   0.589   1.719  17.430  0.4374  1.2056  0.3946
  633MPD2    N1 9434   0.418   1.981  16.964 -0.3725  0.1492  0.2685
  633MPD2    H7 9435   0.491   1.954  16.900  0.0289 -1.6053  1.4571
  634TMC3    C1 9436   0.472   2.162  16.828 -0.6873  0.0056 -0.4948
  634TMC3    C2 9437   0.576   2.087  16.771  0.2364  0.3319  0.4653
  634TMC3    C3 9438   0.682   2.154  16.708  0.1060  0.2049  0.9215
  634TMC3    C4 9439   0.474   2.296  16.814  0.4994  0.1275  0.0768
  634TMC3    C5 9440   0.579   2.356  16.748 -0.6340  0.2211  0.3586
  634TMC3    C6 9441   0.685   2.288  16.701  0.5580 -0.3451 -0.0355
  634TMC3     C 9442   0.382   2.108  16.930 -0.0162 -0.4966  0.5408
  634TMC3     O 9443   0.300   2.181  16.986  0.5362 -0.6487  0.1750
  634TMC3     H 9444   0.579   1.979  16.770 -0.2237  0.3461 -1.4278
  634TMC3    H1 9445   0.387   2.347  16.852 -0.8197 -0.9593 -1.4760
  634TMC3    H2 9446   0.771   2.350  16.680 -0.5477  1.5411  1.0370
  634TMC3    C7 9447   0.565   2.489  16.703 -0.4024 -0.8310  0.0317
  634TMC3    C8 9448   0.777   2.099  16.612  0.6042 -0.2069  0.1210
  634TMC3    O1 9449   0.644   2.516  16.614 -0.3259 -0.1858 -0.4194
  634TMC3    O2 9450   0.857   2.179  16.563  0.5434  0.0491 -0.2153
  635TMC3    C1 9451   0.683   3.452  17.422 -0.2750 -0.0074  0.8540
  635TMC3    C2 9452   0.756   3.395  17.317 -0.1914  0.1202  0.3765
  635TMC3    C3 9453   0.788   3.265  17.325  1.1197  0.2654  0.0015
  635TMC3    C4 9454   0.642   3.380  17.531  0.0583  0.0479 -0.4570
  635TMC3    C5 9455   0.664   3.246  17.524 -0.2431 -0.1213  0.2436
  635TMC3    C6 9456   0.734   3.187  17.428  0.2406 -0.1271  0.0095
  635TMC3     C 9457   0.713   3.600  17.440 -0.5207  0.2757  0.2049
  635TMC3     O 9458   0.798   3.646  17.370  0.3180  0.7416 -0.3694
  635TMC3     H 9459   0.792   3.463  17.240 -0.7952  1.2062  1.0441
  635TMC3    H1 9460   0.579   3.425  17.607 -0.1084  0.4929 -0.8624
  635TMC3    H2 9461   0.749   3.080  17.435 -0.6701 -0.0743  2.6065
  635TMC3    C7 9462   0.595   3.157  17.617  0.9496  0.5741 -0.0189
  635TMC3    C8 9463   0.894   3.206  17.241 -0.6575 -0.3337 -0.3669
  635TMC3    O1 9464   0.558   3.054  17.564  0.3273  0.0114 -0.2139
  635TMC3    O2 9465   0.947   3.281  17.160  0.5104  0.1787 -0.2440
  636MPD2     C 9466   2.037   2.756  15.813  0.3955  0.2013 -0.4607
  636MPD2    C1 9467   1.993   2.755  15.942 -0.2596 -0.3084  0.4062
  636MPD2    C2 9468   2.036   2.653  16.029  0.0878  1.2314  0.4168
  636MPD2    C3 9469   2.115   2.556  15.970  0.1221 -0.2329 -0.1044
  636MPD2    C4 9470   2.156   2.559  15.838  0.3727  0.2899  0.3381
  636MPD2    C5 9471   2.117   2.663  15.756 -0.4564 -0.1864 -0.4320
  636MPD2     H 9472   2.019   2.654  16.137 -2.4375 -0.6730  0.0555
  636MPD2    H1 9473   2.220   2.479  15.804 -0.3316 -0.7863  1.5645
  636MPD2    H2 9474   2.017   2.840  15.749  0.6850  0.8589  0.3115
  636MPD2    H3 9475   2.155   2.668  15.654  1.7868  1.0224  0.4517
  636MPD2     N 9476   2.167   2.449  16.049 -0.3161  0.0485 -0.7054
  636MPD2    H5 9477   2.132   2.465  16.143 -1.1817  0.1824 -1.0452
  636MPD2    N1 9478   1.913   2.854  16.002  0.3149 -0.0350  0.0721
  636MPD2    H7 9479   1.906   2.843  16.103 -0.7826  1.6184  0.1750
  637TMC3    C1 9480   2.268   2.257  16.129  1.0830 -0.3901 -0.0896
  637TMC3    C2 9481   2.204   2.282  16.247  0.4365  0.1657  0.7957
  637TMC3    C3 9482   2.274   2.276  16.362  0.0389 -0.0836  0.2056
  637TMC3    C4 9483   2.396   2.209  16.121  0.1184  0.2182  0.6093
  637TMC3    C5 9484   2.470   2.214  16.238 -0.0988  0.0660 -0.2869
  637TMC3    C6 9485   2.408   2.237  16.361  0.6792 -0.4402 -0.8204
  637TMC3     C 9486   2.233   2.335  16.014  0.5322 -0.1205 -0.4467
  637TMC3     O 9487   2.293   2.312  15.907 -0.1578 -0.4414 -0.1427
  637TMC3     H 9488   2.098   2.303  16.254 -0.0832 -1.5306 -2.0149
  637TMC3    H1 9489   2.423   2.185  16.019  0.4627  0.7585  0.5705
  637TMC3    H2 9490   2.472   2.245  16.448 -1.3224 -0.3840  0.6627
  637TMC3    C7 9491   2.565   2.321  16.228  0.1286 -0.3096 -0.0382
  637TMC3    C8 9492   2.246   2.386  16.453 -0.6837  0.3006 -0.7504
  637TMC3    O1 9493   2.607   2.365  16.334 -0.3513  0.0569  0.4139
  637TMC3    O2 9494   2.177   2.481  16.420  0.0102  0.5520 -0.0828
  638MPD2     C 9495   1.554   1.845  15.137 -0.2010  0.2646 -0.1398
  638MPD2    C1 9496   1.533   1.752  15.035 -0.1970  0.9491 -0.4981
  638MPD2    C2 9497   1.509   1.624  15.073 -0.5445  0.2425 -0.0069
  638MPD2    C3 9498   1.517   1.576  15.204  0.1591 -0.6467 -0.9085
  638MPD2    C4 9499   1.555   1.666  15.302 -0.4189 -0.0773  0.2977
  638MPD2    C5 9500   1.563   1.799  15.271  0.4388  0.4445  0.4500
  638MPD2     H 9501   1.486   1.550  14.997 -1.6134 -0.5070  1.0452
  638MPD2    H1 9502   1.549   1.631  15.404  0.4832 -2.1491 -0.3678
  638MPD2    H2 9503   1.576   1.948  15.111 -0.1332  0.3411  0.2302
  638MPD2    H3 9504   1.583   1.867  15.353 -1.3374  0.8703  0.5257
  638MPD2     N 9505   1.487   1.445  15.237 -0.4588  0.5144 -0.4777
  638MPD2    H5 9506   1.530   1.401  15.317  1.8968 -0.7323 -2.4244
  638MPD2    N1 9507   1.559   1.789  14.902 -0.0322  0.0178 -0.0401
  638MPD2    H7 9508   1.594   1.882  14.881  1.1460 -0.2715  0.6117
  639TMC3    C1 9509   1.465   1.230  15.137 -0.4168 -0.5892  0.4904
  639TMC3    C2 9510   1.413   1.171  15.029  0.9963 -0.2988  0.2373
  639TMC3    C3 9511   1.498   1.097  14.958 -0.0184 -0.4886  0.1720
  639TMC3    C4 9512   1.596   1.210  15.173  0.1504 -0.2293 -0.1300
  639TMC3    C5 9513   1.682   1.129  15.099 -0.5345  0.2413  0.4530
  639TMC3    C6 9514   1.631   1.068  14.988  0.6874  0.0362  0.0650
  639TMC3     C 9515   1.417   1.363  15.153  0.3062 -0.2355  0.0603
  639TMC3     O 9516   1.332   1.395  15.072  0.4672  0.2529 -0.0244
  639TMC3     H 9517   1.316   1.193  14.987  1.6114 -0.4310 -1.2837
  639TMC3    H1 9518   1.637   1.249  15.265  0.1887 -0.1845 -0.1659
  639TMC3    H2 9519   1.686   1.003  14.921 -1.3445 -0.3136 -1.2845
  639TMC3    C7 9520   1.798   1.067  15.157  0.1672 -0.5035  0.3758
  639TMC3    C8 9521   1.449   1.037  14.836  0.0021 -0.0380 -0.2322
  639TMC3    O1 9522   1.803   1.042  15.274  0.3176 -0.7987 -0.1190
  639TMC3    O2 9523   1.530   1.021  14.743 -0.3223 -0.0076 -0.3442
  640MPD2     C 9524   2.266   1.001   9.827 -0.1493 -0.0256 -0.1397
  640MPD2    C1 9525   2.139   0.970   9.797  0.2122  0.1070 -0.4058
  640MPD2    C2 9526   2.042   0.989   9.895  1.0552 -0.0590  0.5081
  640MPD2    C3 9527   2.074   1.038  10.019 -0.7209  0.2806 -0.6986
  640MPD2    C4 9528   2.209   1.063  10.049  0.0824  0.1827  0.1718
  640MPD2    C5 9529   2.296   1.054   9.950  0.0131 -0.0626 -0.2426
  640MPD2     H 9530   1.941   0.963   9.866  0.3044  2.4355  0.8909
  640MPD2    H1 9531   2.252   1.098  10.143  2.3661 -0.4432 -0.6599
  640MPD2    H2 9532   2.346   0.977   9.758  0.6550  3.8945 -0.5689
  640MPD2    H3 9533   2.394   1.086   9.984 -0.4329 -1.1682  2.1461
  640MPD2     N 9534   1.977   1.066  10.118  0.1504  0.4118  0.5771
  640MPD2    H5 9535   2.017   1.101  10.205  1.0546  2.1210 -0.4995
  640MPD2    N1 9536   2.112   0.917   9.665 -0.1029 -0.0202 -0.9302
  640MPD2    H7 9537   2.176   0.946   9.592 -0.3862  0.8968 -0.8139
  641TMC3    C1 9538   1.995   0.859   9.480 -0.2002 -0.0875  0.7771
  641TMC3    C2 9539   2.093   0.766   9.445  0.9546 -0.4243  0.3899
  641TMC3    C3 9540   2.065   0.689   9.333 -0.1013 -0.1225 -0.2780
  641TMC3    C4 9541   1.885   0.882   9.401  0.3525 -0.1140  0.2673
  641TMC3    C5 9542   1.864   0.799   9.287 -0.3298  0.8705 -0.4041
  641TMC3    C6 9543   1.960   0.716   9.250 -0.5907  0.3549 -0.3072
  641TMC3     C 9544   1.988   0.881   9.618  0.0674  0.2337 -0.2854
  641TMC3     O 9545   1.879   0.875   9.670 -0.3147  0.1026 -0.1014
  641TMC3     H 9546   2.169   0.734   9.515  0.3105 -0.6696  0.9878
  641TMC3    H1 9547   1.815   0.957   9.435  0.4304 -0.2572  0.7351
  641TMC3    H2 9548   1.945   0.661   9.158 -0.1838 -1.1203  0.5041
  641TMC3    C7 9549   1.735   0.796   9.222  0.4001 -1.5218  0.1911
  641TMC3    C8 9550   2.146   0.583   9.291 -0.5679 -0.6452  0.1734
  641TMC3    O1 9551   1.744   0.753   9.109  0.1850 -0.4129 -0.1913
  641TMC3    O2 9552   2.108   0.507   9.203  0.9523  0.2484  0.3201
  642TMC3    C1 9553   3.240   1.045  12.702 -0.3457 -0.2013  0.6953
  642TMC3    C2 9554   3.281   0.967  12.807  0.4501  1.1024  0.6048
  642TMC3    C3 9555   3.350   0.854  12.771  0.2859  0.0548  0.5772
  642TMC3    C4 9556   3.253   1.018  12.570 -0.0760 -0.3919  0.2746
  642TMC3    C5 9557   3.323   0.907  12.544 -0.7568 -0.0889  1.0875
  642TMC3    C6 9558   3.369   0.818  12.637  0.2780  0.2468  0.7556
  642TMC3     C 9559   3.162   1.169  12.734  0.2786  0.4064 -0.0074
  642TMC3     O 9560   3.109   1.227  12.647 -0.1614 -0.1341  0.5021
  642TMC3     H 9561   3.267   0.994  12.911  0.5353 -1.1874  1.2166
  642TMC3    H1 9562   3.209   1.090  12.502  1.0194 -1.0101 -1.0695
  642TMC3    H2 9563   3.426   0.728  12.618 -1.4394 -0.4263 -1.1095
  642TMC3    C7 9564   3.313   0.860  12.415 -0.5020  0.1231  0.0204
  642TMC3    C8 9565   3.405   0.766  12.872  0.2002 -0.1193  0.7763
  642TMC3    O1 9566   3.310   0.947  12.330  0.1403 -0.8553  0.1782
  642TMC3    O2 9567   3.459   0.666  12.828  0.0341 -0.0247 -0.2835
  643TMC3    C1 9568   2.460   0.822   0.183  0.1185  0.3203  0.4168
  643TMC3    C2 9569   2.406   0.950   0.187  0.2389  1.0098 -0.3530
  643TMC3    C3 9570   2.374   1.001   0.062  0.4117  0.0355 -0.0127
  643TMC3    C4 9571   2.459   0.744   0.069  0.2330  0.0876  0.5646
  643TMC3    C5 9572   2.420   0.800  17.697  0.3135  0.2109  0.2320
  643TMC3    C6 9573   2.384   0.931  17.688  0.3779  0.1364 -0.6555
  643TMC3     C 9574   2.536   0.793   0.304 -0.1693 -0.8287  0.0324
  643TMC3     O 9575   2.505   0.852   0.403 -0.1347 -0.5158  0.3588
  643TMC3     H 9576   2.433   1.016   0.269  1.4773 -1.2658  1.0727
  643TMC3    H1 9577   2.494   0.643   0.086  1.3855  0.9079  3.0972
  643TMC3    H2 9578   2.344   0.967  17.594 -0.2607  1.5476  0.1653
  643TMC3    C7 9579   2.449   0.736  17.573 -0.6439 -0.1662 -0.0720
  643TMC3    C8 9580   2.340   1.142   0.059 -0.0999 -0.1115 -0.6037
  643TMC3    O1 9581   2.476   0.816  17.485 -0.1975  0.0028 -0.6457
  643TMC3    O2 9582   2.316   1.202   0.160  0.2711 -0.4045 -0.3502
  644MPD2     C 9583   1.942   0.651   8.632  1.0043  0.3041 -0.3445
  644MPD2    C1 9584   1.974   0.676   8.762  0.3152 -0.9084  0.5344
  644MPD2    C2 9585   1.900   0.769   8.835 -0.7163  0.8106  0.0243
  644MPD2    C3 9586   1.784   0.821   8.782  0.5749 -0.0976  0.3105
  644MPD2    C4 9587   1.754   0.794   8.643 -0.4995  0.1079  0.0848
  644MPD2    C5 9588   1.837   0.713   8.569 -0.3616  1.2912 -0.0112
  644MPD2     H 9589   1.918   0.782   8.941  0.6793 -0.1390 -0.0988
  644MPD2    H1 9590   1.663   0.831   8.597 -0.7763 -2.1074 -1.1478
  644MPD2    H2 9591   1.993   0.576   8.573  0.0915  0.0718 -0.8386
  644MPD2    H3 9592   1.821   0.674   8.469  0.4819  0.8996  0.0104
  644MPD2     N 9593   1.692   0.895   8.860 -0.4083 -0.1451 -0.0605
  644MPD2    H5 9594   1.728   0.891   8.955  1.3376 -1.4965 -0.7738
  644MPD2    N1 9595   2.087   0.616   8.811 -0.0602  0.2322 -0.2266
  644MPD2    H7 9596   2.123   0.535   8.762  0.3665  0.4655 -0.3019
  645TMC3    C1 9597   1.571   1.076   8.927  0.0187  0.1466  0.3015
  645TMC3    C2 9598   1.654   1.089   9.041  0.2843 -0.1066 -0.2464
  645TMC3    C3 9599   1.616   1.181   9.139 -0.1682  0.2833 -0.4585
  645TMC3    C4 9600   1.456   1.158   8.910  0.6875  0.7380 -0.3104
  645TMC3    C5 9601   1.429   1.249   9.010  0.0622 -0.3267  0.6070
  645TMC3    C6 9602   1.506   1.263   9.123  0.3290  0.4746  0.2481
  645TMC3     C 9603   1.609   0.995   8.819 -0.2922 -0.0997  0.5318
  645TMC3     O 9604   1.588   1.043   8.707 -0.2863  0.9604 -0.6794
  645TMC3     H 9605   1.753   1.047   9.050 -0.4093 -1.5628  0.5375
  645TMC3    H1 9606   1.382   1.148   8.831  0.9343 -0.5005 -0.3825
  645TMC3    H2 9607   1.481   1.339   9.196 -2.0587  0.2844 -0.3778
  645TMC3    C7 9608   1.304   1.326   8.996 -0.3062  0.5648  0.3502
  645TMC3    C8 9609   1.704   1.203   9.255  0.4178 -0.5732  0.5205
  645TMC3    O1 9610   1.259   1.335   8.884 -0.3483 -0.1127  0.0810
  645TMC3    O2 9611   1.818   1.158   9.246  0.3491  0.4738  0.4688
  646MPD2     C 9612   2.080   0.563  14.247 -0.6902  0.1686 -0.4383
  646MPD2    C1 9613   1.991   0.492  14.321  0.4504  0.1697 -1.4007
  646MPD2    C2 9614   1.856   0.518  14.306  1.0586 -0.0200  0.6328
  646MPD2    C3 9615   1.803   0.610  14.214  0.4626 -0.2122 -0.3347
  646MPD2    C4 9616   1.895   0.683  14.145 -0.1499  0.0236  0.2081
  646MPD2    C5 9617   2.036   0.652  14.154 -0.1894  0.0758 -0.5235
  646MPD2     H 9618   1.787   0.454  14.359 -0.2666  0.2023 -0.8295
  646MPD2    H1 9619   1.877   0.759  14.069  2.5870  0.8029  0.3335
  646MPD2    H2 9620   2.187   0.555  14.254 -0.8534 -2.2722 -0.9496
  646MPD2    H3 9621   2.105   0.719  14.103 -1.5575  2.0883  0.2519
  646MPD2     N 9622   1.662   0.612  14.184  0.9027  0.0649  0.1365
  646MPD2    H5 9623   1.603   0.542  14.228  0.3813 -0.4358 -1.3651
  646MPD2    N1 9624   2.045   0.397  14.411  0.2105 -0.2575 -0.3547
  646MPD2    H7 9625   2.146   0.399  14.415  0.0988 -1.2618  2.4318
  647TMC3    C1 9626   2.058   0.229  14.566  0.5970  0.3759 -0.7608
  647TMC3    C2 9627   1.998   0.114  14.597 -0.3250  0.2042  0.3794
  647TMC3    C3 9628   2.080   0.016  14.649  0.6530 -0.7818  0.6750
  647TMC3    C4 9629   2.188   0.252  14.576  0.1668 -0.1895  0.4250
  647TMC3    C5 9630   2.267   0.155  14.634  0.0062  0.4266  0.9172
  647TMC3    C6 9631   2.214   0.034  14.663 -0.4253  0.0720 -0.5590
  647TMC3     C 9632   1.978   0.328  14.510 -0.8753 -0.1632  0.4133
  647TMC3     O 9633   1.862   0.330  14.545 -0.3619 -0.4536  0.1886
  647TMC3     H 9634   1.891   0.102  14.603 -0.1096 -2.5569 -1.1388
  647TMC3    H1 9635   2.231   0.351  14.571  3.0730 -1.4953 -0.5359
  647TMC3    H2 9636   2.279   4.695  14.706 -1.1893 -0.5554 -0.5088
  647TMC3    C7 9637   2.404   0.172  14.681 -0.0507  0.2113 -0.2658
  647TMC3    C8 9638   2.028   4.651  14.735  0.0804  0.3544  0.1881
  647TMC3    O1 9639   2.461   0.087  14.748  0.5562 -0.2002  0.2508
  647TMC3    O2 9640   2.108   4.609  14.818  0.6552 -0.1069 -0.3996
  648TMC3    C1 9641   1.288   2.299  16.242  0.4840 -0.0204 -0.7507
  648TMC3    C2 9642   1.386   2.208  16.209  0.2666  0.3831 -0.2483
  648TMC3    C3 9643   1.422   2.205  16.077 -0.2335 -0.4032 -0.1250
  648TMC3    C4 9644   1.221   2.366  16.150 -0.1199 -0.6605 -0.1850
  648TMC3    C5 9645   1.255   2.354  16.014  0.7029  0.1982 -0.0074
  648TMC3    C6 9646   1.357   2.272  15.977  0.0488  0.0739  0.0503
  648TMC3     C 9647   1.235   2.284  16.363 -0.4068 -0.2155 -0.1357
  648TMC3     O 9648   1.224   2.172  16.400 -0.3590  0.2491 -0.6292
  648TMC3     H 9649   1.448   2.164  16.286  1.2994 -0.8794 -1.7836
  648TMC3    H1 9650   1.156   2.440  16.194  0.2953 -1.2370  1.3996
  648TMC3    H2 9651   1.383   2.280  15.872  2.4435 -0.8345  0.5844
  648TMC3    C7 9652   1.193   2.446  15.923  0.4438  0.5773 -0.2717
  648TMC3    C8 9653   1.555   2.147  16.049 -0.4228  0.7029  0.5635
  648TMC3    O1 9654   1.227   2.438  15.809  0.0190 -0.0312 -0.0709
  648TMC3    O2 9655   1.615   2.095  16.145 -0.0373  0.3673 -0.9044
  649TMC3    C1 9656   4.222   3.999  12.714  0.5037  0.0519 -0.1440
  649TMC3    C2 9657   4.292   3.955  12.597  0.9809  0.1546  0.9124
  649TMC3    C3 9658   4.355   3.828  12.609  0.3641  0.8094  0.0124
  649TMC3    C4 9659   4.235   3.934  12.835  0.0296 -0.1002 -0.3147
  649TMC3    C5 9660   4.305   3.820  12.838  0.6455  0.4170 -0.3955
  649TMC3    C6 9661   4.359   3.760  12.725  1.3017 -0.3328 -0.2228
  649TMC3     C 9662   4.160   4.133  12.714  0.6074 -0.0994  0.2606
  649TMC3     O 9663   4.138   4.193  12.818  0.0418  0.3158 -0.0174
  649TMC3     H 9664   4.285   4.009  12.504  0.3137 -2.6198 -0.6668
  649TMC3    H1 9665   4.181   3.966  12.924  0.0031  0.6935 -0.6184
  649TMC3    H2 9666   4.413   3.667  12.732  1.4216 -0.2363  0.1625
  649TMC3    C7 9667   4.289   3.737  12.954  0.2044  0.2328 -0.3036
  649TMC3    C8 9668   4.419   3.773  12.487 -0.2188  0.5793 -0.6361
  649TMC3    O1 9669   4.303   3.780  13.068  0.2005  0.3816  0.0407
  649TMC3    O2 9670   4.513   3.696  12.496 -0.3484  0.4046  0.0497
  650TMC3    C1 9671   2.455   0.580  12.542 -0.8716  0.7685  0.2562
  650TMC3    C2 9672   2.353   0.670  12.553  0.5740  0.0384 -0.2396
  650TMC3    C3 9673   2.323   0.757  12.450  0.4890  0.7846 -0.7763
  650TMC3    C4 9674   2.549   0.597  12.452  0.3963  0.1900 -0.3224
  650TMC3    C5 9675   2.533   0.692  12.356  0.7543  0.0868  0.4254
  650TMC3    C6 9676   2.419   0.770  12.353 -0.2273  1.0247  0.0328
  650TMC3     C 9677   2.497   0.518  12.658  0.1826  0.3803  0.3748
  650TMC3     O 9678   2.448   0.568  12.760  0.1269  0.5471 -0.6949
  650TMC3     H 9679   2.287   0.662  12.639  1.3040  0.7977  0.3847
  650TMC3    H1 9680   2.653   0.570  12.470 -0.0170 -1.8986 -1.1130
  650TMC3    H2 9681   2.408   0.848  12.279 -0.7326  1.5980  0.7120
  650TMC3    C7 9682   2.648   0.752  12.287 -0.2603 -0.2906 -0.3614
  650TMC3    C8 9683   2.238   0.871  12.484 -0.3056  0.0689  0.8384
  650TMC3    O1 9684   2.740   0.682  12.245  0.5343  0.0249 -0.0343
  650TMC3    O2 9685   2.225   0.886  12.601  0.0381 -0.1896  0.1029
  651MPD2     C 9686   1.825   3.032  11.341  0.8442 -0.0602  0.2163
  651MPD2    C1 9687   1.734   3.077  11.243 -0.2383 -0.1308  0.0001
  651MPD2    C2 9688   1.791   3.147  11.143  0.0975 -0.3513  0.7362
  651MPD2    C3 9689   1.926   3.174  11.126 -0.1405 -0.1495 -0.0366
  651MPD2    C4 9690   2.005   3.140  11.232  0.1868  0.8241 -0.1165
  651MPD2    C5 9691   1.952   3.072  11.339  1.0077  0.6170  0.6505
  651MPD2     H 9692   1.727   3.169  11.058 -0.7644 -1.2824  1.1565
  651MPD2    H1 9693   2.112   3.149  11.249  0.3577 -1.8284  0.3381
  651MPD2    H2 9694   1.795   2.992  11.437  2.6522 -0.5596  0.5708
  651MPD2    H3 9695   2.026   3.042  11.413 -1.5483 -0.0031  2.9391
  651MPD2     N 9696   1.973   3.238  11.011 -0.3189  0.4043  0.4605
  651MPD2    H5 9697   1.904   3.260  10.940  1.7635  0.1590 -1.6417
  651MPD2    N1 9698   1.596   3.053  11.257  0.5632  0.1968 -0.2598
  651MPD2    H7 9699   1.537   3.082  11.180 -1.1925 -0.1554  0.9338
  652TMC3    C1 9700   2.262   3.381  10.674  0.2611 -0.4822 -0.1654
  652TMC3    C2 9701   2.226   3.300  10.778  0.0150 -0.3190  0.3001
  652TMC3    C3 9702   2.117   3.337  10.859  0.0627  0.3017  0.0569
  652TMC3    C4 9703   2.182   3.487  10.635 -1.0659 -0.4388 -0.4907
  652TMC3    C5 9704   2.090   3.531  10.729  0.2574 -0.0676  0.3982
  652TMC3    C6 9705   2.055   3.460  10.847 -0.2686 -0.3739 -0.0745
  652TMC3     C 9706   2.377   3.326  10.595  0.0555 -0.1417 -0.3918
  652TMC3     O 9707   2.451   3.255  10.664  0.3500 -0.0972  0.2804
  652TMC3     H 9708   2.269   3.201  10.792  1.0832 -0.2261 -2.2926
  652TMC3    H1 9709   2.203   3.530  10.538 -0.5746 -1.2738 -0.7617
  652TMC3    H2 9710   1.967   3.483  10.906 -0.8858  2.2426 -2.0138
  652TMC3    C7 9711   2.022   3.657  10.699  0.5295 -0.3783 -0.0059
  652TMC3    C8 9712   2.103   3.269  10.986  0.0805  0.5004 -0.3028
  652TMC3    O1 9713   1.913   3.664  10.753  1.4468  0.3821 -0.4051
  652TMC3    O2 9714   2.197   3.241  11.058  0.1395 -0.1485 -0.1239
  653MPD2     C 9715   0.016   2.581  17.639  0.1141  0.3318 -0.7231
  653MPD2    C1 9716   4.720   2.676  17.551 -0.0888 -0.2817 -0.0671
  653MPD2    C2 9717   4.652   2.643  17.434 -0.5944  0.2305 -0.3117
  653MPD2    C3 9718   4.609   2.509  17.408  0.4083  0.7579  0.5907
  653MPD2    C4 9719   4.658   2.419  17.501  0.2177 -0.5264 -0.3062
  653MPD2    C5 9720   0.002   2.448  17.605 -0.4071  0.0450 -0.2721
  653MPD2     H 9721   4.641   2.721  17.360 -1.9842 -0.2490 -0.6018
  653MPD2    H1 9722   4.625   2.315  17.496 -3.3261  0.6850 -1.9863
  653MPD2    H2 9723   0.070   2.591  17.733 -1.3542 -0.9298  0.2704
  653MPD2    H3 9724   0.031   2.363  17.666 -3.6468 -2.6884 -2.5313
  653MPD2     N 9725   4.547   2.472  17.284 -0.1164  0.1342 -0.4028
  653MPD2    H5 9726   4.537   2.547  17.217 -1.0251 -1.4840 -2.0885
  653MPD2    N1 9727   0.014   2.814  17.570  0.0635 -0.3354 -0.1010
  653MPD2    H7 9728   4.708   2.886  17.512 -0.8800  0.1113  1.1561
  654TMC3    C1 9729   4.497   2.347  17.098 -0.3718  0.1500  0.1006
  654TMC3    C2 9730   4.435   2.455  17.044 -0.1533  1.1815  0.3387
  654TMC3    C3 9731   4.407   2.446  16.911  0.2218  0.0006 -0.3116
  654TMC3    C4 9732   4.516   2.231  17.029  0.4591  0.3041  0.1773
  654TMC3    C5 9733   4.494   2.232  16.894 -0.7469  0.5801 -0.2459
  654TMC3    C6 9734   4.439   2.343  16.832  0.4965 -0.0248  0.0017
  654TMC3     C 9735   4.529   2.343  17.236  0.4683  0.0997  0.8166
  654TMC3     O 9736   4.561   2.237  17.291  1.1463  0.5103 -0.1578
  654TMC3     H 9737   4.394   2.538  17.100 -2.0794  1.3907 -1.3846
  654TMC3    H1 9738   4.544   2.143  17.087  2.8230  0.8057 -0.1876
  654TMC3    H2 9739   4.449   2.346  16.724 -1.5346  2.8960 -0.0898
  654TMC3    C7 9740   4.549   2.126  16.804 -0.4348  0.3567 -0.0228
  654TMC3    C8 9741   4.306   2.532  16.855  0.2595 -0.3556  0.2568
  654TMC3    O1 9742   4.522   2.123  16.682 -0.6612  0.4484  0.1810
  654TMC3    O2 9743   4.276   2.635  16.920 -0.0750 -0.1620 -0.6370
  655MPD2     C 9744   1.827   2.397  15.817  0.0467 -0.9483 -0.3177
  655MPD2    C1 9745   1.768   2.511  15.764 -0.5543 -0.2745  0.4399
  655MPD2    C2 9746   1.796   2.544  15.633 -0.9098 -0.0687 -0.2285
  655MPD2    C3 9747   1.894   2.486  15.553  0.6750 -0.4265  0.4614
  655MPD2    C4 9748   1.958   2.383  15.611  0.2069 -0.0032  0.8116
  655MPD2    C5 9749   1.921   2.338  15.737  0.2117  0.8295 -0.2288
  655MPD2     H 9750   1.737   2.630  15.602 -0.0632  0.0648 -1.4693
  655MPD2    H1 9751   2.043   2.337  15.561  0.2794 -2.4470  3.1938
  655MPD2    H2 9752   1.810   2.358  15.916 -1.0028  1.1304  0.3398
  655MPD2    H3 9753   1.978   2.251  15.767 -2.7747 -0.9136  0.4208
  655MPD2     N 9754   1.917   2.533  15.415  0.0392  0.2883 -0.0294
  655MPD2    H5 9755   1.959   2.458  15.362 -2.4347 -0.9262 -0.2911
  655MPD2    N1 9756   1.689   2.599  15.839  0.1201  0.2020  0.4801
  655MPD2    H7 9757   1.667   2.684  15.789  1.0991  0.2660  0.1557
  656TMC3    C1 9758   1.548   2.687  15.997  0.5977 -0.0509 -0.4386
  656TMC3    C2 9759   1.463   2.663  16.109 -0.5075  0.0948  0.5498
  656TMC3    C3 9760   1.376   2.772  16.139  0.2907 -0.0382 -0.1280
  656TMC3    C4 9761   1.552   2.812  15.929  0.2302  0.2575 -0.2238
  656TMC3    C5 9762   1.458   2.900  15.964  0.7807  0.1292 -1.0648
  656TMC3    C6 9763   1.365   2.885  16.065  0.4307 -0.1756 -0.1829
  656TMC3     C 9764   1.638   2.579  15.963 -0.2059 -0.0012  0.3524
  656TMC3     O 9765   1.634   2.477  16.030 -0.1687  0.0345  0.2280
  656TMC3     H 9766   1.467   2.572  16.166  1.8608 -1.0311 -1.3944
  656TMC3    H1 9767   1.625   2.846  15.857  0.3294  1.4344  0.4383
  656TMC3    H2 9768   1.282   2.953  16.083 -1.7969 -3.3471  1.4885
  656TMC3    C7 9769   1.439   3.005  15.867  0.0866 -0.4257  0.6290
  656TMC3    C8 9770   1.275   2.739  16.237  0.2099 -0.3085 -0.4818
  656TMC3    O1 9771   1.535   3.032  15.795  0.6456  0.6240  0.4143
  656TMC3    O2 9772   1.273   2.619  16.269 -0.1393  0.1965  0.0614
  657TMC3    C1 9773   0.596   2.217  15.128  0.1775 -0.3785  0.3531
  657TMC3    C2 9774   0.624   2.233  15.262  0.1415 -0.0935 -0.1416
  657TMC3    C3 9775   0.652   2.357  15.308 -0.3028  0.7324 -0.8342
  657TMC3    C4 9776   0.593   2.325  15.040 -0.1095 -0.1776 -0.0385
  657TMC3    C5 9777   0.618   2.448  15.094  0.3314  0.3109 -0.6783
  657TMC3    C6 9778   0.642   2.463  15.227 -0.0596  0.5318 -0.0034
  657TMC3     C 9779   0.553   2.090  15.081  0.0390  0.2386  0.1327
  657TMC3     O 9780   0.495   2.104  14.977 -0.0293  0.4967 -0.3266
  657TMC3     H 9781   0.624   2.149  15.329  1.3203 -0.8862 -1.1310
  657TMC3    H1 9782   0.570   2.313  14.935  1.4979  2.2187 -0.6644
  657TMC3    H2 9783   0.678   2.561  15.258 -1.1377  1.3878 -1.4118
  657TMC3    C7 9784   0.607   2.579  15.020 -0.2954  0.3181 -0.2381
  657TMC3    C8 9785   0.693   2.378  15.445  0.0510  0.0413 -0.4662
  657TMC3    O1 9786   0.675   2.677  15.052  0.1958  0.5496  0.2810
  657TMC3    O2 9787   0.681   2.494  15.487  0.1087 -0.2871  0.6870
  658MPD2     C 9788   2.364   2.731  14.965  0.0329  0.2412 -0.0875
  658MPD2    C1 9789   2.258   2.691  14.883  0.4845 -0.2005  0.1720
  658MPD2    C2 9790   2.280   2.672  14.747  0.0569  1.0061  0.5779
  658MPD2    C3 9791   2.393   2.719  14.680  0.2769 -0.5484 -0.5684
  658MPD2    C4 9792   2.490   2.777  14.758  0.4029  0.1773 -0.1278
  658MPD2    C5 9793   2.485   2.770  14.898 -0.5084 -0.6814  0.5606
  658MPD2     H 9794   2.202   2.623  14.689  1.1632  0.6538 -0.6028
  658MPD2    H1 9795   2.581   2.825  14.723  0.6261 -0.0373  0.1614
  658MPD2    H2 9796   2.353   2.721  15.072  1.6109  1.1405  0.1582
  658MPD2    H3 9797   2.571   2.813  14.948 -0.5884 -0.9809  0.9499
  658MPD2     N 9798   2.398   2.699  14.540  0.4936  0.0867 -0.0994
  658MPD2    H5 9799   2.322   2.642  14.504  0.1449 -0.9755  2.3184
  658MPD2    N1 9800   2.142   2.657  14.952 -0.4012 -0.5921 -0.6726
  658MPD2    H7 9801   2.146   2.686  15.049  2.4696  0.3672 -1.0696
  659TMC3    C1 9802   1.922   2.576  14.999  0.2754 -0.6435 -0.1530
  659TMC3    C2 9803   1.946   2.600  15.128 -0.2296  0.0531 -0.2796
  659TMC3    C3 9804   1.837   2.623  15.209 -0.2855  0.3931 -0.3483
  659TMC3    C4 9805   1.797   2.563  14.944  0.3075 -0.8720  0.7217
  659TMC3    C5 9806   1.695   2.585  15.029 -0.3453  0.0171  0.1530
  659TMC3    C6 9807   1.709   2.624  15.165  0.1620 -0.8405  0.0249
  659TMC3     C 9808   2.026   2.596  14.899  0.3974 -0.7471  0.2989
  659TMC3     O 9809   1.996   2.571  14.779 -1.4482  0.6057  0.2781
  659TMC3     H 9810   2.045   2.593  15.172 -0.0722 -1.4892 -0.9126
  659TMC3    H1 9811   1.777   2.568  14.838  3.3780 -0.0671  0.1676
  659TMC3    H2 9812   1.633   2.644  15.239 -0.1966  1.3294 -0.9345
  659TMC3    C7 9813   1.557   2.568  14.983  0.3126  0.0574 -1.1715
  659TMC3    C8 9814   1.853   2.640  15.360  0.9147  0.4597 -0.0206
  659TMC3    O1 9815   1.476   2.596  15.072 -0.4293 -0.6320  0.5065
  659TMC3    O2 9816   1.800   2.731  15.418  0.0698 -0.1938 -0.4671
  660MPD2     C 9817   0.060   1.130  12.568 -0.1978 -0.4584 -0.5211
  660MPD2    C1 9818   4.681   1.192  12.590  0.0355 -0.4685 -0.1966
  660MPD2    C2 9819   4.577   1.131  12.655  0.8709  0.3040 -0.1548
  660MPD2    C3 9820   4.596   1.001  12.709  0.1065 -0.4530  0.6932
  660MPD2    C4 9821   4.719   0.944  12.692 -0.1222 -0.4011 -0.6056
  660MPD2    C5 9822   0.078   1.008  12.618 -0.6472 -0.2222 -0.0761
  660MPD2     H 9823   4.479   1.178  12.648  0.0990 -1.4393 -0.9031
  660MPD2    H1 9824   4.734   0.847  12.737 -0.6916  0.4170  1.3612
  660MPD2    H2 9825   0.139   1.174  12.508 -1.3553  2.3658  0.0260
  660MPD2    H3 9826   0.162   0.945  12.592 -0.6432  0.3852 -1.5886
  660MPD2     N 9827   4.497   0.928  12.777 -0.0599  0.0986 -0.6614
  660MPD2    H5 9828   4.531   0.844  12.823  0.0119  0.5879  0.1941
  660MPD2    N1 9829   4.675   1.324  12.544 -0.3893  0.2217  0.1307
  660MPD2    H7 9830   4.736   1.351  12.467  0.6259 -0.4459  0.7011
  661TMC3    C1 9831   4.571   1.544  12.518  0.0911  0.2469  0.0119
  661TMC3    C2 9832   4.653   1.575  12.404 -0.2917  0.1906  0.1693
  661TMC3    C3 9833   4.618   1.675  12.312 -0.2019 -0.3711 -0.7657
  661TMC3    C4 9834   4.450   1.610  12.532  0.0276  0.1300  0.6798
  661TMC3    C5 9835   4.420   1.707  12.440  0.7510 -0.0069  0.7651
  661TMC3    C6 9836   4.495   1.738  12.325 -0.3405  0.1761 -0.0134
  661TMC3     C 9837   4.585   1.417  12.593 -0.4555  0.1852  0.0430
  661TMC3     O 9838   4.509   1.397  12.684  0.0299  0.2835 -0.1659
  661TMC3     H 9839   0.012   1.524  12.399 -0.0328  0.8299 -1.2914
  661TMC3    H1 9840   4.384   1.578  12.612 -0.5983 -3.3882 -1.2322
  661TMC3    H2 9841   4.461   1.817  12.259  0.2222 -0.6607 -1.3151
  661TMC3    C7 9842   4.277   1.750  12.446  0.0258 -0.2952  0.5636
  661TMC3    C8 9843   4.705   1.705  12.195 -0.5450 -0.2204 -0.2220
  661TMC3    O1 9844   4.218   1.743  12.557 -0.3838 -0.2846 -0.3286
  661TMC3    O2 9845   0.072   1.645  12.200  0.3197  0.2382  0.1017
  662MPD2     C 9846   4.462   1.402   0.107 -0.4316 -0.7895 -0.0649
  662MPD2    C1 9847   4.389   1.426  17.743  0.1556 -0.8307 -0.1429
  662MPD2    C2 9848   4.257   1.463   0.020 -0.0859  0.3740 -0.1281
  662MPD2    C3 9849   4.198   1.455   0.145  0.3261  0.2573 -0.1905
  662MPD2    C4 9850   4.279   1.433   0.253  0.2929  0.3137  0.0870
  662MPD2    C5 9851   4.414   1.416   0.229 -0.8215  0.1149 -0.8569
  662MPD2     H 9852   4.198   1.487  17.677  2.1477  0.5968 -1.5377
  662MPD2    H1 9853   4.249   1.424   0.357  0.8545  0.0495  0.2310
  662MPD2    H2 9854   4.567   1.379   0.096 -0.1025  0.1285  1.1823
  662MPD2    H3 9855   4.481   1.406   0.313  0.4363 -1.8384 -2.1022
  662MPD2     N 9856   4.062   1.488   0.164  0.3818  0.2673  0.6636
  662MPD2    H5 9857   4.025   1.491   0.258  0.0395  0.7181  0.5119
  662MPD2    N1 9858   4.428   1.417  17.609  0.5365  0.5083 -0.6186
  662MPD2    H7 9859   4.350   1.448  17.552 -0.3852 -0.6177  0.0372
  663TMC3    C1 9860   4.553   1.315  17.418 -0.1589  0.3884  0.5987
  663TMC3    C2 9861   4.435   1.306  17.348 -0.4526 -0.3910  0.5837
  663TMC3    C3 9862   4.438   1.260  17.221  0.4745 -0.5084  0.0167
  663TMC3    C4 9863   4.667   1.253  17.372  0.4248 -0.3342 -0.2268
  663TMC3    C5 9864   4.659   1.191  17.249 -0.2133 -0.3296  0.1545
  663TMC3    C6 9865   4.536   1.174  17.180 -0.1768  1.0103  0.5099
  663TMC3     C 9866   4.549   1.360  17.554 -0.4406 -0.5912  0.4058
  663TMC3     O 9867   4.653   1.345  17.620 -0.1299  0.7399 -0.1558
  663TMC3     H 9868   4.350   1.372  17.365 -0.1756 -0.3450  1.7746
  663TMC3    H1 9869   0.020   1.246  17.432  1.6302  0.0731 -1.9916
  663TMC3    H2 9870   4.523   1.133  17.081  0.2804 -3.1436  2.1884
  663TMC3    C7 9871   0.028   1.101  17.211  0.5119  0.5423 -0.3829
  663TMC3    C8 9872   4.313   1.204  17.176  0.6631  0.2573  0.7420
  663TMC3    O1 9873   0.146   1.138  17.198  0.6609 -0.1665 -0.2668
  663TMC3    O2 9874   4.307   1.186  17.055  0.7220 -0.2852  0.0009
  664MPD2     C 9875   2.679   4.255  17.248 -0.5192  0.4747  0.9777
  664MPD2    C1 9876   2.767   4.345  17.302  0.4134 -0.8309 -0.5385
  664MPD2    C2 9877   2.743   4.368  17.440  0.6545  0.3017  0.1078
  664MPD2    C3 9878   2.636   4.312  17.511  0.0473 -0.3374 -0.3215
  664MPD2    C4 9879   2.564   4.213  17.451  0.3718  0.2245 -0.7542
  664MPD2    C5 9880   2.586   4.182  17.319 -0.2536  0.3637  0.1889
  664MPD2     H 9881   2.805   4.440  17.492  2.1214 -0.9748  0.1269
  664MPD2    H1 9882   2.480   4.171  17.504  0.3235 -0.2525 -1.2131
  664MPD2    H2 9883   2.683   4.218  17.146 -2.8004  0.3920  0.9144
  664MPD2    H3 9884   2.521   4.120  17.258  0.3974  0.0454 -0.1851
  664MPD2     N 9885   2.630   4.345  17.646  0.3858 -0.0417  0.0435
  664MPD2    H5 9886   2.695   4.417  17.677  1.0568 -1.1697  1.2381
  664MPD2    N1 9887   2.866   4.413  17.228  0.6564  0.6524  0.4637
  664MPD2    H7 9888   2.929   4.477  17.276  3.5875 -0.4617 -1.9189
  665TMC3    C1 9889   2.576   4.356   0.133 -0.3333 -0.1439 -0.2958
  665TMC3    C2 9890   2.503   4.313   0.244  0.6009  0.3146  0.7133
  665TMC3    C3 9891   2.515   4.374   0.363 -0.3321 -0.3750  0.4101
  665TMC3    C4 9892   2.660   4.463   0.140 -0.3882  0.5581  0.1918
  665TMC3    C5 9893   2.669   4.518   0.260  0.4983  0.1553  0.4962
  665TMC3    C6 9894   2.603   4.482   0.376  0.4518 -0.0764  0.5133
  665TMC3     C 9895   2.558   4.290   0.004  1.1998  0.4059 -1.0364
  665TMC3     O 9896   2.477   4.200  17.743 -0.3722 -0.2701 -0.2897
  665TMC3     H 9897   2.430   4.235   0.229  2.1040 -1.0764  0.6573
  665TMC3    H1 9898   2.726   4.502   0.064 -2.4384 -1.0806 -2.3876
  665TMC3    H2 9899   2.608   4.542   0.466 -1.3963  2.5008 -1.1182
  665TMC3    C7 9900   2.793   4.589   0.286  0.2334 -0.8509 -1.0973
  665TMC3    C8 9901   2.423   4.347   0.479  0.2190  0.1862  0.2366
  665TMC3    O1 9902   2.840   4.663   0.203 -0.2211 -0.2672 -0.7658
  665TMC3    O2 9903   2.462   4.403   0.579 -0.3926  0.4372  0.1326
  666TMC3    C1 9904   1.942   0.422   9.529 -0.1190 -0.0318 -0.2839
  666TMC3    C2 9905   2.038   0.324   9.507 -0.5439 -0.7458 -0.3150
  666TMC3    C3 9906   2.154   0.331   9.589 -0.1617 -0.1827 -0.0745
  666TMC3    C4 9907   1.959   0.523   9.619 -0.3686 -0.5563  0.9935
  666TMC3    C5 9908   2.079   0.529   9.689  0.0856 -0.1544 -0.7920
  666TMC3    C6 9909   2.178   0.438   9.674 -0.2583 -0.2074  0.1230
  666TMC3     C 9910   1.819   0.417   9.451 -0.2064  0.2618 -0.6232
  666TMC3     O 9911   1.829   0.390   9.333  0.1261  0.4340 -0.0168
  666TMC3     H 9912   2.013   0.236   9.449 -1.8884 -1.0280  0.7028
  666TMC3    H1 9913   1.882   0.597   9.639  1.3898  1.3689  0.6061
  666TMC3    H2 9914   2.258   0.414   9.743 -0.4296 -1.4794 -0.1123
  666TMC3    C7 9915   2.067   0.600   9.816 -0.1710  0.1575  0.0133
  666TMC3    C8 9916   2.226   0.204   9.620 -0.2681  0.0162  0.4317
  666TMC3    O1 9917   1.958   0.621   9.863  0.0618 -0.2912 -1.0221
  666TMC3    O2 9918   2.158   0.102   9.606  0.7379 -0.0293  0.3308
  667MPD2     C 9919   3.593   4.189  14.621 -0.6851 -0.1493  0.1034
  667MPD2    C1 9920   3.576   4.211  14.751 -0.2508  0.3940 -0.5599
  667MPD2    C2 9921   3.503   4.122  14.824 -0.5240  0.1573  0.4630
  667MPD2    C3 9922   3.432   4.015  14.774  0.0860 -0.2715 -0.4098
  667MPD2    C4 9923   3.456   3.986  14.640  0.2542 -0.0356 -0.2193
  667MPD2    C5 9924   3.537   4.071  14.570  0.2898  0.1609 -0.5760
  667MPD2     H 9925   3.482   4.157  14.925 -2.9653  1.2832 -0.4455
  667MPD2    H1 9926   3.412   3.903  14.587 -0.5848 -0.5551  1.3010
  667MPD2    H2 9927   3.644   4.256  14.552  1.7476  0.6793  2.7123
  667MPD2    H3 9928   3.558   4.047  14.466 -0.9331 -0.4525 -0.6858
  667MPD2     N 9929   3.364   3.910  14.846  0.3692  0.8281  0.0618
  667MPD2    H5 9930   3.324   3.839  14.785 -2.9779  1.9487  0.9438
  667MPD2    N1 9931   3.633   4.325  14.814  0.4509  0.3577  0.5753
  667MPD2    H7 9932   3.618   4.331  14.914 -1.6767 -0.3799  0.2977
  668TMC3    C1 9933   3.738   4.533  14.851  0.2367  1.7756  0.0099
  668TMC3    C2 9934   3.823   4.629  14.814  0.3158  0.1352  0.0898
  668TMC3    C3 9935   3.836   4.733  14.899 -0.0752 -0.2777  0.6190
  668TMC3    C4 9936   3.664   4.542  14.965  0.0302 -0.6508  0.9601
  668TMC3    C5 9937   3.681   4.653  15.046  0.0828  0.6320 -0.1584
  668TMC3    C6 9938   3.770   0.010  15.015 -0.1800 -0.3923 -0.1090
  668TMC3     C 9939   3.712   4.423  14.754  0.1944 -0.7447  0.6801
  668TMC3     O 9940   3.751   4.426  14.640 -0.2900  0.9827  0.3119
  668TMC3     H 9941   3.884   4.629  14.725  1.8506  3.5893  1.1425
  668TMC3    H1 9942   3.601   4.460  14.998 -0.7745  0.4738  2.2393
  668TMC3    H2 9943   3.771   0.103  15.070 -2.6140 -1.3628  1.5879
  668TMC3    C7 9944   3.626   4.657  15.177 -0.2162  0.1209 -0.4529
  668TMC3    C8 9945   3.935   0.103  14.883  0.5041  0.5162 -1.0292
  668TMC3    O1 9946   3.692   4.699  15.274  0.0915 -0.4844  0.1512
  668TMC3    O2 9947   3.979   0.169  14.977  0.2656 -0.1560  0.6777
  669TMC3    C1 9948   1.713   4.294  14.474 -0.0713  0.3775  0.2697
  669TMC3    C2 9949   1.628   4.297  14.362 -0.1602 -0.0904  0.8203
  669TMC3    C3 9950   1.673   4.371  14.255  1.0026 -0.4247  0.1781
  669TMC3    C4 9951   1.829   4.364  14.482  1.0295  0.0250  0.3393
  669TMC3    C5 9952   1.862   4.431  14.376 -0.1642 -0.7494  0.0230
  669TMC3    C6 9953   1.794   4.436  14.256  0.0825  0.0753  0.3598
  669TMC3     C 9954   1.693   4.196  14.582 -0.4678 -0.1391 -0.2399
  669TMC3     O 9955   1.795   4.147  14.626 -0.1405 -0.3698 -0.6527
  669TMC3     H 9956   1.540   4.237  14.342 -0.2397 -0.1883  1.4642
  669TMC3    H1 9957   1.887   4.359  14.573  0.7685  0.4644  0.5291
  669TMC3    H2 9958   1.830   4.493  14.171 -1.5720 -1.2037 -1.1920
  669TMC3    C7 9959   1.997   4.497  14.372  0.0120  0.4573 -0.4774
  669TMC3    C8 9960   1.594   4.358  14.135  0.3736  0.6667  0.2163
  669TMC3    O1 9961   2.022   4.581  14.285  0.1336 -0.5068  0.0732
  669TMC3    O2 9962   1.472   4.363  14.148 -0.4738  0.0373  0.2466
  670MPD2     C 9963   0.586   1.847  13.273  0.0286 -0.1472 -0.6109
  670MPD2    C1 9964   0.599   1.916  13.389  0.2210  0.2141 -0.0041
  670MPD2    C2 9965   0.487   1.945  13.474 -0.8382 -0.4441 -0.1406
  670MPD2    C3 9966   0.361   1.886  13.455  0.1539  0.1110  0.6169
  670MPD2    C4 9967   0.357   1.805  13.339  0.5533 -0.3356  0.0502
  670MPD2    C5 9968   0.462   1.793  13.249  0.4329 -0.0819  0.5829
  670MPD2     H 9969   0.507   2.001  13.565 -0.0582 -1.1287  0.1094
  670MPD2    H1 9970   0.264   1.755  13.317  0.6152  0.0241 -1.0150
  670MPD2    H2 9971   0.657   1.839  13.191  0.5269 -1.9505  0.0027
  670MPD2    H3 9972   0.445   1.739  13.156 -0.9353  0.9388  0.2423
  670MPD2     N 9973   0.256   1.914  13.547  0.0341  0.4219 -0.1799
  670MPD2    H5 9974   0.277   1.990  13.611 -0.7624  2.7342 -2.6996
  670MPD2    N1 9975   0.728   1.978  13.416 -0.3929  0.2522  0.1688
  670MPD2    H7 9976   0.813   1.951  13.368  0.1302  1.3969  0.4603
  671TMC3    C1 9977   0.054   1.886  13.650  0.2492  0.7051 -0.4437
  671TMC3    C2 9978   0.118   1.871  13.772  0.0292 -0.4964  0.1279
  671TMC3    C3 9979   0.044   1.886  13.892 -1.6494 -0.5765  0.1559
  671TMC3    C4 9980   4.653   1.896  13.634 -0.4121 -0.0605  0.1907
  671TMC3    C5 9981   4.579   1.888  13.751  0.2187  0.0009  0.5877
  671TMC3    C6 9982   4.642   1.883  13.877 -0.8324 -0.0348  0.2624
  671TMC3     C 9983   0.132   1.869  13.530  0.0327  0.2547 -0.7174
  671TMC3     O 9984   0.083   1.820  13.428 -0.3723 -0.2486 -0.5330
  671TMC3     H 9985   0.226   1.877  13.782 -0.0261 -0.3477  0.6508
  671TMC3    H1 9986   4.619   1.882  13.532 -1.2503  1.3103  0.2805
  671TMC3    H2 9987   4.589   1.881  13.971  0.4813 -0.2661  0.9951
  671TMC3    C7 9988   4.470   1.796  13.737 -0.4248  0.3062 -0.1468
  671TMC3    C8 9989   0.093   1.817  14.005  0.4950  0.1426 -0.4034
  671TMC3    O1 9990   4.448   1.755  13.624  0.0088 -0.0484 -0.0423
  671TMC3    O2 9991   0.026   1.825  14.104  0.1541 -0.2853  0.1123
  672MPD2     C 9992   0.308   2.514   0.590  0.3166  0.5810 -0.4384
  672MPD2    C1 9993   0.367   2.392   0.619  0.0934  0.7138  0.2149
  672MPD2    C2 9994   0.498   2.397   0.643  0.4489 -0.9076 -0.1774
  672MPD2    C3 9995   0.582   2.507   0.611  0.5944 -0.4281  0.4746
  672MPD2    C4 9996   0.519   2.626   0.578 -0.7098  0.2895  0.1544
  672MPD2    C5 9997   0.386   2.620   0.561 -0.3193  0.2482  0.9810
  672MPD2     H 9998   0.540   2.311   0.694 -0.3453  0.1584  2.2880
  672MPD2    H1 9999   0.577   2.716   0.563  0.2880 -0.2371  0.8836
  672MPD2    H210000   0.202   2.536   0.591  0.0135 -0.9236 -0.0364
  672MPD2    H310001   0.338   2.716   0.541  2.1813  1.3643  0.3893
  672MPD2     N10002   0.714   2.534   0.658  0.1693 -0.0197  0.0128
  672MPD2    H510003   0.733   2.634   0.654 -2.2117  0.3326 -2.0806
  672MPD2    N110004   0.301   2.269   0.636 -0.4202  0.0424 -0.3557
  672MPD2    H710005   0.358   2.187   0.624 -0.8606 -0.1284 -1.2492
  673TMC3    C110006   0.116   2.121   0.596 -0.9432  0.1394 -0.5422
  673TMC3    C210007   0.198   2.013   0.595 -0.3145  0.5693  0.1394
  673TMC3    C310008   0.141   1.898   0.535  0.2381 -0.3030 -0.6128
  673TMC3    C410009   4.720   2.119   0.565 -0.5564  0.3716 -0.0848
  673TMC3    C510010   4.669   2.004   0.505 -0.2354  0.2500  0.3015
  673TMC3    C610011   0.007   1.894   0.501 -0.8053 -0.4862  0.4733
  673TMC3     C10012   0.165   2.254   0.636  0.4537 -0.2286  0.4496
  673TMC3     O10013   0.085   2.344   0.658  0.1800  0.4749 -0.4595
  673TMC3     H10014   0.304   2.027   0.612  0.3576 -1.8814 -2.0875
  673TMC3    H110015   4.666   2.212   0.570  2.1182  1.9960 -1.2634
  673TMC3    H210016   4.702   1.801   0.463 -0.3347  0.0044 -1.2380
  673TMC3    C710017   4.525   1.996   0.476  0.1673  0.4538  0.7597
  673TMC3    C810018   0.227   1.794   0.481  0.1188 -0.3654  0.1358
  673TMC3    O110019   4.466   1.895   0.505  0.1108 -0.5280  0.2381
  673TMC3    O210020   0.166   1.709   0.417  0.0948  0.4747  0.1777
  674MPD2     C10021   4.264   2.339  17.521  0.8993  0.0462 -0.6170
  674MPD2    C110022   4.183   2.282  17.625 -0.3377 -0.2086 -0.8119
  674MPD2    C210023   4.058   2.351  17.658  0.0352 -0.2241  0.3542
  674MPD2    C310024   4.020   2.471  17.596 -0.1838  0.2960 -0.0582
  674MPD2    C410025   4.104   2.528  17.502  0.4466  0.1104 -0.1959
  674MPD2    C510026   4.223   2.460  17.468 -0.1546  0.2640 -0.7150
  674MPD2     H10027   3.995   2.310  17.736  1.4581 -0.5378  1.3334
  674MPD2    H110028   4.080   2.618  17.448 -2.1228  1.4566  3.2267
  674MPD2    H210029   4.360   2.298  17.491 -0.0837 -0.6037 -2.8741
  674MPD2    H310030   4.284   2.503  17.390 -0.0449 -1.6717 -1.6969
  674MPD2     N10031   3.893   2.530  17.640  0.1274 -0.1710 -0.1578
  674MPD2    H510032   3.895   2.631  17.625 -3.8062  0.0200  0.6861
  674MPD2    N110033   4.230   2.166  17.689 -0.2674 -0.5015 -0.1278
  674MPD2    H710034   4.327   2.136  17.681 -1.0132 -2.4806 -1.9960
  675TMC3    C110035   4.215   1.979   0.082  0.0557  0.3464  0.5092
  675TMC3    C210036   4.144   1.898   0.161  0.2890 -0.4681 -0.5918
  675TMC3    C310037   4.208   1.815   0.242 -0.4656  0.7173 -0.0675
  675TMC3    C410038   4.355   1.966   0.070 -0.1880  0.2509  0.0473
  675TMC3    C510039   4.415   1.878   0.157  0.4547 -0.1279  0.6145
  675TMC3    C610040   4.343   1.792   0.234  0.3914 -0.5407 -0.0188
  675TMC3     C10041   4.156   2.103   0.039  0.0891 -0.2956  0.3146
  675TMC3     O10042   4.041   2.124   0.073 -0.0624  0.3209  0.2571
  675TMC3     H10043   4.043   1.928   0.184  1.3304  2.7543 -0.2529
  675TMC3    H110044   4.413   2.040   0.016  2.6234 -1.1162  1.2086
  675TMC3    H210045   4.389   1.714   0.293 -0.0242 -0.8766 -0.1418
  675TMC3    C710046   4.557   1.849   0.159  0.0768  0.1562  0.2681
  675TMC3    C810047   4.138   1.760   0.353  0.1361 -0.8158  0.1865
  675TMC3    O110048   4.600   1.768   0.240 -0.5654 -0.2880 -0.2191
  675TMC3    O210049   4.015   1.769   0.343 -0.4839 -0.5499  0.4607
  676MPD2     C10050   2.932   0.559  10.975  0.5005  0.3706  0.6546
  676MPD2    C110051   2.798   0.530  10.982  0.1592 -0.0415 -0.1475
  676MPD2    C210052   2.750   0.406  10.969  0.7341  0.1220 -0.1457
  676MPD2    C310053   2.835   0.302  10.950  0.0056  0.7270  0.3572
  676MPD2    C410054   2.966   0.328  10.919  0.0263  0.0671  0.3887
  676MPD2    C510055   3.015   0.454  10.939 -0.4075 -0.5795  0.3622
  676MPD2     H10056   2.645   0.389  10.992  1.2380  1.2275  2.9624
  676MPD2    H110057   3.029   0.242  10.899 -1.5270 -1.5093  2.2549
  676MPD2    H210058   2.974   0.659  10.973 -0.0179  0.5729 -0.1597
  676MPD2    H310059   3.120   0.476  10.922 -0.5247 -0.2067  0.1081
  676MPD2     N10060   2.785   0.171  10.927 -0.0733 -0.3998 -0.0363
  676MPD2    H510061   2.843   0.107  10.874 -1.0849 -0.3681 -1.1646
  676MPD2    N110062   2.704   0.613  11.042  0.5253  0.0559  0.0283
  676MPD2    H710063   2.615   0.570  11.068  1.3599 -1.1466  0.9114
  677TMC3    C110064   2.600   0.810  11.127  0.6848 -0.3327  0.2551
  677TMC3    C210065   2.483   0.735  11.119 -0.3463  0.5367 -0.1688
  677TMC3    C310066   2.401   0.738  11.224  0.0530  0.0424  0.0266
  677TMC3    C410067   2.631   0.899  11.229 -0.7084  0.4228 -0.5181
  677TMC3    C510068   2.536   0.907  11.330 -0.0470 -0.2287  0.2446
  677TMC3    C610069   2.422   0.832  11.320  0.2239 -0.4885 -0.2435
  677TMC3     C10070   2.717   0.744  11.070  0.6420 -0.4185  0.0740
  677TMC3     O10071   2.812   0.818  11.055  0.0261 -0.5116 -0.4348
  677TMC3     H10072   2.464   0.662  11.041  3.5586 -1.2167  0.5500
  677TMC3    H110073   2.730   0.942  11.221 -0.3250 -0.9217 -3.1222
  677TMC3    H210074   2.345   0.840  11.395 -0.4560  0.4563 -1.0453
  677TMC3    C710075   2.544   1.005  11.431 -0.2533 -0.2619 -0.5180
  677TMC3    C810076   2.290   0.639  11.230 -0.6290 -0.6644  0.4009
  677TMC3    O110077   2.446   1.027  11.497 -0.3156  0.0306  0.3559
  677TMC3    O210078   2.243   0.613  11.114 -0.6939  0.6811  0.7294
  678MPD2     C10079   4.279   0.296   1.253 -0.0184  0.0699  0.3183
  678MPD2    C110080   4.234   0.244   1.131 -0.4910  0.0128 -0.1525
  678MPD2    C210081   4.108   0.196   1.113 -0.4347 -0.1324  0.2601
  678MPD2    C310082   4.012   0.212   1.210 -0.4230 -0.7789 -0.9410
  678MPD2    C410083   4.050   0.255   1.334 -1.2331 -0.0080 -0.4720
  678MPD2    C510084   4.181   0.309   1.350 -0.1893 -0.2326  0.1296
  678MPD2     H10085   4.090   0.151   1.015  0.7835  1.3910 -0.6698
  678MPD2    H110086   3.982   0.272   1.418  0.5370 -0.9099  1.1393
  678MPD2    H210087   4.377   0.338   1.274  0.6668 -0.2952 -2.1857
  678MPD2    H310088   4.205   0.344   1.450 -2.4543 -0.8492  0.8965
  678MPD2     N10089   3.877   0.171   1.178  0.2381  0.3004  0.2978
  678MPD2    H510090   3.871   0.138   1.082 -0.0752  1.7714 -0.1806
  678MPD2    N110091   4.315   0.226   1.017 -0.0527 -0.2983 -0.2018
  678MPD2    H710092   4.277   0.190   0.930  1.2245 -1.2802 -0.3513
  679TMC3    C110093   4.664   0.108   0.752 -0.2570 -0.0271  0.0507
  679TMC3    C210094   4.625   0.149   0.879  0.0600  0.1111 -0.3682
  679TMC3    C310095   4.502   0.212   0.884  0.7546  0.0144 -0.2666
  679TMC3    C410096   4.577   0.108   0.652 -1.0640 -0.0924  0.3224
  679TMC3    C510097   4.457   0.165   0.660 -0.1681 -0.4078  0.2041
  679TMC3    C610098   4.414   0.225   0.778  0.1579 -0.2042 -0.6654
  679TMC3     C10099   0.059   0.055   0.727  0.4496 -0.2215  0.1410
  679TMC3     O10100   0.074   4.730   0.621  0.0591 -0.4992  0.2813
  679TMC3     H10101   4.685   0.152   0.969 -0.7770 -0.5825  0.2184
  679TMC3    H110102   4.618   0.070   0.559  1.5758  1.1420  0.9740
  679TMC3    H210103   4.316   0.271   0.783  0.9963  1.7354 -2.1838
  679TMC3    C710104   4.379   0.185   0.542 -0.2647 -0.2732  0.5051
  679TMC3    C810105   4.452   0.242   1.016  0.1094 -0.3089  0.2294
  679TMC3    O110106   4.310   0.288   0.553  0.5617  0.5091 -0.0249
  679TMC3    O210107   4.533   0.253   1.109 -0.5663  0.1764 -0.6897
  680MPD2     C10108   3.944   4.153  13.625 -0.4533  0.3365  0.5073
  680MPD2    C110109   4.008   4.069  13.706 -0.1796 -0.4898  0.7381
  680MPD2    C210110   4.112   4.118  13.783 -0.1083  0.4757  0.0182
  680MPD2    C310111   4.156   4.247  13.779  0.7747 -0.6330 -0.5740
  680MPD2    C410112   4.082   4.335  13.698 -0.2126 -0.0900  0.0335
  680MPD2    C510113   3.980   4.286  13.624  0.4539  0.0002  0.1065
  680MPD2     H10114   4.173   4.054  13.846 -0.0787  0.6788  0.1950
  680MPD2    H110115   4.116   4.438  13.699 -2.3246  0.5933  2.0800
  680MPD2    H210116   3.881   4.121  13.542 -1.1068  2.0710  0.3285
  680MPD2    H310117   3.922   4.356  13.564 -0.2266 -0.4520  0.2341
  680MPD2     N10118   4.279   4.297  13.837 -0.6656 -0.4640  0.1296
  680MPD2    H510119   4.308   4.389  13.806  2.1057 -1.0153  1.1526
  680MPD2    N110120   3.999   3.929  13.713 -0.1995  0.3284  0.4103
  680MPD2    H710121   4.055   3.883  13.784 -1.4011 -1.1296  0.4022
  681TMC3    C110122   3.943   3.707  13.642 -0.2497  1.2202 -0.3884
  681TMC3    C210123   3.982   3.655  13.762  0.1707 -0.0801  0.0414
  681TMC3    C310124   3.992   3.523  13.776  0.5981  0.2744  0.4342
  681TMC3    C410125   3.914   3.630  13.529 -0.0953 -0.2054 -0.0393
  681TMC3    C510126   3.921   3.490  13.554  0.3437  0.2837 -0.3789
  681TMC3    C610127   3.964   3.434  13.674 -0.4700 -0.0274  0.0467
  681TMC3     C10128   3.930   3.848  13.622  0.4979  0.3375  0.0233
  681TMC3     O10129   3.858   3.884  13.528  0.2772  0.0102  0.2004
  681TMC3     H10130   3.991   3.720  13.848  1.0721 -1.7604  1.2245
  681TMC3    H110131   3.868   3.664  13.437 -1.7077  0.4314  0.9917
  681TMC3    H210132   3.973   3.328  13.690 -0.9623 -0.0431  0.2066
  681TMC3    C710133   3.970   3.417  13.439 -0.0689  0.5224  0.9523
  681TMC3    C810134   3.992   3.458  13.908 -0.4178 -0.0604 -0.1748
  681TMC3    O110135   3.957   3.297  13.448 -0.3384 -0.5879  0.4317
  681TMC3    O210136   3.949   3.344  13.913  0.1061 -0.7924  0.1558
  682MPD2     C10137   1.718   1.110  11.069  0.3837 -0.2155  0.4608
  682MPD2    C110138   1.648   0.994  11.036  0.3543 -0.1276  0.1399
  682MPD2    C210139   1.577   0.934  11.135  0.2336 -0.0219  0.1596
  682MPD2    C310140   1.561   0.991  11.263 -0.1051 -0.0788 -0.0890
  682MPD2    C410141   1.631   1.108  11.293  0.0656 -0.5662  0.2135
  682MPD2    C510142   1.704   1.169  11.191 -0.4432 -0.7717 -0.2399
  682MPD2     H10143   1.515   0.848  11.111  1.1550 -1.0652  1.5447
  682MPD2    H110144   1.625   1.158  11.388 -2.7605 -0.9479  0.2318
  682MPD2    H210145   1.782   1.170  11.005  0.0169 -0.5489 -0.2160
  682MPD2    H310146   1.768   1.251  11.220 -1.4067  0.1074 -0.6112
  682MPD2     N10147   1.481   0.943  11.367  0.5544 -0.1078  0.1753
  682MPD2    H510148   1.495   0.986  11.458 -0.3401  1.0860 -0.2493
  682MPD2    N110149   1.669   0.928  10.913  0.6394 -0.0158 -0.1709
  682MPD2    H710150   1.602   0.852  10.903 -0.4341  0.9031  0.0007
  683TMC3    C110151   1.447   0.751  11.702 -0.5422  0.6980  0.2480
  683TMC3    C210152   1.423   0.614  11.685  0.0935 -0.2628  0.8595
  683TMC3    C310153   1.364   0.571  11.572 -0.2669 -0.3620 -0.1617
  683TMC3    C410154   1.407   0.840  11.611 -0.4800 -0.1964  0.4649
  683TMC3    C510155   1.348   0.789  11.499 -0.5538 -0.8959  0.4195
  683TMC3    C610156   1.323   0.653  11.475 -0.3005  0.6641 -0.6810
  683TMC3     C10157   1.487   0.798  11.832  0.2177 -0.4923  0.0487
  683TMC3     O10158   1.525   0.916  11.829  0.0248 -0.4129  0.1197
  683TMC3     H10159   1.453   0.538  11.757 -3.0531 -0.7184  1.7091
  683TMC3    H110160   1.408   0.944  11.643 -0.7122 -0.3258  0.8877
  683TMC3    H210161   1.259   0.626  11.392  0.4626  0.4194 -1.1913
  683TMC3    C710162   1.390   0.840  11.369 -0.8450  0.0668 -0.8300
  683TMC3    C810163   1.415   0.441  11.528 -0.2255 -0.4010 -0.6177
  683TMC3    O110164   1.370   0.769  11.270  0.6731  0.3391  0.2702
  683TMC3    O210165   1.432   0.352  11.606 -0.4514  0.0266 -0.8252
  684MPD2     C10166   4.712   4.369  16.454  0.6186  0.0794  0.1102
  684MPD2    C110167   4.697   4.433  16.338  0.2302 -0.7913 -1.1673
  684MPD2    C210168   4.692   4.570  16.331 -0.1635  0.3192  0.0929
  684MPD2    C310169   4.732   4.643  16.437 -0.4202  0.6048  0.1299
  684MPD2    C410170   0.024   4.582  16.556 -0.7809 -0.6452 -0.0380
  684MPD2    C510171   0.008   4.451  16.561  0.1087  0.2216  0.1261
  684MPD2     H10172   4.676   4.608  16.231 -3.1516 -0.9636  0.0636
  684MPD2    H110173   0.057   4.634  16.645  0.7035 -0.0085 -0.9649
  684MPD2    H210174   4.705   4.262  16.472  1.5760 -0.1595 -0.9217
  684MPD2    H310175   0.020   4.398  16.655  0.0559  1.0689  0.6098
  684MPD2     N10176   0.003   0.049  16.430 -0.3181 -0.3029 -0.1607
  684MPD2    H510177   0.071   0.096  16.490 -0.7229  0.4045 -0.2508
  684MPD2    N110178   4.653   4.360  16.226  0.1079  0.3583 -0.0316
  684MPD2    H710179   4.624   4.417  16.147  2.3351  0.5919 -0.6778
  685TMC3    C110180   4.673   4.203  16.074 -0.3683 -0.1330  0.1369
  685TMC3    C210181   4.571   4.258  16.000 -0.1114 -0.6560 -0.2609
  685TMC3    C310182   4.597   4.251  15.868 -0.1452 -0.6353  0.2260
  685TMC3    C410183   0.049   4.157  16.019  0.8093  0.1880  0.3299
  685TMC3    C510184   0.068   4.162  15.884  1.2414  0.5463 -0.3234
  685TMC3    C610185   4.705   4.202  15.800 -0.0436 -0.4929 -0.1219
  685TMC3     C10186   4.680   4.224  16.213  0.3353 -0.3380 -0.1950
  685TMC3     O10187   0.007   4.140  16.274  0.1898 -0.1993 -0.3062
  685TMC3     H10188   4.481   4.292  16.049  0.8293  0.2675  0.8161
  685TMC3    H110189   0.118   4.097  16.077  3.4104  1.4522 -1.4308
  685TMC3    H210190   4.726   4.222  15.695 -0.6395 -1.4886 -0.4293
  685TMC3    C710191   0.212   4.164  15.837 -0.0571 -0.4524  0.2962
  685TMC3    C810192   4.488   4.282  15.785 -0.0086  0.3532 -0.1596
  685TMC3    O110193   0.233   4.158  15.716  0.7197  0.3623  0.5918
  685TMC3    O210194   4.490   4.234  15.672 -0.1883 -0.3509 -0.0830
  686MPD2     C10195   1.365   4.576  15.884 -0.3105 -0.5479 -0.0185
  686MPD2    C110196   1.307   4.489  15.795  0.3949  0.1643  0.5939
  686MPD2    C210197   1.362   4.476  15.668  1.4160  0.9513 -0.5483
  686MPD2    C310198   1.481   4.538  15.632 -0.2972 -0.3421 -0.6897
  686MPD2    C410199   1.530   4.638  15.712 -0.0161 -0.6001 -0.2045
  686MPD2    C510200   1.479   4.653  15.840  1.1887  0.1404 -0.6845
  686MPD2     H10201   1.325   4.406  15.595 -1.1937 -0.3455  2.0244
  686MPD2    H110202   1.624   4.686  15.689 -0.4344 -0.5087 -1.7274
  686MPD2    H210203   1.323   4.599  15.982 -0.0267  0.3804 -0.1203
  686MPD2    H310204   1.533   4.719  15.908 -1.2512 -0.0625  1.4715
  686MPD2     N10205   1.556   4.507  15.514  0.2594 -0.2200 -0.1151
  686MPD2    H510206   1.639   4.563  15.500  0.0509  0.0001 -0.4519
  686MPD2    N110207   1.203   4.400  15.835  0.3450 -0.9611 -0.1448
  686MPD2    H710208   1.192   4.390  15.935 -1.2795 -0.4415 -0.2685
  687TMC3    C110209   1.630   4.352  15.350 -0.3055  0.5480 -0.1252
  687TMC3    C210210   1.573   4.250  15.269 -0.0822  0.1983  0.0635
  687TMC3    C310211   1.595   4.117  15.304  0.1960  0.5384 -0.0218
  687TMC3    C410212   1.730   4.316  15.441  0.5967  0.0835  0.3025
  687TMC3    C510213   1.747   4.177  15.471 -0.2255  0.6664  0.3471
  687TMC3    C610214   1.672   4.083  15.416  0.0562 -0.8283  0.2670
  687TMC3     C10215   1.519   4.409  15.422 -0.5832 -0.2500  0.1012
  687TMC3     O10216   1.418   4.339  15.414  0.4998 -0.0065 -0.1012
  687TMC3     H10217   1.506   4.274  15.188 -0.8700  0.2125  0.7180
  687TMC3    H110218   1.770   4.392  15.506  1.2128 -0.8871  1.0652
  687TMC3    H210219   1.688   3.983  15.452 -0.4585 -1.0444 -0.0990
  687TMC3    C710220   1.789   4.163  15.609 -0.0647 -0.2136 -0.0035
  687TMC3    C810221   1.478   4.021  15.298  0.2171 -0.7809 -0.0698
  687TMC3    O110222   1.883   4.233  15.640  0.4330 -0.2193 -0.1303
  687TMC3    O210223   1.496   3.904  15.328 -0.3266 -0.2458 -0.2066
  688MPD2     C10224   0.388   3.410  17.285  0.0689 -0.2223  0.0543
  688MPD2    C110225   0.393   3.274  17.318  0.3898 -0.7099 -0.4768
  688MPD2    C210226   0.468   3.185  17.242 -0.9520 -0.1828  0.5996
  688MPD2    C310227   0.530   3.233  17.130 -0.0497 -0.0146 -0.2020
  688MPD2    C410228   0.517   3.362  17.094 -0.1141 -0.1972 -0.0338
  688MPD2    C510229   0.448   3.452  17.167  0.2246 -0.4041 -0.5274
  688MPD2     H10230   0.461   3.078  17.254 -0.3289 -0.4241 -1.1814
  688MPD2    H110231   0.553   3.386  16.995 -0.0692 -0.9573 -0.2065
  688MPD2    H210232   0.333   3.487  17.337  1.7615  1.0987 -0.1306
  688MPD2    H310233   0.451   3.555  17.133  0.7811 -0.1333  0.3257
  688MPD2     N10234   0.600   3.153  17.042  0.2169  0.3013 -0.4519
  688MPD2    H510235   0.629   3.200  16.957 -0.0291 -0.8237 -1.1622
  688MPD2    N110236   0.308   3.218  17.418 -0.5037 -0.2210 -0.7042
  688MPD2    H710237   0.310   3.117  17.423 -0.0381 -0.2217 -0.8923
  689TMC3    C110238   0.185   3.197  17.615 -0.0951 -1.2400  0.5228
  689TMC3    C210239   0.173   3.256  17.737  0.0860  0.0178 -0.6238
  689TMC3    C310240   0.111   3.184   0.090  0.5484 -0.1983 -0.1894
  689TMC3    C410241   0.136   3.075  17.585  0.1827 -0.1573  0.4730
  689TMC3    C510242   0.078   3.004  17.691  0.3608  0.1559  0.1025
  689TMC3    C610243   0.064   3.057   0.073 -0.0771  0.4890  0.3352
  689TMC3     C10244   0.248   3.285  17.519 -0.0013 -0.5557 -0.0967
  689TMC3     O10245   0.280   3.398  17.544 -0.2439 -0.1829  0.8738
  689TMC3     H10246   0.193   3.362   0.005  0.5890  0.0624 -1.7578
  689TMC3    H110247   0.142   3.033  17.485  0.0217  2.2946 -0.5668
  689TMC3    H210248   0.042   2.990   0.155  2.4679  1.1533  1.5705
  689TMC3    C710249   0.088   2.860  17.676 -0.7035 -0.3206  0.4328
  689TMC3    C810250   0.095   3.249   0.218 -0.2952 -0.8285  0.3783
  689TMC3    O110251   0.139   2.800   0.029 -0.2488 -0.2782  0.3995
  689TMC3    O210252   0.162   3.352   0.227 -0.0714 -0.5578  0.1504
  690MPD2     C10253   2.531   0.737  14.826  0.3905 -0.5301 -0.3032
  690MPD2    C110254   2.637   0.699  14.904  0.7894 -0.7740 -0.8122
  690MPD2    C210255   2.766   0.743  14.877  0.1545  0.3776 -0.4747
  690MPD2    C310256   2.790   0.819  14.766  0.2170  0.3050 -0.0076
  690MPD2    C410257   2.689   0.831  14.674 -0.0493  0.6750  0.3329
  690MPD2    C510258   2.559   0.797  14.712  0.3574  0.3603  0.0403
  690MPD2     H10259   2.844   0.728  14.950 -1.0278 -2.5832  0.1655
  690MPD2    H110260   2.713   0.877  14.579  1.0840 -2.0262 -0.7019
  690MPD2    H210261   2.431   0.696  14.824  0.2489 -0.1547 -1.2658
  690MPD2    H310262   2.478   0.817  14.643  1.6434  1.2482 -1.2279
  690MPD2     N10263   2.919   0.871  14.740 -0.2659  0.4383 -0.3279
  690MPD2    H510264   2.940   0.900  14.645  3.3162 -2.0100 -0.2970
  690MPD2    N110265   2.614   0.607  15.012  0.0211  0.3291  0.1500
  690MPD2    H710266   2.697   0.569  15.056  0.6015  0.5533 -0.7271
  691TMC3    C110267   2.521   0.475  15.172 -0.3951 -0.1818  0.8575
  691TMC3    C210268   2.429   0.490  15.275  0.5420  0.7703 -0.9348
  691TMC3    C310269   2.410   0.385  15.351  0.6189 -0.2743 -0.3710
  691TMC3    C410270   2.578   0.354  15.136 -0.0399  0.3762 -0.6898
  691TMC3    C510271   2.560   0.251  15.223  0.3650  0.4058  0.5160
  691TMC3    C610272   2.485   0.267  15.337 -0.9727  0.4627 -0.2946
  691TMC3     C10273   2.494   0.567  15.070  0.3014  0.0086 -0.0255
  691TMC3     O10274   2.379   0.601  15.047 -0.4941  0.4266 -0.1318
  691TMC3     H10275   2.388   0.586  15.304 -0.7701 -0.5192  1.4569
  691TMC3    H110276   2.617   0.339  15.036 -1.1098  1.2871 -1.2410
  691TMC3    H210277   2.492   0.186  15.408  1.7021 -0.3206 -1.4729
  691TMC3    C710278   2.610   0.117  15.194  0.5014 -0.9335 -0.2945
  691TMC3    C810279   2.338   0.397  15.476  0.1683 -1.0015  0.2265
  691TMC3    O110280   2.696   0.103  15.110 -0.1860 -0.4131 -0.0838
  691TMC3    O210281   2.370   0.311  15.557  0.2096 -0.1363 -0.0249
  692TMC3    C110282   4.528   1.355  15.718  0.2682 -0.2626  0.0196
  692TMC3    C210283   4.653   1.360  15.778 -0.2377 -0.5298 -0.2209
  692TMC3    C310284   4.724   1.247  15.803 -0.3787  0.1407 -0.3382
  692TMC3    C410285   4.477   1.230  15.680 -0.3922 -0.3594  1.0812
  692TMC3    C510286   4.560   1.120  15.694 -0.0622 -0.2086  0.1989
  692TMC3    C610287   4.674   1.126  15.759 -0.2408 -0.0407 -0.5168
  692TMC3     C10288   4.431   1.459  15.748 -0.1446  0.5307 -0.0359
  692TMC3     O10289   4.313   1.442  15.722 -0.3743 -0.3460  0.4113
  692TMC3     H10290   4.721   1.444  15.764 -0.7784  0.0388  0.5867
  692TMC3    H110291   4.374   1.220  15.647  0.1560  1.3824 -1.0909
  692TMC3    H210292   4.733   1.036  15.749 -2.3190 -1.1723 -2.5522
  692TMC3    C710293   4.496   0.998  15.700 -0.6955 -0.2649  0.2771
  692TMC3    C810294   0.024   1.233  15.941  0.1791 -0.2832  0.7903
  692TMC3    O110295   4.410   0.984  15.616  0.2963 -0.4103 -0.7505
  692TMC3    O210296   0.016   1.119  15.987  0.1771 -0.0621 -0.4640
  693MPD2     C10297   3.900   4.513  10.469  0.5147  0.2082 -0.5130
  693MPD2    C110298   3.845   4.520  10.592  0.6717  0.6551  0.1643
  693MPD2    C210299   3.925   4.476  10.701  0.1131  0.7827 -0.2005
  693MPD2    C310300   4.054   4.425  10.684  0.0511  0.5158 -1.1174
  693MPD2    C410301   4.100   4.417  10.555 -0.3118  0.5070  0.0552
  693MPD2    C510302   4.024   4.461  10.450 -0.1215 -0.9253  0.4948
  693MPD2     H10303   3.881   4.485  10.800  2.3815  1.2407  0.7707
  693MPD2    H110304   4.195   4.372  10.528 -1.3658 -0.2337 -2.3537
  693MPD2    H210305   3.842   4.542  10.381  1.4526 -0.2541 -1.2841
  693MPD2    H310306   4.065   4.445  10.351  0.1978  1.8531  0.1742
  693MPD2     N10307   4.124   4.364  10.794 -0.2421 -0.5234  0.0494
  693MPD2    H510308   4.211   4.322  10.763 -1.1665 -0.7361 -2.2321
  693MPD2    N110309   3.705   4.542  10.609  0.5575 -0.0613  0.2711
  693MPD2    H710310   3.669   4.550  10.703 -2.7825  1.8636 -1.1554
  694TMC3    C110311   3.471   4.498  10.561  0.1005 -0.8663 -0.4839
  694TMC3    C210312   3.397   4.416  10.468  0.4742  0.1400  0.1045
  694TMC3    C310313   3.311   4.327  10.522 -1.0216 -0.1944  0.2699
  694TMC3    C410314   3.460   4.483  10.691 -0.3909  0.6403  0.6923
  694TMC3    C510315   3.374   4.396  10.738  0.3705 -0.0318  0.0937
  694TMC3    C610316   3.301   4.307  10.662  0.0872  0.3319 -0.0362
  694TMC3     C10317   3.609   4.527  10.515  0.9565 -0.1705 -0.3175
  694TMC3     O10318   3.623   4.511  10.395 -0.3935 -0.2837  0.1803
  694TMC3     H10319   3.406   4.431  10.361  0.3485  2.2513  0.3767
  694TMC3    H110320   3.490   4.569  10.749 -1.1367  0.7146  0.9596
  694TMC3    H210321   3.218   4.251  10.703 -0.7499  0.5822 -1.3895
  694TMC3    C710322   3.352   4.403  10.881  0.7240  0.0668 -0.0521
  694TMC3    C810323   3.234   4.235  10.443  0.5285  0.1174 -0.6103
  694TMC3    O110324   3.372   4.505  10.946 -0.2048 -0.0417 -0.0681
  694TMC3    O210325   3.191   4.136  10.499 -0.4569 -0.0071 -0.3518
  695MPD2     C10326   0.034   1.026  13.282  0.3341 -0.0988  0.6187
  695MPD2    C110327   4.719   1.051  13.405  0.2605  0.3188 -0.0372
  695MPD2    C210328   4.594   1.101  13.421 -0.4050 -0.6170  0.6489
  695MPD2    C310329   4.516   1.106  13.306 -0.3409 -0.3468  0.2833
  695MPD2    C410330   4.563   1.060  13.188 -0.3410  0.4240 -0.5521
  695MPD2    C510331   4.692   1.030  13.172 -0.2132  0.1763 -0.0016
  695MPD2     H10332   4.561   1.132  13.519 -2.0300 -1.2629  0.3104
  695MPD2    H110333   4.493   1.057  13.105 -1.1110 -1.1463  0.1471
  695MPD2    H210334   0.137   0.994  13.271  0.3296 -0.5809  1.9465
  695MPD2    H310335   4.728   1.008  13.072  0.4281  0.0485  0.2603
  695MPD2     N10336   4.391   1.163  13.320 -0.5301 -0.4166  0.6767
  695MPD2    H510337   4.373   1.198  13.413 -1.7661  0.6819  0.0144
  695MPD2    N110338   0.058   1.036  13.514 -0.3995  0.4710 -0.6279
  695MPD2    H710339   0.017   1.066  13.602  0.1270 -1.7982  0.3988
  696TMC3    C110340   4.170   1.249  13.285 -0.0021 -0.2010  0.6575
  696TMC3    C210341   4.148   1.254  13.420  0.0683 -0.1687 -0.7143
  696TMC3    C310342   4.047   1.340  13.472  0.2791  0.2382 -0.7647
  696TMC3    C410343   4.096   1.325  13.199 -0.3340 -0.2944  0.3756
  696TMC3    C510344   4.000   1.406  13.256  0.0442 -0.1684 -0.3759
  696TMC3    C610345   3.972   1.419  13.391  0.1958 -0.0873  0.2451
  696TMC3     C10346   4.299   1.200  13.232  0.3873 -0.1069 -0.4505
  696TMC3     O10347   4.315   1.212  13.109 -0.1586  0.9342  0.4492
  696TMC3     H10348   4.215   1.194  13.480 -0.5432 -1.5776 -1.4486
  696TMC3    H110349   4.109   1.322  13.091 -0.1004  1.4742  0.3657
  696TMC3    H210350   3.889   1.474  13.432  0.5036  0.3177  0.3244
  696TMC3    C710351   3.987   1.527  13.175 -0.4928  0.4458 -0.3458
  696TMC3    C810352   4.102   1.435  13.566 -0.0325  0.4178 -0.2464
  696TMC3    O110353   3.897   1.541  13.094 -0.6007  0.0297 -0.3710
  696TMC3    O210354   4.102   1.555  13.540  0.2083 -0.1630  0.2937
  697MPD2     C10355   4.205   2.985  15.496  0.5058  0.4199  0.1494
  697MPD2    C110356   4.115   2.952  15.402 -0.1227  0.1953  0.2377
  697MPD2    C210357   4.073   3.055  15.316 -1.0421  0.0491 -0.6031
  697MPD2    C310358   4.126   3.186  15.328  0.2359  0.1583 -0.3581
  697MPD2    C410359   4.222   3.212  15.420  0.2143 -0.0564 -0.1724
  697MPD2    C510360   4.263   3.110  15.496 -0.0698  0.0353  0.0346
  697MPD2     H10361   3.992   3.044  15.245 -0.2986  0.0941 -1.4514
  697MPD2    H110362   4.260   3.312  15.437 -0.2603 -0.1667  1.5879
  697MPD2    H210363   4.250   2.903  15.552  0.2871  0.5176  0.4731
  697MPD2    H310364   4.339   3.129  15.571 -1.9599 -0.9286  2.2087
  697MPD2     N10365   4.071   3.288  15.243 -0.2844  0.1060  0.6441
  697MPD2    H510366   3.999   3.260  15.177  0.9427 -1.5367 -0.0077
  697MPD2    N110367   4.058   2.822  15.387  0.6578 -0.2506 -0.1067
  697MPD2    H710368   3.989   2.807  15.314  1.5008  1.3966 -1.2414
  698TMC3    C110369   4.059   3.492  15.126  0.4475 -0.3887  1.0620
  698TMC3    C210370   4.090   3.621  15.118 -0.0231 -0.3399  0.3911
  698TMC3    C310371   4.070   3.689  14.999 -0.1312 -0.2257 -0.9089
  698TMC3    C410372   4.015   3.426  15.013 -0.1583  0.3243 -0.2154
  698TMC3    C510373   3.989   3.502  14.898 -0.4085 -0.2091 -0.5012
  698TMC3    C610374   4.010   3.635  14.888 -0.1361  0.3573  0.0350
  698TMC3     C10375   4.111   3.416  15.240 -0.8084  0.6249  0.0786
  698TMC3     O10376   4.194   3.470  15.308 -0.2971 -0.8820  0.1191
  698TMC3     H10377   4.128   3.673  15.205 -0.6826  0.5009  0.1748
  698TMC3    H110378   4.017   3.317  15.011  2.2471  0.3137  2.1671
  698TMC3    H210379   3.997   3.695  14.799 -0.0015 -0.4490 -0.5323
  698TMC3    C710380   3.914   3.442  14.790 -0.5365  0.1337  0.0999
  698TMC3    C810381   4.116   3.831  14.990 -0.5640 -0.1852 -0.3822
  698TMC3    O110382   3.909   3.507  14.685  0.2539  0.5340  0.2441
  698TMC3    O210383   4.051   3.893  14.904  0.5906  0.1686  0.3710
  699TMC3    C110384   4.284   0.890  12.879  0.6067 -0.4456  0.7156
  699TMC3    C210385   4.340   0.856  12.999 -0.3275 -0.6474 -0.3250
  699TMC3    C310386   4.251   0.829  13.094 -0.0297  0.5334  0.2295
  699TMC3    C410387   4.154   0.929  12.864 -0.1698 -0.5643 -0.2230
  699TMC3    C510388   4.079   0.935  12.978  0.1466  0.2919  0.1450
  699TMC3    C610389   4.124   0.869  13.091  0.2007  0.3646  0.2489
  699TMC3     C10390   4.366   0.958  12.784  0.0816  0.5391  0.2157
  699TMC3     O10391   4.310   1.042  12.720  0.2480 -0.2856  0.6395
  699TMC3     H10392   4.447   0.842  12.997  0.0061  1.9959 -1.1137
  699TMC3    H110393   4.117   0.958  12.766 -0.9642 -0.5195  0.0920
  699TMC3    H210394   4.063   0.867  13.180 -2.4179 -0.2122 -1.5449
  699TMC3    C710395   3.954   1.010  12.980 -0.0237 -0.3644  0.0642
  699TMC3    C810396   4.287   0.733  13.198 -0.5767  0.4348 -0.0373
  699TMC3    O110397   3.930   1.070  13.085  0.1504 -0.0595  0.5326
  699TMC3    O210398   4.223   0.736  13.305 -0.2749 -0.7666  0.0797
  700TMC3    C110399   3.105   3.887  17.248  0.2275 -0.3074 -0.2062
  700TMC3    C210400   3.094   3.751  17.240 -0.0372 -0.1265 -0.0921
  700TMC3    C310401   3.181   3.677  17.318 -0.2009 -0.5508 -0.2309
  700TMC3    C410402   3.189   3.950  17.328  0.2546  0.4662 -0.4675
  700TMC3    C510403   3.270   3.874  17.405  0.0525 -0.6190  0.6994
  700TMC3    C610404   3.281   3.739  17.397 -0.2431  0.0346 -0.0534
  700TMC3     C10405   3.069   3.965  17.130  0.2428  0.6654 -0.1827
  700TMC3     O10406   2.957   3.970  17.086 -0.4404 -0.5993  0.1542
  700TMC3     H10407   3.037   3.709  17.158 -3.1587  0.9645  1.5087
  700TMC3    H110408   3.185   4.058  17.330  0.5572  0.4479  0.9866
  700TMC3    H210409   3.340   3.683  17.468 -0.9386 -0.3502  0.2148
  700TMC3    C710410   3.398   3.947  17.417  0.6321 -0.5998  0.6499
  700TMC3    C810411   3.208   3.542  17.290 -0.6225  0.6484 -0.6035
  700TMC3    O110412   3.401   4.059  17.375 -0.2408  0.4310 -0.0626
  700TMC3    O210413   3.319   3.492  17.303  0.0809 -0.8093 -0.0790
  701TMC3    C110414   3.380   2.479  15.658  0.3979  0.1132 -0.0765
  701TMC3    C210415   3.348   2.439  15.533 -0.1274 -0.9822  0.7747
  701TMC3    C310416   3.427   2.487  15.429 -0.1808 -0.0601 -0.3184
  701TMC3    C410417   3.488   2.553  15.685 -0.1732 -0.0123  0.0519
  701TMC3    C510418   3.569   2.594  15.585  0.9319  0.3084 -0.9311
  701TMC3    C610419   3.534   2.573  15.455  0.3835 -0.1823 -0.3811
  701TMC3     C10420   3.292   2.452  15.768  0.1126  0.6047 -0.2766
  701TMC3     O10421   3.318   2.492  15.879 -1.0905 -0.3717 -0.3030
  701TMC3     H10422   3.267   2.372  15.507 -2.0418  1.6376 -0.0337
  701TMC3    H110423   3.503   2.584  15.788 -0.0708  0.6888 -0.1737
  701TMC3    H210424   3.608   2.608  15.384 -1.1657 -0.1531 -1.9843
  701TMC3    C710425   3.648   2.711  15.615  0.0562  0.0643 -0.0535
  701TMC3    C810426   3.449   2.404  15.312 -1.2748  0.0016 -0.3406
  701TMC3    O110427   3.643   2.795  15.528 -0.0216 -0.2601  0.9556
  701TMC3    O210428   3.564   2.403  15.269  0.2221  0.0012 -0.0945
  702MPD2     C10429   2.771   4.426  10.380 -0.1232  0.1277 -0.6114
  702MPD2    C110430   2.693   4.538  10.415 -0.3393 -0.4078  0.2426
  702MPD2    C210431   2.655   4.633  10.322  1.3364  0.4047  0.0461
  702MPD2    C310432   2.684   4.619  10.192  0.0352 -0.0062  0.2965
  702MPD2    C410433   2.772   4.518  10.157 -0.2881 -0.3247  0.6258
  702MPD2    C510434   2.806   4.416  10.248  0.5877  0.2387  0.5233
  702MPD2     H10435   2.603   4.723  10.353  0.8475  0.1019  0.1149
  702MPD2    H110436   2.818   4.514  10.060 -0.4366  3.6998  0.3965
  702MPD2    H210437   2.794   4.352  10.456 -1.0576 -0.3737 -0.8089
  702MPD2    H310438   2.879   4.343  10.215  1.5362  0.9683  1.0170
  702MPD2     N10439   2.637   4.711  10.097 -0.0214  0.1244  0.0275
  702MPD2    H510440   2.558   0.034  10.119 -0.6483  0.8542 -4.1423
  702MPD2    N110441   2.663   4.570  10.555 -0.2483  0.0358  0.2023
  702MPD2    H710442   2.615   4.658  10.573  0.8029  0.2616  1.8905
  703TMC3    C110443   2.675   0.140   9.941  0.5123  0.3837 -0.1865
  703TMC3    C210444   2.548   0.176   9.962  0.5342 -0.4855  0.5083
  703TMC3    C310445   2.515   0.308   9.991 -0.4767  0.3394 -0.0448
  703TMC3    C410446   2.774   0.231   9.961  0.1457 -0.3380 -0.1987
  703TMC3    C510447   2.750   0.355  10.000 -0.2915 -0.0973 -0.1932
  703TMC3    C610448   2.616   0.394  10.014 -0.6147 -0.1802 -0.4131
  703TMC3     C10449   2.714   0.010   9.981 -0.1669  0.6796 -0.3726
  703TMC3     O10450   2.822   4.710   9.946  0.4146  0.4334  0.1657
  703TMC3     H10451   2.465   0.109   9.942  0.3340  0.0798 -0.5687
  703TMC3    H110452   2.875   0.193   9.952  0.5499  1.3695 -2.7373
  703TMC3    H210453   2.599   0.496  10.046  0.3324 -0.0259 -0.4048
  703TMC3    C710454   2.848   0.429  10.078  0.5159  0.4856  0.1120
  703TMC3    C810455   2.377   0.327  10.025 -0.2797  0.2004 -0.0178
  703TMC3    O110456   2.828   0.544  10.103 -0.4598 -0.0506  0.1635
  703TMC3    O210457   2.304   0.281   9.938 -0.4727 -0.5235 -0.6975
  704TMC3    C110458   1.046   3.168  13.212  0.4074 -0.5908 -0.2236
  704TMC3    C210459   1.182   3.141  13.192 -0.7306  0.7229 -0.6976
  704TMC3    C310460   1.242   3.038  13.263  0.1531 -0.3625 -0.3055
  704TMC3    C410461   0.969   3.089  13.293  0.2484 -0.2327  0.3767
  704TMC3    C510462   1.028   2.979  13.353  0.6825  0.1835  0.7245
  704TMC3    C610463   1.166   2.953  13.336 -0.8528  0.0572 -0.2711
  704TMC3     C10464   0.968   3.249  13.119  0.2009  0.6953  0.1659
  704TMC3     O10465   0.864   3.295  13.166 -0.5165 -0.2190  0.4486
  704TMC3     H10466   1.237   3.212  13.132 -0.1676 -1.2778 -2.5563
  704TMC3    H110467   0.863   3.106  13.308 -0.0018 -1.4484  0.0019
  704TMC3    H210468   1.213   2.861  13.370 -0.2416  1.8282  3.6573
  704TMC3    C710469   0.962   2.850  13.324  0.7883 -0.8835 -0.3615
  704TMC3    C810470   1.340   2.982  13.167 -0.3870  0.7412  0.8491
  704TMC3    O110471   1.030   2.750  13.306  0.5114 -0.4189  0.1663
  704TMC3    O210472   1.331   3.027  13.052 -0.0561  0.7721 -0.4007
  705MPD2     C10473   0.091   1.143  16.768 -0.2429  0.4895 -0.1765
  705MPD2    C110474   0.023   1.078  16.661 -0.2650 -0.4044  0.1921
  705MPD2    C210475   4.626   1.091  16.645 -0.1848  0.6290 -0.5025
  705MPD2    C310476   4.567   1.189  16.723 -0.0477  1.3871  0.0894
  705MPD2    C410477   4.630   1.242  16.839 -0.3912 -0.3926  0.0903
  705MPD2    C510478   0.025   1.218  16.860 -0.6248 -0.2098 -0.0297
  705MPD2     H10479   4.586   1.044  16.556 -0.7084  0.2447 -0.0650
  705MPD2    H110480   4.573   1.307  16.904  0.1974  0.2460 -0.0383
  705MPD2    H210481   0.195   1.129  16.793 -1.0293 -2.9747  1.2795
  705MPD2    H310482   0.079   1.243  16.951  1.5475 -0.0393 -1.3429
  705MPD2     N10483   4.447   1.254  16.685  0.0012 -0.7263 -0.0188
  705MPD2    H510484   4.411   1.321  16.751 -0.3054  1.5814 -2.5083
  705MPD2    N110485   0.090   1.011  16.554  0.0831 -0.2795  0.5352
  705MPD2    H710486   0.041   0.977  16.472  0.3553  0.1981  0.1699
  706TMC3    C110487   0.234   0.879  16.184  0.2733 -0.3819  0.1900
  706TMC3    C210488   0.291   0.979  16.111 -0.0860  0.2341  0.0914
  706TMC3    C310489   0.332   1.091  16.172  0.4583  0.1432 -0.5251
  706TMC3    C410490   0.209   0.901  16.318 -0.0611  0.4794 -0.2098
  706TMC3    C510491   0.243   1.022  16.371  0.2177  0.1717 -0.1823
  706TMC3    C610492   0.316   1.111  16.305 -0.2141  0.2367 -0.4010
  706TMC3     C10493   0.223   0.751  16.126  0.5039 -0.2572  1.0519
  706TMC3     O10494   0.248   0.652  16.194 -0.2583  0.0876 -0.0164
  706TMC3     H10495   0.316   0.969  16.006 -0.2177 -0.1241  0.0959
  706TMC3    H110496   0.172   0.822  16.382 -1.8917  0.7634 -0.9308
  706TMC3    H210497   0.331   1.210  16.346  1.3485  0.4985 -1.5666
  706TMC3    C710498   0.225   1.042  16.518  0.2649 -0.5103  0.2651
  706TMC3    C810499   0.371   1.204  16.088  0.7368 -0.6241 -0.7164
  706TMC3    O110500   0.309   1.118  16.566 -0.6101  0.5565 -0.1591
  706TMC3    O210501   0.349   1.198  15.964  0.0311 -0.2213  0.2670
  707TMC3    C110502   1.176   4.662   1.319  0.3466 -0.0867  0.6933
  707TMC3    C210503   1.275   4.637   1.420  0.2323  0.1954 -0.2109
  707TMC3    C310504   1.265   4.691   1.546 -0.1560  0.0676  0.0445
  707TMC3    C410505   1.074   0.011   1.352  1.1858  0.4775  0.3419
  707TMC3    C510506   1.050   0.038   1.485  0.6111  0.0708  0.4655
  707TMC3    C610507   1.149   0.014   1.584  0.1992 -1.0140  0.2656
  707TMC3     C10508   1.231   4.663   1.186 -0.0447  0.7490  0.5218
  707TMC3     O10509   1.347   4.703   1.180 -0.9168 -0.8506 -0.2885
  707TMC3     H10510   1.352   4.573   1.379 -0.5213 -1.2932  0.7423
  707TMC3    H110511   1.006   0.050   1.277  0.3779  0.0592  0.8597
  707TMC3    H210512   1.128   0.026   1.690  0.4439  0.5919  0.1302
  707TMC3    C710513   0.909   0.038   1.527 -0.1380 -0.7082 -0.2444
  707TMC3    C810514   1.373   4.694   1.636  0.4479 -0.0039  0.2501
  707TMC3    O110515   0.872   0.097   1.625  0.0864 -0.5964 -0.6636
  707TMC3    O210516   1.355   0.008   1.747 -0.3420 -0.2242  0.0667
  708MPD2     C10517   3.265   0.067  13.731 -0.3853 -0.0856  0.1234
  708MPD2    C110518   3.191   4.719  13.803 -0.7632  0.0019  0.0601
  708MPD2    C210519   3.240   4.655  13.911  0.4480  0.1008  0.5331
  708MPD2    C310520   3.380   4.672  13.945 -0.3251  0.1532 -0.1335
  708MPD2    C410521   3.456   0.015  13.859  0.1637  0.3065 -0.6194
  708MPD2    C510522   3.400   0.084  13.758 -0.4814 -0.2291 -0.4079
  708MPD2     H10523   3.182   4.589  13.975  0.4021 -2.6650 -2.3517
  708MPD2    H110524   3.563   0.027  13.873  0.2735  0.4485 -1.6062
  708MPD2    H210525   3.227   0.117  13.643 -0.1902 -1.9409 -1.0237
  708MPD2    H310526   3.462   0.155  13.704 -1.8002 -0.1480 -1.7954
  708MPD2     N10527   3.448   4.607  14.051  0.0929 -0.3041 -0.1991
  708MPD2    H510528   3.547   4.621  14.070 -0.5527  2.1408  1.3676
  708MPD2    N110529   3.052   4.690  13.758  0.4246  0.5254  0.5221
  708MPD2    H710530   3.014   4.713  13.667  3.0621  1.1660 -0.3940
  709TMC3    C110531   2.862   4.550  13.762 -0.5885  0.5228 -0.0452
  709TMC3    C210532   2.919   4.486  13.654  0.4814 -0.0523 -0.3811
  709TMC3    C310533   2.885   4.352  13.644 -0.2837  0.3764 -0.2238
  709TMC3    C410534   2.775   4.492  13.855 -0.3747 -0.0598  0.0241
  709TMC3    C510535   2.755   4.360  13.847 -1.0846  0.8020  0.0187
  709TMC3    C610536   2.808   4.291  13.737  0.1292  0.0485  0.5493
  709TMC3     C10537   2.955   4.639  13.840 -0.0391  0.4098  0.3890
  709TMC3     O10538   2.954   4.616  13.961  0.1969 -0.1574 -0.1190
  709TMC3     H10539   3.000   4.530  13.598  1.7689 -0.5282  1.1292
  709TMC3    H110540   2.731   4.549  13.936 -1.4183  0.3536 -0.8375
  709TMC3    H210541   2.798   4.184  13.749  0.0524 -0.2029 -1.8303
  709TMC3    C710542   2.758   4.289  13.977  0.0510  0.0627  0.6242
  709TMC3    C810543   2.965   4.267  13.566 -0.0590 -0.6006 -0.1250
  709TMC3    O110544   2.713   4.177  13.996  0.5292  0.4663 -0.7143
  709TMC3    O210545   2.961   4.147  13.595 -0.3897  0.2284  0.0400
  710TMC3    C110546   3.806   0.675   0.090 -0.4296  0.7299  0.7543
  710TMC3    C210547   3.843   0.718  17.708  0.2392 -0.2215  0.7408
  710TMC3    C310548   3.970   0.680  17.668 -0.7426  0.3323  0.0703
  710TMC3    C410549   3.896   0.597   0.165  0.2685 -0.1544 -0.0978
  710TMC3    C510550   4.019   0.558   0.111  0.3504  0.0652  0.2899
  710TMC3    C610551   4.058   0.602  17.737  0.0392 -0.9210  0.0348
  710TMC3     C10552   3.678   0.713   0.144  0.2288  0.9947  0.1372
  710TMC3     O10553   3.583   0.700   0.066 -0.0248 -0.1553  0.8572
  710TMC3     H10554   3.778   0.776  17.644  1.0958  0.0558  0.1222
  710TMC3    H110555   3.866   0.567   0.265  3.0525  3.8671  1.9171
  710TMC3    H210556   4.156   0.573  17.700  1.4854  3.8762  0.0797
  710TMC3    C710557   4.095   0.455   0.185 -0.4469  0.4783  0.3324
  710TMC3    C810558   4.032   0.750  17.550 -0.0091  0.4762  0.1573
  710TMC3    O110559   4.060   0.438   0.298 -0.1650  0.1226 -0.2568
  710TMC3    O210560   4.148   0.784  17.577 -0.7232  0.6175 -0.3454
  711TMC3    C110561   4.034   2.011  14.821 -0.0464  0.1398  0.7247
  711TMC3    C210562   4.044   2.044  14.960 -0.7474  0.0957  0.1399
  711TMC3    C310563   4.173   2.059  15.011  0.7628  0.3199  0.1560
  711TMC3    C410564   4.138   1.989  14.738 -0.0663  0.1233  0.1658
  711TMC3    C510565   4.261   1.997  14.790 -0.2746  0.2031  0.6366
  711TMC3    C610566   4.280   2.040  14.923  0.1314 -0.4594 -0.1830
  711TMC3     C10567   3.909   2.027  14.752 -0.5603 -0.0454  0.4050
  711TMC3     O10568   3.896   1.991  14.636  0.1680 -0.2646  0.3425
  711TMC3     H10569   3.954   2.059  15.018 -0.9243  2.8119 -0.8495
  711TMC3    H110570   4.120   1.957  14.636 -3.6398  0.5280  0.6761
  711TMC3    H210571   4.383   2.065  14.948 -0.2161 -0.6028  1.4084
  711TMC3    C710572   4.353   1.880  14.789 -0.1674 -0.3721  0.0072
  711TMC3    C810573   4.185   2.047  15.150  0.3094 -0.6064  1.2184
  711TMC3    O110574   4.435   1.869  14.881 -0.9176 -0.3998 -0.0774
  711TMC3    O210575   4.086   2.067  15.223 -0.5334 -0.0926  0.1997
  712MPD2     C10576   0.590   2.887  13.999  0.0203  0.7935 -0.7461
  712MPD2    C110577   0.480   2.961  13.959  0.4380  0.5885  0.0965
  712MPD2    C210578   0.484   3.096  13.966  0.3108  0.6204 -0.0874
  712MPD2    C310579   0.593   3.162  14.014 -0.3271  0.8471 -0.4180
  712MPD2    C410580   0.709   3.096  14.043  1.0296 -0.1294  0.1081
  712MPD2    C510581   0.703   2.957  14.029  0.7016  0.1102 -0.3930
  712MPD2     H10582   0.400   3.147  13.920 -0.5603  0.2141  1.0655
  712MPD2    H110583   0.800   3.143  14.077  1.7243  0.4464 -2.5956
  712MPD2    H210584   0.597   2.780  13.988 -1.4063  0.9044 -2.6722
  712MPD2    H310585   0.793   2.907  14.062 -0.2108 -1.0250  0.3889
  712MPD2     N10586   0.591   3.301  14.033 -0.4236  0.0008  0.0038
  712MPD2    H510587   0.679   3.348  14.054  0.1452 -0.6353 -0.9097
  712MPD2    N110588   0.368   2.904  13.893  0.0728  0.1362  0.2878
  712MPD2    H710589   0.305   2.976  13.858  0.2679  0.1540 -0.0301
  713TMC3    C110590   0.538   3.524  13.965  0.4891 -0.0655 -0.8619
  713TMC3    C210591   0.656   3.536  13.898 -0.5699  0.0100  0.0310
  713TMC3    C310592   0.678   3.649  13.824 -0.8743  1.0539  0.5976
  713TMC3    C410593   0.436   3.609  13.938 -0.2912  0.4922  0.5532
  713TMC3    C510594   0.455   3.725  13.872  0.1105  0.4073  0.6470
  713TMC3    C610595   0.579   3.745  13.806 -0.5018 -0.0925 -0.1013
  713TMC3     C10596   0.493   3.387  13.984 -0.2535 -0.8514  1.1491
  713TMC3     O10597   0.380   3.362  13.953  0.6384  0.3379 -0.8066
  713TMC3     H10598   0.735   3.461  13.904 -1.3434 -0.7847  0.1989
  713TMC3    H110599   0.338   3.580  13.974 -0.7446 -1.4666 -2.1875
  713TMC3    H210600   0.592   3.834  13.746  1.2742  1.0835  2.0101
  713TMC3    C710601   0.334   3.798  13.840 -0.9496 -0.1291  0.0860
  713TMC3    C810602   0.810   3.675  13.787  0.5623  0.7746  1.1000
  713TMC3    O110603   0.332   3.855  13.730  0.3782 -0.0097 -0.3853
  713TMC3    O210604   0.830   3.706  13.668 -0.2588 -0.0862  0.4849
  714MPD2     C10605   2.948   1.245   1.548 -0.7810  0.2605 -0.1716
  714MPD2    C110606   2.905   1.159   1.445 -0.4900 -0.3489  0.5171
  714MPD2    C210607   2.791   1.194   1.373  0.2131  0.3598 -0.5070
  714MPD2    C310608   2.723   1.316   1.397 -0.5661 -0.7033  0.5293
  714MPD2    C410609   2.770   1.402   1.491  0.0898  0.3544  0.2449
  714MPD2    C510610   2.882   1.365   1.568  0.2233 -0.7928 -1.1105
  714MPD2     H10611   2.747   1.129   1.298  2.6183 -0.8593 -0.8478
  714MPD2    H110612   2.726   1.501   1.492  0.5001  0.5285  1.0998
  714MPD2    H210613   3.033   1.228   1.613  0.7297  2.4125 -1.6043
  714MPD2    H310614   2.916   1.435   1.644  1.9585 -0.3297 -2.3323
  714MPD2     N10615   2.607   1.355   1.321  0.2849  0.2657  0.0890
  714MPD2    H510616   2.562   1.442   1.348  0.8492  0.5688  0.0541
  714MPD2    N110617   2.980   1.043   1.423  0.0138 -0.5819 -0.5269
  714MPD2    H710618   3.070   1.037   1.471  0.6542 -0.8727 -1.7511
  715TMC3    C110619   3.051   0.842   1.349 -0.7893 -0.2855  0.3435
  715TMC3    C210620   3.075   0.752   1.250  0.0866 -1.0857  0.7397
  715TMC3    C310621   3.169   0.650   1.268  0.2345  0.1178 -0.1261
  715TMC3    C410622   3.123   0.835   1.466 -0.7143  0.2726 -0.1677
  715TMC3    C510623   3.217   0.732   1.475 -0.3193 -0.2341 -0.1178
  715TMC3    C610624   3.244   0.640   1.379 -0.3406  0.0201 -0.1742
  715TMC3     C10625   2.955   0.944   1.330  1.0388 -0.8136 -0.3519
  715TMC3     O10626   2.870   0.927   1.242  0.6296 -0.0683 -0.6109
  715TMC3     H10627   3.007   0.753   1.166 -1.6193 -1.7495  2.1127
  715TMC3    H110628   3.109   0.899   1.553  1.8902 -0.4685  0.8053
  715TMC3    H210629   3.308   0.555   1.401 -0.8295 -0.3519 -0.1841
  715TMC3    C710630   3.297   0.723   1.596 -0.2204  0.0655  0.3291
  715TMC3    C810631   3.224   0.598   1.145 -0.2537  0.8827 -0.4075
  715TMC3    O110632   3.409   0.680   1.573 -0.0678  0.2551  0.7824
  715TMC3    O210633   3.162   0.623   1.043  0.3135 -0.5871 -0.0869
  716MPD2     C10634   2.477   0.485   9.424  0.1187 -0.2072  0.9102
  716MPD2    C110635   2.356   0.471   9.358 -0.6199  0.1797 -0.7876
  716MPD2    C210636   2.337   0.363   9.278 -0.5389  0.1470  0.8174
  716MPD2    C310637   2.443   0.275   9.248 -0.1000  0.5258  0.2437
  716MPD2    C410638   2.556   0.284   9.327  0.7978 -0.9781 -0.9632
  716MPD2    C510639   2.573   0.387   9.413 -0.1276 -0.0635 -0.2765
  716MPD2     H10640   2.244   0.345   9.225 -0.7576  0.2220  1.1728
  716MPD2    H110641   2.625   0.201   9.331  0.7328 -1.0015 -0.3253
  716MPD2    H210642   2.477   0.575   9.485 -0.2063 -0.9394  1.9894
  716MPD2    H310643   2.660   0.396   9.477 -0.1831 -2.1615  0.0961
  716MPD2     N10644   2.427   0.177   9.146  0.4498  0.2940  0.3122
  716MPD2    H510645   2.337   0.173   9.100  0.9465 -0.6373 -0.5919
  716MPD2    N110646   2.267   0.582   9.358  0.4864 -0.0844 -0.1262
  716MPD2    H710647   2.298   0.668   9.403  0.6466  0.5589 -1.4494
  717TMC3    C110648   2.492   4.729   9.007 -0.6654 -0.7034 -0.0962
  717TMC3    C210649   2.365   4.682   9.023  0.0433 -0.3620  0.0021
  717TMC3    C310650   2.345   4.564   8.955 -0.0495  0.1533 -0.3429
  717TMC3    C410651   2.596   4.673   8.934 -1.2257  0.1176 -0.1170
  717TMC3    C510652   2.566   4.557   8.864  0.4889  0.0252 -0.4083
  717TMC3    C610653   2.443   4.500   8.877 -0.3517 -0.2080 -0.2192
  717TMC3     C10654   2.529   0.116   9.082  0.0506  0.0256 -0.3488
  717TMC3     O10655   2.649   0.146   9.089  0.1012  0.1004 -0.4160
  717TMC3     H10656   2.293   4.728   9.090  0.4394 -1.1176  0.9308
  717TMC3    H110657   2.694   4.719   8.937 -0.0447 -2.3852 -0.6932
  717TMC3    H210658   2.432   4.396   8.849  1.1407 -0.8296  1.4907
  717TMC3    C710659   2.671   4.486   8.793 -0.5552 -0.4285 -0.0294
  717TMC3    C810660   2.216   4.496   8.944 -0.1355  0.4003 -0.3843
  717TMC3    O110661   2.784   4.492   8.843 -0.2141 -0.8691 -0.0492
  717TMC3    O210662   2.130   4.551   9.009  0.3862  0.7944  0.1078
  718MPD2     C10663   1.728   2.941  12.333  0.2629 -0.1915 -0.1586
  718MPD2    C110664   1.848   2.910  12.383  0.1828 -0.7562  0.2810
  718MPD2    C210665   1.865   2.897  12.516  1.0232 -0.3264 -0.5911
  718MPD2    C310666   1.768   2.927  12.606  0.6349 -0.3068  0.4048
  718MPD2    C410667   1.645   2.957  12.558 -0.1529  0.6667 -0.5146
  718MPD2    C510668   1.628   2.966  12.425  0.6165 -0.7312 -0.5246
  718MPD2     H10669   1.956   2.870  12.569  0.5919 -1.2777 -0.3312
  718MPD2    H110670   1.558   2.974  12.620  1.1790 -0.1121  1.5848
  718MPD2    H210671   1.696   2.966  12.233  1.9276  2.5169 -0.0142
  718MPD2    H310672   1.534   2.989  12.376  1.3158 -1.5935 -2.2654
  718MPD2     N10673   1.810   2.924  12.741 -0.3518 -0.0030  0.1105
  718MPD2    H510674   1.900   2.880  12.757  0.1886  0.4245 -1.8005
  718MPD2    N110675   1.962   2.888  12.303  0.2679  0.2202  0.2641
  718MPD2    H710676   2.039   2.863  12.364  1.4061  0.6847 -0.9935
  719TMC3    C110677   2.114   2.961  12.156  0.3931 -0.2082  0.0640
  719TMC3    C210678   2.193   2.880  12.231 -0.3780  0.2785  0.0861
  719TMC3    C310679   2.289   2.945  12.304  0.5715 -0.1266  0.3206
  719TMC3    C410680   2.139   3.098  12.145 -0.1721 -0.1664 -0.1892
  719TMC3    C510681   2.233   3.158  12.221  0.0051  0.2872 -0.3953
  719TMC3    C610682   2.312   3.085  12.308  0.4297 -0.4361 -0.5780
  719TMC3     C10683   1.978   2.933  12.171  0.3064  0.0320 -0.3329
  719TMC3     O10684   1.891   2.975  12.101 -0.0105  0.6737  0.2975
  719TMC3     H10685   2.181   2.772  12.233 -1.0150  0.3511  0.2677
  719TMC3    H110686   2.061   3.158  12.099 -0.8894 -0.4385  0.6829
  719TMC3    H210687   2.370   3.136  12.384  0.3168  1.0501 -1.4902
  719TMC3    C710688   2.251   3.303  12.221  0.2802  0.4884 -0.0931
  719TMC3    C810689   2.285   2.882  12.437  0.3250 -0.1022 -0.0927
  719TMC3    O110690   2.249   3.361  12.112  0.2534  0.3334  0.4247
  719TMC3    O210691   2.190   2.800  12.453  0.8741  0.5370  0.9574
  720MPD2     C10692   0.709   4.527  13.921  0.7317 -0.3227  0.0343
  720MPD2    C110693   0.729   4.642  13.840  0.3056 -0.1167 -0.3938
  720MPD2    C210694   0.829   4.730  13.889  0.4534 -0.5919  0.0565
  720MPD2    C310695   0.877   4.716  14.020  0.0634  0.6714 -0.1108
  720MPD2    C410696   0.864   4.599  14.091  0.6663 -0.5645 -0.6278
  720MPD2    C510697   0.770   4.508  14.042  0.2353 -0.1982  0.0835
  720MPD2     H10698   0.860   0.074  13.824  1.2416 -1.6994 -0.9357
  720MPD2    H110699   0.906   4.575  14.188 -1.3279 -1.5166  0.0225
  720MPD2    H210700   0.626   4.463  13.896  0.5376 -0.4331  0.9645
  720MPD2    H310701   0.742   4.425  14.105 -0.8616  0.9035  1.0491
  720MPD2     N10702   0.957   0.088  14.070  0.1567 -0.6071 -0.4654
  720MPD2    H510703   0.977   0.164  14.006  2.5530 -0.5203  0.3892
  720MPD2    N110704   0.654   4.682  13.729  0.5556  0.5983 -0.1426
  720MPD2    H710705   0.667   0.038  13.689  1.0393  0.6602  0.1580
  721TMC3    C110706   1.056   0.216  14.239 -0.2594  0.4540  0.4042
  721TMC3    C210707   1.054   0.257  14.374  0.7593  0.8199 -0.3035
  721TMC3    C310708   1.158   0.328  14.424 -0.5912  0.3223 -0.2662
  721TMC3    C410709   1.173   0.245  14.163  0.1199  0.9954 -0.0335
  721TMC3    C510710   1.278   0.315  14.224 -0.0221 -0.4133 -0.2245
  721TMC3    C610711   1.272   0.349  14.355 -0.6937 -0.2237 -0.0924
  721TMC3     C10712   0.975   0.101  14.206  0.4978  1.0333 -0.2486
  721TMC3     O10713   0.924   0.033  14.296 -0.4485  0.1882 -0.0247
  721TMC3     H10714   0.960   0.237  14.425  0.3104 -0.8067 -1.7558
  721TMC3    H110715   1.190   0.185  14.074 -1.2005 -1.5151  1.4107
  721TMC3    H210716   1.366   0.390  14.390 -1.2139 -0.2390  1.3237
  721TMC3    C710717   1.391   0.345  14.151  0.6499  0.6284 -0.2196
  721TMC3    C810718   1.178   0.347  14.565 -0.6052  0.6195  0.2426
  721TMC3    O110719   1.483   0.397  14.207 -0.3828  0.0787  0.2314
  721TMC3    O210720   1.258   0.436  14.592 -0.2165  0.4208  0.0888
  722MPD2     C10721   3.895   3.818  13.147  0.2662 -0.0387  0.1947
  722MPD2    C110722   3.962   3.937  13.138 -0.6088  0.3126 -0.2392
  722MPD2    C210723   3.941   4.016  13.026 -0.2706  0.4726 -0.7121
  722MPD2    C310724   3.854   3.970  12.931 -1.0482  0.0209 -0.0924
  722MPD2    C410725   3.784   3.850  12.948  0.5340  0.0157 -0.1895
  722MPD2    C510726   3.802   3.783  13.059 -0.7679 -0.1893 -0.0106
  722MPD2     H10727   3.991   4.110  13.006  1.6306 -0.0178  1.7973
  722MPD2    H110728   3.712   3.809  12.878  0.4909 -2.0615  1.0827
  722MPD2    H210729   3.900   3.757  13.236  2.8979 -0.6516 -0.3663
  722MPD2    H310730   3.757   3.685  13.068 -0.2283 -0.6321 -2.1739
  722MPD2     N10731   3.829   4.047  12.816  0.5557  0.0414  0.4714
  722MPD2    H510732   3.882   4.133  12.812  0.1878  0.2196 -0.7108
  722MPD2    N110733   4.063   3.977  13.237 -0.0432 -0.6958 -0.0137
  722MPD2    H710734   4.089   4.075  13.235  1.2642 -1.0235  0.9798
  723TMC3    C110735   3.766   4.095  12.592 -0.0944  0.0151 -0.1732
  723TMC3    C210736   3.724   4.018  12.478 -0.2524  0.2556  0.3698
  723TMC3    C310737   3.644   4.073  12.382  0.2696 -0.2417  0.2136
  723TMC3    C410738   3.703   4.211  12.622 -0.0600 -0.1389 -0.4467
  723TMC3    C510739   3.618   4.265  12.524  0.5644  0.7445 -0.5902
  723TMC3    C610740   3.588   4.198  12.405 -0.0680 -0.5798  0.3110
  723TMC3     C10741   3.756   4.005  12.702  0.3616  0.3227  0.2486
  723TMC3     O10742   3.689   3.903  12.676  0.6167 -0.1814 -0.1917
  723TMC3     H10743   3.787   3.933  12.454 -0.0691  0.6261 -0.4521
  723TMC3    H110744   3.712   4.274  12.710 -0.2516 -0.2529 -0.3468
  723TMC3    H210745   3.506   4.228  12.341 -1.2372  1.2211  2.6400
  723TMC3    C710746   3.571   4.404  12.533 -0.3321  0.3312 -0.9341
  723TMC3    C810747   3.560   3.983  12.301  0.5204 -0.2745 -0.3911
  723TMC3    O110748   3.547   4.454  12.428 -0.7003 -0.0827  1.0438
  723TMC3    O210749   3.490   4.033  12.214 -0.4046 -0.5679 -0.1667
  724TMC3    C110750   0.028   1.709  10.987 -0.5010  0.2001  0.4526
  724TMC3    C210751   4.706   1.748  10.874 -0.2230  0.3668 -0.4004
  724TMC3    C310752   0.051   1.790  10.771 -0.2675  0.4575 -0.8265
  724TMC3    C410753   0.152   1.748  11.020  0.1547 -0.2810 -0.7492
  724TMC3    C510754   0.223   1.807  10.925 -0.0940  0.0483 -0.4227
  724TMC3    C610755   0.181   1.838  10.794  0.0290  0.4195 -0.0181
  724TMC3     C10756   4.696   1.613  11.076  0.4002  0.4992  0.3045
  724TMC3     O10757   4.608   1.543  11.024 -0.4510  0.0171 -0.0560
  724TMC3     H10758   4.605   1.714  10.852  0.7875 -2.1454 -1.1591
  724TMC3    H110759   0.208   1.709  11.104 -0.4139 -1.6111 -0.9863
  724TMC3    H210760   0.248   1.883  10.721 -0.8601  1.9792  0.1276
  724TMC3    C710761   0.319   1.905  10.980  0.7155  0.7495  0.0335
  724TMC3    C810762   4.714   1.859  10.675  0.1780 -0.2129  0.3094
  724TMC3    O110763   0.403   1.946  10.902 -0.4451  0.1083  0.0103
  724TMC3    O210764   4.604   1.811  10.649  0.0771 -0.3487  0.4033
  725TMC3    C110765   1.788   0.426  12.859 -0.3105  0.2222  0.9719
  725TMC3    C210766   1.657   0.462  12.826 -0.3241  0.1679  0.3030
  725TMC3    C310767   1.610   0.410  12.709 -0.1168 -0.1207 -0.2809
  725TMC3    C410768   1.862   0.331  12.787  0.1052  0.1686 -0.1231
  725TMC3    C510769   1.790   0.276  12.679  0.5618  0.1506 -0.0709
  725TMC3    C610770   1.670   0.309  12.642 -0.0341  0.5033 -0.0710
  725TMC3     C10771   1.849   0.513  12.958 -0.3389 -0.4449  0.1077
  725TMC3     O10772   1.783   0.539  13.061 -0.0220  0.2565  0.6100
  725TMC3     H10773   1.601   0.534  12.884 -0.4846 -2.1415  2.9783
  725TMC3    H110774   1.964   0.300  12.806 -0.0077 -0.5181 -0.6406
  725TMC3    H210775   1.639   0.286  12.541 -1.8229  0.5804  0.4671
  725TMC3    C710776   1.853   0.153  12.625  0.1588 -0.4075  0.5048
  725TMC3    C810777   1.490   0.459  12.646  0.3597 -0.4160  0.2385
  725TMC3    O110778   1.969   0.124  12.657 -0.0158 -0.1301 -0.0192
  725TMC3    O210779   1.437   0.400  12.554  0.7062  0.0216  0.3352
  726MPD2     C10780   4.172   2.517  10.975 -0.0024  0.2433  0.8144
  726MPD2    C110781   4.126   2.550  10.853  0.1718 -0.2422 -0.3407
  726MPD2    C210782   4.029   2.482  10.779 -0.1533  0.3096  0.5197
  726MPD2    C310783   3.971   2.374  10.844 -0.0429  0.0230 -0.3466
  726MPD2    C410784   4.013   2.339  10.968 -0.0817  0.7573 -0.0244
  726MPD2    C510785   4.112   2.409  11.027  0.1438 -0.1226 -0.0413
  726MPD2     H10786   3.999   2.511  10.679  1.9091  4.4062  1.1249
  726MPD2    H110787   3.983   2.254  11.028  1.6764  1.3585  1.6902
  726MPD2    H210788   4.253   2.565  11.028  2.0387 -0.6806 -1.4402
  726MPD2    H310789   4.140   2.369  11.123 -0.5537 -0.7708 -0.1101
  726MPD2     N10790   3.882   2.284  10.781 -0.6069  0.1185  0.2603
  726MPD2    H510791   3.840   2.209  10.835  1.0005 -0.0072  1.3514
  726MPD2    N110792   4.170   2.667  10.783  0.1416 -0.2315 -0.3086
  726MPD2    H710793   4.126   2.700  10.698 -0.5015 -1.8149 -0.5913
  727TMC3    C110794   4.282   2.872  10.743  0.3693 -0.2809 -0.4808
  727TMC3    C210795   4.387   2.952  10.772 -0.1552 -0.3904  1.2332
  727TMC3    C310796   4.421   3.054  10.687 -0.5057 -0.3432 -0.0132
  727TMC3    C410797   4.197   2.892  10.640 -0.0720  0.7005 -0.5631
  727TMC3    C510798   4.219   3.012  10.573 -0.2026  0.5088 -0.2403
  727TMC3    C610799   4.336   3.085  10.576 -0.4145 -0.4321  0.0574
  727TMC3     C10800   4.258   2.760  10.835 -0.0712 -0.2501 -0.2663
  727TMC3     O10801   4.315   2.767  10.947  0.3688  0.6033 -0.5845
  727TMC3     H10802   4.452   2.915  10.850  0.8486 -0.9248  0.1478
  727TMC3    H110803   4.114   2.831  10.606 -0.6415  0.8938  0.4784
  727TMC3    H210804   4.371   3.160  10.506 -0.8675 -0.2716  0.0036
  727TMC3    C710805   4.119   3.037  10.464 -0.2954 -0.5485  0.3888
  727TMC3    C810806   4.553   3.102  10.681  0.3367  0.2210  0.5032
  727TMC3    O110807   4.022   2.961  10.464 -0.0822  0.0815  0.2432
  727TMC3    O210808   4.627   3.056  10.765 -0.0591  0.2673 -0.2564
  728TMC3    C110809   3.145   0.933  14.778  0.1457  0.1050 -0.4180
  728TMC3    C210810   3.229   0.989  14.869  0.1457  0.5366  0.1504
  728TMC3    C310811   3.306   1.096  14.818  0.6509 -0.3371 -0.1700
  728TMC3    C410812   3.137   0.966  14.646  0.4081  0.0579 -0.4219
  728TMC3    C510813   3.230   1.055  14.606 -0.4103 -0.1965  0.1472
  728TMC3    C610814   3.316   1.129  14.687  0.3305  0.5423  0.2983
  728TMC3     C10815   3.017   0.887  14.840 -0.1102 -0.1764 -0.3273
  728TMC3     O10816   3.007   0.876  14.961 -0.5796 -0.0707 -0.3079
  728TMC3     H10817   3.229   0.969  14.976  0.2724 -1.2086 -0.1862
  728TMC3    H110818   3.076   0.914  14.574  1.9767  0.3564 -1.9796
  728TMC3    H210819   3.389   1.201  14.650 -0.3240  0.4958 -1.0873
  728TMC3    C710820   3.211   1.084  14.467 -0.4838  0.5761  0.1177
  728TMC3    C810821   3.382   1.167  14.918 -0.0296 -0.3054 -0.0888
  728TMC3    O110822   3.178   0.988  14.399 -0.3583  0.3027 -0.0662
  728TMC3    O210823   3.427   1.101  15.009  0.9497 -0.6318 -0.3310
  729MPD2     C10824   1.161   1.567  16.662 -1.0983  1.1829 -0.2467
  729MPD2    C110825   1.260   1.586  16.750  0.1385  0.3289 -0.3038
  729MPD2    C210826   1.227   1.588  16.880  0.8816  0.2958  0.2045
  729MPD2    C310827   1.093   1.563  16.917 -0.9978 -0.0099 -0.1226
  729MPD2    C410828   0.993   1.543  16.832 -0.6213  0.0965  0.3358
  729MPD2    C510829   1.033   1.543  16.702  0.0512  0.5648 -0.2802
  729MPD2     H10830   1.309   1.601  16.949  2.5401  0.9559 -1.8881
  729MPD2    H110831   0.894   1.509  16.857  0.1205 -0.4017  2.6652
  729MPD2    H210832   1.172   1.575  16.554  0.7998  0.1671 -0.1262
  729MPD2    H310833   0.958   1.535  16.625  0.2997 -2.0720 -0.2505
  729MPD2     N10834   1.061   1.579  17.053  0.0861  0.5147  0.5668
  729MPD2    H510835   0.964   1.557  17.074 -0.3694  1.6576 -0.3585
  729MPD2    N110836   1.379   1.633  16.692  0.3239  0.0401 -0.5381
  729MPD2    H710837   1.372   1.653  16.593 -1.2337  0.4636 -0.3453
  730TMC3    C110838   1.056   1.657  17.275  0.0595  0.9294  0.1991
  730TMC3    C210839   1.085   1.771  17.346 -0.5551 -0.6848  0.1466
  730TMC3    C310840   0.991   1.845  17.406  0.0396  0.4327 -0.8006
  730TMC3    C410841   0.924   1.610  17.264  0.2324  0.6208  0.4221
  730TMC3    C510842   0.834   1.680  17.341  0.2144 -0.3872 -0.3650
  730TMC3    C610843   0.865   1.792  17.413 -0.0117 -0.4215 -0.0153
  730TMC3     C10844   1.138   1.629  17.159 -0.1459 -0.2934  0.1600
  730TMC3     O10845   1.253   1.673  17.158 -0.2445 -0.1726 -0.5482
  730TMC3     H10846   1.188   1.805  17.345 -0.9140  0.3681 -1.6456
  730TMC3    H110847   0.901   1.512  17.225 -0.0499  1.4944 -1.6266
  730TMC3    H210848   0.783   1.857  17.438 -0.3987 -0.9389  0.0699
  730TMC3    C710849   0.709   1.689  17.263 -0.1734  0.3676  0.0205
  730TMC3    C810850   0.980   1.970  17.337 -0.1654  0.4297  0.0659
  730TMC3    O110851   0.727   1.670  17.143  0.5682 -0.1551 -0.1382
  730TMC3    O210852   0.990   1.973  17.213 -0.3354  0.6377  0.9770
  731MPD2     C10853   0.540   4.727  12.205 -0.6240 -0.7643 -0.5801
  731MPD2    C110854   0.651   4.728  12.292 -0.0179  0.1849 -0.3683
  731MPD2    C210855   0.633   4.691  12.424 -0.3563  0.2885  0.0594
  731MPD2    C310856   0.512   4.631  12.460 -0.3410  0.9548 -0.6142
  731MPD2    C410857   0.409   4.640  12.367  0.1057 -0.3834  0.1017
  731MPD2    C510858   0.418   4.690  12.245  0.3159 -1.0736  0.7694
  731MPD2     H10859   0.709   4.693  12.501 -0.4730  0.3150  0.1726
  731MPD2    H110860   0.309   4.602  12.385 -0.3432  1.9785  2.6468
  731MPD2    H210861   0.559   0.026  12.104 -0.1014 -2.0542 -0.9459
  731MPD2    H310862   0.340   4.699  12.170 -0.0537  0.0395  1.2809
  731MPD2     N10863   0.509   4.572  12.585  0.1603 -0.4479 -0.5699
  731MPD2    H510864   0.592   4.592  12.641 -0.6740 -0.5150  0.6735
  731MPD2    N110865   0.775   0.015  12.237 -0.8451  0.7338  0.3146
  731MPD2    H710866   0.783   0.058  12.146  0.8406 -0.3779 -0.0645
  732TMC3    C110867   1.005   0.017  12.209 -0.2831 -0.5109 -0.0646
  732TMC3    C210868   1.000   4.681  12.093 -0.9102  0.2924  0.1708
  732TMC3    C310869   1.116   4.649  12.028 -0.7681  0.6696 -0.0084
  732TMC3    C410870   1.125   0.074  12.245 -0.5485  0.5128  0.8065
  732TMC3    C510871   1.234   0.057  12.163  0.2583 -0.5167  0.2937
  732TMC3    C610872   1.239   4.713  12.057  0.3172  0.0577  0.0042
  732TMC3     C10873   0.893   0.002  12.303 -0.2907 -0.3769 -1.0293
  732TMC3     O10874   0.917   4.730  12.422 -0.3504 -0.3629  0.2593
  732TMC3     H10875   0.910   4.624  12.074 -1.0199  0.8739 -1.0507
  732TMC3    H110876   1.136   0.145  12.327 -2.5853 -1.2476  2.6103
  732TMC3    H210877   1.319   4.690  11.987 -0.0376  2.2223 -1.1202
  732TMC3    C710878   1.355   0.115  12.210 -0.0932 -0.4938  0.0284
  732TMC3    C810879   1.130   4.518  11.969 -0.5662  0.3458 -0.5212
  732TMC3    O110880   1.340   0.186  12.307 -0.3221  0.2837 -0.6210
  732TMC3    O210881   1.238   4.463  11.958 -0.0526 -0.4859  0.1809
  733TMC3    C110882   1.871   3.015  13.191  0.5691  0.1192 -0.3917
  733TMC3    C210883   1.804   3.041  13.077  0.0009 -0.3375  0.2294
  733TMC3    C310884   1.822   2.958  12.968 -0.4856 -0.7849 -0.2928
  733TMC3    C410885   1.967   2.920  13.200 -0.0483 -0.0794  0.0570
  733TMC3    C510886   1.998   2.846  13.086 -0.8656  0.3687  0.0090
  733TMC3    C610887   1.915   2.860  12.976  0.6454 -0.6288  0.9400
  733TMC3     C10888   1.805   3.062  13.314  0.4065 -0.8136  0.7225
  733TMC3     O10889   1.751   3.171  13.298  0.9415  0.4266  0.3931
  733TMC3     H10890   1.719   3.109  13.077 -1.3218 -1.9979 -0.8096
  733TMC3    H110891   2.021   2.944  13.291  1.7070 -0.7485 -0.8150
  733TMC3    H210892   1.922   2.775  12.909  2.2427 -1.5489  2.2618
  733TMC3    C710893   2.141   2.831  13.060  0.4400 -0.2588  0.3173
  733TMC3    C810894   1.740   2.976  12.851  0.5514  0.0876  0.5797
  733TMC3    O110895   2.217   2.867  13.146 -0.0089  0.2318  0.0112
  733TMC3    O210896   1.652   3.061  12.847 -0.5026 -0.6815 -0.7836
  734MPD2     C10897   3.673   0.368  12.557 -0.3456 -0.0932 -0.2129
  734MPD2    C110898   3.649   0.337  12.429  0.7798  0.5081 -0.0013
  734MPD2    C210899   3.658   0.431  12.331 -0.6808  0.1668 -0.3185
  734MPD2    C310900   3.687   0.561  12.359 -0.1612 -1.7712  0.3622
  734MPD2    C410901   3.701   0.592  12.490  0.5945 -0.1080  0.5392
  734MPD2    C510902   3.694   0.499  12.588  0.1764  0.5812  0.3588
  734MPD2     H10903   3.642   0.402  12.228 -1.1710 -2.1773  0.4157
  734MPD2    H110904   3.697   0.695  12.521  0.2777  0.2696 -0.7615
  734MPD2    H210905   3.651   0.304  12.642  0.5510 -1.0314 -0.6940
  734MPD2    H310906   3.685   0.528  12.692 -0.1276  0.1891  0.4426
  734MPD2     N10907   3.676   0.653  12.256  0.7250  0.7769  0.6814
  734MPD2    H510908   3.674   0.606  12.166  0.9860  0.3261  0.9125
  734MPD2    N110909   3.618   0.200  12.401 -1.2153 -0.4626  0.1895
  734MPD2    H710910   3.637   0.139  12.480  0.7187 -0.5601 -0.3390
  735TMC3    C110911   3.552   0.011  12.264  0.1537 -0.4307  0.4628
  735TMC3    C210912   3.464   4.724  12.164 -0.2487  0.0713  0.2062
  735TMC3    C310913   3.489   4.648  12.053 -0.3214 -0.0433 -0.5324
  735TMC3    C410914   3.668   4.686  12.265  0.1872  0.3741  0.0589
  735TMC3    C510915   3.696   4.606  12.162 -0.9687 -0.0997  0.3797
  735TMC3    C610916   3.610   4.588  12.055 -0.1229 -0.2714 -0.1139
  735TMC3     C10917   3.561   0.155  12.285 -0.5799 -0.2623  0.5811
  735TMC3     O10918   3.536   0.214  12.186 -0.3080  0.7313  0.0070
  735TMC3     H10919   3.365   0.030  12.177 -0.9846 -1.9597  1.3577
  735TMC3    H110920   3.747   4.716  12.332 -1.0772 -1.1008  2.2024
  735TMC3    H210921   3.651   4.542  11.966  2.3498 -1.0545  1.4349
  735TMC3    C710922   3.832   4.596  12.128 -0.2221  0.2422 -0.0205
  735TMC3    C810923   3.437   4.720  11.936 -0.2926  0.3288  0.0561
  735TMC3    O110924   3.904   4.695  12.143 -0.2927 -0.3742 -0.1301
  735TMC3    O210925   3.422   4.650  11.840  0.0515 -0.4364  0.2783
  736MPD2     C10926   4.016   4.302  12.018  0.0248  1.3465 -0.5153
  736MPD2    C110927   3.985   4.437  12.029 -0.2291 -0.6826  0.2542
  736MPD2    C210928   4.077   4.532  11.983  0.0615 -0.0628 -0.0660
  736MPD2    C310929   4.201   4.496  11.930 -0.5241 -0.3040 -0.0712
  736MPD2    C410930   4.236   4.360  11.929 -0.5521  1.0037 -0.4228
  736MPD2    C510931   4.142   4.267  11.977 -0.1303 -0.4241 -0.2710
  736MPD2     H10932   4.049   4.636  11.983  0.0902 -0.0336  4.2178
  736MPD2    H110933   4.330   4.329  11.883 -0.2389  1.3618 -0.0190
  736MPD2    H210934   3.939   4.232  12.048  0.1595  0.8449 -1.3480
  736MPD2    H310935   4.170   4.163  11.989 -0.0754 -0.1779  1.7462
  736MPD2     N10936   4.297   4.586  11.876 -0.0318  0.2201  0.8464
  736MPD2    H510937   4.378   4.543  11.834 -1.2203  0.5584 -1.7812
  736MPD2    N110938   3.853   4.476  12.068  0.0428 -0.1702  0.1786
  736MPD2    H710939   3.779   4.406  12.069 -1.3394  1.2287 -2.6071
  737TMC3    C110940   4.396   0.044  11.787 -0.6403  0.1657 -0.3370
  737TMC3    C210941   4.363   0.170  11.745  0.4897 -0.6454  0.0148
  737TMC3    C310942   4.387   0.207  11.618  0.5252 -0.0902 -0.5709
  737TMC3    C410943   4.479   4.700  11.711 -0.0981  0.2763 -0.3901
  737TMC3    C510944   4.507   0.011  11.586  0.6825 -0.4530  0.3004
  737TMC3    C610945   4.467   0.130  11.539  0.0456  0.1234 -0.6815
  737TMC3     C10946   4.294   4.721  11.880  0.5378  0.0666 -0.8331
  737TMC3     O10947   4.218   0.062  11.939  0.2231  0.0486  0.2669
  737TMC3     H10948   4.286   0.221  11.802  1.5090 -0.6499  1.3889
  737TMC3    H110949   4.510   4.599  11.737  0.2185  0.9169  1.6497
  737TMC3    H210950   4.495   0.162  11.439  3.2819  0.5776  0.3632
  737TMC3    C710951   4.561   4.648  11.496 -0.1200  0.1079  0.3512
  737TMC3    C810952   4.347   0.348  11.582  0.0123  0.2881  0.0288
  737TMC3    O110953   4.528   4.533  11.529  0.0388 -0.1243  0.1668
  737TMC3    O210954   4.286   0.412  11.663 -0.1933  0.5165 -0.4092
  738MPD2     C10955   4.257   4.071  14.935 -0.4684 -0.1600  0.1435
  738MPD2    C110956   4.314   3.958  14.994 -0.0470 -0.3729  0.2635
  738MPD2    C210957   4.451   3.941  14.994 -0.3276  0.0003  0.6689
  738MPD2    C310958   4.527   4.050  14.953 -0.0446  0.2155 -0.4279
  738MPD2    C410959   4.470   4.170  14.911 -0.0816  0.6821 -0.4244
  738MPD2    C510960   4.338   4.177  14.901  0.3543  0.0461  0.0690
  738MPD2     H10961   4.496   3.865  15.057  0.0854 -0.2248  0.0952
  738MPD2    H110962   4.531   4.255  14.883  1.4242 -0.0093  0.7596
  738MPD2    H210963   4.149   4.082  14.933 -0.3637  1.1970  2.1303
  738MPD2    H310964   4.294   4.268  14.861 -1.9827 -0.4358  1.5679
  738MPD2     N10965   4.671   4.065  14.963  0.1150  0.2575  0.0835
  738MPD2    H510966   4.706   4.157  14.939 -1.5184  0.4656 -1.4645
  738MPD2    N110967   4.232   3.855  15.047 -0.7657  0.2326 -0.4963
  738MPD2    H710968   4.281   3.782  15.097 -3.1754 -1.0902 -0.0845
  739TMC3    C110969   0.131   3.962  14.884  0.4197  0.0961  0.2472
  739TMC3    C210970   0.129   4.029  14.772 -0.3253  0.6504 -0.4047
  739TMC3    C310971   0.237   4.015  14.693  0.6370 -0.5759  0.2202
  739TMC3    C410972   0.233   3.882  14.928 -0.5474  0.7778  0.1159
  739TMC3    C510973   0.335   3.865  14.840  0.4202 -0.9522 -0.1462
  739TMC3    C610974   0.349   3.941  14.727 -0.0243  0.2720 -0.0293
  739TMC3     C10975   0.030   3.966  14.988 -0.4053  0.2625 -0.0321
  739TMC3     O10976   0.003   3.854  15.028 -0.5881  0.6708  0.0369
  739TMC3     H10977   0.047   4.095  14.745 -4.1449 -3.0370  2.3391
  739TMC3    H110978   0.219   3.842  15.028 -1.0021 -0.4752 -0.4473
  739TMC3    H210979   0.436   3.932  14.664  0.0675 -2.7468  0.5530
  739TMC3    C710980   0.442   3.779  14.877 -0.0710  0.5762 -0.5548
  739TMC3    C810981   0.231   4.099  14.572  0.7038  0.0007 -0.6869
  739TMC3    O110982   0.520   3.736  14.794  0.1266 -0.2197  0.3548
  739TMC3    O210983   0.119   4.135  14.544  0.1044  0.5879  0.4307
  740TMC3    C110984   0.486   0.646  14.157 -0.2989  0.2043  0.1525
  740TMC3    C210985   0.553   0.652  14.278  0.0115  0.1881 -0.4658
  740TMC3    C310986   0.686   0.607  14.287  0.0688  0.2541  0.0936
  740TMC3    C410987   0.540   0.595  14.041 -0.2047 -0.0658 -0.4018
  740TMC3    C510988   0.668   0.551  14.052  0.5140 -0.3196 -0.0613
  740TMC3    C610989   0.745   0.560  14.167  0.0254 -0.5104  0.2922
  740TMC3     C10990   0.354   0.706  14.159 -0.4936  0.0109 -0.0250
  740TMC3     O10991   0.316   0.756  14.055  0.6260 -0.5797 -0.0298
  740TMC3     H10992   0.511   0.701  14.365  1.0484 -2.3184  1.4438
  740TMC3    H110993   0.481   0.582  13.950  1.3684 -0.8249 -1.3059
  740TMC3    H210994   0.847   0.527  14.178  0.1431  1.0894  4.1037
  740TMC3    C710995   0.734   0.490  13.940 -0.2675 -0.1889  0.8580
  740TMC3    C810996   0.758   0.566  14.409  0.4924  0.3291  0.7912
  740TMC3    O110997   0.832   0.421  13.966 -0.5992  0.0790  0.3793
  740TMC3    O210998   0.828   0.464  14.417 -0.0041  0.1261  0.0613
  741TMC3    C110999   0.320   4.549  14.353  0.5044  0.3044  0.4132
  741TMC3    C211000   0.182   4.530  14.333  0.0742  0.1609  0.0335
  741TMC3    C311001   0.112   4.480  14.436  0.0345 -0.4338 -1.3308
  741TMC3    C411002   0.379   4.518  14.475 -0.4989 -0.7098 -0.4666
  741TMC3    C511003   0.297   4.482  14.581  0.4294  0.7265 -0.4470
  741TMC3    C611004   0.163   4.460  14.559 -0.0354 -0.0222 -0.4184
  741TMC3     C11005   0.403   4.609  14.252  0.4244 -0.5206 -0.1769
  741TMC3     O11006   0.521   4.612  14.279 -0.4412 -0.2748 -0.2164
  741TMC3     H11007   0.141   4.527  14.232 -1.6691  1.9782  0.6804
  741TMC3    H111008   0.478   4.548  14.507 -1.4771  1.0137  0.9791
  741TMC3    H211009   0.097   4.423  14.637  1.2255  0.0626  0.6809
  741TMC3    C711010   0.348   4.427  14.708  0.2477  0.5812 -0.4013
  741TMC3    C811011   4.713   4.450  14.402  0.7195 -0.5028  0.0437
  741TMC3    O111012   0.270   4.423  14.803 -0.5856  0.2006 -0.4614
  741TMC3    O211013   4.661   4.515  14.310  0.3093  0.0855 -0.0983
  742TMC3    C111014   0.219   3.194  15.432  0.4994 -0.3493 -0.0815
  742TMC3    C211015   0.115   3.138  15.359  0.1412 -0.0951  0.5597
  742TMC3    C311016   0.153   3.042  15.260  0.2928 -0.4963 -0.8596
  742TMC3    C411017   0.345   3.136  15.440 -0.0155  0.7500  0.1803
  742TMC3    C511018   0.365   3.030  15.353  0.5602  0.3497  0.1422
  742TMC3    C611019   0.276   2.989  15.259 -0.6251 -0.1387  0.2722
  742TMC3     C11020   0.184   3.306  15.518 -0.2937  0.0518  0.3279
  742TMC3     O11021   0.073   3.320  15.557  0.3403  0.3520 -0.1833
  742TMC3     H11022   0.023   3.194  15.349  0.3224  0.4955  2.2922
  742TMC3    H111023   0.416   3.157  15.520  0.3884  1.7078 -0.4331
  742TMC3    H211024   0.291   2.896  15.206 -1.0707 -0.9250  1.5222
  742TMC3    C711025   0.500   2.965  15.347  0.2732 -0.4046  0.5424
  742TMC3    C811026   0.066   3.005  15.155  0.2375  0.3810  0.2923
  742TMC3    O111027   0.522   2.866  15.276 -0.1585 -0.1426 -0.1405
  742TMC3    O211028   0.111   2.958  15.051  0.3920 -0.0431 -0.3255
  743MPD2     C11029   2.533   4.578   1.711 -0.3141  0.1213 -0.9936
  743MPD2    C111030   2.528   4.496   1.600 -0.3880 -0.2208  0.4385
  743MPD2    C211031   2.632   4.411   1.567 -0.1370 -0.4487  0.5297
  743MPD2    C311032   2.758   4.428   1.629 -0.2250  0.7414 -0.3199
  743MPD2    C411033   2.763   4.526   1.724  0.2385  0.2434 -0.3898
  743MPD2    C511034   2.656   4.592   1.766  0.6369 -0.4040  0.2482
  743MPD2     H11035   2.623   4.334   1.491 -2.9255  0.7905 -0.3926
  743MPD2    H111036   2.854   4.558   1.773 -0.3983  1.8387 -0.2679
  743MPD2    H211037   2.442   4.625   1.747 -0.1349  1.4970 -2.3177
  743MPD2    H311038   2.669   4.659   1.850 -1.6962 -1.2527  1.2841
  743MPD2     N11039   2.863   4.364   1.569  0.3392  0.3062  0.5038
  743MPD2    H511040   2.848   4.317   1.480  3.4705  2.9425 -1.4456
  743MPD2    N111041   2.409   4.499   1.523 -0.0697 -0.6960  0.4043
  743MPD2    H711042   2.328   4.545   1.564  0.6371  1.3063 -0.4880
  744TMC3    C111043   2.280   4.421   1.318  0.0463 -0.0068  0.1843
  744TMC3    C211044   2.165   4.437   1.386  0.0165  0.0147 -0.1725
  744TMC3    C311045   2.058   4.435   1.304  1.1965  0.1164 -0.8209
  744TMC3    C411046   2.294   4.411   1.179  0.9299 -0.5895  0.1288
  744TMC3    C511047   2.178   4.409   1.113 -0.0432 -0.1001  0.7300
  744TMC3    C611048   2.057   4.413   1.165 -0.5068 -0.2792  0.8992
  744TMC3     C11049   2.404   4.437   1.392 -0.5700 -1.0301 -0.4991
  744TMC3     O11050   2.500   4.401   1.324  0.8275 -0.1079 -0.1399
  744TMC3     H11051   2.163   4.450   1.494  0.4302 -1.2136 -0.0214
  744TMC3    H111052   2.390   4.407   1.129  0.8110  0.2157 -0.1693
  744TMC3    H211053   1.970   4.429   1.102  0.5560 -1.2968 -0.8307
  744TMC3    C711054   2.185   4.406   0.967  0.3371 -0.0645  0.2297
  744TMC3    C811055   1.934   4.486   1.358 -0.1552  1.0324 -0.2504
  744TMC3    O111056   2.296   4.437   0.924 -0.4212 -0.3675  0.0658
  744TMC3    O211057   1.826   4.450   1.306  0.1983 -0.0594 -0.6568
  745TMC3    C111058   0.248   2.770  13.761  0.0484 -0.1547 -0.6890
  745TMC3    C211059   0.124   2.764  13.822 -0.0939  1.0870  0.5946
  745TMC3    C311060   0.026   2.860  13.799 -0.0183 -0.5874 -0.1650
  745TMC3    C411061   0.272   2.876  13.681  0.4051  0.4112  0.1401
  745TMC3    C511062   0.175   2.971  13.653 -0.5641  0.2215  1.1777
  745TMC3    C611063   0.052   2.964  13.711 -0.6130 -0.0435 -0.1341
  745TMC3     C11064   0.356   2.769  13.857 -0.4039  0.0935 -0.5409
  745TMC3     O11065   0.380   2.672  13.923 -0.1233 -0.0313  0.1037
  745TMC3     H11066   0.099   2.673  13.876  2.1934 -0.9181 -1.6457
  745TMC3    H111067   0.367   2.879  13.629  1.7117  3.1581  2.6478
  745TMC3    H211068   4.707   3.034  13.697  0.3511  0.6478 -2.2374
  745TMC3    C711069   0.212   3.109  13.609 -0.1491  0.0108 -0.2313
  745TMC3    C811070   4.705   2.903  13.926 -0.1822 -0.1524 -0.0480
  745TMC3    O111071   0.123   3.186  13.567 -0.1718  0.1603 -0.3569
  745TMC3    O211072   4.619   2.992  13.919  0.5004  0.2530 -0.3867
  746TMC3    C111073   2.625   0.002  10.932 -0.2934  0.1941 -0.0238
  746TMC3    C211074   2.667   4.688  10.818  0.4993 -0.0966 -0.1086
  746TMC3    C311075   2.643   4.556  10.793 -0.2836 -0.0969  0.2974
  746TMC3    C411076   2.544   4.666  11.018  0.5307  0.3614 -0.5060
  746TMC3    C511077   2.508   4.536  10.985 -0.0525  0.2007 -0.0660
  746TMC3    C611078   2.569   4.470  10.874  0.8949  0.0112  0.0816
  746TMC3     C11079   2.653   0.134  10.957 -0.5735  0.0176 -0.0731
  746TMC3     O11080   2.575   0.186  11.033 -0.1083 -0.2753  0.0620
  746TMC3     H11081   2.724   0.015  10.750 -0.0634 -0.6302 -1.0806
  746TMC3    H111082   2.510   4.721  11.105  0.8280  0.4191 -0.4241
  746TMC3    H211083   2.545   4.369  10.843  1.9463  0.1263 -1.1255
  746TMC3    C711084   2.370   4.497  11.013  0.1496  0.0266  0.4160
  746TMC3    C811085   2.698   4.499  10.669  0.4434 -0.4174 -0.3564
  746TMC3    O111086   2.334   4.395  10.962 -0.5760  0.1190 -0.2657
  746TMC3    O211087   2.734   4.381  10.673  0.7606 -0.4155  0.2053
  747TMC3    C111088   0.317   0.087  10.598 -0.0503  0.4984 -0.4363
  747TMC3    C211089   0.288   4.714  10.674  0.1372  0.7436  0.5700
  747TMC3    C311090   0.289   4.723  10.812  0.0802  0.7434  0.2806
  747TMC3    C411091   0.330   0.214  10.646  0.4340 -0.1126  0.1654
  747TMC3    C511092   0.332   0.217  10.787  0.1610  1.0638 -0.1469
  747TMC3    C611093   0.312   0.107  10.863  0.3499  0.1980  0.0617
  747TMC3     C11094   0.267   0.088  10.458 -0.2746 -0.0979 -0.3633
  747TMC3     O11095   0.205   0.190  10.428 -0.3990  0.0918 -0.2744
  747TMC3     H11096   0.290   4.612  10.638  0.3439  1.0341 -0.2439
  747TMC3    H111097   0.349   0.303  10.588 -2.1060  1.6295  1.9857
  747TMC3    H211098   0.328   0.114  10.970 -0.3775  1.1318  0.1013
  747TMC3    C711099   0.426   0.310  10.844  0.8111  0.3386 -0.4163
  747TMC3    C811100   0.214   4.623  10.884  0.3752  0.3582 -0.8159
  747TMC3    O111101   0.398   0.427  10.839 -0.4516 -0.1223 -0.1369
  747TMC3    O211102   0.205   4.512  10.836  0.1936 -0.8918  0.5222
  748MPD2     C11103   1.566   0.172   1.320 -0.0268  0.6283  0.5944
  748MPD2    C111104   1.609   0.223   1.205 -0.0795 -0.6788 -0.1012
  748MPD2    C211105   1.728   0.293   1.199  0.1885  0.1173 -0.2065
  748MPD2    C311106   1.810   0.316   1.311  0.0630  0.4755  0.6882
  748MPD2    C411107   1.760   0.277   1.432  1.1311 -0.7476 -0.5538
  748MPD2    C511108   1.637   0.204   1.432  0.1317  0.1470  0.5465
  748MPD2     H11109   1.758   0.330   1.102  0.7778  2.0549  0.7254
  748MPD2    H111110   1.810   0.283   1.528 -1.4188  0.2693  0.6934
  748MPD2    H211111   1.470   0.122   1.321 -0.1624  0.9093  1.7191
  748MPD2    H311112   1.614   0.171   1.533  0.4507 -1.2645  0.1581
  748MPD2     N11113   1.938   0.381   1.290  0.7955 -0.5098  0.6319
  748MPD2    H511114   1.968   0.399   1.195  0.7367  1.0693  0.9038
  748MPD2    N111115   1.543   0.190   1.085 -0.2629 -0.4352 -0.3220
  748MPD2    H711116   1.467   0.124   1.101 -1.9125  1.2871 -1.0118
  749TMC3    C111117   2.155   0.484   1.354 -0.6725  0.2006 -0.3317
  749TMC3    C211118   2.241   0.507   1.458 -0.2475  0.9774 -0.3133
  749TMC3    C311119   2.371   0.541   1.429  0.2330 -0.3297  0.0088
  749TMC3    C411120   2.199   0.487   1.224 -0.0140  0.2227 -0.6070
  749TMC3    C511121   2.330   0.514   1.201  0.1464  0.5731 -0.6629
  749TMC3    C611122   2.415   0.533   1.302 -0.8107 -0.3194  0.0588
  749TMC3     C11123   2.020   0.430   1.387 -0.3027  0.3185  0.1362
  749TMC3     O11124   1.998   0.424   1.508 -0.1878 -0.2763 -0.0046
  749TMC3     H11125   2.201   0.496   1.558  2.9671 -1.9682  0.6348
  749TMC3    H111126   2.116   0.497   1.155 -0.0023  2.6622 -0.2601
  749TMC3    H211127   2.518   0.561   1.278 -1.1319  0.6837 -0.1642
  749TMC3    C711128   2.351   0.618   1.100 -0.0159 -0.5775  0.5470
  749TMC3    C811129   2.468   0.482   1.525 -0.3370  0.0094  0.1384
  749TMC3    O111130   2.408   0.724   1.125  0.2124 -0.2621 -0.1800
  749TMC3    O211131   2.443   0.511   1.640  0.3613 -0.1740 -0.4273
  750MPD2     C11132   2.831   2.091  11.373 -0.4258 -0.7158 -0.5448
  750MPD2    C111133   2.731   1.999  11.395  0.4840  0.0776 -0.9333
  750MPD2    C211134   2.745   1.869  11.350  0.0606  0.7799  0.2680
  750MPD2    C311135   2.857   1.821  11.283 -1.1567 -0.6772 -0.3802
  750MPD2    C411136   2.954   1.915  11.255 -0.8537  0.2624 -0.1821
  750MPD2    C511137   2.944   2.042  11.306  0.3514 -0.2868  0.0568
  750MPD2     H11138   2.664   1.797  11.341 -0.0728  1.0077 -0.3497
  750MPD2    H111139   3.053   1.886  11.221 -1.0890 -1.4554  0.5873
  750MPD2    H211140   2.826   2.190  11.417  1.1219 -0.3335 -1.2287
  750MPD2    H311141   3.030   2.108  11.300 -1.0145  1.6542  1.9567
  750MPD2     N11142   2.867   1.687  11.237  0.1518 -0.2440 -0.3511
  750MPD2    H511143   2.945   1.670  11.174 -1.1512  0.5839 -2.1450
  750MPD2    N111144   2.614   2.042  11.466 -0.3995 -0.4413  0.0220
  750MPD2    H711145   2.603   2.140  11.493  0.6740 -0.0605 -0.9349
  751TMC3    C111146   2.794   1.456  11.210 -0.0439 -0.2507 -0.1907
  751TMC3    C211147   2.683   1.385  11.203 -0.0933  0.2161 -0.5512
  751TMC3    C311148   2.677   1.275  11.124  0.2409 -0.6707  0.0785
  751TMC3    C411149   2.909   1.416  11.154 -0.3251 -0.3764 -0.5487
  751TMC3    C511150   2.904   1.296  11.089  0.9473  0.4635 -0.1915
  751TMC3    C611151   2.791   1.220  11.073  0.2876  0.0086 -0.7310
  751TMC3     C11152   2.790   1.581  11.291 -0.4565 -0.5061 -0.1877
  751TMC3     O11153   2.706   1.577  11.379  0.1180 -0.0847 -0.0381
  751TMC3     H11154   2.594   1.444  11.219 -0.3536 -0.7433  1.4745
  751TMC3    H111155   3.006   1.461  11.171 -1.2913  1.1080  1.1091
  751TMC3    H211156   2.789   1.123  11.024  0.0420  0.6079 -1.8919
  751TMC3    C711157   3.026   1.238  11.041 -0.7021  0.0893  0.7864
  751TMC3    C811158   2.548   1.206  11.107  0.1369 -0.0654  0.8281
  751TMC3    O111159   3.123   1.310  11.023  0.8397  1.5504 -0.2638
  751TMC3    O211160   2.556   1.109  11.030  0.4228 -0.0279 -0.5637
  752TMC3    C111161   1.400   2.247  17.513 -0.7810 -0.3786 -0.1744
  752TMC3    C211162   1.413   2.115  17.486 -0.4772 -0.3773 -0.4583
  752TMC3    C311163   1.354   2.024  17.568  1.1123 -0.1046 -0.2014
  752TMC3    C411164   1.345   2.289  17.630  0.1629  0.2403  0.1628
  752TMC3    C511165   1.296   2.193  17.710  0.3065  0.1349 -0.3635
  752TMC3    C611166   1.291   2.059  17.683  0.0540 -0.0099 -0.0603
  752TMC3     C11167   1.393   2.341  17.402  0.0189 -0.7754 -0.0573
  752TMC3     O11168   1.409   2.464  17.422  0.0715 -0.5414 -0.0970
  752TMC3     H11169   1.485   2.084  17.412  0.2039 -0.5475  0.2736
  752TMC3    H111170   1.328   2.393  17.657  1.4836  0.4144  0.3000
  752TMC3    H211171   1.252   1.986   0.009  1.3627  0.7218  1.4350
  752TMC3    C711172   1.207   2.238   0.066 -0.2104  0.0798  0.6584
  752TMC3    C811173   1.371   1.885  17.520  0.0811  0.0288 -0.3682
  752TMC3    O111174   1.166   2.353   0.052  0.0863  0.3351 -0.4115
  752TMC3    O211175   1.415   1.871  17.407 -0.7749 -0.4371 -0.2985
  753TMC3    C111176   3.363   3.043  13.109 -0.1444 -0.3389 -0.8776
  753TMC3    C211177   3.388   2.971  13.222  0.1716 -0.0542  0.5126
  753TMC3    C311178   3.328   2.848  13.229  0.1149  0.2581 -0.2298
  753TMC3    C411179   3.302   2.990  12.997 -0.1833 -0.0209 -0.3446
  753TMC3    C511180   3.268   2.859  12.997  0.7603  0.0527  0.4300
  753TMC3    C611181   3.282   2.785  13.114  0.2745 -1.5477  0.2260
  753TMC3     C11182   3.382   3.186  13.113  0.2006  0.1238 -0.0952
  753TMC3     O11183   3.316   3.262  13.044 -0.2118  0.0634  0.2893
  753TMC3     H11184   3.447   3.003  13.308  0.8678 -2.2782  0.8706
  753TMC3    H111185   3.289   3.054  12.910 -1.0969 -1.6050 -1.3842
  753TMC3    H211186   3.254   2.680  13.112  0.8547 -1.6433 -3.1321
  753TMC3    C711187   3.223   2.802  12.875  0.7767  0.1278 -0.0152
  753TMC3    C811188   3.372   2.761  13.336  0.0813 -0.0292 -0.6353
  753TMC3    O111189   3.224   2.873  12.776  0.2674  0.0883 -0.1501
  753TMC3    O211190   3.389   2.639  13.314 -0.0215  0.5706  0.3520
  754MPD2     C11191   2.376   1.687  13.120 -0.4701  0.4517 -0.2921
  754MPD2    C111192   2.380   1.555  13.106  0.9305 -0.9564  0.0552
  754MPD2    C211193   2.257   1.492  13.104 -0.0478 -0.4162 -0.7990
  754MPD2    C311194   2.134   1.560  13.104 -0.1654  0.2183  0.4462
  754MPD2    C411195   2.137   1.697  13.116  0.4674  0.0251  0.7036
  754MPD2    C511196   2.260   1.757  13.118 -0.5819  0.4663 -0.1654
  754MPD2     H11197   2.264   1.384  13.104 -0.9922 -0.4765 -1.0153
  754MPD2    H111198   2.045   1.750  13.136 -0.5274 -1.2687 -0.4391
  754MPD2    H211199   2.465   1.749  13.129  0.4923 -0.9984  0.1225
  754MPD2    H311200   2.256   1.866  13.120 -0.0068  0.5404 -2.4948
  754MPD2     N11201   2.017   1.483  13.126  0.4244  0.6751  1.0555
  754MPD2    H511202   1.926   1.522  13.150 -1.1259 -0.8162 -2.3383
  754MPD2    N111203   2.504   1.487  13.107  0.2536 -0.3157  0.5606
  754MPD2    H711204   2.585   1.547  13.096 -2.3631  2.8411 -1.3806
  755MPD2     C11205   1.410   1.339  13.851 -0.6868  0.1741 -0.6279
  755MPD2    C111206   1.382   1.364  13.718  0.1945  0.5493 -0.4215
  755MPD2    C211207   1.487   1.353  13.624 -0.1383  0.7280  0.1156
  755MPD2    C311208   1.616   1.308  13.662  0.6257  0.1162 -0.1363
  755MPD2    C411209   1.631   1.283  13.792 -0.5046 -0.9896 -0.8776
  755MPD2    C511210   1.531   1.294  13.885 -0.2362 -0.1581  0.3068
  755MPD2     H11211   1.451   1.391  13.530  0.1550  0.1774 -0.2239
  755MPD2    H111212   1.724   1.239  13.827 -0.8819 -0.9565  0.1739
  755MPD2    H211213   1.329   1.333  13.923 -1.7421  2.5242 -1.5906
  755MPD2    H311214   1.547   1.267  13.989 -0.2061 -2.3449 -0.2638
  755MPD2     N11215   1.716   1.274  13.570  0.2201 -0.2516  0.5948
  755MPD2    H511216   1.794   1.220  13.605  1.1884  1.1108  0.5395
  755MPD2    N111217   1.249   1.407  13.677  0.3956 -0.3187  0.1199
  755MPD2    H711218   1.227   1.423  13.579  1.3719  0.4403  0.0233
  756MPD2     C11219   2.188   3.033   9.636  0.2489  0.0808  0.0340
  756MPD2    C111220   2.151   2.977   9.757 -0.2549  0.0987  0.4299
  756MPD2    C211221   2.018   2.947   9.779  0.6131  0.3493 -0.1225
  756MPD2    C311222   1.930   2.958   9.672  0.6477  0.3486 -0.1877
  756MPD2    C411223   1.980   2.992   9.545 -0.1091  0.2134 -0.1640
  756MPD2    C511224   2.112   3.022   9.527  0.2010  0.1693  0.8041
  756MPD2     H11225   1.990   2.923   9.881  2.3343  0.1664  0.3008
  756MPD2    H111226   1.917   3.002   9.458  1.6862  0.1860 -1.4545
  756MPD2    H211227   2.284   3.082   9.633  0.8606 -1.1655 -0.9916
  756MPD2    H311228   2.128   3.061   9.427 -1.0184 -1.8799 -0.1835
  756MPD2     N11229   1.796   2.927   9.697 -0.5599 -0.1832 -0.2004
  756MPD2    H511230   1.776   2.883   9.787  1.7028  0.6747  0.7008
  756MPD2    N111231   2.237   2.967   9.865 -0.0341  0.3581 -0.1872
  756MPD2    H711232   2.190   2.961   9.955 -0.2346 -2.5196 -0.4638
  757MPD2     C11233   1.625   2.406  10.335 -1.1623 -0.0057 -0.2783
  757MPD2    C111234   1.730   2.422  10.251 -0.4063 -0.4141 -0.4821
  757MPD2    C211235   1.712   2.505  10.135 -0.3389  0.2803  0.2511
  757MPD2    C311236   1.582   2.558  10.099  0.3148 -0.6983 -0.2856
  757MPD2    C411237   1.476   2.526  10.183  0.9586  0.1203  0.1733
  757MPD2    C511238   1.503   2.456  10.299 -0.3026 -0.4630 -0.1550
  757MPD2     H11239   1.788   2.527  10.062 -0.2163  0.6446  0.4862
  757MPD2    H111240   1.372   2.553  10.172  0.5869 -1.9502 -1.3323
  757MPD2    H211241   1.640   2.352  10.428  0.6284 -0.0599 -0.6014
  757MPD2    H311242   1.417   2.428  10.359 -0.2166 -0.6811 -0.1345
  757MPD2     N11243   1.562   2.635   9.982  0.7973 -0.2722  0.4173
  757MPD2    H511244   1.647   2.676   9.944 -0.2975 -1.2814 -3.1227
  757MPD2    N111245   1.852   2.358  10.283 -0.1442 -0.2307 -0.5982
  757MPD2    H711246   1.845   2.283  10.351 -0.5499  1.1984  0.9172
  758MPD2     C11247   2.234   1.631  15.682  0.8512  0.6020 -0.3654
  758MPD2    C111248   2.339   1.587  15.760  0.7653 -0.1371 -0.0611
  758MPD2    C211249   2.322   1.554  15.896  0.2143 -0.3234  0.3446
  758MPD2    C311250   2.195   1.541  15.952  0.2183  0.2637 -0.4599
  758MPD2    C411251   2.095   1.602  15.877 -0.5328  0.1948  0.4806
  758MPD2    C511252   2.117   1.629  15.745  0.1360  0.3717 -0.2592
  758MPD2     H11253   2.406   1.521  15.955 -0.3848  1.6049  2.2767
  758MPD2    H111254   1.995   1.624  15.912 -0.8469 -0.9169  0.2962
  758MPD2    H211255   2.244   1.666  15.580 -0.4740  2.5354  0.1761
  758MPD2    H311256   2.029   1.658  15.688  0.8740  1.8925 -0.6390
  758MPD2     N11257   2.160   1.495  16.082 -0.4947 -0.3702  0.0195
  758MPD2    H511258   2.070   1.513  16.126  0.0321 -0.4176  1.1267
  758MPD2    N111259   2.465   1.591  15.691  0.3371  0.3066  0.3791
  758MPD2    H711260   2.463   1.627  15.596 -1.5869 -2.3282 -0.5527
  759MPD2     C11261   0.204   4.517   9.058 -0.5820  0.2599 -0.1495
  759MPD2    C111262   0.276   4.591   9.145 -0.0315 -0.1666 -0.5773
  759MPD2    C211263   0.342   4.704   9.095  0.1946 -0.5458  0.0718
  759MPD2    C311264   0.343   0.004   8.958 -0.1371 -0.2081  0.2226
  759MPD2    C411265   0.275   4.659   8.870 -0.6002  0.5245 -0.4679
  759MPD2    C511266   0.199   4.553   8.924 -0.2800  0.1654 -0.1182
  759MPD2     H11267   0.397   0.024   9.169 -2.0041 -0.3502  1.5506
  759MPD2    H111268   0.253   4.691   8.769  0.3818  1.3382 -0.4140
  759MPD2    H211269   0.139   4.434   9.085  2.1424 -1.2363  1.7663
  759MPD2    H311270   0.143   4.500   8.848  1.7231 -1.8053 -0.2057
  759MPD2     N11271   0.405   0.122   8.907 -0.1847  0.0102  0.6322
  759MPD2    H511272   0.437   0.194   8.972 -0.9746  0.4371  0.5459
  759MPD2    N111273   0.268   4.567   9.287  0.7351  0.0916 -0.2202
  759MPD2    H711274   0.317   4.636   9.343  1.2809 -1.4330  1.1428
  760MPD2     C11275   0.682   1.889  12.338 -0.5534  0.1165 -0.1363
  760MPD2    C111276   0.816   1.904  12.319  0.0069  0.1830 -0.0215
  760MPD2    C211277   0.899   1.800  12.331  0.1224  0.2047  0.1787
  760MPD2    C311278   0.850   1.678  12.367 -0.1106 -0.3155  0.3833
  760MPD2    C411279   0.712   1.657  12.386 -0.6165 -0.6192  0.1456
  760MPD2    C511280   0.627   1.763  12.364  0.7319 -0.1343  1.0944
  760MPD2     H11281   1.008   1.804  12.323 -0.1942 -0.6246 -4.5785
  760MPD2    H111282   0.671   1.561  12.414  2.4597 -1.9598  0.0262
  760MPD2    H211283   0.608   1.965  12.315 -0.4817  0.5624  1.1369
  760MPD2    H311284   0.522   1.737  12.362  0.6482  0.2697  0.2677
  760MPD2     N11285   0.944   1.586  12.409 -0.3124 -0.1731  0.1993
  760MPD2    H511286   1.039   1.614  12.391 -0.8450  2.3912  1.3492
  760MPD2    N111287   0.875   2.026  12.279 -0.2116 -0.6890  0.0459
  760MPD2    H711288   0.972   2.032  12.249 -0.9476  1.8306 -1.8207
  761MPD2     C11289   2.047   1.129  11.170 -0.5646 -0.5218 -0.2201
  761MPD2    C111290   2.147   1.055  11.104 -0.1706  0.3771  0.1999
  761MPD2    C211291   2.273   1.103  11.097  0.1854  0.2257 -0.3256
  761MPD2    C311292   2.311   1.217  11.163 -0.7865  0.3034  0.0292
  761MPD2    C411293   2.214   1.285  11.234  0.8391  0.4768 -0.2540
  761MPD2    C511294   2.086   1.239  11.235  0.9229 -0.6177 -0.7777
  761MPD2     H11295   2.344   1.040  11.045  0.4425  0.5751 -0.4017
  761MPD2    H111296   2.241   1.368  11.298  1.0165  1.6360 -1.8144
  761MPD2    H211297   1.950   1.080  11.172 -0.4176 -0.8511 -1.1753
  761MPD2    H311298   2.017   1.298  11.294  1.1976 -0.8402 -0.2356
  761MPD2     N11299   2.441   1.260  11.175 -0.5602  0.3653  0.0388
  761MPD2    H511300   2.455   1.347  11.225 -0.3882  0.9215 -0.9755
  761MPD2    N111301   2.099   0.941  11.041 -0.0522 -0.0813 -0.8915
  761MPD2    H711302   2.003   0.914  11.063 -0.3958  0.2130 -2.0190
  762MPD2     C11303   2.000   0.301  10.356  0.6645 -0.3413 -0.4040
  762MPD2    C111304   2.095   0.371  10.419  0.1791 -0.4968 -0.5611
  762MPD2    C211305   2.219   0.394  10.350  0.0426  0.3570  0.3024
  762MPD2    C311306   2.241   0.332  10.231 -0.3231 -0.1028  0.1223
  762MPD2    C411307   2.149   0.242  10.176  0.2648 -0.0613  0.1041
  762MPD2    C511308   2.030   0.237  10.238  0.1073  0.4948 -0.5157
  762MPD2     H11309   2.297   0.456  10.394  1.5785 -2.6716  1.8752
  762MPD2    H111310   2.157   0.187  10.082  0.2532  0.5874 -0.2761
  762MPD2    H211311   1.901   0.297  10.400  1.1668 -1.6177  0.6037
  762MPD2    H311312   1.950   0.195  10.177 -2.2478  2.4697  1.1772
  762MPD2     N11313   2.356   0.363  10.155 -0.4428 -0.5679 -0.0063
  762MPD2    H511314   2.427   0.416  10.205 -0.6516  0.6799 -1.0143
  762MPD2    N111315   2.065   0.429  10.545  0.1682  0.2014  0.2843
  762MPD2    H711316   1.968   0.413  10.571  0.3095 -0.4108  0.4335
  763MPD2     C11317   4.330   1.154  16.008 -0.1697  0.3043 -0.7353
  763MPD2    C111318   4.224   1.231  15.974  0.1119  0.1721  0.3219
  763MPD2    C211319   4.203   1.359  16.036 -0.4209 -0.1230 -0.5254
  763MPD2    C311320   4.286   1.398  16.144  0.4576 -0.7625 -0.2822
  763MPD2    C411321   4.396   1.317  16.175 -0.2617  0.0261  0.2818
  763MPD2    C511322   4.415   1.198  16.108  0.6785 -0.2476 -0.2970
  763MPD2     H11323   4.115   1.416  16.009 -1.0600 -1.9269 -2.2095
  763MPD2    H111324   4.475   1.337  16.246 -2.3692  3.0386  1.7447
  763MPD2    H211325   4.357   1.060  15.961  0.4344  1.1903 -2.1518
  763MPD2    H311326   4.494   1.129  16.135 -1.1439 -2.2245  0.0107
  763MPD2     N11327   4.281   1.513  16.216 -0.0642  0.5992 -0.2048
  763MPD2    H511328   4.368   1.547  16.257 -0.3031 -0.9852  1.5873
  763MPD2    N111329   4.136   1.185  15.869  0.6312  0.0469  0.1708
  763MPD2    H711330   4.071   1.254  15.831 -0.3773 -0.2090  1.4150
  764MPD2     C11331   2.361   2.543  17.461  0.7550  0.0547  0.0970
  764MPD2    C111332   2.227   2.514  17.444  0.3470 -0.0079 -0.1865
  764MPD2    C211333   2.164   2.430  17.532 -0.7132  0.2672  0.3977
  764MPD2    C311334   2.229   2.373  17.638  0.2716  0.0855 -0.6372
  764MPD2    C411335   2.369   2.399  17.649 -0.9102 -0.0984 -0.2727
  764MPD2    C511336   2.429   2.481  17.562  0.2661  0.0179  0.4235
  764MPD2     H11337   2.057   2.422  17.519 -0.6623  0.9328 -0.4643
  764MPD2    H111338   2.436   2.342  17.711  0.5436  0.5839 -1.2212
  764MPD2    H211339   2.415   2.602  17.389  1.5080 -0.4173  0.2800
  764MPD2    H311340   2.536   2.498  17.559  0.7135 -2.8310  0.9055
  764MPD2     N11341   2.149   2.306  17.736  0.2012  0.3237  0.2780
  764MPD2    H511342   2.049   2.321  17.725  0.1169  0.4067  1.1681
  764MPD2    N111343   2.153   2.563  17.338  0.3149  0.2713  0.2915
  764MPD2    H711344   2.062   2.522  17.316  1.4216 -3.1692  2.0840
  765MPD2     C11345   1.990   0.593  15.783 -0.0658  0.1498  0.1932
  765MPD2    C111346   2.002   0.679  15.679  0.4314  0.2626  0.1126
  765MPD2    C211347   2.082   0.649  15.564 -0.3155  0.6919 -0.5493
  765MPD2    C311348   2.151   0.527  15.571 -0.3918  0.1810  0.7080
  765MPD2    C411349   2.143   0.441  15.686  0.0857  0.1525  0.1798
  765MPD2    C511350   2.055   0.475  15.786  0.0879 -0.1470  0.1640
  765MPD2     H11351   2.089   0.717  15.479 -1.1566  0.6322 -0.6693
  765MPD2    H111352   2.200   0.349  15.697 -0.8856 -0.6669 -1.7364
  765MPD2    H211353   1.936   0.616  15.874 -1.5123 -0.5656 -0.4987
  765MPD2    H311354   2.046   0.418  15.878 -0.4975  0.2458  0.3457
  765MPD2     N11355   2.238   0.491  15.470  0.2193 -0.6130  0.0010
  765MPD2    H511356   2.233   0.537  15.379 -1.9286 -1.7281 -0.4582
  765MPD2    N111357   1.939   0.803  15.687  0.8916 -0.5545 -0.1121
  765MPD2    H711358   1.871   0.804  15.763 -1.0300  2.5504 -1.8667
  766MPD2     C11359   1.361   0.855  15.263  0.3062 -0.2227  0.0954
  766MPD2    C111360   1.498   0.850  15.278  0.2002 -0.0273  0.0783
  766MPD2    C211361   1.576   0.795  15.185  0.2487 -0.7406 -0.5384
  766MPD2    C311362   1.519   0.738  15.070 -0.2313 -0.0034  0.3816
  766MPD2    C411363   1.383   0.737  15.057  0.1716 -0.3127  0.1428
  766MPD2    C511364   1.308   0.797  15.156  0.3364 -0.5191 -0.0946
  766MPD2     H11365   1.684   0.804  15.195  0.1779 -1.0368  0.4946
  766MPD2    H111366   1.340   0.701  14.964  0.4882  3.0690 -1.3151
  766MPD2    H211367   1.297   0.902  15.337 -1.9142 -1.3964 -1.0742
  766MPD2    H311368   1.201   0.811  15.143  0.2391  1.2428  2.4909
  766MPD2     N11369   1.591   0.708  14.954  0.0141  0.5468  0.4839
  766MPD2    H511370   1.542   0.681  14.869 -0.5146 -1.8190  1.5602
  766MPD2    N111371   1.573   0.921  15.378  0.0667  0.7401 -0.0279
  766MPD2    H711372   1.672   0.934  15.361  0.2098  0.5043  0.6171
  767MPD2     C11373   1.148   0.826  14.831 -0.2255  0.6179  0.3407
  767MPD2    C111374   1.259   0.891  14.771 -0.5168  0.3979 -0.5624
  767MPD2    C211375   1.297   0.854  14.643  0.1399 -0.8309  0.3511
  767MPD2    C311376   1.223   0.774  14.560  0.2740 -0.1773 -0.1723
  767MPD2    C411377   1.112   0.716  14.617 -0.5998  0.1093  0.0275
  767MPD2    C511378   1.081   0.737  14.752 -0.0254  0.2231  0.6510
  767MPD2     H11379   1.380   0.909  14.599 -1.0974  1.0607  0.3583
  767MPD2    H111380   1.054   0.637  14.570 -0.3339  1.2734 -2.2691
  767MPD2    H211381   1.118   0.851  14.932 -2.8373  0.9034 -0.5238
  767MPD2    H311382   0.999   0.686  14.802  1.0397 -0.4690  1.7104
  767MPD2     N11383   1.268   0.740  14.428  0.3855  0.5036  0.3026
  767MPD2    H511384   1.367   0.757  14.416  0.3298  1.3910  1.0609
  767MPD2    N111385   1.330   0.979  14.857  0.0892 -0.5950  0.3482
  767MPD2    H711386   1.301   0.990  14.954 -1.4850 -3.0515  0.1608
  768MPD2     C11387   2.177   4.383  10.507  0.3603 -0.0335 -0.3797
  768MPD2    C111388   2.116   4.291  10.587  0.1531 -0.8862  0.4720
  768MPD2    C211389   2.190   4.196  10.649  0.1294 -0.1212 -0.4859
  768MPD2    C311390   2.329   4.199  10.640 -0.0206 -0.1227 -0.1191
  768MPD2    C411391   2.391   4.300  10.568  0.6608 -0.1275  0.0464
  768MPD2    C511392   2.317   4.389  10.502 -0.2133  0.5999  0.3631
  768MPD2     H11393   2.150   4.117  10.711  0.6236  0.5574  0.7108
  768MPD2    H111394   2.499   4.311  10.562  0.6919 -0.1780  0.4692
  768MPD2    H211395   2.129   4.466  10.458  0.8262  0.3621 -0.1651
  768MPD2    H311396   2.366   4.471  10.450  0.4721  0.6385  1.0749
  768MPD2     N11397   2.416   4.114  10.710 -0.0434  0.0619 -0.8727
  768MPD2    H511398   2.514   4.122  10.688 -0.5483  1.3284 -2.6999
  768MPD2    N111399   1.976   4.298  10.615 -0.0314 -0.1904  0.5217
  768MPD2    H711400   1.948   4.251  10.700 -3.8960  0.3262 -0.4772
  769MPD2     C11401   3.315   2.024  15.016 -0.3896  0.3521 -0.0631
  769MPD2    C111402   3.205   2.091  15.055  0.2752  0.0289 -0.0756
  769MPD2    C211403   3.215   2.198  15.139  0.2985  0.5872  0.3185
  769MPD2    C311404   3.341   2.234  15.185  0.4610 -0.3370 -0.0563
  769MPD2    C411405   3.456   2.168  15.139  0.2154 -0.5962 -0.4547
  769MPD2    C511406   3.440   2.057  15.059  0.3232  0.9091 -0.1127
  769MPD2     H11407   3.132   2.256  15.178 -1.6006 -0.6481 -1.8698
  769MPD2    H111408   3.554   2.210  15.163 -0.6766  1.4741 -0.4368
  769MPD2    H211409   3.298   1.945  14.943 -2.0854  0.1120  0.5766
  769MPD2    H311410   3.526   2.002  15.020 -1.4933 -1.6502 -0.4790
  769MPD2     N11411   3.338   2.328  15.281 -0.5795 -0.3246  0.5066
  769MPD2    H511412   3.242   2.339  15.312 -1.3585 -1.8215 -1.3700
  769MPD2    N111413   3.080   2.055  14.997 -0.1220  0.1261 -0.4229
  769MPD2    H711414   3.093   1.982  14.927  0.4237 -1.2859  1.1574
  770MPD2     C11415   2.778   1.539  14.226  0.3847 -0.0024  0.4352
  770MPD2    C111416   2.687   1.519  14.334 -0.4337  0.1489  0.2678
  770MPD2    C211417   2.678   1.612  14.437 -0.2018  0.0125 -0.0601
  770MPD2    C311418   2.762   1.723  14.441 -1.1131  0.0252  0.4257
  770MPD2    C411419   2.857   1.739  14.337 -0.1511 -0.6447 -0.3501
  770MPD2    C511420   2.855   1.649  14.233  0.4438 -0.8412  0.3960
  770MPD2     H11421   2.602   1.606  14.515 -0.6408  1.7566 -0.3531
  770MPD2    H111422   2.922   1.825  14.338 -0.0790 -0.7494  2.2897
  770MPD2    H211423   2.789   1.466  14.147  0.8422  1.9796 -1.3202
  770MPD2    H311424   2.920   1.670  14.149 -0.2607 -1.1780 -0.2388
  770MPD2     N11425   2.747   1.807  14.551  0.4185  0.2434 -0.0063
  770MPD2    H511426   2.657   1.814  14.597  0.8285  2.8514  0.3777
  770MPD2    N111427   2.618   1.388  14.339 -0.7153 -0.1115  0.5625
  770MPD2    H711428   2.653   1.303  14.296  0.4622  0.7687 -0.1851
  771MPD2     C11429   3.802   4.551  13.748 -0.0223 -0.0932  0.1467
  771MPD2    C111430   3.812   4.655  13.662  0.4683 -0.2043  0.7657
  771MPD2    C211431   3.710   4.679  13.577 -0.3226  0.0033  0.1901
  771MPD2    C311432   3.595   4.609  13.568  0.4632  0.1002  0.8945
  771MPD2    C411433   3.589   4.497  13.650 -0.2587 -0.2045 -0.2565
  771MPD2    C511434   3.688   4.475  13.741  0.6762 -0.2781 -1.5969
  771MPD2     H11435   3.719   0.026  13.509  0.2546 -0.8860 -0.8235
  771MPD2    H111436   3.509   4.425  13.652 -1.4470  1.0998 -1.1100
  771MPD2    H211437   3.885   4.532  13.815  1.0209  2.4947 -0.4252
  771MPD2    H311438   3.678   4.396  13.814  0.1585  1.1921 -0.0472
  771MPD2     N11439   3.501   4.652  13.475 -0.3338 -0.4436 -0.4382
  771MPD2    H511440   3.523   0.005  13.432 -1.2240 -0.0745 -0.1219
  771MPD2    N111441   3.920   0.011  13.653  0.5006 -0.2297  0.3598
  771MPD2    H711442   3.890   0.092  13.600  0.6293 -0.1365  0.4293
  772MPD2     C11443   3.822   0.699  13.617 -0.2659 -0.0002 -0.3289
  772MPD2    C111444   3.796   0.583  13.694  0.8442 -0.0429 -0.5085
  772MPD2    C211445   3.671   0.568  13.748  0.0929  0.4238  0.1218
  772MPD2    C311446   3.575   0.665  13.737 -0.3036 -0.6847 -0.0603
  772MPD2    C411447   3.608   0.788  13.688 -0.6041  0.3587  0.3484
  772MPD2    C511448   3.734   0.806  13.621 -0.1387 -0.3937  0.0073
  772MPD2     H11449   3.643   0.471  13.789 -0.8093  0.2853 -0.8073
  772MPD2    H111450   3.531   0.864  13.676 -0.1091  0.4008 -2.7016
  772MPD2    H211451   3.913   0.727  13.565 -1.4196  0.0685 -2.2708
  772MPD2    H311452   3.748   0.901  13.571 -0.0123  0.6822  2.0996
  772MPD2     N11453   3.447   0.649  13.792  0.2754  0.1624  0.4762
  772MPD2    H511454   3.395   0.736  13.796 -0.1247 -0.2056  3.1980
  772MPD2    N111455   3.884   0.478  13.716 -0.3072  0.0256 -0.0994
  772MPD2    H711456   3.836   0.393  13.743  0.9657 -0.5142  0.4505
  773MPD2     C11457   2.768   1.202  17.604 -0.0213  0.6414  0.0623
  773MPD2    C111458   2.795   1.145  17.483  0.3950 -0.3295  0.0140
  773MPD2    C211459   2.793   1.009  17.467  0.2955 -0.2375 -0.6332
  773MPD2    C311460   2.773   0.931  17.580 -0.2008  0.2335  0.6402
  773MPD2    C411461   2.755   0.991  17.699 -0.1144  0.0920  0.5093
  773MPD2    C511462   2.743   1.123  17.714  0.3417  0.7612 -0.0753
  773MPD2     H11463   2.796   0.963  17.368 -0.8258  1.6472 -1.5556
  773MPD2    H111464   2.717   0.941   0.043 -0.1022  0.9369  0.9910
  773MPD2    H211465   2.780   1.309  17.617  0.8474  0.8291 -2.3989
  773MPD2    H311466   2.723   1.165   0.067 -0.4184  1.6315 -0.6080
  773MPD2     N11467   2.805   0.793  17.563  0.3131 -0.6296  0.5119
  773MPD2    H511468   2.836   0.767  17.470 -1.2802 -0.8353  0.0312
  773MPD2    N111469   2.817   1.220  17.364  0.4154  0.0273  0.5053
  773MPD2    H711470   2.808   1.173  17.274 -0.6506  1.3922 -0.1064
  774MPD2     C11471   2.359   0.609  13.364 -0.8771  0.2869  0.8669
  774MPD2    C111472   2.342   0.726  13.440  0.3951  0.0397  0.0229
  774MPD2    C211473   2.425   0.832  13.421  0.0114 -0.3103 -0.1957
  774MPD2    C311474   2.507   0.829  13.311  0.4912 -0.3749  0.4853
  774MPD2    C411475   2.526   0.715  13.236  0.7227 -0.8059 -0.3022
  774MPD2    C511476   2.451   0.600  13.265 -0.0340 -0.2836 -0.1376
  774MPD2     H11477   2.417   0.924  13.478 -3.0396 -0.5386 -0.2471
  774MPD2    H111478   2.601   0.700  13.159 -1.1630 -0.3856 -2.2258
  774MPD2    H211479   2.312   0.516  13.396  1.0378 -0.8232  0.4434
  774MPD2    H311480   2.481   0.508  13.217 -1.9672 -0.8582 -0.2584
  774MPD2     N11481   2.569   0.946  13.274 -0.7424  0.0770  0.7459
  774MPD2    H511482   2.555   1.023  13.339 -0.2776  0.5164  0.3231
  774MPD2    N111483   2.248   0.728  13.552 -0.0981  0.0440  0.8686
  774MPD2    H711484   2.198   0.641  13.567 -0.9767  0.4332  0.2299
  775MPD2     C11485   3.437   1.975  15.632  0.1428 -1.1457 -0.6802
  775MPD2    C111486   3.485   2.081  15.710  0.5646 -0.1549 -0.0378
  775MPD2    C211487   3.582   2.160  15.649  0.9104 -0.1200  0.2815
  775MPD2    C311488   3.622   2.146  15.519  0.8067  0.1676 -0.6600
  775MPD2    C411489   3.561   2.051  15.445  0.3203 -0.2310  0.3011
  775MPD2    C511490   3.465   1.970  15.497 -0.6922 -0.0719 -0.2192
  775MPD2     H11491   3.626   2.243  15.703  2.3572 -0.8002  0.1496
  775MPD2    H111492   3.584   2.042  15.340 -1.2093  0.3146 -0.0919
  775MPD2    H211493   3.370   1.905  15.681  0.0931 -2.3479 -2.4883
  775MPD2    H311494   3.416   1.897  15.432  0.9574 -1.0628 -0.3429
  775MPD2     N11495   3.718   2.226  15.458 -0.3956 -0.1708  0.4102
  775MPD2    H511496   3.731   2.208  15.359 -0.3868 -0.6946  0.5077
  775MPD2    N111497   3.441   2.087  15.840  0.0896 -0.0622  0.3868
  775MPD2    H711498   3.360   2.036  15.874  0.0666 -0.1045  0.2670
  776MPD2     C11499   2.635   2.547  11.767 -0.4090  0.2013  0.9227
  776MPD2    C111500   2.514   2.546  11.697  0.1611  0.0577 -0.7862
  776MPD2    C211501   2.460   2.663  11.646 -0.9447  0.2960  0.1166
  776MPD2    C311502   2.542   2.786  11.643  0.4877  0.2540 -0.6614
  776MPD2    C411503   2.661   2.784  11.711 -0.3358 -0.3296  0.6800
  776MPD2    C511504   2.706   2.667  11.769  0.3452 -0.2504  0.0290
  776MPD2     H11505   2.364   2.664  11.596 -0.0663 -0.5946 -1.5844
  776MPD2    H111506   2.723   2.872  11.700 -0.0165 -0.6241  0.0908
  776MPD2    H211507   2.677   2.462  11.819  1.0184 -0.3198 -1.0982
  776MPD2    H311508   2.810   2.663  11.800  0.3329  1.8736  0.3411
  776MPD2     N11509   2.505   2.905  11.571  0.1206 -0.2550 -0.1329
  776MPD2    H511510   2.585   2.967  11.567 -0.1465  0.2493  2.5752
  776MPD2    N111511   2.458   2.424  11.669  0.4418  0.4419 -0.3294
  776MPD2    H711512   2.519   2.346  11.690 -0.9413 -0.5873 -0.0977
  777MPD2     C11513   3.191   4.680   0.612  0.0867  0.0999  0.1075
  777MPD2    C111514   3.093   4.606   0.677 -0.9548  0.0936  0.2775
  777MPD2    C211515   2.977   4.574   0.605  0.1752  0.4030  0.7067
  777MPD2    C311516   2.954   4.606   0.467  0.8218  0.5824 -0.2286
  777MPD2    C411517   3.059   4.679   0.403 -0.0673  0.5424  1.0137
  777MPD2    C511518   3.166   4.710   0.481  0.2105  0.1680  0.3966
  777MPD2     H11519   2.898   4.517   0.652 -0.1753 -0.7027 -1.2111
  777MPD2    H111520   3.056   4.716   0.301 -0.7814  0.3142  0.9516
  777MPD2    H211521   3.275   4.729   0.660 -0.0213  1.3916 -1.0370
  777MPD2    H311522   3.227   0.051   0.437  0.7053  0.4354  1.5670
  777MPD2     N11523   2.832   4.559   0.414 -0.2836  0.1001  0.2952
  777MPD2    H511524   2.781   4.494   0.473 -0.0373  0.3451  0.7678
  777MPD2    N111525   3.115   4.584   0.815  0.4849  0.3653  0.1005
  777MPD2    H711526   3.204   4.602   0.861 -0.1171 -1.0042  1.8228
  778MPD2     C11527   4.034   0.348  14.761  0.2709  0.3889 -0.1780
  778MPD2    C111528   4.054   0.224  14.703  0.3048 -0.0400  0.0006
  778MPD2    C211529   4.151   0.217  14.599  0.7555 -0.4244  0.5612
  778MPD2    C311530   4.209   0.325  14.550 -0.3538 -0.1522  0.1354
  778MPD2    C411531   4.176   0.454  14.599  0.2074 -0.0272  0.3773
  778MPD2    C511532   4.092   0.461  14.708 -0.0146 -0.7104 -0.0342
  778MPD2     H11533   4.170   0.119  14.558 -2.3934 -1.4119  1.3932
  778MPD2    H111534   4.223   0.545  14.565 -1.0200  0.1951 -0.7494
  778MPD2    H211535   3.977   0.361  14.852  1.0851  1.4646  0.1784
  778MPD2    H311536   4.081   0.553  14.764  0.1171 -0.3830 -0.5457
  778MPD2     N11537   4.298   0.306  14.441  0.1096 -0.6668  0.2309
  778MPD2    H511538   4.311   0.208  14.416 -0.6271 -0.4674 -0.9493
  778MPD2    N111539   3.986   0.107  14.757  0.2827 -0.0582 -0.4596
  778MPD2    H711540   3.959   0.027  14.701 -0.3074 -0.1805  0.0128
  779MPD2     C11541   3.622   3.803  13.873  0.8069  0.0453  0.4617
  779MPD2    C111542   3.706   3.766  13.979  0.4682 -0.0691  1.0763
  779MPD2    C211543   3.774   3.869  14.036  0.0685  0.0299 -0.3217
  779MPD2    C311544   3.755   4.002  13.993  0.1253 -0.3785  0.1278
  779MPD2    C411545   3.671   4.030  13.890 -0.3148 -0.8823  0.1737
  779MPD2    C511546   3.603   3.929  13.831  0.0860  0.1548  0.1565
  779MPD2     H11547   3.844   3.838  14.113 -1.3856 -3.0471 -0.2635
  779MPD2    H111548   3.664   4.123  13.835  0.9989 -1.5981 -1.1863
  779MPD2    H211549   3.558   3.727  13.829  1.2485 -0.3119  0.4313
  779MPD2    H311550   3.534   3.933  13.747 -0.2054  2.6619  0.5388
  779MPD2     N11551   3.822   4.113  14.057 -0.0291 -1.1026 -0.6218
  779MPD2    H511552   3.896   4.088  14.121 -0.7273 -2.6641 -0.4271
  779MPD2    N111553   3.714   3.631  14.030  1.2675 -0.0582  0.5150
  779MPD2    H711554   3.759   3.607  14.118 -0.9383  2.1291  2.2475
  780MPD2     C11555   2.621   3.589   0.765  0.2440 -0.4533 -0.5397
  780MPD2    C111556   2.561   3.521   0.667  0.4924 -0.2575  0.5278
  780MPD2    C211557   2.605   3.542   0.535  0.0039  0.2354  0.9100
  780MPD2    C311558   2.706   3.629   0.503 -0.0926  0.8023 -0.1795
  780MPD2    C411559   2.776   3.684   0.609  0.4978  0.1298 -0.0734
  780MPD2    C511560   2.730   3.669   0.738 -0.2949 -0.3746 -0.3764
  780MPD2     H11561   2.552   3.488   0.457 -1.1379  0.7837  1.3174
  780MPD2    H111562   2.861   3.750   0.593  0.7061 -0.3829 -1.0965
  780MPD2    H211563   2.593   3.584   0.870  0.7915 -0.2633 -0.3831
  780MPD2    H311564   2.786   3.729   0.809  0.2262 -1.3795  0.0562
  780MPD2     N11565   2.740   3.649   0.367  0.4223  0.1777  1.0007
  780MPD2    H511566   2.683   3.595   0.304  0.2549  0.8804  0.5511
  780MPD2    N111567   2.475   3.416   0.707 -0.1449 -0.3510 -0.8907
  780MPD2    H711568   2.462   3.391   0.804  0.4087  2.3691 -0.0980
  781MPD2     C11569   4.671   0.839  11.900  0.4629 -0.5811  0.3084
  781MPD2    C111570   4.732   0.720  11.861 -0.2567 -0.3104 -0.4721
  781MPD2    C211571   0.068   0.723  11.736  0.3368 -0.3681 -0.1117
  781MPD2    C311572   0.084   0.842  11.664 -0.4610 -0.8243 -0.0847
  781MPD2    C411573   0.018   0.959  11.705 -0.2135  0.1023 -0.0644
  781MPD2    C511574   4.682   0.952  11.819  0.4221  0.3919  0.8068
  781MPD2     H11575   0.124   0.638  11.699  0.2140 -0.8465  0.8102
  781MPD2    H111576   0.022   1.050  11.646 -0.7971 -0.1669 -0.5211
  781MPD2    H211577   4.610   0.844  11.989 -0.5000  1.3225 -0.4690
  781MPD2    H311578   4.629   1.036  11.863 -2.2625 -1.2694  0.7454
  781MPD2     N11579   0.171   0.860  11.553 -0.0039 -0.4708  0.8201
  781MPD2    H511580   0.173   0.955  11.517  1.1505  0.0582  2.2792
  781MPD2    N111581   0.003   0.601  11.936 -0.1106 -0.1703  0.0770
  781MPD2    H711582   0.039   0.521  11.885  0.1390 -0.8954  1.3819
  782MPD2     C11583   3.717   1.503  10.201 -0.3589  0.3566 -0.4186
  782MPD2    C111584   3.667   1.486  10.322 -0.3510 -0.6126  0.5995
  782MPD2    C211585   3.610   1.590  10.392  0.1995  0.2395 -0.0170
  782MPD2    C311586   3.622   1.717  10.340  0.6660 -0.0094  0.2460
  782MPD2    C411587   3.662   1.733  10.211 -0.2593 -0.1882 -0.0611
  782MPD2    C511588   3.719   1.630  10.144  0.5470 -1.3594  0.6462
  782MPD2     H11589   3.574   1.575  10.493 -1.0438 -1.8851 -0.7843
  782MPD2    H111590   3.641   1.824  10.155  0.3990  1.0551  1.7229
  782MPD2    H211591   3.778   1.426  10.155  0.8835  1.8938 -1.3488
  782MPD2    H311592   3.756   1.645  10.043 -0.4719 -1.2437  0.2874
  782MPD2     N11593   3.591   1.820  10.418 -0.2303  0.3169  0.0299
  782MPD2    H511594   3.550   1.793  10.507  0.7910 -1.0541  0.0864
  782MPD2    N111595   3.685   1.350  10.380 -0.1147  0.4750  0.3025
  782MPD2    H711596   3.746   1.292  10.323 -0.4127 -0.0335  0.5030
  783MPD2     C11597   3.122   0.888  11.046  0.3121 -0.5239  0.0380
  783MPD2    C111598   3.132   1.016  11.012  0.1044 -0.2895 -0.4238
  783MPD2    C211599   3.257   1.059  10.959  0.1567 -0.2171  0.0235
  783MPD2    C311600   3.358   0.971  10.920 -1.1034 -0.3808  0.1557
  783MPD2    C411601   3.341   0.839  10.955  0.4121 -0.2906  0.6790
  783MPD2    C511602   3.222   0.798  11.018 -0.0035 -0.7582  0.0144
  783MPD2     H11603   3.271   1.159  10.919 -1.5863 -0.2864 -0.7763
  783MPD2    H111604   3.417   0.766  10.928  1.3592  1.4481 -1.3727
  783MPD2    H211605   3.035   0.845  11.094  0.0117 -0.7423 -0.7035
  783MPD2    H311606   3.206   0.695  11.047 -1.8317  0.2743  2.5860
  783MPD2     N11607   3.463   1.022  10.844 -0.1280 -0.3304  0.1065
  783MPD2    H511608   3.453   1.120  10.822 -2.2045 -0.5082  0.3022
  783MPD2    N111609   3.023   1.100  11.038  0.5522 -0.3603  0.1843
  783MPD2    H711610   2.944   1.045  11.070  0.0613 -0.6350 -1.4531
  784MPD2     C11611   0.671   1.542   0.397 -0.5154  0.0350  0.4970
  784MPD2    C111612   0.685   1.618   0.515 -0.1108  0.0736  0.5334
  784MPD2    C211613   0.576   1.696   0.560 -0.1018 -0.6927  0.0298
  784MPD2    C311614   0.456   1.711   0.486 -0.1256  0.3993 -0.2335
  784MPD2    C411615   0.454   1.626   0.374 -0.9012  0.0059  0.2963
  784MPD2    C511616   0.554   1.547   0.330 -0.4702 -0.2576 -0.5218
  784MPD2     H11617   0.581   1.746   0.656  0.4274 -1.6749  0.5153
  784MPD2    H111618   0.372   1.630   0.303 -1.0502  0.6357  0.5067
  784MPD2    H211619   0.751   1.477   0.362 -0.5617 -0.1863  0.7973
  784MPD2    H311620   0.544   1.488   0.240 -0.4741 -0.4561 -0.3922
  784MPD2     N11621   0.350   1.795   0.531 -0.3731 -0.2553  0.2838
  784MPD2    H511622   0.367   1.868   0.600  1.0197 -1.1463  0.9072
  784MPD2    N111623   0.805   1.608   0.587 -0.5956  0.4831 -0.0482
  784MPD2    H711624   0.820   1.667   0.669  0.7903 -1.8899  1.4232
  785MPD2     C11625   0.959   0.710  10.973  0.9186 -0.4307  0.0322
  785MPD2    C111626   0.826   0.749  10.961  0.2105 -0.9034  0.0351
  785MPD2    C211627   0.747   0.687  10.867  0.5065 -0.0239 -0.0695
  785MPD2    C311628   0.798   0.581  10.783  0.3809 -0.0168  0.6750
  785MPD2    C411629   0.937   0.546  10.797  0.7730 -0.0601  0.0616
  785MPD2    C511630   1.007   0.602  10.896 -0.4657 -0.2821 -0.2635
  785MPD2     H11631   0.641   0.705  10.858  0.2098  0.5030  4.6147
  785MPD2    H111632   0.984   0.465  10.742  1.5548 -0.0079  0.6450
  785MPD2    H211633   1.033   0.748  11.043  0.2976  0.0001  0.4637
  785MPD2    H311634   1.110   0.571  10.908 -1.1838 -2.7886 -0.6874
  785MPD2     N11635   0.720   0.536  10.677 -0.9385 -0.3600  0.1930
  785MPD2    H511636   0.630   0.582  10.666  0.3130  2.1210  0.4620
  785MPD2    N111637   0.783   0.862  11.035  0.0766 -0.5840 -0.4567
  785MPD2    H711638   0.851   0.910  11.092 -0.6573  1.4928 -1.3226
  786MPD2     C11639   4.340   3.011  14.914  0.1663 -0.1036 -0.2185
  786MPD2    C111640   4.468   2.995  14.862 -0.4957 -0.2193 -1.1032
  786MPD2    C211641   4.581   3.005  14.946 -0.2129 -0.1791  0.1514
  786MPD2    C311642   4.566   3.026  15.083 -0.9789 -0.0392 -0.2354
  786MPD2    C411643   4.436   3.039  15.133  0.3563 -0.5703 -0.4097
  786MPD2    C511644   4.327   3.028  15.048 -0.9655  0.5935 -0.3702
  786MPD2     H11645   4.682   2.995  14.909  0.0949  0.7283  0.7455
  786MPD2    H111646   4.410   3.070  15.233  1.9845  2.1360 -0.8061
  786MPD2    H211647   4.249   2.996  14.858 -0.2544  1.0067  0.1723
  786MPD2    H311648   4.226   3.019  15.085 -0.1377 -0.1411  1.6727
  786MPD2     N11649   4.674   3.038  15.175  0.4837  0.6723 -0.2995
  786MPD2    H511650   4.648   3.053  15.272 -1.8419 -2.2359 -0.4829
  786MPD2    N111651   4.487   2.970  14.719  0.0962  0.5909  0.3651
  786MPD2    H711652   4.579   2.979  14.677  0.1367 -1.8357 -0.0660
  787MPD2     C11653   0.088   2.446  14.669 -0.5824 -0.2875 -0.2881
  787MPD2    C111654   0.049   2.470  14.539 -0.1148  0.1527  0.7869
  787MPD2    C211655   0.090   2.384  14.441 -0.4403 -0.1674 -0.7574
  787MPD2    C311656   0.149   2.263  14.477  0.4228 -0.0207 -0.0293
  787MPD2    C411657   0.185   2.251  14.610  0.4608 -0.6278  0.9270
  787MPD2    C511658   0.164   2.346  14.699 -0.2348  0.2901  0.8324
  787MPD2     H11659   0.064   2.398  14.336 -3.9807  1.1236  0.3112
  787MPD2    H111660   0.240   2.165  14.647 -1.6438 -1.7043  1.5245
  787MPD2    H211661   0.067   2.519  14.748  1.2710  0.4606 -0.4984
  787MPD2    H311662   0.207   2.336  14.799  1.7959 -0.0066 -0.0611
  787MPD2     N11663   0.179   2.168  14.377 -0.0434 -0.6329  0.4344
  787MPD2    H511664   0.185   2.211  14.286  0.9275  1.3906  1.4459
  787MPD2    N111665   4.713   2.584  14.509  0.5264 -0.2670  0.2710
  787MPD2    H711666   4.686   2.640  14.589 -1.0287 -2.6341  1.3845
  788MPD2     C11667   1.542   1.208   0.981 -0.3745 -0.1561 -0.0758
  788MPD2    C111668   1.493   1.181   0.856  0.3867 -0.1768 -0.4834
  788MPD2    C211669   1.483   1.281   0.759 -0.5670  0.5698  0.2204
  788MPD2    C311670   1.512   1.411   0.790 -0.6516 -0.6204  0.2791
  788MPD2    C411671   1.548   1.439   0.916  0.1485 -0.3093  0.7167
  788MPD2    C511672   1.561   1.337   1.013 -0.9676 -0.5641  0.0258
  788MPD2     H11673   1.440   1.260   0.662 -1.2040  0.8711  0.4385
  788MPD2    H111674   1.573   1.541   0.945 -1.0515 -0.0719  0.9079
  788MPD2    H211675   1.547   1.134   1.059 -1.5494  0.2646  0.3909
  788MPD2    H311676   1.589   1.355   1.116  1.7198  0.4608 -0.8920
  788MPD2     N11677   1.494   1.511   0.693  0.2839  0.3434 -0.3180
  788MPD2    H511678   1.466   1.483   0.599  2.4529  1.6916 -1.3590
  788MPD2    N111679   1.466   1.052   0.822 -0.1368 -0.9804  0.2938
  788MPD2    H711680   1.457   1.035   0.722 -2.5017  0.2602  0.3188
  789MPD2     C11681   2.008   1.021  16.501 -0.1530 -0.1319  0.0072
  789MPD2    C111682   1.961   0.938  16.598  0.3093  0.0022  0.5319
  789MPD2    C211683   1.835   0.958  16.652  0.0338 -0.0791  0.2821
  789MPD2    C311684   1.762   1.061  16.607  0.0948 -0.0339  0.7003
  789MPD2    C411685   1.815   1.148  16.507  0.3098 -0.6201 -0.2702
  789MPD2    C511686   1.940   1.127  16.455 -0.0654 -0.1904  0.3386
  789MPD2     H11687   1.804   0.889  16.730  0.1419  0.2351  0.6064
  789MPD2    H111688   1.754   1.229  16.468 -0.9043 -1.3228  0.1684
  789MPD2    H211689   2.105   0.993  16.463 -1.3897 -0.2299 -3.1163
  789MPD2    H311690   1.984   1.202  16.390 -0.2527 -0.3473  0.0320
  789MPD2     N11691   1.631   1.087  16.652 -0.0729  0.7813 -0.0339
  789MPD2    H511692   1.585   1.164  16.605 -2.2035  1.0900  2.5997
  789MPD2    N111693   2.035   0.822  16.644 -0.4814  0.0417  0.3149
  789MPD2    H711694   1.992   0.767  16.718 -0.0093 -0.6451  0.0704
  790MPD2     C11695   2.983   2.854  13.316  0.9566 -0.5964  0.2439
  790MPD2    C111696   2.998   2.716  13.300 -0.1958  0.2413  0.2324
  790MPD2    C211697   2.961   2.659  13.183  0.5160 -0.2984 -0.0870
  790MPD2    C311698   2.900   2.730  13.081 -0.1723  0.3889  0.1278
  790MPD2    C411699   2.885   2.864  13.095  1.2309 -0.3165  0.2658
  790MPD2    C511700   2.933   2.928  13.210  0.7317 -0.0061 -0.1912
  790MPD2     H11701   2.967   2.552  13.167  0.1755 -0.1592 -1.1748
  790MPD2    H111702   2.839   2.928  13.021  0.1871 -0.6348  0.6333
  790MPD2    H211703   2.999   2.905  13.411 -3.3972  2.8808 -0.8844
  790MPD2    H311704   2.910   3.033  13.225  1.6689  0.3152 -1.0459
  790MPD2     N11705   2.854   2.666  12.965 -0.1482 -0.0001  0.2152
  790MPD2    H511706   2.833   2.566  12.964  1.6902 -0.3951  0.2751
  790MPD2    N111707   3.070   2.666  13.411 -0.1007 -0.3047  0.2127
  790MPD2    H711708   3.088   2.732  13.486  1.9777  2.0670 -2.3419
  791MPD2     C11709   2.491   2.230  13.034  0.9848 -0.1131 -0.4535
  791MPD2    C111710   2.468   2.253  12.900 -0.0048  0.1968 -0.0904
  791MPD2    C211711   2.355   2.201  12.844  0.3551  0.1178  0.0196
  791MPD2    C311712   2.262   2.129  12.926  0.6593  0.0246  0.1738
  791MPD2    C411713   2.286   2.121  13.068 -0.2085 -0.7136 -0.5909
  791MPD2    C511714   2.409   2.150  13.109  0.4093 -0.8958 -0.1343
  791MPD2     H11715   2.350   2.193  12.736  0.1316  1.1393 -0.0413
  791MPD2    H111716   2.235   2.066  13.147 -0.5564 -0.1906 -0.4504
  791MPD2    H211717   2.581   2.275  13.074  0.7236 -0.9962  1.1398
  791MPD2    H311718   2.425   2.123  13.213  1.3807 -0.3003 -0.1374
  791MPD2     N11719   2.156   2.060  12.860 -0.0068 -0.4032 -0.5014
  791MPD2    H511720   2.164   2.055  12.759 -1.4350  0.2196 -0.6367
  791MPD2    N111721   2.565   2.320  12.826 -0.2546 -0.5005 -0.0923
  791MPD2    H711722   2.645   2.341  12.884 -0.2687 -0.6460 -0.0222
  792MPD2     C11723   2.958   2.754  10.995  0.3853  0.4107 -0.2870
  792MPD2    C111724   2.876   2.812  10.901 -0.2388  0.5469  0.1846
  792MPD2    C211725   2.740   2.820  10.931 -0.6237  0.6821  0.6146
  792MPD2    C311726   2.693   2.764  11.051  0.8041  0.7200 -0.0404
  792MPD2    C411727   2.780   2.698  11.134 -0.3276 -0.4092 -0.1406
  792MPD2    C511728   2.911   2.690  11.102  0.0354 -0.6983  0.0850
  792MPD2     H11729   2.671   2.857  10.856 -1.4754 -2.7407 -0.3132
  792MPD2    H111730   2.747   2.654  11.227 -2.5424  1.7207  0.0705
  792MPD2    H211731   3.059   2.721  10.971  0.1268  0.5848 -1.6035
  792MPD2    H311732   2.986   2.644  11.166  1.3444  0.7375 -0.4214
  792MPD2     N11733   2.561   2.768  11.090 -0.2747  0.3557  0.5836
  792MPD2    H511734   2.537   2.731  11.182 -0.8233 -0.3269  0.1648
  792MPD2    N111735   2.933   2.840  10.777 -0.2295  0.0432  0.8854
  792MPD2    H711736   3.033   2.836  10.759 -0.7052 -2.4364 -1.2564
  793MPD2     C11737   2.005   3.104  10.482 -0.0805  0.2477 -0.1175
  793MPD2    C111738   2.125   3.044  10.501 -1.0361  0.4855  0.5121
  793MPD2    C211739   2.151   2.989  10.623 -0.7043  0.4295 -0.5331
  793MPD2    C311740   2.059   2.974  10.720  0.7154 -0.9259 -0.0840
  793MPD2    C411741   1.937   3.026  10.694  0.0836 -0.3462  0.3007
  793MPD2    C511742   1.911   3.097  10.578  0.6697  0.3789 -0.1873
  793MPD2     H11743   2.249   2.953  10.649 -0.9092  0.7393  0.6888
  793MPD2    H111744   1.859   3.032  10.769  0.8811  1.8806  0.9633
  793MPD2    H211745   1.972   3.161  10.396  0.6727  1.2377  0.2406
  793MPD2    H311746   1.825   3.162  10.584  0.1113 -0.4189  0.4581
  793MPD2     N11747   2.097   2.915  10.840  0.3449  0.0681 -0.3184
  793MPD2    H511748   2.195   2.890  10.853  0.3420  0.4594  0.5106
  793MPD2    N111749   2.228   3.038  10.403 -0.1744 -0.4951 -0.6730
  793MPD2    H711750   2.308   2.982  10.431 -0.5601 -0.7454 -0.0792
  794MPD2     C11751   2.723   1.293  16.586 -0.1848 -0.0878  0.0862
  794MPD2    C111752   2.671   1.385  16.669 -0.6848  0.3049  0.4334
  794MPD2    C211753   2.603   1.493  16.612  0.1984  0.0732  0.3319
  794MPD2    C311754   2.579   1.510  16.480  0.0453  0.2241  0.4009
  794MPD2    C411755   2.642   1.426  16.395 -0.3171  0.8806 -0.1423
  794MPD2    C511756   2.716   1.317  16.448  0.4030 -0.1083 -0.0421
  794MPD2     H11757   2.565   1.570  16.677 -0.7104 -2.1671  2.4650
  794MPD2    H111758   2.632   1.435  16.287  0.9746 -1.4348 -0.4552
  794MPD2    H211759   2.775   1.207  16.626 -1.0504 -0.7750 -0.2613
  794MPD2    H311760   2.760   1.246  16.379  2.5971  2.2261 -1.0491
  794MPD2     N11761   2.498   1.608  16.415 -0.5717  0.1012 -0.0891
  794MPD2    H511762   2.507   1.620  16.315 -3.7892 -0.5093 -0.4500
  794MPD2    N111763   2.657   1.373  16.811  0.2132  0.3164 -0.0258
  794MPD2    H711764   2.592   1.441  16.851 -0.4100 -0.8542  0.9518
  795MPD2     C11765   4.568   3.868  13.947 -0.8617 -0.6111  0.5386
  795MPD2    C111766   4.634   3.879  13.827 -0.2969 -0.3816 -0.5529
  795MPD2    C211767   0.036   3.870  13.821 -0.1382 -1.0661  0.1717
  795MPD2    C311768   0.104   3.827  13.934  0.1061  0.0652 -0.5330
  795MPD2    C411769   0.039   3.817  14.055  0.5260 -0.0701 -0.0523
  795MPD2    C511770   4.637   3.839  14.064  0.4842  0.4136  1.0452
  795MPD2     H11771   0.083   3.881  13.724  1.2271  1.7974  1.1595
  795MPD2    H111772   0.096   3.785  14.142  0.2561 -1.1106 -0.2545
  795MPD2    H211773   4.461   3.885  13.953 -0.4343  1.9258  1.0427
  795MPD2    H311774   4.577   3.838  14.154 -1.6318  1.9912 -0.3453
  795MPD2     N11775   0.239   3.786  13.939 -0.1112 -0.2429  0.0386
  795MPD2    H511776   0.261   3.741  14.027 -2.4944  0.4924  1.0423
  795MPD2    N111777   4.560   3.909  13.715 -0.3469  0.1962  0.3102
  795MPD2    H711778   4.597   3.958  13.635  0.4751  1.2603  1.3639
  796MPD2     C11779   4.384   0.543  15.915  0.1771 -0.2140 -0.3696
  796MPD2    C111780   4.487   0.601  15.986 -0.6933  0.0298 -0.8285
  796MPD2    C211781   4.521   0.730  15.953  0.6720  1.2257 -0.7112
  796MPD2    C311782   4.455   0.799  15.852  0.4278 -0.5519  0.2354
  796MPD2    C411783   4.353   0.741  15.782 -0.3506  0.0435 -0.0148
  796MPD2    C511784   4.314   0.619  15.826 -0.4124  0.6417  0.8675
  796MPD2     H11785   4.598   0.786  16.004 -0.6553  1.1151  1.4204
  796MPD2    H111786   4.303   0.786  15.697  2.5044  2.0468 -0.6430
  796MPD2    H211787   4.350   0.445  15.946  2.4470 -0.1954  2.2247
  796MPD2    H311788   4.228   0.570  15.784  0.5659 -0.9727  0.7612
  796MPD2     N11789   4.520   0.924  15.814 -0.3758  0.1104 -0.5309
  796MPD2    H511790   4.585   0.967  15.879 -1.2377 -0.0329  0.4409
  796MPD2    N111791   4.547   0.530  16.091  0.4855  0.5181  0.7340
  796MPD2    H711792   4.521   0.436  16.116 -2.3597  1.0665 -0.2551
  797MPD2     C11793   0.736   0.196  17.529 -0.3940 -0.2508 -0.0213
  797MPD2    C111794   0.804   0.313  17.558  0.5313  0.2148 -0.8724
  797MPD2    C211795   0.751   0.428  17.521 -0.0219  0.2446  0.5071
  797MPD2    C311796   0.631   0.437  17.451 -0.3777  0.4266  0.7005
  797MPD2    C411797   0.571   0.323  17.412  0.3296 -0.0109 -0.0539
  797MPD2    C511798   0.625   0.204  17.452 -0.3494  0.1892  0.4484
  797MPD2     H11799   0.799   0.523  17.539  1.2028 -0.5964  1.6412
  797MPD2    H111800   0.475   0.320  17.361  0.8380  0.2087 -1.0254
  797MPD2    H211801   0.767   0.096  17.556  0.7638  0.1819  0.2322
  797MPD2    H311802   0.582   0.112  17.414  0.1059  0.4289 -0.6460
  797MPD2     N11803   0.591   0.566  17.415 -0.0383 -0.1503  0.0418
  797MPD2    H511804   0.657   0.640  17.435  0.6921 -0.1017 -2.6136
  797MPD2    N111805   0.930   0.313  17.612 -0.2430 -0.5831  0.6099
  797MPD2    H711806   0.957   0.409  17.632  0.0524 -0.6647  0.5881
  798MPD2     C11807   1.162   0.892  17.340 -0.4316 -1.2613  0.6616
  798MPD2    C111808   1.048   0.841  17.396  0.2347  0.3441  0.4888
  798MPD2    C211809   1.057   0.760  17.511  0.3263 -0.5483  0.7399
  798MPD2    C311810   1.184   0.722  17.558 -0.1030 -0.4263  0.5827
  798MPD2    C411811   1.302   0.768  17.499  0.2142 -1.2770 -0.4684
  798MPD2    C511812   1.283   0.847  17.387  0.5663  0.3915 -0.1315
  798MPD2     H11813   0.967   0.737  17.567  0.8056 -2.2148  0.7960
  798MPD2    H111814   1.401   0.729  17.521  0.4329 -0.1913  0.4585
  798MPD2    H211815   1.160   0.959  17.255  1.9246 -0.8079  0.9739
  798MPD2    H311816   1.366   0.888  17.331  1.9791 -0.4391  1.3399
  798MPD2     N11817   1.197   0.626  17.654  0.3805 -0.4406 -0.0871
  798MPD2    H511818   1.114   0.599  17.706  0.2198  0.6199  0.2188
  798MPD2    N111819   0.923   0.874  17.335 -0.3039 -0.0797 -0.1112
  798MPD2    H711820   0.924   0.919  17.244  2.0169 -0.4116 -0.2445
  799MPD2     C11821   4.526   2.188  14.440  0.3800 -0.3361  0.0573
  799MPD2    C111822   4.529   2.074  14.356 -0.4417  0.7539 -0.2180
  799MPD2    C211823   4.494   2.085  14.225 -0.1465 -0.1199 -0.4352
  799MPD2    C311824   4.450   2.213  14.176 -0.4902  0.2442 -0.5063
  799MPD2    C411825   4.448   2.324  14.257 -0.0271  0.1852  0.7728
  799MPD2    C511826   4.487   2.311  14.389 -0.5913  0.2366  0.1685
  799MPD2     H11827   4.503   1.989  14.175 -2.2286 -0.9001  0.6776
  799MPD2    H111828   4.432   2.422  14.215 -0.7674 -0.0104  0.6110
  799MPD2    H211829   4.561   2.175  14.542 -0.6723  3.4739  0.9143
  799MPD2    H311830   4.497   2.397  14.455 -0.6263 -0.5605  1.2222
  799MPD2     N11831   4.409   2.226  14.047 -0.1100  0.1050 -0.4319
  799MPD2    H511832   4.374   2.317  14.020  2.4044  1.9208  2.4029
  799MPD2    N111833   4.579   1.945  14.394 -0.1102 -0.1209  0.2483
  799MPD2    H711834   4.560   1.874  14.325 -1.9820  1.3812 -0.7771
  800MPD2     C11835   0.077   3.080  14.383  0.5052 -0.4350 -0.9005
  800MPD2    C111836   0.184   3.008  14.339 -0.6527  0.0477 -0.1295
  800MPD2    C211837   0.174   2.929  14.225 -0.1501 -0.2854  0.0844
  800MPD2    C311838   0.055   2.926  14.158  0.1599 -0.2377 -0.4325
  800MPD2    C411839   4.685   2.995  14.210  0.1164  0.5570  0.2949
  800MPD2    C511840   4.693   3.065  14.325 -0.2378 -0.1054 -0.1052
  800MPD2     H11841   0.263   2.878  14.189  0.5545  1.1872 -0.2231
  800MPD2    H111842   4.588   2.991  14.163  0.4596 -2.0320 -0.1959
  800MPD2    H211843   0.092   3.145  14.468  0.8848  0.6628 -1.7993
  800MPD2    H311844   4.610   3.132  14.347 -0.1410  0.7212 -2.2050
  800MPD2     N11845   0.049   2.864  14.032  0.3139  0.1724 -0.3896
  800MPD2    H511846   0.130   2.804  14.021  0.8209  0.2186  3.0973
  800MPD2    N111847   0.311   3.038  14.403  0.4003  0.2029  0.2456
  800MPD2    H711848   0.314   3.112  14.473 -4.7600  1.3043 -0.6889
  801MPD2     C11849   0.479   3.667  14.296  0.6528  0.6540  0.3244
  801MPD2    C111850   0.422   3.578  14.393 -0.2712  0.3100  0.2662
  801MPD2    C211851   0.295   3.601  14.438  0.1924 -0.2870  0.1036
  801MPD2    C311852   0.240   3.725  14.409 -0.1529  0.3957 -0.4437
  801MPD2    C411853   0.293   3.808  14.311  0.3006 -0.4493  0.0784
  801MPD2    C511854   0.411   3.778  14.264 -0.0238  0.3396 -0.2092
  801MPD2     H11855   0.239   3.531  14.498 -1.1497 -0.7975 -1.7452
  801MPD2    H111856   0.239   3.897  14.283  1.8059  0.9947  1.7501
  801MPD2    H211857   0.574   3.650  14.247  0.2950  0.0578 -0.1591
  801MPD2    H311858   0.463   3.850  14.202  1.4904  0.8403  1.6510
  801MPD2     N11859   0.112   3.758  14.466  0.4471 -0.2567 -0.3353
  801MPD2    H511860   0.058   3.834  14.426 -0.6969  0.2692  2.2324
  801MPD2    N111861   0.493   3.464  14.437 -0.0903  0.0185 -0.0777
  801MPD2    H711862   0.436   3.398  14.489  1.0893  0.2642  1.5178
  802MPD2     C11863   4.071   4.092   0.326 -0.3252 -0.0344 -0.2706
  802MPD2    C111864   4.066   4.151   0.207 -0.3038 -0.4983 -0.0419
  802MPD2    C211865   4.158   4.108   0.105  0.5677  0.1202  0.5478
  802MPD2    C311866   4.245   4.003   0.125  0.2427 -0.7909  0.0452
  802MPD2    C411867   4.262   3.949   0.256  0.1678  0.2744 -0.0278
  802MPD2    C511868   4.178   4.005   0.353 -0.4135 -1.0026  0.4987
  802MPD2     H11869   4.162   4.153   0.006 -0.2231 -0.8298  0.0791
  802MPD2    H111870   4.326   3.865   0.284 -1.1736 -1.2302 -1.4823
  802MPD2    H211871   4.017   4.123   0.415  0.6693  2.2599 -0.4592
  802MPD2    H311872   4.177   3.979   0.458 -2.8464  0.3810  0.8200
  802MPD2     N11873   4.327   3.965   0.011  0.1133 -0.2410  0.8498
  802MPD2    H511874   4.320   4.019  17.670  0.6130 -1.1598  0.2376
  802MPD2    N111875   3.961   4.247   0.180 -0.4317  0.4821 -0.0231
  802MPD2    H711876   3.897   4.267   0.257 -0.4944  2.6685 -0.6517
  803MPD2     C11877   0.984   2.583  12.442 -0.2656  0.2774  0.1736
  803MPD2    C111878   1.068   2.489  12.489  0.0434 -0.0538 -0.2111
  803MPD2    C211879   1.016   2.382  12.554  0.5706 -0.4538 -0.8152
  803MPD2    C311880   0.877   2.366  12.567 -0.0694 -0.5543 -0.1668
  803MPD2    C411881   0.791   2.449  12.500 -0.3888 -0.1169  0.3765
  803MPD2    C511882   0.843   2.565  12.448 -0.4858 -0.0290 -0.1768
  803MPD2     H11883   1.087   2.306  12.586  0.9096  0.5296  0.7793
  803MPD2    H111884   0.683   2.441  12.507 -0.3602 -0.0617  0.9215
  803MPD2    H211885   1.024   2.669  12.389  0.5112 -1.8332 -2.6122
  803MPD2    H311886   0.772   2.641  12.419 -1.2516 -0.6810 -0.0002
  803MPD2     N11887   0.818   2.260  12.648 -0.7612  0.6478  0.6748
  803MPD2    H511888   0.720   2.269  12.675  0.0211 -0.1030  3.7399
  803MPD2    N111889   1.208   2.510  12.488 -0.0239 -0.1530  0.1409
  803MPD2    H711890   1.264   2.456  12.553 -0.1731 -0.6696 -0.1586
  804MPD2     C11891   0.251   3.374  16.640  0.1516  0.0219  0.5849
  804MPD2    C111892   0.216   3.357  16.775 -0.3732 -0.2028  0.1456
  804MPD2    C211893   0.245   3.462  16.865 -0.0862 -0.5812  0.3078
  804MPD2    C311894   0.315   3.572  16.820  0.1737  0.1894  0.9578
  804MPD2    C411895   0.337   3.595  16.681 -0.2121 -0.2176  0.0834
  804MPD2    C511896   0.303   3.494  16.591  0.1995  0.6162 -0.5962
  804MPD2     H11897   0.214   3.451  16.968 -1.3771  0.7133  0.0426
  804MPD2    H111898   0.367   3.692  16.642  0.8259 -1.0747 -1.2347
  804MPD2    H211899   0.241   3.293  16.568  0.8633 -0.1571  0.6903
  804MPD2    H311900   0.324   3.509  16.486  0.3663  1.6398 -0.4171
  804MPD2     N11901   0.349   3.672  16.912 -0.2454 -0.1951  0.0201
  804MPD2    H511902   0.301   3.670  17.002  0.4098  0.1926  0.3717
  804MPD2    N111903   0.152   3.237  16.827 -0.2254  0.4655  0.2057
  804MPD2    H711904   0.122   3.237  16.924 -1.2380  2.3018 -0.1024
  805MPD2     C11905   4.263   1.919  15.409  0.1628 -0.4113 -0.5755
  805MPD2    C111906   4.357   1.951  15.314  0.5977  0.3165  0.2040
  805MPD2    C211907   4.485   1.923  15.336  0.0306  0.2344  0.4619
  805MPD2    C311908   4.529   1.867  15.448  0.2343 -0.4655 -0.7580
  805MPD2    C411909   4.434   1.823  15.546  0.3157  0.4939  0.0666
  805MPD2    C511910   4.304   1.857  15.531 -0.2766 -0.4288 -0.3675
  805MPD2     H11911   4.556   1.952  15.259 -2.3679 -0.5252 -2.0218
  805MPD2    H111912   4.467   1.765  15.632 -0.3236  1.6622  1.0926
  805MPD2    H211913   4.157   1.931  15.392  0.5694  1.2055 -1.9337
  805MPD2    H311914   4.230   1.833  15.607 -0.0691 -0.2210 -0.0995
  805MPD2     N11915   4.671   1.868  15.468 -0.0908  0.7757  0.8191
  805MPD2    H511916   4.730   1.915  15.400  0.4619 -1.0598  0.0283
  805MPD2    N111917   4.318   2.012  15.189  0.0490  0.7220 -0.0495
  805MPD2    H711918   4.387   2.013  15.115 -0.5601 -0.9401 -0.6552
  806MPD2     C11919   4.105   1.682   0.847  0.0199 -0.4339  0.1397
  806MPD2    C111920   4.229   1.717   0.818 -0.4237  0.5381 -0.0752
  806MPD2    C211921   4.257   1.750   0.687  0.4277  0.3911 -0.0851
  806MPD2    C311922   4.160   1.742   0.593  0.4309 -0.0382  0.2508
  806MPD2    C411923   4.029   1.710   0.621 -0.1271 -0.1829  0.5763
  806MPD2    C511924   3.998   1.681   0.751  0.7759  0.3792  1.0928
  806MPD2     H11925   4.363   1.767   0.669  0.6589 -1.0936 -0.0808
  806MPD2    H111926   3.941   1.708   0.558 -0.1813 -2.2616  0.7035
  806MPD2    H211927   4.072   1.661   0.948  0.1854  0.6376  0.4105
  806MPD2    H311928   3.896   1.655   0.778 -0.4241  1.9251 -2.0479
  806MPD2     N11929   4.212   1.756   0.469  0.3896 -0.1346  0.7390
  806MPD2    H511930   4.312   1.772   0.457  0.0076  1.4051 -0.4292
  806MPD2    N111931   4.329   1.719   0.918  0.0009  0.0913 -0.0913
  806MPD2    H711932   4.297   1.685   1.008 -2.8240  2.2719 -0.2802
  807MPD2     C11933   4.449   1.313   1.517  0.1352 -0.2146  0.0122
  807MPD2    C111934   4.567   1.327   1.435  0.6929  0.4168  0.1906
  807MPD2    C211935   4.652   1.219   1.433 -0.1554  1.0351  0.1010
  807MPD2    C311936   4.613   1.103   1.492  0.2218 -0.4194  0.4810
  807MPD2    C411937   4.515   1.095   1.585 -0.7508 -0.0034  0.2551
  807MPD2    C511938   4.426   1.199   1.589  0.1570 -0.7608 -0.6387
  807MPD2     H11939   0.011   1.222   1.383 -0.7199 -1.3211 -1.1072
  807MPD2    H111940   4.512   1.017   1.659  0.6415  0.1948  0.5222
  807MPD2    H211941   4.367   1.385   1.511  0.3020  0.1796  2.5476
  807MPD2    H311942   4.336   1.199   1.650 -0.3224 -0.0611 -1.3287
  807MPD2     N11943   4.708   0.997   1.483 -0.2005 -0.4938 -0.0357
  807MPD2    H511944   0.059   1.016   1.435  1.1589 -2.5044  1.6724
  807MPD2    N111945   4.592   1.446   1.363 -0.0238  0.2893  0.1834
  807MPD2    H711946   4.682   1.450   1.317 -1.2429  1.1779 -2.1028
  808MPD2     C11947   0.697   2.972  10.504 -0.4976  0.7957 -0.5170
  808MPD2    C111948   0.581   3.048  10.474  0.4930  0.3735  0.3676
  808MPD2    C211949   0.599   3.182  10.427  0.5180  0.5024  0.3757
  808MPD2    C311950   0.719   3.239  10.415  0.0760 -0.0499 -0.2436
  808MPD2    C411951   0.828   3.167  10.445 -0.1209 -0.4039  0.4884
  808MPD2    C511952   0.814   3.039  10.497 -0.8585 -0.7886  0.2175
  808MPD2     H11953   0.510   3.232  10.392  2.0834  3.8489  1.1422
  808MPD2    H111954   0.928   3.209  10.437  0.5296 -2.3594 -1.7815
  808MPD2    H211955   0.713   2.875  10.548  3.1982  0.4058 -2.7484
  808MPD2    H311956   0.901   2.980  10.521 -0.8038 -0.0105  1.9425
  808MPD2     N11957   0.732   3.370  10.367  0.2450  0.0230  0.0417
  808MPD2    H511958   0.828   3.402  10.360 -0.0237  0.7903 -0.0903
  808MPD2    N111959   0.449   2.988  10.473 -0.3095 -0.5599 -0.3526
  808MPD2    H711960   0.377   3.058  10.459  0.2293 -0.3223 -1.8521
  809MPD2     C11961   1.479   3.796  10.314 -0.4539 -0.1255  0.3785
  809MPD2    C111962   1.390   3.903  10.298  0.0533 -0.3631 -0.2485
  809MPD2    C211963   1.250   3.884  10.316  0.3381  0.0385  0.7179
  809MPD2    C311964   1.206   3.754  10.327  0.2488  0.0408 -0.0470
  809MPD2    C411965   1.293   3.652  10.352  0.0451 -0.5433 -0.2484
  809MPD2    C511966   1.429   3.673  10.350 -0.3070 -1.0067 -0.6404
  809MPD2     H11967   1.190   3.972  10.297  1.3014 -0.1479 -3.3723
  809MPD2    H111968   1.249   3.554  10.369 -1.9187  0.4724  0.4698
  809MPD2    H211969   1.586   3.812  10.316 -0.3933 -0.3292 -1.2582
  809MPD2    H311970   1.496   3.597  10.389 -1.5304 -1.6574  0.2020
  809MPD2     N11971   1.070   3.719  10.316  0.0375 -0.2063 -0.2912
  809MPD2    H511972   1.053   3.619  10.310  1.6505 -0.2786 -3.2678
  809MPD2    N111973   1.438   4.036  10.275 -0.3136  0.8374  0.5366
  809MPD2    H711974   1.371   4.112  10.281 -2.6396 -1.0051 -1.9177
  810MPD2     C11975   0.537   2.434  10.772  0.0603  0.0387 -0.2757
  810MPD2    C111976   0.447   2.517  10.830  0.2265 -0.8050 -0.5400
  810MPD2    C211977   0.475   2.654  10.857  0.9956 -0.1943  0.1109
  810MPD2    C311978   0.598   2.704  10.830 -0.3810  0.4435 -0.1141
  810MPD2    C411979   0.685   2.627  10.759 -0.2925  0.6527  0.4453
  810MPD2    C511980   0.659   2.491  10.737  0.0384 -0.2373 -0.5727
  810MPD2     H11981   0.399   2.714  10.907 -0.7479 -0.8691 -1.7187
  810MPD2    H111982   0.774   2.667  10.712  0.9588 -0.9956  1.4411
  810MPD2    H211983   0.525   2.329  10.747  3.1068 -0.2321 -0.6368
  810MPD2    H311984   0.737   2.428  10.696  0.6524 -0.7035  1.3313
  810MPD2     N11985   0.637   2.835  10.860  0.4160  0.4178  0.0882
  810MPD2    H511986   0.725   2.865  10.819  0.6086 -1.3477 -0.7421
  810MPD2    N111987   0.326   2.457  10.856 -0.3149  0.4930 -0.0605
  810MPD2    H711988   0.325   2.364  10.816 -1.9773  0.6242 -0.3216
  811MPD2     C11989   4.269   2.410  10.515  0.1560  0.1105 -0.5996
  811MPD2    C111990   4.358   2.506  10.564  0.0477 -0.6599  0.9367
  811MPD2    C211991   4.357   2.635  10.512  0.4327 -0.0808  0.2958
  811MPD2    C311992   4.281   2.670  10.396 -1.3128 -0.2406  0.8163
  811MPD2    C411993   4.190   2.568  10.352  0.5553  0.3765 -0.1474
  811MPD2    C511994   4.185   2.448  10.415  0.4525 -0.0713  0.4578
  811MPD2     H11995   4.429   2.705  10.553 -1.9716  1.4719  1.8784
  811MPD2    H111996   4.124   2.578  10.267  1.1830  1.1076 -0.5515
  811MPD2    H211997   4.259   2.314  10.565  0.4888  0.5699  0.3659
  811MPD2    H311998   4.114   2.373  10.382 -1.5876  2.3557 -0.7083
  811MPD2     N11999   4.313   2.788  10.323  0.0330 -0.0817 -0.0109
  811MPD2    H512000   4.397   2.839  10.349 -0.6914  0.4331  1.3222
  811MPD2    N112001   4.444   2.466  10.663  0.4962 -0.4901 -0.0775
  811MPD2    H712002   4.456   2.366  10.678 -2.1392 -1.1493 -2.3905
  812MPD2     C12003   3.080   2.430  11.958 -1.0578 -0.0788 -0.3982
  812MPD2    C112004   3.207   2.474  11.967  0.0402 -0.4747 -0.3509
  812MPD2    C212005   3.283   2.467  12.083 -0.2006 -0.0741 -0.1689
  812MPD2    C312006   3.237   2.396  12.191  0.6504  0.2053  0.5653
  812MPD2    C412007   3.107   2.355  12.192  0.3081 -0.5466  0.0836
  812MPD2    C512008   3.028   2.376  12.077 -0.3622 -0.4707  0.4065
  812MPD2     H12009   3.386   2.500  12.090 -0.1142 -0.1841 -0.9541
  812MPD2    H112010   3.066   2.316  12.285  1.8571 -3.8661 -0.6240
  812MPD2    H212011   3.025   2.426  11.865  2.9220 -1.4142 -2.6840
  812MPD2    H312012   2.923   2.351  12.078 -0.4698 -0.0381 -0.6598
  812MPD2     N12013   3.322   2.375  12.303  0.6795  0.4990 -0.7354
  812MPD2    H512014   3.414   2.418  12.302  1.3312 -0.8513  1.8642
  812MPD2    N112015   3.266   2.534  11.856  0.1609 -0.4447 -0.2922
  812MPD2    H712016   3.357   2.573  11.878  0.3832  0.4231 -2.6795
  813MPD2     C12017   3.022   3.989  12.772  0.7224  1.1212 -0.1592
  813MPD2    C112018   2.956   4.107  12.761  0.4247 -1.0001  0.0431
  813MPD2    C212019   2.875   4.155  12.864 -0.4980 -0.0418  0.1658
  813MPD2    C312020   2.844   4.066  12.971 -0.5763  0.5046  0.2772
  813MPD2    C412021   2.887   3.933  12.965  0.1605 -0.1556 -0.2355
  813MPD2    C512022   2.984   3.905  12.873 -1.0487 -0.1390 -0.0380
  813MPD2     H12023   2.846   4.259  12.872  0.9565  0.2814  1.3116
  813MPD2    H112024   2.862   3.859  13.040 -0.0100  0.5660  0.4215
  813MPD2    H212025   3.087   3.967  12.688  0.7230  1.0496 -0.1393
  813MPD2    H312026   3.033   3.810  12.890  0.6101  0.6775 -0.2531
  813MPD2     N12027   2.778   4.120  13.082 -0.5846 -0.5331  0.3949
  813MPD2    H512028   2.749   4.217  13.082  0.0281 -0.3391  1.6916
  813MPD2    N112029   2.999   4.192  12.659 -0.2344  0.3951 -0.0152
  813MPD2    H712030   3.086   4.170  12.612 -0.6799  1.7145 -1.4752
  814MPD2     C12031   3.213   0.481  12.096 -0.3533 -0.5509  0.0169
  814MPD2    C112032   3.191   0.620  12.084  0.6512 -0.5299  0.4864
  814MPD2    C212033   3.229   0.706  12.185 -0.5378 -0.1401 -0.7141
  814MPD2    C312034   3.275   0.649  12.302 -0.5919  0.1708  0.0739
  814MPD2    C412035   3.295   0.512  12.309  0.0394 -1.1939 -0.8768
  814MPD2    C512036   3.276   0.432  12.206  0.0933 -0.1149 -0.1850
  814MPD2     H12037   3.211   0.813  12.179 -1.1259 -0.4063 -3.6707
  814MPD2    H112038   3.333   0.468  12.400  1.2490  0.7079 -0.4459
  814MPD2    H212039   3.188   0.413  12.015 -1.7760 -2.4384  2.0675
  814MPD2    H312040   3.302   0.328  12.218 -0.6364 -0.6261 -2.9805
  814MPD2     N12041   3.303   0.723  12.416  0.2730  0.8524  0.1764
  814MPD2    H512042   3.307   0.676  12.506 -0.2696 -1.3868 -0.9712
  814MPD2    N112043   3.118   0.670  11.979 -0.1471  0.3204 -0.1950
  814MPD2    H712044   3.121   0.769  11.957 -0.3310  0.5471  0.7948
  815MPD2     C12045   3.245   4.298  11.644  0.1723  0.1526 -0.5339
  815MPD2    C112046   3.221   4.163  11.620 -0.3626  0.0896 -0.6003
  815MPD2    C212047   3.124   4.106  11.702  0.0267  0.0784 -0.2630
  815MPD2    C312048   3.068   4.172  11.809  0.3918 -0.2851 -0.0829
  815MPD2    C412049   3.111   4.300  11.834 -0.1209 -0.3581  0.3686
  815MPD2    C512050   3.195   4.366  11.750 -1.1875  0.1393  0.8584
  815MPD2     H12051   3.094   4.003  11.684 -1.6124  0.5973 -0.4919
  815MPD2    H112052   3.080   4.349  11.926 -3.6429 -1.5209 -0.2086
  815MPD2    H212053   3.326   4.343  11.588  0.3922  0.0070 -0.3295
  815MPD2    H312054   3.233   4.465  11.774  1.4025 -0.3463 -1.2202
  815MPD2     N12055   2.958   4.111  11.872  0.4324  0.1702 -0.1634
  815MPD2    H512056   2.931   4.018  11.842  1.0391 -0.0694  0.0203
  815MPD2    N112057   3.300   4.103  11.521 -0.4426  0.0378 -0.1289
  815MPD2    H712058   3.370   4.160  11.476  0.8870  0.4536  2.5121
  816MPD2     C12059   2.947   3.324  17.133  0.0000 -0.4300  0.3429
  816MPD2    C112060   3.075   3.372  17.162  0.3731  0.2107 -0.0375
  816MPD2    C212061   3.185   3.311  17.110 -0.2647 -0.4764 -0.7779
  816MPD2    C312062   3.172   3.208  17.027 -0.0879  0.2833  0.0223
  816MPD2    C412063   3.046   3.157  17.003 -0.0615  0.2509 -0.2106
  816MPD2    C512064   2.930   3.215  17.058  0.4127 -0.6007  0.1848
  816MPD2     H12065   3.291   3.330  17.124  0.1516 -0.9587 -3.2827
  816MPD2    H112066   3.027   3.076  16.934 -1.1813  1.9411 -1.8988
  816MPD2    H212067   2.865   3.384  17.172 -0.8534 -1.5638  0.2864
  816MPD2    H312068   2.833   3.173  17.035  1.4825 -1.6266 -2.4437
  816MPD2     N12069   3.288   3.150  16.968  0.1741  0.2617 -0.2394
  816MPD2    H512070   3.375   3.201  16.972  0.2463  0.1306 -0.1677
  816MPD2    N112071   3.086   3.487  17.246  0.0856  0.5550 -0.3029
  816MPD2    H712072   2.999   3.537  17.262 -0.6477  0.0227 -2.5812
  817MPD2     C12073   3.016   0.527   9.385  0.0964  0.3832 -0.4650
  817MPD2    C112074   2.979   0.409   9.323  0.1748  0.3343 -0.8207
  817MPD2    C212075   2.865   0.406   9.254  0.1105 -0.5257 -0.6538
  817MPD2    C312076   2.793   0.525   9.233 -0.1194  0.3550 -0.7015
  817MPD2    C412077   2.824   0.643   9.298 -0.0452  1.0065 -1.0558
  817MPD2    C512078   2.938   0.640   9.371  0.0448 -0.4030  1.3181
  817MPD2     H12079   2.834   0.314   9.207 -2.2664 -0.0612 -0.0137
  817MPD2    H112080   2.774   0.737   9.275 -0.2816  0.3416 -3.2911
  817MPD2    H212081   3.110   0.535   9.438  0.0012  0.6380 -0.3377
  817MPD2    H312082   2.967   0.736   9.413 -0.8662  0.8334 -0.8700
  817MPD2     N12083   2.684   0.521   9.138 -0.4335  0.1465  0.2144
  817MPD2    H512084   2.682   0.431   9.091  1.0223  0.3829 -0.3128
  817MPD2    N112085   3.045   0.285   9.343 -0.6748 -0.3307 -0.0918
  817MPD2    H712086   2.991   0.205   9.312  0.0494  0.0027 -2.2784
  818MPD2     C12087   2.258   0.774  10.270 -0.4590 -0.5430  0.5177
  818MPD2    C112088   2.132   0.746  10.231 -0.8109  0.0444 -0.0231
  818MPD2    C212089   2.107   0.686  10.110 -0.2498  0.1551  0.7365
  818MPD2    C312090   2.208   0.679  10.010  0.2222 -1.2884 -0.0239
  818MPD2    C412091   2.335   0.714  10.048 -0.8638  0.9172 -0.5668
  818MPD2    C512092   2.352   0.763  10.181 -0.2399  0.1330 -0.5916
  818MPD2     H12093   2.005   0.661  10.084  0.5317 -1.7240 -0.4722
  818MPD2    H112094   2.420   0.718   9.980  1.1158 -1.1733  1.7507
  818MPD2    H212095   2.286   0.811  10.368  0.5543  0.6149 -0.1916
  818MPD2    H312096   2.458   0.783  10.197  0.0405 -1.6224 -0.2651
  818MPD2     N12097   2.193   0.624   9.876  0.4283 -0.5619 -0.1935
  818MPD2    H512098   2.275   0.615   9.816  1.3947  1.6604  0.8178
  818MPD2    N112099   2.031   0.749  10.322  0.0137  0.1925  1.1574
  818MPD2    H712100   1.945   0.707  10.288  1.2605  0.2727 -2.1655
  819MPD2     C12101   0.339   1.534  15.366  0.3551 -0.3122  0.1686
  819MPD2    C112102   0.254   1.440  15.422 -0.0101  0.7878  0.0411
  819MPD2    C212103   0.298   1.375  15.536  0.5032  0.9359 -0.9305
  819MPD2    C312104   0.428   1.401  15.589 -1.1189  0.4289 -0.1570
  819MPD2    C412105   0.509   1.495  15.525  0.6605  0.3491  0.4693
  819MPD2    C512106   0.460   1.559  15.418  0.2606 -0.9760 -0.7047
  819MPD2     H12107   0.238   1.304  15.592  2.4154  1.6480  2.0484
  819MPD2    H112108   0.615   1.515  15.533  0.8222 -0.3088 -0.0182
  819MPD2    H212109   0.306   1.595  15.283 -1.4094 -1.3271  0.1270
  819MPD2    H312110   0.514   1.635  15.362  0.4913 -0.6332 -0.0127
  819MPD2     N12111   0.473   1.318  15.692 -0.6628 -0.0490  0.1610
  819MPD2    H512112   0.407   1.250  15.729  1.2910 -1.6892  0.6317
  819MPD2    N112113   0.129   1.410  15.368  0.2334 -0.4282 -0.2032
  819MPD2    H712114   0.115   1.457  15.279 -0.9658  0.0028  0.2178
  820MPD2     C12115   4.283   1.573  14.600 -0.8720  0.5417 -0.4005
  820MPD2    C112116   4.340   1.647  14.704  0.3755 -0.1295  0.5599
  820MPD2    C212117   4.407   1.579  14.802  0.2794  0.5696  0.2213
  820MPD2    C312118   4.405   1.440  14.803  0.0939  0.1457  0.5760
  820MPD2    C412119   4.374   1.366  14.695  0.5151 -0.0913 -0.1932
  820MPD2    C512120   4.308   1.438  14.598  0.2729  0.2434 -0.3953
  820MPD2     H12121   4.463   1.622  14.884 -0.2644 -0.5093  1.1585
  820MPD2    H112122   4.388   1.259  14.692 -0.7589 -0.2691  0.3751
  820MPD2    H212123   4.236   1.619  14.514 -0.3879 -0.3140 -1.1202
  820MPD2    H312124   4.265   1.385  14.514  1.5142  0.8103 -1.3913
  820MPD2     N12125   4.462   1.374  14.916 -0.4610 -0.3928 -0.0327
  820MPD2    H512126   4.485   1.276  14.900  0.7734 -0.2318  0.7588
  820MPD2    N112127   4.313   1.788  14.698  0.2864  0.4117  0.0244
  820MPD2    H712128   4.251   1.824  14.625  0.1399 -0.0221 -0.0663
  821MPD2     C12129   0.362   3.358  13.512 -0.5077  0.1194  0.3368
  821MPD2    C112130   0.421   3.245  13.574  0.5368  0.4355  0.0089
  821MPD2    C212131   0.565   3.248  13.592  0.0338  0.0720 -0.1772
  821MPD2    C312132   0.633   3.368  13.549 -0.0746  0.3996  0.1778
  821MPD2    C412133   0.574   3.476  13.497 -0.5266 -0.8781  0.1233
  821MPD2    C512134   0.432   3.475  13.477  0.1577  0.1112  1.1639
  821MPD2     H12135   0.614   3.159  13.629 -0.7010  0.3292  1.4261
  821MPD2    H112136   0.629   3.565  13.468  1.5734 -2.5788 -1.1255
  821MPD2    H212137   0.260   3.360  13.475  0.0568 -0.7886 -1.2716
  821MPD2    H312138   0.386   3.559  13.426 -0.0822 -0.8759 -0.2186
  821MPD2     N12139   0.773   3.388  13.577  0.0443 -0.4393  0.1565
  821MPD2    H512140   0.819   3.476  13.556 -1.5272  0.8260  2.0191
  821MPD2    N112141   0.350   3.124  13.613  0.0641  0.7210  0.1827
  821MPD2    H712142   0.407   3.047  13.646  1.1385  0.1979 -2.9699
  822MPD2     C12143   1.114   2.710  15.809 -0.2990  0.1659 -0.5048
  822MPD2    C112144   1.057   2.654  15.923  0.3920  0.0092 -0.2283
  822MPD2    C212145   0.972   2.730  15.998 -0.4466 -0.2242 -0.5638
  822MPD2    C312146   0.939   2.860  15.955  0.3485 -0.5864 -0.1571
  822MPD2    C412147   0.994   2.918  15.846 -0.0930 -0.4931 -0.1239
  822MPD2    C512148   1.077   2.839  15.774  0.4811  0.5396 -0.2973
  822MPD2     H12149   0.920   2.683  16.080 -0.7577 -0.5222 -0.9309
  822MPD2    H112150   0.980   3.020  15.810  0.7466  0.4079  2.0878
  822MPD2    H212151   1.188   2.661  15.747 -0.6489 -0.0571 -0.7479
  822MPD2    H312152   1.131   2.880  15.689  1.1307  0.7938  0.2369
  822MPD2     N12153   0.841   2.930  16.031 -0.1802 -0.1287 -0.5266
  822MPD2    H512154   0.807   2.884  16.114  0.3763  0.2216 -0.1040
  822MPD2    N112155   1.102   2.531  15.982  0.8388 -0.2572  0.0573
  822MPD2    H712156   1.068   2.504  16.074 -1.0393 -2.7237 -1.3494
  823MPD2     C12157   0.447   2.980  16.769 -0.8081  0.0647  0.1130
  823MPD2    C112158   0.482   2.923  16.654 -0.9859 -0.2058 -0.1077
  823MPD2    C212159   0.507   2.781  16.666 -0.2940  0.3952  0.0132
  823MPD2    C312160   0.475   2.712  16.776  0.5327 -0.2614  0.4711
  823MPD2    C412161   0.411   2.773  16.878 -0.3001 -0.1394  0.0504
  823MPD2    C512162   0.413   2.909  16.880 -0.2107  0.1479 -0.2689
  823MPD2     H12163   0.557   2.729  16.585 -2.0129  3.1583 -2.8210
  823MPD2    H112164   0.377   2.718  16.965 -2.2295 -0.7397 -1.0685
  823MPD2    H212165   0.453   3.089  16.763 -2.0981  0.1004 -0.6004
  823MPD2    H312166   0.375   2.959  16.968 -2.6524 -0.0798 -1.1782
  823MPD2     N12167   0.492   2.571  16.792 -0.5702 -0.4089 -0.1023
  823MPD2    H512168   0.456   2.526  16.875  1.4195 -2.4285 -0.3393
  823MPD2    N112169   0.537   3.000  16.548  0.4210 -0.0296  0.5567
  823MPD2    H712170   0.533   3.101  16.557 -1.8986 -0.0940  0.2815
  824MPD2     C12171   1.783   1.984  15.922  0.3249 -0.6631 -0.0606
  824MPD2    C112172   1.705   2.086  15.862  0.2821 -0.5780  0.1065
  824MPD2    C212173   1.718   2.111  15.730 -0.6748  0.6163  0.7403
  824MPD2    C312174   1.811   2.042  15.651  0.2052 -0.0418  0.7214
  824MPD2    C412175   1.879   1.929  15.703  0.2294  0.0352 -0.4546
  824MPD2    C512176   1.861   1.912  15.836 -0.4692  0.2913 -0.5619
  824MPD2     H12177   1.663   2.190  15.680 -0.3474  0.6383  0.4155
  824MPD2    H112178   1.959   1.877  15.652  0.8863  0.5259  0.0666
  824MPD2    H212179   1.778   1.956  16.027 -0.5301 -0.3515 -0.0157
  824MPD2    H312180   1.928   1.843  15.887 -1.4214 -0.5309 -0.4315
  824MPD2     N12181   1.819   2.067  15.514 -0.0252  0.1213  0.5416
  824MPD2    H512182   1.790   2.155  15.473  1.7990  1.0760  1.3369
  824MPD2    N112183   1.596   2.159  15.919 -0.2311  0.0409  0.1881
  824MPD2    H712184   1.541   2.222  15.860 -0.4272  0.6532  1.0261
  825MPD2     C12185   2.483   2.305  15.192 -0.5679  0.4374 -0.1316
  825MPD2    C112186   2.355   2.342  15.229  0.0602 -0.9503 -0.3864
  825MPD2    C212187   2.335   2.473  15.283 -0.1885 -0.0170 -0.0987
  825MPD2    C312188   2.448   2.562  15.298  0.2843  0.1380 -0.1957
  825MPD2    C412189   2.574   2.519  15.265  0.4387 -0.4505  0.2748
  825MPD2    C512190   2.592   2.394  15.210 -0.2731  0.2884 -0.6773
  825MPD2     H12191   2.236   2.514  15.303  1.0063  2.5496  0.5261
  825MPD2    H112192   2.660   2.583  15.246  0.0267  0.5275  1.7040
  825MPD2    H212193   2.504   2.211  15.143  3.4220  1.2485  0.0169
  825MPD2    H312194   2.685   2.371  15.159  0.0689  2.0130 -0.8290
  825MPD2     N12195   2.433   2.705  15.323  0.0294 -0.4593  0.1287
  825MPD2    H512196   2.515   2.763  15.312 -2.2487  2.1840 -2.9149
  825MPD2    N112197   2.255   2.246  15.222  0.4268 -0.4896  0.0439
  825MPD2    H712198   2.291   2.158  15.185  1.0726  0.1402 -0.8219
  826MPD2     C12199   1.567   1.703  13.718 -0.1637 -0.0943  0.7431
  826MPD2    C112200   1.596   1.830  13.672  0.0121  0.1664  0.4123
  826MPD2    C212201   1.543   1.943  13.734 -0.7300  0.4569  0.9202
  826MPD2    C312202   1.452   1.927  13.846 -0.3353 -0.4348  0.5276
  826MPD2    C412203   1.419   1.797  13.879  0.2342  0.1853 -0.0179
  826MPD2    C512204   1.472   1.690  13.819 -0.0664 -0.0704  0.2863
  826MPD2     H12205   1.575   2.042  13.704 -3.5039  0.2688 -2.6166
  826MPD2    H112206   1.362   1.769  13.967 -0.9097  1.5746 -0.3162
  826MPD2    H212207   1.623   1.619  13.680 -0.5704 -0.5603  1.1652
  826MPD2    H312208   1.449   1.592  13.861 -1.5751  0.4147  0.5974
  826MPD2     N12209   1.416   2.031  13.935  0.2577 -0.2986 -0.8426
  826MPD2    H512210   1.371   1.995  14.019  1.9063 -0.1703  0.0923
  826MPD2    N112211   1.693   1.838  13.571  0.4033  0.2454 -0.2440
  826MPD2    H712212   1.747   1.756  13.545 -1.8179 -2.2932  3.2190
  827MPD2     C12213   2.405   4.088   9.780  0.0529  0.3633 -0.0580
  827MPD2    C112214   2.357   4.008   9.878 -0.1414 -0.2547  0.1699
  827MPD2    C212215   2.214   4.004   9.894 -0.7717  0.6147  0.0988
  827MPD2    C312216   2.125   4.070   9.810 -0.1137 -0.1872 -0.2191
  827MPD2    C412217   2.183   4.162   9.724  0.0369 -0.8430  0.6994
  827MPD2    C512218   2.317   4.166   9.707  0.3046 -0.6761  0.1025
  827MPD2     H12219   2.162   3.950   9.972  1.1621 -2.4718 -0.7496
  827MPD2    H112220   2.119   4.218   9.656  0.0133 -3.5791 -1.5360
  827MPD2    H212221   2.511   4.109   9.766  0.1358 -0.2644 -0.3926
  827MPD2    H312222   2.357   4.240   9.640  0.3115  0.7758  1.7139
  827MPD2     N12223   1.987   4.035   9.827  0.3990 -0.0870 -0.1691
  827MPD2    H512224   1.963   3.971   9.902  2.7653  2.2088  2.5396
  827MPD2    N112225   2.443   3.927   9.961  0.3059  0.0695  0.8995
  827MPD2    H712226   2.537   3.905   9.931 -0.2695  1.0534 -1.5946
  828MPD2     C12227   0.530   3.499  12.191  0.1414  0.5073 -0.2633
  828MPD2    C112228   0.411   3.541  12.123 -0.6733 -0.0851  0.4359
  828MPD2    C212229   0.413   3.589  11.991  0.3513 -0.3527  0.3141
  828MPD2    C312230   0.539   3.611  11.931  0.2055  0.0496 -0.6260
  828MPD2    C412231   0.649   3.579  12.001  0.8216 -0.0581  0.2537
  828MPD2    C512232   0.646   3.526  12.126  0.1179  0.6378  0.5237
  828MPD2     H12233   0.322   3.623  11.944  1.2587  2.0304  0.2546
  828MPD2    H112234   0.741   3.598  11.947 -0.1874  1.8733 -0.7965
  828MPD2    H212235   0.522   3.449  12.287 -4.0094 -0.3637 -1.0775
  828MPD2    H312236   0.738   3.491  12.172 -0.4289  0.7068  1.6742
  828MPD2     N12237   0.560   3.671  11.805 -0.1267 -0.4622  0.4759
  828MPD2    H512238   0.658   3.687  11.784 -0.3220 -0.8478 -0.7710
  828MPD2    N112239   0.285   3.532  12.184  0.3398  0.4824  0.2371
  828MPD2    H712240   0.207   3.566  12.129 -0.3652 -2.4011 -0.5424
  829MPD2     C12241   4.396   3.506  11.666  0.0865  0.1739  0.6533
  829MPD2    C112242   4.323   3.464  11.777  0.0270  0.5996 -0.1065
  829MPD2    C212243   4.374   3.452  11.899 -0.5712 -0.0261 -0.1362
  829MPD2    C312244   4.509   3.484  11.917  0.2954  0.3487  0.2906
  829MPD2    C412245   4.583   3.527  11.810 -0.0075 -0.1161  0.4259
  829MPD2    C512246   4.523   3.543  11.685  0.1335 -0.0521  0.0995
  829MPD2     H12247   4.321   3.407  11.982 -2.1529 -0.9742 -1.6643
  829MPD2    H112248   4.691   3.532  11.818  0.2398 -0.3767 -2.8980
  829MPD2    H212249   4.348   3.509  11.569 -0.1366  1.2442  0.7963
  829MPD2    H312250   4.580   3.563  11.595  2.7173  0.5192  1.8664
  829MPD2     N12251   4.575   3.480  12.040  1.1274 -0.5351  0.0647
  829MPD2    H512252   4.667   3.522  12.035  0.2306  1.7469  2.5844
  829MPD2    N112253   4.184   3.445  11.751  0.0494  0.3840  0.1059
  829MPD2    H712254   4.149   3.465  11.658 -1.2831  0.1015  0.5313
  830MPD2     C12255   0.990   0.772  15.810 -0.5519 -0.7558  0.3684
  830MPD2    C112256   0.878   0.849  15.796 -0.3573 -0.0803  0.3721
  830MPD2    C212257   0.890   0.965  15.717  0.2234 -0.0974  0.2844
  830MPD2    C312258   1.009   1.009  15.665  0.1159 -0.7487  0.5303
  830MPD2    C412259   1.121   0.929  15.701 -0.4679 -0.2655  0.2393
  830MPD2    C512260   1.116   0.808  15.763  0.2245  0.6372 -0.7945
  830MPD2     H12261   0.797   1.017  15.696 -0.7508 -1.6803  0.6309
  830MPD2    H112262   1.221   0.959  15.674 -0.8413 -0.3960 -1.3287
  830MPD2    H212263   0.990   0.687  15.877 -0.0187  1.1549  2.7918
  830MPD2    H312264   1.205   0.752  15.785 -0.5036  0.0793  0.7155
  830MPD2     N12265   1.015   1.128  15.588 -0.4311  0.0922 -0.0411
  830MPD2    H512266   1.108   1.160  15.563  0.2091 -1.4754  0.3000
  830MPD2    N112267   0.758   0.798  15.856 -0.0781 -0.2165  0.6330
  830MPD2    H712268   0.759   0.700  15.885  1.1280 -0.0464  1.1795
  831MPD2     C12269   1.027   2.940  16.434 -0.0771  0.6167  0.2227
  831MPD2    C112270   1.079   2.841  16.349 -0.2403 -0.0403 -0.1821
  831MPD2    C212271   1.001   2.725  16.332  0.4580 -0.4416 -1.1441
  831MPD2    C312272   0.884   2.697  16.401  0.3044  0.6967  0.0990
  831MPD2    C412273   0.844   2.791  16.493  0.1991  0.2739  0.4539
  831MPD2    C512274   0.915   2.908  16.505 -0.0379  0.2513  0.1099
  831MPD2     H12275   1.030   2.644  16.266 -0.0116  0.0473 -1.9555
  831MPD2    H112276   0.751   2.776  16.547  0.2519 -2.4681 -0.2142
  831MPD2    H212277   1.078   3.034  16.454  1.5924  0.1108 -1.6834
  831MPD2    H312278   0.869   2.981  16.571  1.0286  1.4056 -0.4186
  831MPD2     N12279   0.820   2.569  16.393 -0.0859  0.1778  0.3023
  831MPD2    H512280   0.738   2.560  16.453  0.1369 -1.0847  0.4077
  831MPD2    N112281   1.208   2.849  16.290 -0.0913 -0.0052 -0.7518
  831MPD2    H712282   1.242   2.945  16.282  0.7831 -0.1047  1.8047
  832MPD2     C12283   4.385   4.489  17.148  0.2077 -0.0796  0.2025
  832MPD2    C112284   4.348   4.618  17.123  0.2479 -0.1913  0.6310
  832MPD2    C212285   4.219   4.643  17.077 -0.6312 -0.3067  0.0555
  832MPD2    C312286   4.128   4.538  17.060 -0.0751 -0.4575  0.1363
  832MPD2    C412287   4.172   4.408  17.075 -0.7689 -0.2742 -0.4210
  832MPD2    C512288   4.301   4.385  17.124 -0.4522 -0.3844 -0.5545
  832MPD2     H12289   4.188   0.010  17.070 -0.3704 -0.1787  0.6990
  832MPD2    H112290   4.103   4.326  17.061 -0.0977 -0.9179  0.0571
  832MPD2    H212291   4.484   4.455  17.176  0.7534  2.7593  1.7476
  832MPD2    H312292   4.331   4.281  17.132 -2.9466 -1.0229  0.4746
  832MPD2     N12293   3.996   4.547  17.000 -0.4787 -0.0806 -0.7181
  832MPD2    H512294   3.950   4.457  16.994  0.5433 -0.7030  0.7377
  832MPD2    N112295   4.439   4.726  17.133  0.3348  0.3529  0.4512
  832MPD2    H712296   4.407   0.080  17.099  2.1062  0.3724 -1.2183
  833MPD2     C12297   1.561   1.007  13.140 -0.6913  0.2967  0.4544
  833MPD2    C112298   1.560   1.135  13.094  0.0690 -0.2127 -0.5564
  833MPD2    C212299   1.657   1.178  13.000 -0.6603 -0.5850  0.3201
  833MPD2    C312300   1.742   1.081  12.945  0.0206  0.9323  0.2625
  833MPD2    C412301   1.739   0.950  12.990 -0.2775 -0.0108 -0.1668
  833MPD2    C512302   1.647   0.918  13.086 -0.7823 -0.5397  0.6620
  833MPD2     H12303   1.646   1.278  12.959  0.5759 -0.2045  0.9225
  833MPD2    H112304   1.791   0.868  12.943  2.7717  1.2148  1.0633
  833MPD2    H212305   1.499   0.970  13.221 -1.9202  2.2284  0.4009
  833MPD2    H312306   1.641   0.816  13.122  0.6686 -0.6645  0.5316
  833MPD2     N12307   1.820   1.111  12.824  0.7479  0.3914 -0.5490
  833MPD2    H512308   1.874   1.028  12.802 -1.0764 -1.5129  1.9683
  833MPD2    N112309   1.475   1.241  13.132 -0.3018 -0.4725  0.9716
  833MPD2    H712310   1.491   1.336  13.099  1.0482 -0.4941  1.5931
  834MPD2     C12311   1.454   0.640  12.160 -0.5629 -0.0508  0.8199
  834MPD2    C112312   1.491   0.744  12.071  0.4275 -0.3792  0.1920
  834MPD2    C212313   1.556   0.860  12.110 -0.8450  0.2561  0.2824
  834MPD2    C312314   1.574   0.874  12.246  0.4561 -0.2565 -0.3183
  834MPD2    C412315   1.522   0.783  12.330  0.1956 -0.3298 -0.0940
  834MPD2    C512316   1.476   0.662  12.290 -0.6858  0.6233  0.2453
  834MPD2     H12317   1.599   0.928  12.038  2.0147 -2.5632 -0.6985
  834MPD2    H112318   1.527   0.795  12.438 -2.9680  1.5011 -0.1487
  834MPD2    H212319   1.395   0.554  12.130  2.0414 -1.7668  0.5653
  834MPD2    H312320   1.446   0.584  12.359  0.0443  0.2708  0.1637
  834MPD2     N12321   1.653   0.982  12.292 -0.4391  0.3784 -0.3882
  834MPD2    H512322   1.689   1.042  12.219  2.0285 -2.6360 -1.6435
  834MPD2    N112323   1.465   0.714  11.939  0.2350 -0.1232 -0.4623
  834MPD2    H712324   1.418   0.626  11.924  0.3097 -0.3745  0.7548
  835MPD2     C12325   1.556   3.634  10.964  0.2610  0.9806  0.4651
  835MPD2    C112326   1.470   3.666  11.070 -0.2988 -0.9138 -0.6657
  835MPD2    C212327   1.494   3.595  11.186 -0.3256  0.6349 -0.0522
  835MPD2    C312328   1.609   3.521  11.208  0.1471 -1.0415 -0.7675
  835MPD2    C412329   1.699   3.509  11.099  0.4591  0.6859  0.0079
  835MPD2    C512330   1.666   3.559  10.978  0.1464  0.4495 -0.3017
  835MPD2     H12331   1.420   3.619  11.261 -1.1050  2.0369 -1.2490
  835MPD2    H112332   1.791   3.452  11.105  0.7995  0.9191 -2.9990
  835MPD2    H212333   1.540   3.686  10.870 -1.1014 -1.3015 -0.5640
  835MPD2    H312334   1.733   3.546  10.894 -1.0143  1.2747 -1.3352
  835MPD2     N12335   1.651   3.464  11.329  0.0575 -0.4272 -0.0076
  835MPD2    H512336   1.747   3.433  11.337  0.4317  0.8530  0.3815
  835MPD2    N112337   1.366   3.751  11.071  0.7763 -0.4465  0.8377
  835MPD2    H712338   1.309   3.749  11.155  1.5085  3.1035  1.4479
  836MPD2     C12339   1.827   3.589  12.200 -0.1978  0.1165  0.3607
  836MPD2    C112340   1.708   3.580  12.138 -0.2889  0.3986  0.4033
  836MPD2    C212341   1.590   3.618  12.201 -0.2659 -0.1189  1.0204
  836MPD2    C312342   1.593   3.673  12.325 -0.0988  0.5434 -0.0417
  836MPD2    C412343   1.709   3.678  12.388  0.1208  0.0389  0.1104
  836MPD2    C512344   1.822   3.640  12.329 -0.3542  0.2095 -0.7056
  836MPD2     H12345   1.496   3.592  12.152  0.1711 -0.7401  0.5073
  836MPD2    H112346   1.707   3.695  12.495 -0.7235 -1.5530  0.3408
  836MPD2    H212347   1.915   3.538  12.161  0.4375  0.7178  1.0059
  836MPD2    H312348   1.919   3.647  12.376 -0.9442  1.4042  0.3196
  836MPD2     N12349   1.479   3.704  12.400 -0.2107 -0.2665 -0.8032
  836MPD2    H512350   1.496   3.726  12.498 -0.5219  0.3456 -0.8906
  836MPD2    N112351   1.709   3.512  12.014  0.0011 -0.1988  0.7009
  836MPD2    H712352   1.801   3.477  11.988  0.4234  1.2442  0.2207
  837MPD2     C12353   4.450   3.566  10.241 -0.1788  0.2312  0.0420
  837MPD2    C112354   4.381   3.507  10.141  0.5248 -0.1319 -0.6434
  837MPD2    C212355   4.329   3.589  10.037 -1.0577  0.5949 -0.2784
  837MPD2    C312356   4.355   3.724  10.037 -0.4244  0.7210 -0.5540
  837MPD2    C412357   4.427   3.781  10.141  0.1295  0.3552  0.2899
  837MPD2    C512358   4.473   3.699  10.246  0.3066  0.3975  0.6592
  837MPD2     H12359   4.274   3.542   9.956 -0.2327 -0.0266 -0.4709
  837MPD2    H112360   4.472   3.879  10.124  0.8445 -0.3159 -1.5922
  837MPD2    H212361   4.494   3.498  10.313  0.6670 -0.0815 -0.7684
  837MPD2    H312362   4.532   3.739  10.328 -2.1110  0.3231  2.4466
  837MPD2     N12363   4.334   3.787   9.913  0.4643 -0.7871  0.1630
  837MPD2    H512364   4.267   3.743   9.851 -0.3449  1.0426 -0.2647
  837MPD2    N112365   4.387   3.368  10.120 -0.1416 -0.0596  0.2006
  837MPD2    H712366   4.331   3.337  10.042 -1.0999  0.2907  0.7486
  838MPD2     C12367   3.400   1.711  12.022  0.4470 -0.1676  0.3830
  838MPD2    C112368   3.292   1.645  11.964 -0.2838  0.3731  0.7876
  838MPD2    C212369   3.177   1.639  12.037  0.0593 -0.0280 -0.5718
  838MPD2    C312370   3.176   1.684  12.166  0.2783 -0.6374  0.4681
  838MPD2    C412371   3.290   1.743  12.221  0.3099  0.2370 -0.0473
  838MPD2    C512372   3.398   1.765  12.141  0.3633  0.7703  0.5687
  838MPD2     H12373   3.085   1.595  12.000 -0.9150  0.7628  0.8855
  838MPD2    H112374   3.291   1.779  12.323  0.7398 -1.2767  0.4750
  838MPD2    H212375   3.495   1.730  11.973  0.0022 -2.5867 -1.4380
  838MPD2    H312376   3.479   1.825  12.181  1.7599  0.5806 -2.0435
  838MPD2     N12377   3.061   1.670  12.239  0.6838  0.5463 -0.2570
  838MPD2    H512378   2.999   1.601  12.199 -0.4486  1.1269  0.4911
  838MPD2    N112379   3.284   1.599  11.828 -0.0378 -0.1160 -0.3088
  838MPD2    H712380   3.196   1.559  11.800 -0.6220  1.1334 -0.2760
  839MPD2     C12381   2.639   1.215  11.624  0.1335 -0.2629 -0.8665
  839MPD2    C112382   2.708   1.173  11.512  0.0275 -0.3636 -0.7512
  839MPD2    C212383   2.831   1.229  11.493  0.0849  0.3121 -0.0864
  839MPD2    C312384   2.881   1.329  11.561 -0.6149  0.4596  0.0062
  839MPD2    C412385   2.810   1.368  11.674 -0.4076 -0.6441 -0.4367
  839MPD2    C512386   2.685   1.314  11.703 -0.0456  0.4346  0.1089
  839MPD2     H12387   2.892   1.202  11.407 -0.7612  0.8435 -0.8492
  839MPD2    H112388   2.850   1.447  11.736  0.9461  1.6620 -4.2330
  839MPD2    H212389   2.543   1.174  11.653 -0.5485  1.3599 -0.8513
  839MPD2    H312390   2.632   1.357  11.787 -1.1609 -0.7275 -0.0017
  839MPD2     N12391   3.005   1.392  11.538 -0.1812 -0.1423 -0.0205
  839MPD2    H512392   3.018   1.480  11.587  1.7658 -0.1506 -0.5284
  839MPD2    N112393   2.664   1.069  11.428  0.3093  0.3132 -0.1203
  839MPD2    H712394   2.727   1.036  11.355 -0.4799 -0.9929 -0.2299
  840MPD2     C12395   2.995   4.112  10.018  0.5155 -0.5082  0.4750
  840MPD2    C112396   2.973   4.058  10.144 -0.2394 -0.1321 -0.5407
  840MPD2    C212397   3.046   4.117  10.241 -0.8725  0.2262  1.1599
  840MPD2    C312398   3.140   4.215  10.213  0.4042 -0.4952  0.7053
  840MPD2    C412399   3.158   4.268  10.089  0.3866 -0.0601 -0.0206
  840MPD2    C512400   3.079   4.220   9.990 -0.1850 -0.2218  0.3643
  840MPD2     H12401   3.030   4.085  10.344  1.0550 -0.1659  1.3303
  840MPD2    H112402   3.229   4.347  10.065 -0.4184  0.5730 -0.3402
  840MPD2    H212403   2.941   4.069   9.935 -0.9715 -0.1133  1.2402
  840MPD2    H312404   3.084   4.257   9.888 -1.6587 -0.7411  0.1051
  840MPD2     N12405   3.218   4.277  10.314  0.1521  0.3593 -0.6500
  840MPD2    H512406   3.254   4.366  10.279  0.8979 -0.6935 -2.5678
  840MPD2    N112407   2.864   3.966  10.163 -0.2693  0.5174 -0.6067
  840MPD2    H712408   2.810   3.934  10.083  2.6587 -1.3343 -1.8523
  841MPD2     C12409   2.467   3.543  14.823 -0.6647  0.4090  0.0469
  841MPD2    C112410   2.575   3.544  14.732 -0.0602 -0.0632 -0.1474
  841MPD2    C212411   2.694   3.595  14.770  0.3545 -0.0802 -0.4520
  841MPD2    C312412   2.715   3.654  14.893  1.2612 -0.3262  0.1825
  841MPD2    C412413   2.610   3.657  14.982  0.2177  0.1546  0.5934
  841MPD2    C512414   2.486   3.607  14.948  0.6280 -0.2962 -0.0257
  841MPD2     H12415   2.780   3.584  14.705 -0.1986 -1.4494 -0.9557
  841MPD2    H112416   2.623   3.695  15.083  0.0888  0.9795  0.3041
  841MPD2    H212417   2.372   3.491  14.810 -0.8316  0.5790  0.5755
  841MPD2    H312418   2.410   3.605  15.026  0.0693  1.2358 -0.5496
  841MPD2     N12419   2.846   3.683  14.921  0.5122 -0.4642 -0.2905
  841MPD2    H512420   2.914   3.665  14.847 -2.2879 -1.4714 -2.6407
  841MPD2    N112421   2.567   3.474  14.614  0.7749  0.1220  0.3381
  841MPD2    H712422   2.650   3.465  14.556  0.4618 -1.5497  0.1636
  842MPD2     C12423   3.483   0.148  16.697  0.8363  0.2064 -0.2182
  842MPD2    C112424   3.376   0.056  16.695  0.9216  0.2384  0.0471
  842MPD2    C212425   3.349   4.717  16.812  0.0243  1.1453 -0.0431
  842MPD2    C312426   3.413   0.014  16.933 -0.2660 -0.2811 -0.8255
  842MPD2    C412427   3.512   0.110  16.928  0.5113 -0.1787 -0.6851
  842MPD2    C512428   3.554   0.178  16.814 -1.2012  0.5397  0.4003
  842MPD2     H12429   3.270   4.643  16.816  1.6153 -0.4945  1.1391
  842MPD2    H112430   3.569   0.129  17.019 -3.1905  0.1375  1.5978
  842MPD2    H212431   3.524   0.199  16.610 -0.2024  0.3078 -0.6512
  842MPD2    H312432   3.637   0.248  16.824 -0.1554 -0.2889 -2.3312
  842MPD2     N12433   3.393   4.685  17.055  1.1575  0.5096 -0.3078
  842MPD2    H512434   3.474   4.688  17.116  2.4089 -0.3137 -1.9459
  842MPD2    N112435   3.321   0.025  16.571  0.7801 -0.1896 -0.5969
  842MPD2    H712436   3.351   0.088  16.497  1.1094  0.5284  0.1458
  843MPD2     C12437   0.102   0.808  17.563 -0.0600  0.1477  0.0321
  843MPD2    C112438   0.197   0.709  17.585 -0.4225  0.9640  0.3500
  843MPD2    C212439   0.314   0.742  17.652 -0.0388 -0.0980  0.0199
  843MPD2    C312440   0.345   0.868  17.689  0.0662  0.0516 -0.3796
  843MPD2    C412441   0.254   0.964  17.662 -0.1887 -0.6707 -0.4541
  843MPD2    C512442   0.131   0.936  17.605  0.1074 -0.2355  0.1655
  843MPD2     H12443   0.391   0.668  17.662  0.0177 -0.2338 -1.5527
  843MPD2    H112444   0.272   1.066  17.692  1.9702 -0.5821 -1.9867
  843MPD2    H212445   0.005   0.787  17.518 -0.4054  0.0770  0.8064
  843MPD2    H312446   0.061   1.018  17.596  0.2272 -0.0756  0.6814
  843MPD2     N12447   0.469   0.910  17.737  0.1557  0.1503  1.0354
  843MPD2    H512448   0.490   1.007   0.008 -0.7162  0.5439 -0.1728
  843MPD2    N112449   0.159   0.571  17.571 -0.1878 -0.1458 -0.8700
  843MPD2    H712450   0.069   0.557  17.526  0.5274 -3.4226 -1.2727
  844MPD2     C12451   3.833   4.126  16.425 -1.0263 -0.1602  0.3501
  844MPD2    C112452   3.960   4.062  16.420 -0.2197  0.3920 -0.1309
  844MPD2    C212453   4.065   4.121  16.481  0.3240 -0.3316 -0.5300
  844MPD2    C312454   4.055   4.245  16.544  0.2070 -0.2686 -0.1358
  844MPD2    C412455   3.930   4.312  16.538 -0.3311  0.0640 -0.1713
  844MPD2    C512456   3.832   4.251  16.483 -0.5400  0.6578 -0.2733
  844MPD2     H12457   4.164   4.078  16.472  0.8483  0.5059  1.2037
  844MPD2    H112458   3.909   4.410  16.580  2.9990 -0.3579  2.4568
  844MPD2    H212459   3.745   4.082  16.380 -1.7027  0.9930  0.5494
  844MPD2    H312460   3.741   4.309  16.495 -1.1619 -0.2082 -0.8282
  844MPD2     N12461   4.179   4.296  16.590  0.2787 -0.6004 -0.2135
  844MPD2    H512462   4.266   4.244  16.578 -0.0182 -1.2350  0.3657
  844MPD2    N112463   3.989   3.943  16.353  0.0559  0.6875  0.5073
  844MPD2    H712464   4.085   3.908  16.355 -0.6406 -1.1833  1.2150
  845MPD2     C12465   4.446   0.503  16.544 -0.3314 -0.1389 -0.2612
  845MPD2    C112466   4.489   0.468  16.667  0.8959  0.0579  0.1612
  845MPD2    C212467   4.494   0.333  16.701  0.7609 -0.1666  0.1180
  845MPD2    C312468   4.457   0.237  16.605  0.6402  0.2732  0.2104
  845MPD2    C412469   4.419   0.276  16.478  0.3627 -0.4627  0.2784
  845MPD2    C512470   4.420   0.409  16.448 -0.1810 -0.4873  0.8296
  845MPD2     H12471   4.507   0.300  16.803 -3.2518  0.3863  0.7914
  845MPD2    H112472   4.390   0.203  16.404  1.4627 -1.3175  0.6760
  845MPD2    H212473   4.444   0.609  16.521 -0.6054  0.0106  0.4447
  845MPD2    H312474   4.380   0.447  16.354 -1.5442 -1.8284  0.8797
  845MPD2     N12475   4.454   0.097  16.636 -0.0077 -0.3269  0.3505
  845MPD2    H512476   4.419   0.036  16.563 -3.1333  2.2009 -0.2279
  845MPD2    N112477   4.500   0.569  16.763  0.8817  0.3716 -0.6743
  845MPD2    H712478   4.470   0.663  16.741 -1.5811  0.0764  1.4787
  846MPD2     C12479   0.759   0.350  13.445 -0.7742 -0.4877  0.6416
  846MPD2    C112480   0.672   0.465  13.444  0.0613  1.1503  0.6593
  846MPD2    C212481   0.649   0.515  13.574  0.5530 -0.1471 -0.0706
  846MPD2    C312482   0.711   0.468  13.689  0.0423 -0.2232  0.2667
  846MPD2    C412483   0.790   0.355  13.680 -0.3673  0.5923 -0.4063
  846MPD2    C512484   0.810   0.295  13.556 -0.3804 -0.5434 -0.3184
  846MPD2     H12485   0.581   0.599  13.585  1.8280  0.9828 -0.8459
  846MPD2    H112486   0.834   0.299  13.761 -2.4554  1.9873  1.7089
  846MPD2    H212487   0.778   0.296  13.352 -3.3549  1.1099 -0.8061
  846MPD2    H312488   0.871   0.206  13.541  1.8879  0.8494  0.6664
  846MPD2     N12489   0.670   0.512  13.818 -0.2064  0.0272 -0.3120
  846MPD2    H512490   0.586   0.569  13.812 -1.4024 -1.6942 -0.2077
  846MPD2    N112491   0.629   0.532  13.322 -0.1482  0.5349  0.0518
  846MPD2    H712492   0.567   0.611  13.335  0.1181  0.9776 -1.3555
  847MPD2     C12493   0.450   1.558  14.653  0.0257  0.1696  0.5447
  847MPD2    C112494   0.579   1.606  14.631 -0.4850 -0.4742  0.0187
  847MPD2    C212495   0.687   1.519  14.629 -0.4889  0.2773  0.2344
  847MPD2    C312496   0.671   1.383  14.634 -0.3296 -0.8167  0.3777
  847MPD2    C412497   0.540   1.332  14.649  0.1675 -0.1226 -0.1604
  847MPD2    C512498   0.436   1.420  14.657  0.1158 -0.1146  0.2781
  847MPD2     H12499   0.788   1.560  14.623 -0.3486 -0.2738 -1.0439
  847MPD2    H112500   0.525   1.224  14.652 -0.2239 -0.0921 -0.8129
  847MPD2    H212501   0.358   1.616  14.661  0.3677  0.8747 -0.7310
  847MPD2    H312502   0.337   1.375  14.654 -0.2359  0.7355 -1.0201
  847MPD2     N12503   0.793   1.307  14.648  0.0508  0.9760 -0.2731
  847MPD2    H512504   0.873   1.367  14.667  0.6896  0.1355 -0.2819
  847MPD2    N112505   0.606   1.746  14.625 -0.0331 -0.3199  0.2734
  847MPD2    H712506   0.703   1.775  14.632  0.1670 -0.5938 -1.5151
  848MPD2     C12507   3.616   0.024  16.272  0.0914 -0.3188  0.8248
  848MPD2    C112508   3.693   0.077  16.366  0.0827  0.8387 -0.4908
  848MPD2    C212509   3.762   0.199  16.334  0.6267  0.2378 -0.2097
  848MPD2    C312510   3.734   0.261  16.213 -0.2747  0.7394 -0.5080
  848MPD2    C412511   3.661   0.190  16.119 -0.1842 -0.1399  0.8164
  848MPD2    C512512   3.596   0.072  16.149 -0.1884 -0.2187  0.0854
  848MPD2     H12513   3.826   0.247  16.408 -1.0404  1.0526  0.7022
  848MPD2    H112514   3.652   0.225  16.016 -1.2391 -3.5787 -0.2358
  848MPD2    H212515   3.564   4.666  16.282  0.1470 -0.4934 -0.5897
  848MPD2    H312516   3.534   0.019  16.078  1.8134 -1.7486 -0.5090
  848MPD2     N12517   3.789   0.386  16.181 -0.2477  0.3018  0.3491
  848MPD2    H512518   3.764   0.418  16.088  0.2619  0.4130  0.2506
  848MPD2    N112519   3.717   0.010  16.493  0.6996 -0.1853 -0.2625
  848MPD2    H712520   3.764   0.068  16.562 -0.1756  0.6256 -0.3407
  849MPD2     C12521   2.794   4.246  14.285  0.4082 -0.3377 -0.2306
  849MPD2    C112522   2.866   4.327  14.195 -0.0701 -0.0803 -0.4109
  849MPD2    C212523   2.982   4.385  14.244  0.8553  0.2352 -0.0565
  849MPD2    C312524   3.028   4.358  14.367  0.0319 -0.0776  0.1533
  849MPD2    C412525   2.951   4.288  14.456  0.3088 -0.0286 -0.0003
  849MPD2    C512526   2.832   4.236  14.421  0.3201  0.8106  0.3275
  849MPD2     H12527   3.037   4.453  14.180  0.0706  1.0242  0.0995
  849MPD2    H112528   2.985   4.264  14.556  1.8325 -0.8181 -0.7020
  849MPD2    H212529   2.707   4.188  14.256  0.4125 -0.8978  0.8449
  849MPD2    H312530   2.779   4.167  14.486  0.6565  0.5068  0.2804
  849MPD2     N12531   3.161   4.397  14.403  0.1158  0.1267 -0.1797
  849MPD2    H512532   3.197   4.455  14.328  2.5630 -1.2954 -0.1306
  849MPD2    N112533   2.842   4.359  14.059 -0.0143  0.2359 -0.5670
  849MPD2    H712534   2.890   4.442  14.025 -0.0273  1.4786  2.4289
  850MPD2     C12535   1.187   2.320  14.735 -0.4380 -0.8365  0.2844
  850MPD2    C112536   1.180   2.404  14.845  0.4888  0.2462  0.0621
  850MPD2    C212537   1.293   2.472  14.878 -0.4341 -0.0341  0.0404
  850MPD2    C312538   1.415   2.453  14.811 -0.2515 -0.2348 -0.0675
  850MPD2    C412539   1.414   2.382  14.697  0.2228 -0.3438 -0.7131
  850MPD2    C512540   1.306   2.314  14.654  0.0076 -0.0475 -0.6114
  850MPD2     H12541   1.298   2.524  14.973 -0.9518  0.9499 -0.4641
  850MPD2    H112542   1.507   2.370  14.643  1.0544  0.6097  0.5090
  850MPD2    H212543   1.098   2.268  14.702 -1.2672  2.0655 -2.0387
  850MPD2    H312544   1.316   2.265  14.558  3.3062 -1.9070  0.7058
  850MPD2     N12545   1.538   2.505  14.860  0.4235 -0.1568 -0.3852
  850MPD2    H512546   1.621   2.469  14.812  0.7477 -0.9605  0.7875
  850MPD2    N112547   1.074   2.391  14.939  0.6384  0.5184  0.2545
  850MPD2    H712548   1.027   2.302  14.934 -1.5266  1.7964 -2.0676
  851MPD2     C12549   1.424   2.005  15.569 -0.0289 -0.3118  0.6451
  851MPD2    C112550   1.304   2.018  15.499  0.0056  0.0954 -0.1857
  851MPD2    C212551   1.234   1.896  15.465  0.1314  0.4079 -0.1718
  851MPD2    C312552   1.290   1.772  15.495 -0.7212  0.1153 -0.9190
  851MPD2    C412553   1.403   1.760  15.569  0.6146 -0.0044  0.1900
  851MPD2    C512554   1.468   1.876  15.598 -0.1297 -0.4449 -0.2986
  851MPD2     H12555   1.147   1.903  15.401 -1.3407  2.7458  2.0787
  851MPD2    H112556   1.436   1.663  15.603 -0.4028 -0.1304  0.8318
  851MPD2    H212557   1.483   2.090  15.601 -0.4888  0.2232  0.0841
  851MPD2    H312558   1.563   1.868  15.650  0.2991 -1.4140 -1.2500
  851MPD2     N12559   1.208   1.662  15.459 -1.0385 -0.3678  0.6830
  851MPD2    H512560   1.127   1.690  15.405 -0.1308  1.9252  0.5085
  851MPD2    N112561   1.261   2.154  15.466 -0.6054 -0.2246 -0.3779
  851MPD2    H712562   1.322   2.231  15.492 -3.1352  1.4194  0.5949
  852MPD2     C12563   0.993   0.770   9.979  0.8974 -0.4378 -0.3127
  852MPD2    C112564   0.994   0.784  10.117  0.6670  0.5246  0.7828
  852MPD2    C212565   1.094   0.865  10.168  0.2370  0.1301 -0.0447
  852MPD2    C312566   1.169   0.943  10.079  1.3197  0.2523 -0.4083
  852MPD2    C412567   1.163   0.924   9.941  0.9578  0.0320  0.0938
  852MPD2    C512568   1.079   0.831   9.892  0.2105  0.0823 -0.4869
  852MPD2     H12569   1.096   0.889  10.274 -1.7812 -2.1918  0.5174
  852MPD2    H112570   1.228   0.984   9.879  1.0268  1.4122  1.4940
  852MPD2    H212571   0.919   0.708   9.930  1.2674  0.7844 -2.4247
  852MPD2    H312572   1.075   0.813   9.785  0.0448 -2.9627  0.0311
  852MPD2     N12573   1.246   1.047  10.137  0.0690  0.0125 -0.4674
  852MPD2    H512574   1.244   1.050  10.238 -0.9102 -1.3593 -0.4442
  852MPD2    N112575   0.908   0.719  10.204  0.1053  0.3874 -0.5132
  852MPD2    H712576   0.940   0.714  10.300  1.0549 -2.8856 -0.9983
  853MPD2     C12577   2.616   4.502  12.260 -0.1906 -0.9891 -0.1046
  853MPD2    C112578   2.566   4.626  12.237  0.4109  0.1178  0.6766
  853MPD2    C212579   2.516   4.667  12.112  0.0502  0.1203  0.6298
  853MPD2    C312580   2.519   4.572  12.011 -0.5590 -0.3219  0.0431
  853MPD2    C412581   2.567   4.444  12.036  0.0972 -0.6132 -0.7773
  853MPD2    C512582   2.616   4.409  12.166  0.5920  0.2458  0.1992
  853MPD2     H12583   2.497   0.036  12.092 -1.6839 -0.6718 -1.9363
  853MPD2    H112584   2.549   4.367  11.962 -1.2777 -0.0614 -1.0067
  853MPD2    H212585   2.634   4.454  12.355  1.1399 -1.0115 -0.3712
  853MPD2    H312586   2.638   4.304  12.184 -0.1740 -0.2595 -1.8468
  853MPD2     N12587   2.472   4.609  11.882 -0.2337 -0.0040 -0.2682
  853MPD2    H512588   2.486   4.545  11.804  0.0833 -1.8652  1.3389
  853MPD2    N112589   2.575   4.709  12.351 -0.2376 -0.1975 -0.4052
  853MPD2    H712590   2.602   4.670  12.440  0.5644 -0.7436 -0.8853
  854MPD2     C12591   4.180   4.729  12.283 -0.0688  0.6926  0.3898
  854MPD2    C112592   4.152   0.036  12.409 -0.0077  0.2189 -0.2526
  854MPD2    C212593   4.200   4.697  12.514  0.4354  0.4413  0.2375
  854MPD2    C312594   4.270   4.586  12.497  0.0992 -0.4507 -0.5948
  854MPD2    C412595   4.298   4.544  12.369  0.8069  0.4563  0.0285
  854MPD2    C512596   4.252   4.620  12.264  0.0948  0.4613  0.0722
  854MPD2     H12597   4.171   4.729  12.614 -0.9132 -0.6223  0.1796
  854MPD2    H112598   4.343   4.447  12.350  0.2475 -0.0418  1.2636
  854MPD2    H212599   4.144   0.050  12.198  0.7823 -1.4067 -1.3809
  854MPD2    H312600   4.279   4.593  12.162  0.3875  3.0506 -0.5268
  854MPD2     N12601   4.328   4.516  12.605 -0.0147 -0.0118  0.7019
  854MPD2    H512602   4.394   4.443  12.582  0.2851  0.6818 -0.6062
  854MPD2    N112603   4.085   0.160  12.424  0.5375  0.1577 -0.1479
  854MPD2    H712604   4.050   0.206  12.341  1.6736  0.0274 -0.7025
  855MPD2     C12605   0.021   4.718  13.510 -0.6469 -0.6118  0.7522
  855MPD2    C112606   4.690   4.595  13.509  0.1001 -0.2170  0.2121
  855MPD2    C212607   4.642   4.540  13.395 -0.4034 -0.6716  0.2199
  855MPD2    C312608   4.648   4.610  13.277  0.4645  0.0880  0.4842
  855MPD2    C412609   4.705   4.736  13.276  0.0755 -0.6519  0.0998
  855MPD2    C512610   0.021   0.054  13.389 -0.5283  0.7043  1.0361
  855MPD2     H12611   4.583   4.449  13.400 -1.9905  0.4201  1.3165
  855MPD2    H112612   4.704   0.051  13.181  2.2818 -2.2776 -0.8109
  855MPD2    H212613   0.086   0.015  13.590 -2.1446  2.3555  0.7039
  855MPD2    H312614   0.085   0.141  13.384 -0.2084  0.5535  2.4977
  855MPD2     N12615   4.597   4.555  13.154  0.2192  0.5831  0.5123
  855MPD2    H512616   4.592   4.618  13.075 -1.4115 -1.5284 -1.0626
  855MPD2    N112617   4.671   4.517  13.626  0.1608  0.3059 -0.3885
  855MPD2    H712618   4.624   4.427  13.621 -0.7421  0.8658 -2.1078
  856MPD2     C12619   2.128   1.118  14.132 -0.2514 -0.1172 -0.0953
  856MPD2    C112620   2.134   1.131  13.996  0.0229 -1.0203 -0.5799
  856MPD2    C212621   2.028   1.091  13.920  0.8209 -0.0809 -0.1210
  856MPD2    C312622   1.916   1.026  13.972  0.2170 -0.1046 -0.4315
  856MPD2    C412623   1.916   1.011  14.111 -0.1844 -0.0961 -0.7200
  856MPD2    C512624   2.016   1.063  14.186  0.1934 -0.9589  0.0348
  856MPD2     H12625   2.035   1.115  13.814 -3.7430 -0.8442 -0.5634
  856MPD2    H112626   1.839   0.948  14.154 -0.6389  0.9630  0.0123
  856MPD2    H212627   2.209   1.156  14.194 -0.6621 -0.8731  0.9095
  856MPD2    H312628   2.012   1.054  14.294  1.7643  0.3637  0.1981
  856MPD2     N12629   1.807   0.977  13.904  0.2593 -0.3122  0.1435
  856MPD2    H512630   1.737   0.921  13.952  0.0219 -0.3952 -0.3028
  856MPD2    N112631   2.245   1.199  13.934  0.0559  0.3934 -0.9499
  856MPD2    H712632   2.241   1.217  13.834 -0.8912 -0.7033 -1.1012
  857MPD2     C12633   3.396   3.529  12.151 -0.6587 -0.7876  0.4922
  857MPD2    C112634   3.480   3.513  12.259  0.0878  0.8597 -0.6479
  857MPD2    C212635   3.537   3.626  12.314 -0.5509 -0.0468  0.0559
  857MPD2    C312636   3.515   3.751  12.266 -0.2437  0.0213 -0.1361
  857MPD2    C412637   3.436   3.761  12.156  0.1993 -0.1267 -0.5947
  857MPD2    C512638   3.380   3.650  12.096 -0.5256 -0.3463  1.1746
  857MPD2     H12639   3.600   3.609  12.400 -1.9302 -0.1057  1.0463
  857MPD2    H112640   3.427   3.851  12.096  3.4476  1.7586  1.7275
  857MPD2    H212641   3.351   3.446  12.098 -0.8965 -0.4220  0.1322
  857MPD2    H312642   3.306   3.665  12.018 -1.1317 -1.1927  1.5918
  857MPD2     N12643   3.579   3.851  12.328 -0.4998 -0.3794 -0.2428
  857MPD2    H512644   3.635   3.829  12.410 -2.5616 -0.5257  1.1112
  857MPD2    N112645   3.494   3.382  12.306 -0.0711 -0.5462  0.0002
  857MPD2    H712646   3.458   3.308  12.246  0.6051 -1.7076  1.0227
  858MPD2     C12647   3.755   1.944  16.638 -0.2736  0.7392  0.4272
  858MPD2    C112648   3.890   1.948  16.656 -0.2499  0.5220 -0.3671
  858MPD2    C212649   3.942   2.028  16.764  0.6011 -0.0910 -0.8967
  858MPD2    C312650   3.856   2.095  16.847  0.3230 -0.4643 -0.0643
  858MPD2    C412651   3.719   2.082  16.830 -0.5901 -0.1961  0.5009
  858MPD2    C512652   3.670   2.004  16.728 -0.0111  0.0776 -0.2649
  858MPD2     H12653   4.044   2.024  16.800  0.1679  1.5703  0.4923
  858MPD2    H112654   3.646   2.115  16.904 -1.6873 -1.3628 -0.0725
  858MPD2    H212655   3.702   1.881  16.568  0.5222 -1.2495  1.6044
  858MPD2    H312656   3.562   1.993  16.721  0.3345 -2.4016 -1.6197
  858MPD2     N12657   3.897   2.171  16.958  0.6700  0.5348  0.5409
  858MPD2    H512658   3.821   2.199  17.019  1.8486  0.3476  2.0944
  858MPD2    N112659   3.975   1.877  16.571  0.1140  0.7291  0.4097
  858MPD2    H712660   3.927   1.816  16.506  0.6384  0.7280  0.0169
  859MPD2     C12661   2.700   0.129  15.567 -0.4463  0.2135 -0.4637
  859MPD2    C112662   2.807   0.045  15.530  0.3651 -0.3295  0.0770
  859MPD2    C212663   2.819   4.663  15.593  0.4214 -0.0900  0.3313
  859MPD2    C312664   2.715   4.611  15.676 -0.5779 -0.2168  0.0055
  859MPD2    C412665   2.596   4.687  15.684  0.2006  0.7117 -0.3712
  859MPD2    C512666   2.593   0.073  15.628 -0.0186 -0.1117  0.2680
  859MPD2     H12667   2.908   4.603  15.578 -1.0353 -2.0088 -0.7676
  859MPD2    H112668   2.507   4.652  15.735 -0.6893  0.8428 -1.8246
  859MPD2    H212669   2.691   0.224  15.515  0.3334 -0.9567 -2.7548
  859MPD2    H312670   2.496   0.123  15.634 -1.1512 -2.3552  0.7027
  859MPD2     N12671   2.727   4.496  15.766  0.0790  0.6053 -0.3058
  859MPD2    H512672   2.643   4.481  15.822  0.2038  0.0941 -0.2553
  859MPD2    N112673   2.913   0.076  15.439 -0.4121 -0.7901  0.9965
  859MPD2    H712674   2.984   0.006  15.419 -1.2779 -1.5231  0.4962
  860MPD2     C12675   1.059   4.249  11.867 -0.1570  0.6387  0.1052
  860MPD2    C112676   0.968   4.347  11.888  0.4568 -0.0947  0.0412
  860MPD2    C212677   0.836   4.329  11.888  0.1707  0.2543  0.1778
  860MPD2    C312678   0.781   4.210  11.847  0.5487 -0.6093  0.1021
  860MPD2    C412679   0.868   4.114  11.810 -0.0541 -0.1467 -0.6564
  860MPD2    C512680   1.001   4.132  11.830  0.2015 -0.3474  0.5257
  860MPD2     H12681   0.772   4.408  11.925  1.2782  1.4172 -0.3902
  860MPD2    H112682   0.829   4.021  11.770  0.1160 -0.8655  0.8646
  860MPD2    H212683   1.167   4.253  11.877  0.1562  1.1275 -3.3012
  860MPD2    H312684   1.061   4.049  11.795  1.0803  0.0586  1.0702
  860MPD2     N12685   0.637   4.197  11.844  0.2372 -0.0316 -1.0150
  860MPD2    H512686   0.585   4.275  11.881 -1.5048 -1.4631 -0.4201
  860MPD2    N112687   1.010   4.471  11.933 -0.5596 -0.7547  0.1078
  860MPD2    H712688   0.939   4.544  11.940 -0.2440 -0.3602 -0.7251
  861MPD2     C12689   4.297   3.366  10.787  0.1347  0.2348  0.2666
  861MPD2    C112690   4.162   3.323  10.809  0.5818  0.3426  0.4011
  861MPD2    C212691   4.063   3.355  10.716 -0.2077  0.6047  0.2202
  861MPD2    C312692   4.092   3.437  10.604  0.5325  0.0383  0.6717
  861MPD2    C412693   4.221   3.476  10.582  0.2932 -0.3015  0.0245
  861MPD2    C512694   4.314   3.449  10.680  0.0864 -0.5918 -0.1356
  861MPD2     H12695   3.959   3.328  10.727  0.0864 -0.3363  0.6875
  861MPD2    H112696   4.250   3.537  10.497  2.6206 -1.4242  0.0047
  861MPD2    H212697   4.377   3.348  10.858 -0.3146 -1.9655  0.1996
  861MPD2    H312698   4.415   3.485  10.663  0.0116 -0.9567 -1.3013
  861MPD2     N12699   3.997   3.498  10.516 -0.4364  0.1214 -0.5052
  861MPD2    H512700   4.032   3.566  10.448  1.5202  1.6109  1.9930
  861MPD2    N112701   4.126   3.241  10.915 -0.0672 -0.0506 -0.1977
  861MPD2    H712702   4.028   3.222  10.930  0.5909 -2.9340  0.4285
  862MPD2     C12703   3.324   3.315  10.053 -0.6050 -0.3499 -0.3501
  862MPD2    C112704   3.409   3.287  10.160  0.5072  0.0500  0.3628
  862MPD2    C212705   3.409   3.158  10.217 -0.4876 -0.3809 -0.4085
  862MPD2    C312706   3.341   3.055  10.163 -0.3966  0.3339 -0.6580
  862MPD2    C412707   3.269   3.089  10.045  0.0306 -0.1111 -0.7507
  862MPD2    C512708   3.258   3.214   9.997 -0.6937  0.2616  0.6722
  862MPD2     H12709   3.465   3.147  10.309 -2.5386 -0.5661  0.8211
  862MPD2    H112710   3.213   3.011   9.995 -0.0039 -0.3231 -0.3810
  862MPD2    H212711   3.300   3.409  10.005 -0.1732  0.0363  0.1977
  862MPD2    H312712   3.181   3.237   9.924  0.2839 -1.0447 -0.7622
  862MPD2     N12713   3.324   2.923  10.214 -0.1585 -0.5906 -0.2517
  862MPD2    H512714   3.244   2.867  10.188 -0.5129 -0.3323  0.2787
  862MPD2    N112715   3.479   3.381  10.233  0.1609  0.5398 -0.0725
  862MPD2    H712716   3.541   3.347  10.306 -1.3225 -2.0361 -0.0245
  863MPD2     C12717   2.176   1.035  16.874  0.6108  0.0086 -0.4757
  863MPD2    C112718   2.273   1.068  16.786 -0.1524 -0.0249 -0.0335
  863MPD2    C212719   2.396   1.004  16.794 -0.6088  0.3235  0.3802
  863MPD2    C312720   2.426   0.914  16.893  1.1856  0.0156 -0.1428
  863MPD2    C412721   2.329   0.890  16.987  0.1646 -0.2878 -0.2770
  863MPD2    C512722   2.204   0.951  16.982  0.4664 -0.5697  0.0838
  863MPD2     H12723   2.478   1.031  16.728  0.2105 -0.4079  1.0985
  863MPD2    H112724   2.354   0.837  17.078 -3.3031  0.6523  1.2436
  863MPD2    H212725   2.080   1.085  16.873  0.5382 -0.1194  0.2964
  863MPD2    H312726   2.131   0.934  17.060 -0.2191 -0.8996 -0.6227
  863MPD2     N12727   2.551   0.864  16.926  0.3219 -0.3184 -0.4473
  863MPD2    H512728   2.556   0.818  17.016 -0.1245 -3.0093 -1.7936
  863MPD2    N112729   2.233   1.160  16.685  0.4511 -0.4726 -0.3314
  863MPD2    H712730   2.137   1.191  16.694 -0.0646 -1.5734 -1.9600
  864MPD2     C12731   2.802   2.475  17.016  0.1016 -0.4849  0.4770
  864MPD2    C112732   2.903   2.386  16.985  0.4535 -0.1625  0.3264
  864MPD2    C212733   3.012   2.437  16.914 -0.6023  0.5320  0.2713
  864MPD2    C312734   3.020   2.568  16.881 -0.5293 -0.2426  0.2154
  864MPD2    C412735   2.923   2.659  16.930  0.5539  0.5279  0.4243
  864MPD2    C512736   2.811   2.610  16.995  0.1400  0.0616 -0.3804
  864MPD2     H12737   3.090   2.377  16.871 -1.8257  0.3697 -1.7340
  864MPD2    H112738   2.934   2.766  16.918  0.5283  0.2538 -2.1775
  864MPD2    H212739   2.725   2.438  17.083 -1.2123  0.5269 -0.4832
  864MPD2    H312740   2.734   2.677  17.032 -1.0537 -1.4688 -0.0826
  864MPD2     N12741   3.127   2.627  16.807  0.6449 -0.4391  0.3647
  864MPD2    H512742   3.131   2.728  16.798  0.2424 -0.3858  0.8218
  864MPD2    N112743   2.884   2.259  17.033 -0.2928  0.1948 -0.2931
  864MPD2    H712744   2.793   2.231  17.069 -0.5432 -0.9055 -1.8006
  865MPD2     C12745   3.442   2.755  16.042 -0.2092  0.2519  0.1619
  865MPD2    C112746   3.377   2.701  16.147  0.2483 -0.7674 -0.4588
  865MPD2    C212747   3.322   2.776  16.247 -0.3860  0.2139  0.1598
  865MPD2    C312748   3.342   2.915  16.242  0.2483 -0.2755  0.5313
  865MPD2    C412749   3.396   2.964  16.130 -0.3276  0.0917 -0.7008
  865MPD2    C512750   3.445   2.891  16.027  1.1915 -0.0220 -0.6217
  865MPD2     H12751   3.255   2.733  16.320  2.4202 -1.8619  1.5375
  865MPD2    H112752   3.399   3.072  16.118  0.5860  0.2166  0.7603
  865MPD2    H212753   3.474   2.693  15.959 -3.6523  0.5811 -1.4460
  865MPD2    H312754   3.492   2.925  15.935 -1.2993  0.3409 -1.7451
  865MPD2     N12755   3.301   3.006  16.345  0.0912 -0.8747  0.0698
  865MPD2    H512756   3.307   3.103  16.315 -1.7498 -0.3814  1.3172
  865MPD2    N112757   3.363   2.560  16.137  0.0227  0.0464  0.0111
  865MPD2    H712758   3.404   2.519  16.054 -0.9312 -3.1403  1.1299
  866MPD2     C12759   4.248   3.200  11.447 -0.3227  0.2814 -0.3847
  866MPD2    C112760   4.327   3.292  11.386  0.3121  0.1803  0.0305
  866MPD2    C212761   4.266   3.393  11.319  0.1632 -0.3327 -0.1786
  866MPD2    C312762   4.130   3.414  11.335 -0.3714 -0.1438  0.1886
  866MPD2    C412763   4.058   3.341  11.424 -0.2431 -0.0034 -0.4460
  866MPD2    C512764   4.119   3.232  11.478 -0.6353 -0.2371  0.6041
  866MPD2     H12765   4.323   3.456  11.252  0.7578 -0.0889  0.5540
  866MPD2    H112766   3.954   3.361  11.443 -0.7285 -2.0155 -0.9447
  866MPD2    H212767   4.283   3.112  11.500 -2.1444 -1.6684 -2.4032
  866MPD2    H312768   4.065   3.155  11.532 -0.4619  0.0760  1.2231
  866MPD2     N12769   4.059   3.520  11.271 -0.3343  0.4250  0.8007
  866MPD2    H512770   3.961   3.521  11.299  0.0036  1.8673  1.9415
  866MPD2    N112771   4.464   3.250  11.390 -0.1333  0.0027  0.4417
  866MPD2    H712772   4.491   3.170  11.446  1.7216 -1.0622 -2.0065
  867MPD2     C12773   1.805   2.217  16.477 -0.6399  0.3708 -0.0413
  867MPD2    C112774   1.922   2.198  16.545  0.1994 -1.1821 -0.1404
  867MPD2    C212775   1.962   2.284  16.645 -0.0731 -0.5404  0.2498
  867MPD2    C312776   1.889   2.396  16.675  0.1983  0.0717 -0.2830
  867MPD2    C412777   1.770   2.420  16.602 -0.1179 -0.3028  0.9520
  867MPD2    C512778   1.728   2.329  16.509 -0.0973 -0.1517  0.1098
  867MPD2     H12779   2.050   2.264  16.704 -0.1386 -2.5898 -0.3741
  867MPD2    H112780   1.701   2.500  16.622  1.1808  1.1484 -0.3708
  867MPD2    H212781   1.761   2.147  16.408  0.1676 -1.2438  1.0649
  867MPD2    H312782   1.634   2.337  16.456  0.5883 -0.8724 -1.2159
  867MPD2     N12783   1.919   2.488  16.773  0.1286 -0.0846  0.3508
  867MPD2    H512784   1.858   2.569  16.767 -2.1054 -1.9615 -2.4055
  867MPD2    N112785   1.994   2.086  16.507  0.1436  0.6416 -0.3974
  867MPD2    H712786   1.939   2.037  16.437 -0.9363 -0.5431  1.2807
  868MPD2     C12787   3.719   1.073  12.706 -0.0908 -0.5595  0.1557
  868MPD2    C112788   3.777   1.096  12.827 -0.0585  0.0103 -0.1035
  868MPD2    C212789   3.728   1.202  12.900  0.8153  0.5064  0.0799
  868MPD2    C312790   3.623   1.282  12.862  0.4818 -0.7085 -0.1703
  868MPD2    C412791   3.569   1.254  12.737  0.8121  0.4649  0.1688
  868MPD2    C512792   3.622   1.148  12.666 -0.4149 -0.3131  0.1962
  868MPD2     H12793   3.775   1.224  12.996 -2.5308 -0.0442  1.8570
  868MPD2    H112794   3.490   1.312  12.690  1.3458  1.4042  0.4400
  868MPD2    H212795   3.751   0.992  12.641 -0.0873  1.5606 -2.4772
  868MPD2    H312796   3.594   1.127  12.564 -1.1869 -1.9946  0.7621
  868MPD2     N12797   3.597   1.395  12.937  0.3663  0.2190  0.5884
  868MPD2    H512798   3.661   1.416  13.013  2.7167  1.9768 -1.8766
  868MPD2    N112799   3.891   1.018  12.858  0.4157 -0.0670  0.4693
  868MPD2    H712800   3.935   0.960  12.788 -1.2128  0.0465 -0.6466
  869MPD2     C12801   0.368   3.612   0.209  0.8610 -0.1360 -0.4781
  869MPD2    C112802   0.289   3.685   0.287  0.2292 -0.1056 -0.2404
  869MPD2    C212803   0.346   3.793   0.357  0.0963  0.4923  0.0904
  869MPD2    C312804   0.485   3.812   0.348  0.6389  0.6731 -0.0709
  869MPD2    C412805   0.562   3.729   0.275 -0.3715  0.3609  0.0543
  869MPD2    C512806   0.499   3.638   0.197 -0.5480 -0.3206  0.5160
  869MPD2     H12807   0.276   3.860   0.407 -1.2857 -0.4721 -0.5283
  869MPD2    H112808   0.668   3.750   0.276 -0.4042  0.3773  3.2650
  869MPD2    H212809   0.340   3.518   0.162 -0.5707  0.1628 -0.2221
  869MPD2    H312810   0.557   3.574   0.131  1.9250  0.4473  1.9424
  869MPD2     N12811   0.556   3.931   0.392  0.5581 -0.0842 -0.6059
  869MPD2    H512812   0.657   3.928   0.387  0.6299  0.9790  0.2500
  869MPD2    N112813   0.154   3.643   0.304  0.7072 -0.1047 -0.2950
  869MPD2    H712814   0.115   3.560   0.259 -0.7698 -1.0136  2.5987
  870MPD2     C12815   0.472   2.755   0.991  0.5126 -0.1457  0.3424
  870MPD2    C112816   0.357   2.678   0.982  0.3187 -0.9880 -0.0930
  870MPD2    C212817   0.238   2.755   0.972 -0.0601  0.1504 -0.3786
  870MPD2    C312818   0.239   2.894   0.956 -0.0025 -0.0027  0.0597
  870MPD2    C412819   0.353   2.963   0.969 -0.2268  0.1473 -0.5728
  870MPD2    C512820   0.473   2.892   0.978 -0.3598  0.1796 -0.3009
  870MPD2     H12821   0.144   2.701   0.964  1.5142 -2.7544  0.5910
  870MPD2    H112822   0.367   3.070   0.964 -0.6661  0.4157  3.5847
  870MPD2    H212823   0.563   2.701   1.012  0.4967 -0.2256  0.2014
  870MPD2    H312824   0.566   2.948   0.978 -0.9707  1.2231  2.3578
  870MPD2     N12825   0.115   2.954   0.940 -0.3364 -0.1739 -0.1530
  870MPD2    H512826   0.041   2.887   0.922 -1.7539  1.1382  0.7815
  870MPD2    N112827   0.367   2.541   1.004  0.0657  0.0982  0.1066
  870MPD2    H712828   0.453   2.500   1.038 -0.0986 -0.0434  0.3473
  871MPD2     C12829   0.810   1.765  16.445 -0.0245 -0.0627  0.4475
  871MPD2    C112830   0.843   1.893  16.492 -0.2526  0.2076  0.4468
  871MPD2    C212831   0.979   1.926  16.474  0.3474  0.2522 -0.1920
  871MPD2    C312832   1.073   1.847  16.413  0.3204 -0.2809  0.0637
  871MPD2    C412833   1.029   1.727  16.356  0.5065  0.2755 -0.2928
  871MPD2    C512834   0.902   1.688  16.378  0.0858  0.2501 -0.4479
  871MPD2     H12835   1.010   2.015  16.526  2.6120 -1.3405  1.1306
  871MPD2    H112836   1.099   1.663  16.303 -0.7865 -3.2882  2.2951
  871MPD2    H212837   0.706   1.735  16.459 -0.4168  2.0602  2.0011
  871MPD2    H312838   0.870   1.597  16.328  0.4129 -0.7015  1.0735
  871MPD2     N12839   1.215   1.886  16.429  0.1294 -0.1099 -0.6003
  871MPD2    H512840   1.226   1.981  16.462  3.4823 -1.0618  1.0170
  871MPD2    N112841   0.758   1.966  16.579 -0.3685  0.0513 -0.0825
  871MPD2    H712842   0.685   1.906  16.618  0.4685 -0.7447  0.2622
  872MPD2     C12843   1.618   0.376  13.681 -0.0853 -0.5603 -0.4132
  872MPD2    C112844   1.677   0.421  13.801 -0.0170  0.0289 -0.3158
  872MPD2    C212845   1.599   0.391  13.917  0.6679  0.1871 -0.4689
  872MPD2    C312846   1.463   0.354  13.905 -0.9922  0.5009  0.0532
  872MPD2    C412847   1.410   0.331  13.779  0.1586  0.1951  0.1902
  872MPD2    C512848   1.489   0.320  13.673  0.0611  0.0736  0.0972
  872MPD2     H12849   1.641   0.412  14.015 -1.0806  1.5681 -0.0309
  872MPD2    H112850   1.307   0.298  13.780  0.6041 -1.2876 -1.5326
  872MPD2    H212851   1.678   0.382  13.590 -0.9831 -1.3904 -1.0593
  872MPD2    H312852   1.454   0.277  13.579  0.5481  1.6188 -0.8010
  872MPD2     N12853   1.371   0.329  14.008 -0.1352 -0.0846 -0.1505
  872MPD2    H512854   1.284   0.294  13.970 -1.6132  2.3725  1.0416
  872MPD2    N112855   1.808   0.469  13.813 -0.4578  0.5291  0.4305
  872MPD2    H712856   1.847   0.465  13.907  0.0238  2.1895  0.2948
  873MPD2     C12857   3.689   0.043   0.575 -0.5723 -0.0442 -0.3121
  873MPD2    C112858   3.597   4.720   0.662 -0.0015 -0.1431 -0.0132
  873MPD2    C212859   3.526   4.607   0.616  0.1669 -1.0189  0.1305
  873MPD2    C312860   3.536   4.571   0.477 -0.1653  0.9948  0.0198
  873MPD2    C412861   3.627   4.637   0.398 -0.1984  0.3008 -0.2496
  873MPD2    C512862   3.708   4.736   0.448  0.0613  0.2179  0.1060
  873MPD2     H12863   3.465   4.546   0.681  1.5298 -2.6145 -0.0912
  873MPD2    H112864   3.654   4.606   0.298 -1.4305  0.5084 -0.6422
  873MPD2    H212865   3.751   0.124   0.613 -1.7331  0.6223  0.1474
  873MPD2    H312866   3.771   0.049   0.375 -0.8426  2.2781  0.7311
  873MPD2     N12867   3.449   4.468   0.423 -0.5802  0.3083  0.3302
  873MPD2    H512868   3.454   4.471   0.322  0.7547  0.7357  0.4036
  873MPD2    N112869   3.580   0.028   0.797 -0.1769  0.2666 -0.8758
  873MPD2    H712870   3.643   0.105   0.820 -0.4515 -0.1971  1.3933
  874MPD2     C12871   3.148   0.464  15.902 -0.2862 -0.4363 -0.0101
  874MPD2    C112872   3.225   0.405  15.997  0.0276  0.0375 -0.5419
  874MPD2    C212873   3.348   0.462  16.033  0.1279 -0.6581  0.3382
  874MPD2    C312874   3.389   0.583  15.995  0.3935 -0.1157 -0.2175
  874MPD2    C412875   3.302   0.652  15.911  0.6901  0.4349  0.0381
  874MPD2    C512876   3.186   0.593  15.856  0.0647 -0.3561 -0.1824
  874MPD2     H12877   3.418   0.414  16.101  0.8393 -0.2908 -0.1318
  874MPD2    H112878   3.322   0.753  15.877  1.7369  0.7573  1.5684
  874MPD2    H212879   3.060   0.421  15.857 -0.8353 -0.5947  1.2140
  874MPD2    H312880   3.132   0.652  15.783 -1.4498 -0.4384  0.8685
  874MPD2     N12881   3.507   0.631  16.053  0.1372 -0.7177  0.0168
  874MPD2    H512882   3.563   0.561  16.100  1.3278  0.7108  0.7601
  874MPD2    N112883   3.178   0.288  16.055  0.4589 -0.1938 -0.1968
  874MPD2    H712884   3.100   0.237  16.017 -2.2499  1.4495  3.1664
  875MPD2     C12885   3.534   3.171  14.615 -0.4373  0.5657  0.2254
  875MPD2    C112886   3.620   3.255  14.547 -0.1118  0.4502  0.6764
  875MPD2    C212887   3.727   3.303  14.620  0.8117  0.7489 -0.5566
  875MPD2    C312888   3.739   3.277  14.757  0.2798 -0.0477  0.4271
  875MPD2    C412889   3.650   3.192  14.819  0.3829  0.4941 -0.4511
  875MPD2    C512890   3.553   3.136  14.747  0.5467 -0.1991  0.3326
  875MPD2     H12891   3.793   3.362  14.558  1.3014  0.6148 -0.1643
  875MPD2    H112892   3.643   3.178  14.926  1.0376 -3.7941 -0.9623
  875MPD2    H212893   3.442   3.141  14.566  0.8814 -1.8175 -0.7570
  875MPD2    H312894   3.482   3.068  14.792  0.2536 -0.6606 -0.8352
  875MPD2     N12895   3.837   3.331  14.834  0.8843  0.3021 -0.0832
  875MPD2    H512896   3.833   3.294  14.929  0.1046  0.3520 -0.0929
  875MPD2    N112897   3.615   3.286  14.415  0.1152  0.1325 -0.0539
  875MPD2    H712898   3.684   3.347  14.374 -0.2088 -0.4132 -1.4076
  876MPD2     C12899   3.126   0.059  15.789 -0.6748 -0.2783  0.0362
  876MPD2    C112900   3.265   0.053  15.799  0.5250  0.2074 -0.1298
  876MPD2    C212901   3.317   4.670  15.855 -0.0795  0.0998 -0.4696
  876MPD2    C312902   3.235   4.574  15.921 -0.0572  0.5530 -0.4445
  876MPD2    C412903   3.100   4.597  15.922  0.0882 -0.2868 -0.5303
  876MPD2    C512904   3.048   4.701  15.850 -0.3140 -0.5667  0.0094
  876MPD2     H12905   3.423   4.648  15.855 -0.1430 -0.1963  1.7504
  876MPD2    H112906   3.029   4.526  15.964  0.6234 -0.9759 -0.8069
  876MPD2    H212907   3.074   0.135  15.731 -0.0032  0.1362 -0.0172
  876MPD2    H312908   2.941   4.712  15.856 -0.4917 -2.3068  0.0557
  876MPD2     N12909   3.295   4.463  15.976 -0.2210 -1.0429  0.0250
  876MPD2    H512910   3.392   4.456  15.946 -0.5423 -1.9052 -0.8315
  876MPD2    N112911   3.339   0.146  15.733 -0.2025 -0.2280  0.6574
  876MPD2    H712912   3.289   0.216  15.680 -2.4280 -2.7391 -0.6056
  877MPD2     C12913   3.183   0.594  15.273 -0.0579 -0.0376  0.2259
  877MPD2    C112914   3.319   0.590  15.252 -0.5455  0.3342 -0.3261
  877MPD2    C212915   3.369   0.606  15.125  0.6403 -0.2057 -0.0099
  877MPD2    C312916   3.289   0.618  15.013  0.2581 -0.0030 -0.1074
  877MPD2    C412917   3.153   0.610  15.032 -0.8720 -0.6238 -0.4646
  877MPD2    C512918   3.104   0.598  15.160  0.7016  0.0517 -0.3509
  877MPD2     H12919   3.477   0.612  15.119  0.4380  1.6883 -1.6345
  877MPD2    H112920   3.080   0.613  14.951 -2.0192  1.0941  0.6244
  877MPD2    H212921   3.128   0.578  15.365 -0.2599 -0.1577  0.0846
  877MPD2    H312922   2.995   0.597  15.156  0.7319 -0.4548 -1.1215
  877MPD2     N12923   3.343   0.653  14.884 -0.2436  0.8957  0.4057
  877MPD2    H512924   3.284   0.640  14.802  0.1442 -3.6969  0.8948
  877MPD2    N112925   3.411   0.580  15.360 -0.1323 -0.0932 -0.4035
  877MPD2    H712926   3.508   0.565  15.333 -0.5343 -1.4065 -1.1170
  878MPD2     C12927   3.167   4.128  13.112  0.0284 -0.2650 -0.3366
  878MPD2    C112928   3.146   4.263  13.108  0.3587  0.4043 -0.2991
  878MPD2    C212929   3.091   4.334  13.224 -0.4683  0.2096  0.0864
  878MPD2    C312930   3.071   4.259  13.340  0.5956 -0.7790  0.3903
  878MPD2    C412931   3.113   4.125  13.343 -0.5849 -0.1969 -0.5710
  878MPD2    C512932   3.142   4.061  13.227 -0.0118 -0.8444 -0.1906
  878MPD2     H12933   3.067   4.439  13.215  1.0348  0.6439  1.2055
  878MPD2    H112934   3.101   4.056  13.426  3.0335  0.9814  0.9396
  878MPD2    H212935   3.182   4.066  13.024 -4.7015 -3.1232  0.8870
  878MPD2    H312936   3.153   3.954  13.218 -0.3839 -0.8528 -0.5291
  878MPD2     N12937   2.989   4.325  13.441 -0.1240  0.2438 -0.2831
  878MPD2    H512938   2.977   4.424  13.421  0.6438  0.1533 -1.1919
  878MPD2    N112939   3.167   4.321  12.982 -0.3430  0.2240 -0.2576
  878MPD2    H712940   3.206   4.261  12.910  0.6299  0.4462  0.0780
  879MPD2     C12941   3.676   0.561  16.648  0.4133  0.7186 -0.0446
  879MPD2    C112942   3.596   0.674  16.628 -0.2434 -0.1268 -1.4035
  879MPD2    C212943   3.481   0.671  16.553 -0.9538 -0.7684 -0.7701
  879MPD2    C312944   3.444   0.556  16.484 -0.2771 -0.0792  0.0379
  879MPD2    C412945   3.524   0.445  16.498  0.9511  0.1868 -0.2996
  879MPD2    C512946   3.636   0.444  16.582  0.4439  0.2399  1.0350
  879MPD2     H12947   3.414   0.757  16.551  1.0697  0.9103  2.5599
  879MPD2    H112948   3.495   0.357  16.441  0.4951 -0.9595  1.7077
  879MPD2    H212949   3.768   0.558  16.706  0.4437  1.1171 -0.0715
  879MPD2    H312950   3.696   0.354  16.587  0.6827  0.3168 -0.5033
  879MPD2     N12951   3.331   0.548  16.398 -0.1324 -0.6113  0.4725
  879MPD2    H512952   3.311   0.455  16.362 -2.1376 -0.0712  0.1948
  879MPD2    N112953   3.635   0.789  16.699  0.0479  0.5425 -0.1248
  879MPD2    H712954   3.717   0.793  16.759  1.4420 -0.5608 -1.9689
  880MPD2     C12955   4.100   2.263   0.384 -0.4776 -0.1150 -0.1229
  880MPD2    C112956   4.203   2.323   0.313  0.7885 -0.5279 -0.1280
  880MPD2    C212957   4.327   2.265   0.321 -0.3311 -0.4679 -0.1399
  880MPD2    C312958   4.347   2.157   0.403  0.6195  0.3460 -0.2980
  880MPD2    C412959   4.241   2.098   0.474 -0.3956 -0.5325 -0.1346
  880MPD2    C512960   4.118   2.147   0.453 -0.2288 -0.2193  0.5582
  880MPD2     H12961   4.418   2.309   0.282 -0.0213 -1.1144 -0.1326
  880MPD2    H112962   4.246   2.011   0.538  0.0785  0.7839  1.6456
  880MPD2    H212963   3.999   2.300   0.372 -1.0939 -1.5998  0.4591
  880MPD2    H312964   4.036   2.091   0.496 -0.7244 -1.0537 -1.4714
  880MPD2     N12965   4.480   2.107   0.410 -0.4930  0.3206 -0.8464
  880MPD2    H512966   4.551   2.158   0.357  0.1916  0.4724  0.2221
  880MPD2    N112967   4.174   2.433   0.231  0.4679  0.2435 -0.1911
  880MPD2    H712968   4.085   2.483   0.238  0.1016 -0.2524 -1.3051
  881MPD2     C12969   4.629   3.225  17.367 -0.0351 -0.6467 -0.4983
  881MPD2    C112970   4.583   3.106  17.319 -0.3792  0.9764  0.8592
  881MPD2    C212971   4.539   3.015  17.408  0.1527 -0.4646  0.0140
  881MPD2    C312972   4.525   3.047  17.547  0.3024  0.2904  0.2677
  881MPD2    C412973   4.561   3.171  17.590  0.4242 -0.6795  0.3878
  881MPD2    C512974   4.611   3.260  17.497 -0.4251 -0.1650  0.1740
  881MPD2     H12975   4.512   2.915  17.376  1.5280 -1.0283  0.6204
  881MPD2    H112976   4.554   3.203  17.693 -0.1408 -0.7735  0.3805
  881MPD2    H212977   4.647   3.310  17.302 -1.7377 -0.3623 -0.5994
  881MPD2    H312978   4.637   3.360  17.530 -0.7037 -0.0792  0.1305
  881MPD2     N12979   4.463   2.959  17.644 -0.0513 -1.2594  0.6229
  881MPD2    H512980   4.444   2.995  17.737  1.2951 -2.1087  1.2322
  881MPD2    N112981   4.620   3.083  17.189  0.3706  0.9803 -0.0506
  881MPD2    H712982   4.685   3.144  17.141  1.2489  0.7708  0.8729
  882MPD2     C12983   3.434   0.357  14.249 -0.0308 -0.0835  0.0421
  882MPD2    C112984   3.364   0.454  14.313  0.1872 -0.3104  0.0838
  882MPD2    C212985   3.222   0.446  14.308 -0.6259 -0.9323 -0.1570
  882MPD2    C312986   3.161   0.330  14.264  0.1177 -0.4548  0.1163
  882MPD2    C412987   3.237   0.233  14.205  0.3340 -0.4455 -0.0224
  882MPD2    C512988   3.373   0.248  14.201  0.1423  0.2192  0.0469
  882MPD2     H12989   3.163   0.525  14.352  0.5863 -0.4919  0.6920
  882MPD2    H112990   3.191   0.143  14.164 -0.1244 -0.8152  1.2952
  882MPD2    H212991   3.542   0.366  14.234 -0.4339  0.6034 -2.5473
  882MPD2    H312992   3.428   0.179  14.137  0.2653  0.7595 -0.4328
  882MPD2     N12993   3.020   0.307  14.267  0.3131 -0.6023 -0.9492
  882MPD2    H512994   2.986   0.227  14.216 -2.0581 -0.2417  0.1037
  882MPD2    N112995   3.433   0.563  14.369 -0.3129  0.1437  0.1627
  882MPD2    H712996   3.534   0.551  14.370 -0.1547  1.3899 -0.0630
  883MPD2     C12997   0.417   0.220  16.703 -0.5513 -0.0551  0.2247
  883MPD2    C112998   0.531   0.173  16.636  0.0608  0.2201  0.1279
  883MPD2    C212999   0.651   0.215  16.681  0.6384  0.1865 -0.0714
  883MPD2    C313000   0.663   0.304  16.785  1.4128  0.1476 -0.5260
  883MPD2    C413001   0.554   0.351  16.847 -0.4868  0.2206  0.0768
  883MPD2    C513002   0.432   0.315  16.805 -0.6982 -0.1372 -0.4295
  883MPD2     H13003   0.744   0.175  16.641 -1.3349 -2.0379 -2.4552
  883MPD2    H113004   0.557   0.423  16.928 -0.0998  1.7705 -1.3189
  883MPD2    H213005   0.318   0.184  16.679 -0.8956  0.3292  1.0965
  883MPD2    H313006   0.342   0.354  16.852  0.8026 -0.3025  2.5446
  883MPD2     N13007   0.793   0.352  16.820  0.5863  0.1299 -0.1777
  883MPD2    H513008   0.872   0.316  16.769  0.8831 -1.4485  1.4078
  883MPD2    N113009   0.522   0.092  16.522 -0.2637 -0.3379  1.1121
  883MPD2    H713010   0.614   0.062  16.492 -0.2484 -1.5230  2.3042
  884MPD2     C13011   2.289   0.955  15.090 -0.0299 -0.3034  0.6334
  884MPD2    C113012   2.244   1.001  14.966 -0.4622  0.4660  0.0251
  884MPD2    C213013   2.106   1.024  14.955 -0.4944 -0.4600 -0.1393
  884MPD2    C313014   2.022   1.002  15.066  0.7017 -0.7925 -0.4309
  884MPD2    C413015   2.076   0.963  15.189 -0.4602 -0.4455  0.5872
  884MPD2    C513016   2.212   0.941  15.199  0.5729 -0.1689 -0.0334
  884MPD2     H13017   2.064   1.073  14.868 -3.7121 -1.1051  1.0483
  884MPD2    H113018   2.012   0.955  15.275  1.0572  1.0255  1.8558
  884MPD2    H213019   2.394   0.958  15.115 -0.3725 -1.1749  2.1640
  884MPD2    H313020   2.247   0.934  15.301  0.2504  0.2263  0.1036
  884MPD2     N13021   1.888   1.038  15.053  0.4238 -0.3400  0.0937
  884MPD2    H513022   1.850   1.076  14.967  1.0279 -0.7937 -0.3735
  884MPD2    N113023   2.346   1.047  14.879 -0.1705  0.6546  0.7587
  884MPD2    H713024   2.440   1.048  14.917 -1.2282 -0.8309  3.3968
  885MPD2     C13025   0.130   1.473   0.172  0.3198  0.0057  0.8228
  885MPD2    C113026   0.244   1.393   0.146 -0.3224  0.9959  0.8247
  885MPD2    C213027   0.294   1.390   0.010 -0.5978  0.6190  0.0083
  885MPD2    C313028   0.234   1.469  17.658  0.7760  0.4092 -0.2391
  885MPD2    C413029   0.126   1.545  17.687 -0.1946 -0.5715 -0.0235
  885MPD2    C513030   0.077   1.543   0.070  0.0854 -0.3395 -0.7877
  885MPD2     H13031   0.377   1.325  17.733 -0.3307  1.6713 -2.0860
  885MPD2    H113032   0.083   1.620  17.622  1.1866  1.7823  1.8330
  885MPD2    H213033   0.085   1.480   0.270 -2.0564  0.5629 -0.3055
  885MPD2    H313034   4.732   1.612   0.089  0.9769  0.4969  0.0278
  885MPD2     N13035   0.289   1.466  17.530  1.0585  0.2609  0.3730
  885MPD2    H513036   0.374   1.411  17.520  1.1423  0.6963 -1.3472
  885MPD2    N113037   0.300   1.316   0.247  0.4053 -0.7789  0.3005
  885MPD2    H713038   0.251   1.329   0.335 -1.1684  0.6266 -0.7867
  886MPD2     C13039   1.695   4.319  14.949  0.1510 -0.0805  0.1257
  886MPD2    C113040   1.835   4.332  14.953 -0.6108 -0.1099 -0.3576
  886MPD2    C213041   1.900   4.430  14.885 -0.0690  0.4633  0.0772
  886MPD2    C313042   1.831   4.517  14.797  0.9131  0.3091  0.3922
  886MPD2    C413043   1.691   4.500  14.788 -0.1052  0.5542 -0.4638
  886MPD2    C513044   1.624   4.401  14.863 -1.1515 -0.0954  0.1427
  886MPD2     H13045   2.007   4.438  14.900  0.0706  0.1353 -0.6954
  886MPD2    H113046   1.632   4.567  14.727 -0.2758 -2.0158 -3.1367
  886MPD2    H213047   1.643   4.232  14.987  3.1243 -2.3724 -1.0678
  886MPD2    H313048   1.516   4.397  14.867 -1.2133 -0.1141 -1.8999
  886MPD2     N13049   1.896   4.615  14.726  0.0854  0.4040  0.7352
  886MPD2    H513050   1.845   4.658  14.649 -0.1236 -1.2484 -0.0433
  886MPD2    N113051   1.918   4.256  15.038  0.1137 -0.2381 -0.0796
  886MPD2    H713052   2.014   4.291  15.039  0.1415 -0.2697 -1.4596
  887MPD2     C13053   2.566   4.340  15.243 -0.1900  0.1369  0.3135
  887MPD2    C113054   2.446   4.399  15.289  0.7563  0.1374 -0.3452
  887MPD2    C213055   2.446   4.534  15.287 -0.0425  0.7316 -0.0830
  887MPD2    C313056   2.549   4.620  15.246  0.1727 -0.1708 -0.1975
  887MPD2    C413057   2.663   4.561  15.201 -0.0837 -0.4088  0.5682
  887MPD2    C513058   2.674   4.421  15.215 -0.0126 -0.4876 -0.7443
  887MPD2     H13059   2.364   4.583  15.339 -2.4408  0.1976 -3.3407
  887MPD2    H113060   2.740   4.622  15.155 -0.9899  1.5490  1.6475
  887MPD2    H213061   2.583   4.233  15.242 -2.2613 -0.1841  0.3985
  887MPD2    H313062   2.771   4.386  15.181  0.9591  2.2421 -0.8115
  887MPD2     N13063   2.534   0.024  15.254  0.8632  0.0551  0.2647
  887MPD2    H513064   2.445   0.060  15.289  0.4359  2.1823 -2.9644
  887MPD2    N113065   2.327   4.335  15.314 -0.9366 -0.1283 -0.0983
  887MPD2    H713066   2.245   4.394  15.324 -1.3025 -0.5675 -0.5057
  888MPD2     C13067   4.074   4.406  14.752  0.3882  0.2309 -0.6412
  888MPD2    C113068   4.109   4.463  14.876 -0.1091 -0.1919 -0.4075
  888MPD2    C213069   4.205   4.555  14.876 -0.6888 -0.0367 -0.0354
  888MPD2    C313070   4.278   4.606  14.770 -0.0734  0.3919 -0.4863
  888MPD2    C413071   4.249   4.540  14.650  0.1129  0.0343 -0.6104
  888MPD2    C513072   4.152   4.447  14.652 -0.3504 -0.0818 -0.2526
  888MPD2     H13073   4.220   4.605  14.971 -1.2670 -0.8070  0.4622
  888MPD2    H113074   4.304   4.563  14.559  4.1084 -2.4946  1.1101
  888MPD2    H213075   4.010   4.319  14.743  0.5153  0.1016 -0.2834
  888MPD2    H313076   4.132   4.397  14.558 -2.1596 -0.2814  0.2253
  888MPD2     N13077   4.372   4.707  14.785  0.0060  0.4492 -0.4258
  888MPD2    H513078   4.391   0.007  14.878 -0.9722  2.2949 -0.9640
  888MPD2    N113079   4.050   4.428  15.002 -0.2283  0.2727  0.1149
  888MPD2    H713080   4.072   4.488  15.080 -0.2127 -0.9360  1.0397
  889MPD2     C13081   3.451   4.668  12.600  0.3663  1.0154 -0.0192
  889MPD2    C113082   3.503   4.582  12.694  0.0004 -0.0410  0.3132
  889MPD2    C213083   3.471   4.611  12.823 -0.0611 -0.1259  0.1660
  889MPD2    C313084   3.404   4.727  12.862 -0.3933 -0.5522  0.6079
  889MPD2    C413085   3.349   0.072  12.762 -0.6939  0.4010  0.2304
  889MPD2    C513086   3.371   0.039  12.628  0.8014 -0.2503  0.2105
  889MPD2     H13087   3.491   4.531  12.892  0.1045 -0.1670  0.0697
  889MPD2    H113088   3.305   0.167  12.791 -4.0125 -1.5171  1.5772
  889MPD2    H213089   3.462   4.636  12.497  0.8844 -0.5167  0.5163
  889MPD2    H313090   3.324   0.100  12.551  0.6370  0.0060  0.5101
  889MPD2     N13091   3.371   0.012  12.999 -0.0575 -0.0930 -0.0673
  889MPD2    H513092   3.401   4.688  13.075 -0.0056 -2.4005 -1.9189
  889MPD2    N113093   3.552   4.456  12.659  0.3597 -0.1025  0.0154
  889MPD2    H713094   3.573   4.397  12.739 -1.6808 -0.5100  0.2395
  890MPD2     C13095   3.133   1.411  14.079  0.0095 -0.2899 -0.8165
  890MPD2    C113096   3.209   1.484  14.178 -0.6808 -0.8621  0.6507
  890MPD2    C213097   3.242   1.417  14.294  0.4051  0.1823 -0.0592
  890MPD2    C313098   3.208   1.282  14.311 -0.9104 -0.1537 -0.1704
  890MPD2    C413099   3.151   1.216  14.209 -1.2017  0.1637  0.4060
  890MPD2    C513100   3.109   1.280  14.098 -0.4690 -0.3595 -0.3629
  890MPD2     H13101   3.279   1.475  14.378  0.5910 -1.7615  1.2184
  890MPD2    H113102   3.127   1.110  14.209  0.4103 -0.1908 -2.4946
  890MPD2    H213103   3.095   1.458  13.989  0.4926  2.4424  0.4081
  890MPD2    H313104   3.056   1.215  14.028  0.4305  1.7805 -3.0348
  890MPD2     N13105   3.233   1.220  14.436 -0.2345 -0.6482 -0.3639
  890MPD2    H513106   3.262   1.282  14.511  1.4450 -1.3473 -0.4142
  890MPD2    N113107   3.224   1.624  14.162  0.0609 -0.2163 -0.4966
  890MPD2    H713108   3.157   1.671  14.103 -1.0472 -0.4761  0.5613
  891MPD2     C13109   1.278   3.987  16.350  0.1085 -0.1463 -0.2909
  891MPD2    C113110   1.227   4.034  16.465  0.1231  0.3493  0.1695
  891MPD2    C213111   1.297   4.004  16.585  0.0259  0.1012 -0.0305
  891MPD2    C313112   1.396   3.909  16.587  0.5751  0.2103  0.4085
  891MPD2    C413113   1.441   3.859  16.471  0.0476  0.1181  0.2815
  891MPD2    C513114   1.382   3.903  16.357  0.6991  0.2124  0.3969
  891MPD2     H13115   1.271   4.037  16.684 -0.4561  1.7099 -0.6920
  891MPD2    H113116   1.522   3.788  16.464 -0.1436 -0.4024  3.2976
  891MPD2    H213117   1.239   4.011  16.252 -0.7668 -2.3811 -0.4935
  891MPD2    H313118   1.411   3.869  16.258 -0.1164 -0.9092  0.5465
  891MPD2     N13119   1.440   3.871  16.716  0.0671  0.2674  0.1099
  891MPD2    H513120   1.401   3.911  16.800  1.1225  3.2911 -0.8154
  891MPD2    N113121   1.119   4.125  16.458  0.9200 -0.3265 -0.4496
  891MPD2    H713122   1.080   4.145  16.367  1.5485 -2.6202 -1.2176
  892MPD2     C13123   2.269   0.945  14.400 -0.2278  0.3651  0.1571
  892MPD2    C113124   2.240   0.829  14.463  0.3002  0.0196 -0.2043
  892MPD2    C213125   2.310   0.714  14.432 -0.2942 -0.0315  0.9189
  892MPD2    C313126   2.414   0.717  14.340  0.0270 -0.2300 -0.2912
  892MPD2    C413127   2.447   0.834  14.283 -0.2109 -0.4243  1.2295
  892MPD2    C513128   2.372   0.940  14.311  0.1133  0.0624  1.0277
  892MPD2     H13129   2.287   0.624  14.488  0.4789 -1.1930 -0.6512
  892MPD2    H113130   2.531   0.835  14.215  0.9815 -0.5349  2.7069
  892MPD2    H213131   2.209   1.035  14.412  0.4387  0.7256  0.7930
  892MPD2    H313132   2.394   1.027  14.251  3.9694 -1.0677  0.7657
  892MPD2     N13133   2.489   0.608  14.302 -0.9201  0.5499 -0.5357
  892MPD2    H513134   2.560   0.623  14.230 -2.2367  0.4976 -1.8442
  892MPD2    N113135   2.131   0.831  14.546  0.1995 -0.5590  0.0744
  892MPD2    H713136   2.065   0.908  14.541  0.4241 -0.4155 -0.6435
  893MPD2     C13137   3.874   4.188   1.402 -0.2988 -0.2008 -0.0648
  893MPD2    C113138   3.990   4.243   1.456  0.4814 -0.2879 -0.6839
  893MPD2    C213139   3.989   4.307   1.580 -0.3005 -0.3857  0.1241
  893MPD2    C313140   3.879   4.291   1.660 -0.0546  0.3177  0.5139
  893MPD2    C413141   3.764   4.226   1.610 -0.2310  0.3419 -0.4022
  893MPD2    C513142   3.769   4.174   1.485  0.2238  0.4258 -0.0702
  893MPD2     H13143   4.075   4.357   1.624  0.0327 -1.0492  0.2315
  893MPD2    H113144   3.671   4.216   1.664  2.4932  0.0184  4.2565
  893MPD2    H213145   3.885   4.136   1.307 -0.8684 -0.7589  0.1716
  893MPD2    H313146   3.677   4.126   1.451  1.3053 -0.7668 -1.2922
  893MPD2     N13147   3.855   4.360   1.784 -0.1224 -0.0833 -0.2114
  893MPD2    H513148   3.766   4.348   1.831  0.0362 -0.1387  0.0736
  893MPD2    N113149   4.107   4.230   1.379  0.5898 -0.3838 -0.2194
  893MPD2    H713150   4.103   4.194   1.284 -0.2975  1.3892 -0.8655
  894MPD2     C13151   1.828   0.858   0.879 -0.3731  0.1676  0.0381
  894MPD2    C113152   1.814   0.891   1.014 -0.5598 -0.1833 -0.7572
  894MPD2    C213153   1.906   0.992   1.059 -0.1145 -0.1504 -0.5132
  894MPD2    C313154   2.004   1.043   0.975 -0.5727 -0.1128 -0.0821
  894MPD2    C413155   2.016   0.999   0.849 -0.0280 -0.6281 -0.6028
  894MPD2    C513156   1.931   0.906   0.803  0.0507 -0.0706  0.0936
  894MPD2     H13157   1.889   1.032   1.158 -0.8200  0.7395 -0.9926
  894MPD2    H113158   2.095   1.040   0.787  0.9263  2.2209  2.4953
  894MPD2    H213159   1.756   0.797   0.826  1.0248  0.3185 -2.0327
  894MPD2    H313160   1.951   0.867   0.704 -0.6990 -0.6909  0.1870
  894MPD2     N13161   2.092   1.139   1.032 -0.7868  0.3233 -0.3631
  894MPD2    H513162   2.110   1.141   1.132  0.4861  1.3086 -0.6176
  894MPD2    N113163   1.708   0.840   1.103 -0.1414 -0.1423 -0.0463
  894MPD2    H713164   1.698   0.886   1.193 -0.8361  0.2178 -0.3080
  895MPD2     C13165   1.756   4.450  13.278 -0.1114 -0.1925 -0.0508
  895MPD2    C113166   1.624   4.411  13.267  0.0256 -0.3500 -0.1929
  895MPD2    C213167   1.606   4.271  13.277 -0.0711 -0.0713 -0.0206
  895MPD2    C313168   1.703   4.179  13.293  0.4507 -0.0399 -0.5756
  895MPD2    C413169   1.833   4.218  13.315 -0.0591 -0.1699  0.3194
  895MPD2    C513170   1.859   4.355  13.297 -0.1710 -0.0559 -0.0682
  895MPD2     H13171   1.514   4.220  13.250  0.6221  0.1588 -2.8067
  895MPD2    H113172   1.907   4.142  13.337 -0.9317 -1.0092  0.3632
  895MPD2    H213173   1.785   4.552  13.253 -1.1064 -0.0595 -0.6550
  895MPD2    H313174   1.963   4.380  13.308 -0.1585  0.3289 -1.0969
  895MPD2     N13175   1.661   4.041  13.288  0.4069 -0.3205  0.5834
  895MPD2    H513176   1.561   4.026  13.278  0.1357  2.1632 -0.3866
  895MPD2    N113177   1.510   4.489  13.236  0.9914  0.8894  0.4806
  895MPD2    H713178   1.424   4.436  13.226  1.1658  1.0943 -2.1396
  896MPD2     C13179   3.734   1.985   1.605  0.4380 -0.5281 -0.5449
  896MPD2    C113180   3.702   1.919   1.488 -0.8188 -0.7761  0.6120
  896MPD2    C213181   3.579   1.860   1.476 -0.7229 -0.1415 -0.6362
  896MPD2    C313182   3.494   1.858   1.584 -0.3534 -0.1219 -0.0474
  896MPD2    C413183   3.533   1.903   1.705  0.0956  0.2974 -0.2845
  896MPD2    C513184   3.654   1.967   1.710  0.2161  0.2221 -0.0960
  896MPD2     H13185   3.541   1.815   1.384  1.1309 -1.0238 -0.9624
  896MPD2    H113186   3.478   1.889   1.797 -0.6188 -2.4922 -1.1505
  896MPD2    H213187   3.825   2.043   1.612 -0.0741  0.0698  1.2866
  896MPD2    H313188   3.688   2.011   1.803 -0.5356  1.9574 -0.6496
  896MPD2     N13189   3.366   1.807   1.570 -0.3156 -0.4371  0.5218
  896MPD2    H513190   3.346   1.771   1.477 -1.2946  0.2378  0.4777
  896MPD2    N113191   3.797   1.934   1.383  0.4285 -0.1047 -0.3260
  896MPD2    H713192   3.892   1.964   1.403 -0.2799  0.6587  1.9393
  897MPD2     C13193   0.033   3.783  10.651  0.2672  0.1249 -0.5139
  897MPD2    C113194   4.716   3.894  10.592  0.4346 -0.6323  0.2062
  897MPD2    C213195   4.635   3.985  10.658  0.2731 -0.0006 -0.2620
  897MPD2    C313196   4.593   3.958  10.781  0.3917  0.1547  0.4736
  897MPD2    C413197   4.640   3.845  10.846  0.4170 -0.1099 -0.3534
  897MPD2    C513198   4.719   3.757  10.775  0.7216 -0.0176 -0.3934
  897MPD2     H13199   4.588   4.071  10.611  2.0861  1.0300 -0.1590
  897MPD2    H113200   4.598   3.814  10.941 -1.8587  3.0489 -0.3344
  897MPD2    H213201   0.092   3.708  10.600 -1.4242 -0.3235 -1.7890
  897MPD2    H313202   0.005   3.661  10.819 -0.6281 -0.2907 -0.3169
  897MPD2     N13203   4.490   4.030  10.836  0.2695  0.2763  0.2006
  897MPD2    H513204   4.429   4.076  10.769 -1.8222 -0.9210  1.2792
  897MPD2    N113205   0.019   3.918  10.462 -0.0574  0.2066 -0.7464
  897MPD2    H713206   0.096   3.863  10.426  1.0002  0.8785  0.4758
  898MPD2     C13207   1.454   4.516  17.461 -0.4222 -0.0009 -0.3348
  898MPD2    C113208   1.591   4.523  17.485 -0.3387  0.0979 -0.3278
  898MPD2    C213209   1.652   4.647  17.499 -0.3459 -0.0843  0.1058
  898MPD2    C313210   1.581   0.023  17.497 -0.3918  0.4777  0.4526
  898MPD2    C413211   1.444   0.021  17.477 -0.1380 -0.0445  0.2279
  898MPD2    C513212   1.390   4.639  17.443 -0.7501  0.6553 -0.3241
  898MPD2     H13213   1.760   4.655  17.504 -0.2360 -1.5540  0.2734
  898MPD2    H113214   1.383   0.109  17.464 -0.4468 -0.3959 -0.7125
  898MPD2    H213215   1.394   4.427  17.444 -2.7301  1.2381  1.4206
  898MPD2    H313216   1.285   4.651  17.422 -1.1613 -1.7836  0.3114
  898MPD2     N13217   1.654   0.145  17.516 -0.2445 -0.0793 -0.2665
  898MPD2    H513218   1.753   0.138  17.536 -0.1278  0.3402 -0.6826
  898MPD2    N113219   1.674   4.411  17.493 -0.4831  0.0723  0.6464
  898MPD2    H713220   1.770   4.429  17.521 -0.0237 -1.6677  0.2132
  899MPD2     C13221   2.560   0.361  17.258 -0.3658 -0.9449 -0.3194
  899MPD2    C113222   2.629   0.479  17.279  0.1960  0.1277  0.9910
  899MPD2    C213223   2.587   0.563  17.376 -0.3829  0.1811 -0.2476
  899MPD2    C313224   2.479   0.521  17.458  0.1634 -0.5106 -0.0594
  899MPD2    C413225   2.425   0.396  17.443  0.7643  0.2974  0.4924
  899MPD2    C513226   2.468   0.317  17.344 -0.0395  0.8596  0.2977
  899MPD2     H13227   2.644   0.652  17.402  1.4831 -0.3621 -2.5638
  899MPD2    H113228   2.330   0.372  17.489  2.3575 -0.4707  3.4014
  899MPD2    H213229   2.583   0.301  17.171  0.6892 -0.9662 -0.0242
  899MPD2    H313230   2.418   0.223  17.320  2.2278 -0.4330  0.6388
  899MPD2     N13231   2.440   0.602  17.567  0.1030  1.0313  0.3420
  899MPD2    H513232   2.382   0.557  17.637 -0.0689  0.8447  0.0788
  899MPD2    N113233   2.729   0.512  17.181 -0.0090 -0.0910 -0.0158
  899MPD2    H713234   2.745   0.459  17.097  2.0864  0.7749 -0.1720
  900MPD2     C13235   2.723   2.070  12.556  0.4501 -0.5419  0.6550
  900MPD2    C113236   2.595   2.024  12.590 -0.3180 -0.1757  0.0611
  900MPD2    C213237   2.488   2.066  12.521 -0.4630  0.2495 -0.3056
  900MPD2    C313238   2.510   2.155  12.422 -0.1781 -0.2363  0.2235
  900MPD2    C413239   2.630   2.205  12.388  0.1495  0.2727  0.3947
  900MPD2    C513240   2.740   2.154  12.450 -0.1425 -0.3437 -0.1805
  900MPD2     H13241   2.394   2.014  12.528  0.0783 -0.8926 -1.5413
  900MPD2    H113242   2.648   2.258  12.295 -0.6120  2.6134  1.5846
  900MPD2    H213243   2.813   2.026  12.597 -1.1568 -1.4462  3.1924
  900MPD2    H313244   2.839   2.194  12.431 -0.0659 -1.1579 -1.5501
  900MPD2     N13245   2.391   2.175  12.338  0.3612 -0.4568  0.1488
  900MPD2    H513246   2.308   2.132  12.379  0.8128 -0.4409  1.0842
  900MPD2    N113247   2.580   1.907  12.664 -0.0744 -0.0681 -0.4865
  900MPD2    H713248   2.664   1.864  12.702  0.4952 -0.2134 -1.9438
  901MPD2     C13249   2.137   1.143  12.262 -0.0682  0.7038 -0.1715
  901MPD2    C113250   2.179   1.079  12.378  0.0547 -0.3593 -0.0230
  901MPD2    C213251   2.208   1.159  12.485 -0.3486  0.1964 -0.5091
  901MPD2    C313252   2.215   1.295  12.489  0.3636  0.2618 -0.2085
  901MPD2    C413253   2.171   1.363  12.374  0.4723  0.6038 -0.3021
  901MPD2    C513254   2.144   1.281  12.260 -0.3333  0.2217 -0.5783
  901MPD2     H13255   2.250   1.109  12.572 -1.4779  0.6863  0.3197
  901MPD2    H113256   2.176   1.470  12.359  0.6208  0.8012  1.1477
  901MPD2    H213257   2.112   1.082  12.176 -1.6057 -0.4205  1.0590
  901MPD2    H313258   2.112   1.329  12.168  1.1078  2.4879  0.1034
  901MPD2     N13259   2.265   1.361  12.603 -0.5068  0.4876  0.4171
  901MPD2    H513260   2.290   1.311  12.688  1.0035 -0.2304 -0.4616
  901MPD2    N113261   2.188   0.944  12.377 -0.0922  0.3059 -0.3717
  901MPD2    H713262   2.171   0.893  12.291  0.3217  0.8824 -0.7944
  902MPD2     C13263   1.695   4.606  12.455  0.0488 -0.0557  0.2088
  902MPD2    C113264   1.796   4.685  12.506 -0.0588  0.1626 -0.0547
  902MPD2    C213265   1.924   4.638  12.489 -0.4542  0.3036  0.3229
  902MPD2    C313266   1.949   4.513  12.425  0.0518  0.0493 -0.0936
  902MPD2    C413267   1.846   4.437  12.375  0.2215  0.5755 -0.1634
  902MPD2    C513268   1.721   4.489  12.393  0.6732 -0.7688 -0.4269
  902MPD2     H13269   2.010   4.703  12.504 -0.2239  0.3203 -1.0332
  902MPD2    H113270   1.854   4.343  12.321 -1.5791  0.5178 -0.3281
  902MPD2    H213271   1.590   4.634  12.460 -0.4176 -1.9168  0.9522
  902MPD2    H313272   1.645   4.430  12.343 -1.0810  1.2062 -0.1308
  902MPD2     N13273   2.074   4.454  12.414  0.6034 -0.3178 -0.0066
  902MPD2    H513274   2.095   4.377  12.352  1.6597  0.1002 -0.1634
  902MPD2    N113275   1.767   0.072  12.561  0.0976  0.2998  0.3686
  902MPD2    H713276   1.673   0.109  12.551  0.6407  1.1325 -1.7741
  903MPD2     C13277   1.850   0.214  12.237 -0.1609  0.3407 -0.0880
  903MPD2    C113278   1.836   0.086  12.198  1.0275 -0.2154 -0.5579
  903MPD2    C213279   1.707   0.039  12.173  0.0391 -0.3906 -0.4053
  903MPD2    C313280   1.597   0.112  12.203  0.6599  0.4460  0.0219
  903MPD2    C413281   1.614   0.241  12.252  0.0479 -0.3405 -0.1989
  903MPD2    C513282   1.742   0.289  12.269 -0.3776 -0.2581  0.2215
  903MPD2     H13283   1.695   4.677  12.129  0.1077  0.1146 -1.5517
  903MPD2    H113284   1.528   0.303  12.272 -0.8492 -1.3406 -0.9481
  903MPD2    H213285   1.945   0.260  12.261  0.0828 -0.8367  1.1928
  903MPD2    H313286   1.770   0.391  12.291  2.5620 -0.5260 -2.3387
  903MPD2     N13287   1.470   0.058  12.166  0.9439 -0.5314 -0.3203
  903MPD2    H513288   1.470   4.705  12.117 -1.1739 -1.7912  1.9563
  903MPD2    N113289   1.953   0.008  12.168 -0.0123 -0.1061 -0.5812
  903MPD2    H713290   1.921   4.658  12.126  0.3133 -0.7517  0.4813
  904MPD2     C13291   1.221   4.061  13.571 -0.2997  0.1126 -0.2809
  904MPD2    C113292   1.188   4.052  13.708 -1.4585 -0.1225 -0.5585
  904MPD2    C213293   1.281   4.029  13.802  0.3281  0.1287 -0.1643
  904MPD2    C313294   1.410   4.023  13.767  0.7388  1.2134 -0.6486
  904MPD2    C413295   1.445   4.044  13.638  0.0283  1.3009  0.2185
  904MPD2    C513296   1.356   4.061  13.536  0.1954  0.5916 -0.0225
  904MPD2     H13297   1.256   4.011  13.906 -1.5396 -0.7456 -0.7583
  904MPD2    H113298   1.550   4.065  13.618  0.3729  0.5386  1.2531
  904MPD2    H213299   1.149   4.046  13.492 -0.9388 -1.3715  0.5676
  904MPD2    H313300   1.391   4.071  13.434 -0.6161  2.9975 -0.0607
  904MPD2     N13301   1.500   4.007  13.872  0.1765 -0.0672 -0.3781
  904MPD2    H513302   1.461   3.981  13.961  0.8203 -0.0134 -0.0807
  904MPD2    N113303   1.056   4.066  13.751  0.1201  0.0560 -0.9900
  904MPD2    H713304   1.047   4.024  13.844  0.0078  1.9495 -0.1400
  905MPD2     C13305   0.827   4.020  13.104  0.4948  0.1371  0.6714
  905MPD2    C113306   0.930   4.084  13.167  0.2718 -0.0925  0.7710
  905MPD2    C213307   1.053   4.031  13.154  0.7880  0.2521  0.2074
  905MPD2    C313308   1.066   3.898  13.118 -0.5864 -0.5751  0.1280
  905MPD2    C413309   0.965   3.832  13.071 -0.1266 -0.0212 -0.0623
  905MPD2    C513310   0.844   3.895  13.056 -0.3910  0.2157  0.2094
  905MPD2     H13311   1.135   4.081  13.205  0.5075  0.5037  0.4091
  905MPD2    H113312   0.969   3.729  13.038  0.8859  0.0816 -0.2661
  905MPD2    H213313   0.729   4.066  13.099  0.7669  0.6679  0.2304
  905MPD2    H313314   0.758   3.848  13.009 -1.7923  1.6064  1.4008
  905MPD2     N13315   1.194   3.830  13.133 -0.7751  0.0167 -0.0835
  905MPD2    H513316   1.192   3.730  13.113  0.4512 -0.3815  1.6872
  905MPD2    N113317   0.910   4.207  13.225  0.2640 -0.0441  0.3402
  905MPD2    H713318   0.815   4.219  13.257  0.0612  1.9192 -1.0243
  906MPD2     C13319   3.231   4.371  11.149  0.2623 -0.2674  0.2789
  906MPD2    C113320   3.247   4.270  11.060 -0.0141 -0.5904  0.4471
  906MPD2    C213321   3.189   4.145  11.079 -0.0756 -0.1527  0.0743
  906MPD2    C313322   3.121   4.114  11.196 -0.1703 -0.3956 -0.0308
  906MPD2    C413323   3.099   4.219  11.289 -0.0826  0.1637  0.0111
  906MPD2    C513324   3.168   4.339  11.272 -0.7774  0.1060 -0.1579
  906MPD2     H13325   3.199   4.074  10.998 -0.7348 -1.6512  1.3218
  906MPD2    H113326   3.051   4.203  11.385  2.4384  2.3844  1.6426
  906MPD2    H213327   3.282   4.466  11.139  2.0777 -1.3440 -0.7294
  906MPD2    H313328   3.176   4.415  11.350 -0.1711  0.0876 -0.1990
  906MPD2     N13329   3.067   3.981  11.223  0.3688 -0.1544 -0.1649
  906MPD2    H513330   3.013   3.970  11.308  2.0676 -0.8710  0.8322
  906MPD2    N113331   3.303   4.286  10.928 -0.3356 -0.8316 -0.1117
  906MPD2    H713332   3.304   4.206  10.865  0.9022 -1.2083  0.3893
  907MPD2     C13333   2.065   3.288  15.806  0.7008 -0.1205  0.7297
  907MPD2    C113334   2.135   3.170  15.784  1.0284  0.4360  0.7593
  907MPD2    C213335   2.178   3.103  15.904  0.0328 -0.0984  0.5502
  907MPD2    C313336   2.174   3.155  16.026  0.0763  0.2272  0.5958
  907MPD2    C413337   2.109   3.274  16.038 -1.1495  1.5434  0.1376
  907MPD2    C513338   2.056   3.341  15.932  0.1324 -0.5235 -1.1522
  907MPD2     H13339   2.223   3.006  15.893 -0.8713 -0.5223  0.6071
  907MPD2    H113340   2.102   3.328  16.132 -2.3103  0.2843  0.7839
  907MPD2    H213341   2.018   3.340  15.724 -0.5028  0.3978  1.7488
  907MPD2    H313342   2.003   3.434  15.948 -0.4329 -1.0196 -0.1275
  907MPD2     N13343   2.242   3.090  16.131 -0.2365 -0.2258  0.2581
  907MPD2    H513344   2.283   3.001  16.107 -0.1733  0.7477 -3.2732
  907MPD2    N113345   2.160   3.111  15.657 -0.0319 -0.0903 -0.9132
  907MPD2    H713346   2.211   3.024  15.658 -0.1048 -0.1156  0.1925
  908MPD2     C13347   4.697   3.512   9.516 -0.8256  0.1550 -0.8981
  908MPD2    C113348   4.691   3.646   9.487  0.3154 -0.2509  0.7258
  908MPD2    C213349   4.695   3.743   9.592 -0.1758 -0.0537  0.7330
  908MPD2    C313350   4.716   3.711   9.725 -0.2196 -0.4602 -0.0702
  908MPD2    C413351   4.714   3.576   9.753  0.3691 -0.6758  0.0553
  908MPD2    C513352   4.704   3.485   9.648  0.6159  0.5184 -0.8021
  908MPD2     H13353   4.705   3.847   9.564 -0.1354  0.0568  1.1573
  908MPD2    H113354   0.004   3.550   9.854 -0.2812  0.3732  0.4951
  908MPD2    H213355   4.702   3.438   9.437  0.3520 -0.3051 -0.3971
  908MPD2    H313356   4.704   3.383   9.684 -0.5031  0.5813 -0.6467
  908MPD2     N13357   4.728   3.815   9.821 -0.2035 -0.0667 -0.3366
  908MPD2    H513358   4.728   3.911   9.789 -1.2459  0.7833  2.2108
  908MPD2    N113359   4.672   3.678   9.356 -0.3832  0.8932  0.1032
  908MPD2    H713360   4.691   3.605   9.288 -3.5620  0.3218 -0.1566
  909MPD2     C13361   0.509   1.883  12.067 -0.4674 -0.3084  0.4051
  909MPD2    C113362   0.546   1.981  11.979  0.3578 -0.0249 -0.3945
  909MPD2    C213363   0.451   2.076  11.947 -0.1207 -0.3658  0.0902
  909MPD2    C313364   0.326   2.073  11.999 -0.2258 -0.1562 -0.4132
  909MPD2    C413365   0.287   1.971  12.084  0.5795 -0.0165 -0.0666
  909MPD2    C513366   0.384   1.876  12.113 -0.9293  0.4034  0.1014
  909MPD2     H13367   0.488   2.157  11.885 -1.0565  0.6627  0.8716
  909MPD2    H113368   0.189   1.956  12.127  0.5826 -0.7538 -0.3220
  909MPD2    H213369   0.582   1.807  12.093 -0.9817 -1.1056 -0.4890
  909MPD2    H313370   0.348   1.799  12.182 -1.2887  1.0710  0.6640
  909MPD2     N13371   0.237   2.175  11.951  0.1219 -0.7568  0.1713
  909MPD2    H513372   0.264   2.226  11.867  1.6113 -0.3385  0.8904
  909MPD2    N113373   0.676   1.994  11.931 -0.6223  0.1229 -0.2073
  909MPD2    H713374   0.687   2.082  11.882 -0.2774 -0.5611 -1.3526
  910MPD2     C13375   1.481   3.581  15.813 -0.0855  0.0585  0.0595
  910MPD2    C113376   1.582   3.489  15.781  0.9787 -0.0167 -0.0234
  910MPD2    C213377   1.634   3.494  15.652  0.5203  0.5592 -1.1928
  910MPD2    C313378   1.592   3.592  15.564  0.1381  0.5635 -0.2321
  910MPD2    C413379   1.491   3.680  15.597 -0.0104  0.6875  0.4973
  910MPD2    C513380   1.441   3.675  15.722  0.2521 -0.0426 -0.3401
  910MPD2     H13381   1.699   3.412  15.625 -0.6840 -0.1145 -2.0828
  910MPD2    H113382   1.437   3.751  15.535  1.9963  0.8307 -1.0948
  910MPD2    H213383   1.438   3.572  15.912 -0.4148  0.6030 -0.0367
  910MPD2    H313384   1.366   3.745  15.757  0.0233  0.7571 -2.4867
  910MPD2     N13385   1.631   3.596  15.427  0.3144  0.0321 -0.5419
  910MPD2    H513386   1.584   3.659  15.363  0.7347 -0.3839 -1.2657
  910MPD2    N113387   1.627   3.387  15.863 -0.2632  0.5410 -0.2531
  910MPD2    H713388   1.700   3.332  15.818  0.0578  0.6826  0.0967
  911MPD2     C13389   4.351   4.043  16.075 -0.3832  0.2643 -0.4023
  911MPD2    C113390   4.365   4.088  16.202 -0.3733 -0.1472 -0.0886
  911MPD2    C213391   4.286   4.204  16.240  0.0905 -0.3341  0.1246
  911MPD2    C313392   4.194   4.265  16.153  0.1766 -0.0555 -0.2338
  911MPD2    C413393   4.177   4.210  16.025 -0.3206  0.6460  1.0457
  911MPD2    C513394   4.249   4.097  15.997 -0.6531 -0.7267  0.1775
  911MPD2     H13395   4.299   4.249  16.338  3.2719 -0.2808 -0.3101
  911MPD2    H113396   4.110   4.255  15.952  1.0269 -0.4605 -0.8588
  911MPD2    H213397   4.406   3.958  16.036 -0.6687  0.1296 -0.5127
  911MPD2    H313398   4.235   4.063  15.895  1.7264 -0.0485 -0.3820
  911MPD2     N13399   4.105   4.364  16.184  0.3964  0.4854  0.3945
  911MPD2    H513400   4.038   4.388  16.112  0.5160  1.1755  0.5117
  911MPD2    N113401   4.443   4.011  16.294 -0.3854 -0.4296  0.1834
  911MPD2    H713402   4.497   3.935  16.254  0.7225 -0.9721  2.6525
  912MPD2     C13403   3.811   4.337  15.717 -1.5364 -0.1197  0.1189
  912MPD2    C113404   3.816   4.327  15.856  0.2639  0.0720 -0.6123
  912MPD2    C213405   3.850   4.208  15.917 -0.4045  0.2384  0.8922
  912MPD2    C313406   3.885   4.093  15.849 -0.3923  0.0017  0.1516
  912MPD2    C413407   3.883   4.103  15.711  0.9131 -0.3177  0.5378
  912MPD2    C513408   3.841   4.223  15.648  0.0969  0.3932 -0.7920
  912MPD2     H13409   3.847   4.200  16.025 -0.6355  1.1694  0.9465
  912MPD2    H113410   3.901   4.018  15.646 -1.9758  0.1890 -0.9340
  912MPD2    H213411   3.788   4.430  15.667  1.0787  1.2674  1.5105
  912MPD2    H313412   3.832   4.229  15.540  1.1581 -0.2768 -0.9171
  912MPD2     N13413   3.921   3.981  15.926 -0.2946  0.1896 -0.2751
  912MPD2    H513414   3.889   3.995  16.021  1.2975  0.8245  0.1809
  912MPD2    N113415   3.805   4.448  15.932  0.5907 -0.2971 -0.7514
  912MPD2    H713416   3.813   4.537  15.884 -0.2275 -0.9454 -2.1057
  913MPD2     C13417   0.283   0.409  10.201  0.3315 -0.0308 -0.5236
  913MPD2    C113418   0.206   0.510  10.255 -0.2215 -0.3480 -0.5922
  913MPD2    C213419   0.222   0.635  10.203 -0.3665  0.2793  0.3046
  913MPD2    C313420   0.298   0.657  10.092 -0.0185  0.5114 -0.1266
  913MPD2    C413421   0.368   0.553  10.031 -0.0818  0.2993 -0.8275
  913MPD2    C513422   0.358   0.423  10.092 -0.7141  0.4100  0.5228
  913MPD2     H13423   0.167   0.721  10.239 -0.5252  0.8785 -1.3858
  913MPD2    H113424   0.418   0.565   9.935 -0.0897  2.0582 -0.6112
  913MPD2    H213425   0.283   0.308  10.241 -2.5463 -0.2570 -1.0778
  913MPD2    H313426   0.403   0.338  10.041 -1.1735  1.3833 -1.5379
  913MPD2     N13427   0.318   0.782  10.028 -1.1606 -0.5681 -0.3374
  913MPD2    H513428   0.381   0.776   9.949  0.6199  1.7367  0.9515
  913MPD2    N113429   0.133   0.486  10.379  0.2271  0.3503  0.2453
  913MPD2    H713430   0.136   0.390  10.411  0.3173  0.7674  1.4778
  914MPD2     C13431   2.971   1.156  12.267 -0.6725  0.0573  0.4443
  914MPD2    C113432   2.866   1.190  12.345 -0.4344  0.3004  0.7561
  914MPD2    C213433   2.764   1.096  12.369  0.0910  0.0736  0.4305
  914MPD2    C313434   2.772   0.966  12.316  0.1754  0.0396 -0.0663
  914MPD2    C413435   2.882   0.938  12.241 -0.4238  0.1482  0.0901
  914MPD2    C513436   2.979   1.030  12.218  0.1549 -0.4687 -0.3133
  914MPD2     H13437   2.671   1.118  12.421 -0.6442 -0.9301 -0.4755
  914MPD2    H113438   2.894   0.839  12.199  2.0529 -0.5881  2.5314
  914MPD2    H213439   3.052   1.223  12.240 -2.1392  1.3293 -0.8792
  914MPD2    H313440   3.059   1.015  12.147  1.6506 -1.0295  1.4999
  914MPD2     N13441   2.666   0.880  12.334 -0.4898  0.1077  0.1439
  914MPD2    H513442   2.588   0.918  12.387 -0.4581  1.9628 -1.1523
  914MPD2    N113443   2.860   1.325  12.396 -0.2420 -0.1786  1.2001
  914MPD2    H713444   2.949   1.372  12.410  0.1703 -1.3034  2.3497
  915MPD2     C13445   0.166   0.453  15.707  0.0925  0.4509  0.2575
  915MPD2    C113446   0.169   0.588  15.669  0.7802 -0.8617 -0.4364
  915MPD2    C213447   0.181   0.691  15.762 -0.6933 -0.0298  0.7385
  915MPD2    C313448   0.199   0.655  15.897 -0.4086 -0.3469 -0.3074
  915MPD2    C413449   0.199   0.521  15.931 -0.3886  1.0552 -0.6735
  915MPD2    C513450   0.188   0.421  15.837  0.0376 -0.7929  0.1713
  915MPD2     H13451   0.150   0.790  15.730 -1.9518 -0.7918 -0.4122
  915MPD2    H113452   0.215   0.493  16.035  1.0725 -0.1663 -1.2213
  915MPD2    H213453   0.141   0.375  15.636  0.3580 -0.3842  1.0732
  915MPD2    H313454   0.189   0.319  15.872 -0.0145 -1.0207 -0.4983
  915MPD2     N13455   0.204   0.762  15.992 -0.1940 -0.5282  0.5732
  915MPD2    H513456   0.202   0.856  15.954  2.6713 -1.5468 -2.1633
  915MPD2    N113457   0.149   0.607  15.529  0.1052 -0.0949  1.0360
  915MPD2    H713458   0.162   0.533  15.461 -1.5212  0.2429  0.3675
  916MPD2     C13459   3.484   3.971  15.570 -0.1489  0.0027 -0.1117
  916MPD2    C113460   3.552   3.959  15.686  0.0724  0.3595 -0.0526
  916MPD2    C213461   3.659   3.872  15.683 -0.0597  0.4460 -0.2705
  916MPD2    C313462   3.689   3.782  15.585 -0.1563  0.0360  0.0052
  916MPD2    C413463   3.597   3.780  15.482 -0.4025  0.1801 -0.1923
  916MPD2    C513464   3.503   3.878  15.470  0.1206  0.0840  0.0962
  916MPD2     H13465   3.731   3.879  15.764 -1.6678  0.2342  1.1834
  916MPD2    H113466   3.598   3.712  15.397  1.1782  1.2802 -1.0493
  916MPD2    H213467   3.406   4.046  15.559  0.9449  0.9833 -1.1003
  916MPD2    H313468   3.455   3.874  15.373  0.9540 -0.0959 -0.3133
  916MPD2     N13469   3.798   3.695  15.585  0.2326  0.1145  0.0318
  916MPD2    H513470   3.877   3.730  15.640  0.9322 -0.9293 -0.3054
  916MPD2    N113471   3.513   4.039  15.793 -0.3011 -0.3122 -0.2441
  916MPD2    H713472   3.430   4.095  15.776  0.0667  0.2135 -0.3165
  917MPD2     C13473   3.780   1.533  11.206  0.8344  0.4771  0.2073
  917MPD2    C113474   3.805   1.583  11.333  0.3654 -0.1064  0.6426
  917MPD2    C213475   3.792   1.722  11.357  0.2503  0.1257  0.0985
  917MPD2    C313476   3.762   1.804  11.251  0.2186 -0.0939  0.6974
  917MPD2    C413477   3.743   1.747  11.127  0.1165  0.2378  0.1243
  917MPD2    C513478   3.746   1.616  11.100 -0.1389 -0.0660  0.2915
  917MPD2     H13479   3.797   1.762  11.458  2.4145 -0.7563  0.3361
  917MPD2    H113480   3.720   1.822  11.053  1.5701  2.3689  1.8279
  917MPD2    H213481   3.777   1.427  11.183 -0.6354  0.1815  1.7417
  917MPD2    H313482   3.732   1.582  10.998 -0.3205 -0.1324  0.3382
  917MPD2     N13483   3.727   1.939  11.263 -0.6721 -0.0115 -0.8753
  917MPD2    H513484   3.733   2.002  11.184 -2.2470 -1.0095 -1.8043
  917MPD2    N113485   3.855   1.494  11.433  0.7807  0.4934 -0.5645
  917MPD2    H713486   3.840   1.396  11.414 -1.2134  0.3796  1.5840
  918MPD2     C13487   4.009   1.807  12.366 -0.5549 -0.1284  0.0384
  918MPD2    C113488   4.094   1.747  12.281 -0.2523  0.1574  0.2568
  918MPD2    C213489   4.054   1.700  12.156  0.4611  0.0805  0.3639
  918MPD2    C313490   3.917   1.677  12.143 -0.4820 -0.3238 -0.3090
  918MPD2    C413491   3.826   1.738  12.228  0.6289 -0.7837  0.7315
  918MPD2    C513492   3.876   1.817  12.333 -0.7177  0.3017 -0.2023
  918MPD2     H13493   4.125   1.638  12.103 -1.0992 -2.3810  1.1970
  918MPD2    H113494   3.718   1.739  12.213  0.3440 -0.6795  2.7586
  918MPD2    H213495   4.024   1.859  12.460 -3.4021 -0.1615  0.5001
  918MPD2    H313496   3.798   1.861  12.393 -0.8394 -0.0999 -0.0674
  918MPD2     N13497   3.874   1.593  12.038  0.1639 -0.3291 -0.3343
  918MPD2    H513498   3.947   1.570  11.971  1.6703  0.0430  1.1733
  918MPD2    N113499   4.230   1.738  12.321 -0.7828  0.8065  0.6327
  918MPD2    H713500   4.297   1.703  12.253 -1.9447 -1.8332  0.8481
  919MPD2     C13501   4.281   0.616  11.453 -0.4220 -0.0925 -0.4966
  919MPD2    C113502   4.332   0.502  11.381  0.3120 -0.2357  0.3105
  919MPD2    C213503   4.360   0.519  11.250 -0.4648  1.1880 -0.0314
  919MPD2    C313504   4.319   0.631  11.175  0.6496 -0.4079  0.7186
  919MPD2    C413505   4.261   0.740  11.246  0.0656  1.1782  0.7458
  919MPD2    C513506   4.248   0.730  11.384 -0.1451 -0.5064  0.0025
  919MPD2     H13507   4.408   0.434  11.204  0.3746  2.2649 -1.1503
  919MPD2    H113508   4.227   0.831  11.198  2.3362  1.8526  0.4174
  919MPD2    H213509   4.242   0.607  11.554 -0.2314 -1.0674 -0.5120
  919MPD2    H313510   4.187   0.804  11.434  0.5213 -0.9777  1.5499
  919MPD2     N13511   4.331   0.637  11.033 -0.1027  0.3104 -0.8294
  919MPD2    H513512   4.282   0.712  10.984  0.4108  1.3775  0.2828
  919MPD2    N113513   4.372   0.381  11.451 -0.2581 -0.3654  0.4715
  919MPD2    H713514   4.400   0.305  11.390 -0.4381  0.6630 -0.8776
  920MPD2     C13515   3.917   1.050  10.237 -0.2966  0.0454  0.0794
  920MPD2    C113516   3.830   0.965  10.297  0.2532  0.5081 -0.0901
  920MPD2    C213517   3.877   0.873  10.387 -0.0566 -0.0707 -0.4711
  920MPD2    C313518   4.011   0.873  10.415  0.0533  0.1422  0.1258
  920MPD2    C413519   4.102   0.956  10.352  0.3626 -0.6714  0.1685
  920MPD2    C513520   4.058   1.041  10.258 -0.0111 -0.1788 -0.1323
  920MPD2     H13521   3.806   0.809  10.438 -0.5082 -0.7067 -1.8825
  920MPD2    H113522   4.207   0.941  10.373  0.6256  0.0183 -0.6708
  920MPD2    H213523   3.887   1.114  10.156 -2.1447 -1.5220 -0.4923
  920MPD2    H313524   4.125   1.110  10.209 -0.2940 -1.5014 -2.3437
  920MPD2     N13525   4.059   0.768  10.501 -0.0549  0.8550 -0.4671
  920MPD2    H513526   3.997   0.691  10.523  2.0312 -0.3797  1.1005
  920MPD2    N113527   3.694   0.973  10.267  0.5204 -0.4629  0.0056
  920MPD2    H713528   3.641   0.904  10.319 -0.9747  1.2532  0.7896
  921MPD2     C13529   0.496   4.238  16.995  0.8634 -1.0164 -0.4218
  921MPD2    C113530   0.492   4.218  16.858 -0.4544 -0.4406  0.1742
  921MPD2    C213531   0.373   4.166  16.812 -0.2305  0.1646  0.1098
  921MPD2    C313532   0.260   4.121  16.883  0.1239  0.3426  0.5273
  921MPD2    C413533   0.273   4.140  17.021 -0.4127 -0.0237 -0.3770
  921MPD2    C513534   0.386   4.205  17.071  0.8069 -0.3050 -0.4151
  921MPD2     H13535   0.370   4.149  16.705 -1.9440  1.2381 -0.0165
  921MPD2    H113536   0.193   4.114  17.089 -1.4572  0.6407 -1.3702
  921MPD2    H213537   0.576   4.286  17.050  0.8660 -0.6130 -0.7806
  921MPD2    H313538   0.378   4.233  17.175  0.2450 -0.4861 -0.4084
  921MPD2     N13539   0.137   4.064  16.829  0.0388  0.1544 -0.1835
  921MPD2    H513540   0.069   4.030  16.897  0.5037 -1.7403 -0.6658
  921MPD2    N113541   0.598   4.261  16.768 -0.2947  0.5256 -0.2708
  921MPD2    H713542   0.684   4.289  16.813  0.2712 -2.0400  0.2810
  922MPD2     C13543   1.034   2.481  17.340 -0.2576  0.1922 -0.4192
  922MPD2    C113544   1.034   2.438  17.470 -0.2521 -0.0556 -0.1930
  922MPD2    C213545   1.010   2.304  17.498  0.7482  0.5365  0.7481
  922MPD2    C313546   0.994   2.210  17.398  0.3043 -0.6525  0.0230
  922MPD2    C413547   0.995   2.254  17.263  0.8582 -0.0134  0.3387
  922MPD2    C513548   1.015   2.387  17.240  0.0526 -0.6886  0.4458
  922MPD2     H13549   0.999   2.275  17.602 -0.5184  2.5182  1.1759
  922MPD2    H113550   0.994   2.193  17.173 -0.5232  0.4693  0.0261
  922MPD2    H213551   1.038   2.584  17.305 -0.6252  0.4708  0.3762
  922MPD2    H313552   1.018   2.426  17.139 -0.3047  0.8388  1.0241
  922MPD2     N13553   0.986   2.070  17.428 -0.0533 -0.4230  0.5728
  922MPD2    H513554   0.987   2.045  17.526  3.1253  1.5954  1.0755
  922MPD2    N113555   1.074   2.524  17.578 -0.3145  0.2060 -0.3305
  922MPD2    H713556   1.098   2.477  17.665 -0.0910 -0.2933 -0.6591
  923MPD2     C13557   1.884   4.115   8.892 -0.0405  0.7323  0.1421
  923MPD2    C113558   1.858   4.245   8.923  0.8448  0.1014 -0.0653
  923MPD2    C213559   1.968   4.329   8.935  0.4391  0.4909  0.3073
  923MPD2    C313560   2.095   4.285   8.895  0.0701  0.6360  0.3049
  923MPD2    C413561   2.113   4.158   8.856 -0.3249  0.3100 -0.2853
  923MPD2    C513562   2.010   4.077   8.868 -0.3960 -0.0015 -1.1584
  923MPD2     H13563   1.959   4.426   8.982  2.0816  1.0375 -0.5032
  923MPD2    H113564   2.210   4.112   8.843  0.1053  1.4172 -1.0097
  923MPD2    H213565   1.811   4.035   8.897  0.7902 -0.0647 -0.5375
  923MPD2    H313566   2.037   3.974   8.849 -0.0935 -0.2442  0.5984
  923MPD2     N13567   2.213   4.365   8.896  0.6058 -0.5478  0.0288
  923MPD2    H513568   2.299   4.328   8.857  0.1922 -1.5332  0.0592
  923MPD2    N113569   1.726   4.278   8.945 -0.7110  0.0651 -0.0573
  923MPD2    H713570   1.656   4.205   8.933 -1.3751  0.9350 -1.4020
  924MPD2     C13571   2.619   2.542  15.939 -0.6462  0.1376  0.9604
  924MPD2    C113572   2.605   2.513  16.073  0.8559  0.0444 -0.4002
  924MPD2    C213573   2.631   2.601  16.168 -1.0533 -0.3929  0.4090
  924MPD2    C313574   2.662   2.730  16.131 -0.2733  0.4788 -0.1376
  924MPD2    C413575   2.667   2.764  15.996 -0.8620  0.2662  0.5066
  924MPD2    C513576   2.648   2.670  15.899  0.2426  0.9447  0.5619
  924MPD2     H13577   2.625   2.582  16.274  1.5033  3.6370  1.2669
  924MPD2    H113578   2.686   2.865  15.960  1.7401  0.0574  1.2725
  924MPD2    H213579   2.612   2.460  15.868 -2.0340 -0.1725  1.4515
  924MPD2    H313580   2.649   2.695  15.793 -2.1555 -1.6485 -0.0790
  924MPD2     N13581   2.648   2.847  16.212  0.2766  0.3307 -0.4115
  924MPD2    H513582   2.650   2.936  16.165 -0.5177  0.7593  0.3723
  924MPD2    N113583   2.560   2.382  16.103 -0.3459  0.4543  0.1732
  924MPD2    H713584   2.521   2.328  16.027 -2.7939 -1.3215  2.7072
  925MPD2     C13585   1.160   0.341  14.862 -0.1795 -0.0546  1.0112
  925MPD2    C113586   1.094   0.254  14.784 -0.2234  0.1728 -0.1557
  925MPD2    C213587   1.011   0.159  14.847  0.1329  0.1536 -0.4950
  925MPD2    C313588   1.009   0.148  14.990  0.3113 -0.1507 -0.4453
  925MPD2    C413589   1.074   0.240  15.066 -0.0118  0.3950  0.0778
  925MPD2    C513590   1.145   0.334  14.999 -0.1954  0.4643 -0.2327
  925MPD2     H13591   0.951   0.093  14.786  0.5331  0.0518 -0.7770
  925MPD2    H113592   1.067   0.242  15.174  2.4982 -0.3184  0.2544
  925MPD2    H213593   1.213   0.427  14.823 -2.2193  1.1591  0.9536
  925MPD2    H313594   1.180   0.416  15.060  2.3644 -0.7494 -0.0763
  925MPD2     N13595   0.940   0.048  15.062  0.0325  0.0338 -0.0225
  925MPD2    H513596   0.942   0.047  15.164  2.5755  0.3154 -0.0622
  925MPD2    N113597   1.101   0.258  14.639 -0.6463  0.4696  0.1801
  925MPD2    H713598   1.051   0.190  14.582 -2.1274  1.2209  0.5903
  926MPD2     C13599   4.087   3.313  13.184 -0.0644 -1.0103  0.0663
  926MPD2    C113600   4.083   3.450  13.217  0.0724  0.2555  0.4669
  926MPD2    C213601   4.150   3.542  13.139  0.2388  0.3833  0.0965
  926MPD2    C313602   4.201   3.511  13.017  0.9025 -0.6022  0.8274
  926MPD2    C413603   4.186   3.379  12.973  1.1679  0.0435  0.8786
  926MPD2    C513604   4.138   3.282  13.057 -0.5846  0.5517 -0.1238
  926MPD2     H13605   4.142   3.641  13.183  1.7474  1.0098 -1.0319
  926MPD2    H113606   4.212   3.343  12.874  1.2471  2.9884 -0.1536
  926MPD2    H213607   4.048   3.232  13.243 -1.3729 -0.6698 -0.3337
  926MPD2    H313608   4.137   3.182  13.015  0.7845  0.5130 -0.0680
  926MPD2     N13609   4.257   3.607  12.926 -0.4105 -0.2804  0.1220
  926MPD2    H513610   4.256   3.576  12.829 -0.8737 -0.0942  0.0660
  926MPD2    N113611   4.029   3.492  13.344  0.0421 -0.7250  0.0866
  926MPD2    H713612   4.046   3.588  13.371  1.4326 -0.5940 -1.2544
  927MPD2     C13613   3.905   0.922  17.247  0.0035  0.2305 -0.0125
  927MPD2    C113614   3.984   0.908  17.360  0.7768  0.2463  0.0809
  927MPD2    C213615   4.094   0.988  17.369 -0.1131  0.3795  0.0235
  927MPD2    C313616   4.132   1.076  17.267 -0.8159 -0.5599 -0.0286
  927MPD2    C413617   4.049   1.090  17.155 -0.3265  0.1307  0.2699
  927MPD2    C513618   3.944   0.999  17.143  0.2644 -0.5109  0.1714
  927MPD2     H13619   4.164   0.964  17.448 -0.8052  1.3003  0.9096
  927MPD2    H113620   4.072   1.163  17.079 -0.9984 -0.1234 -0.1759
  927MPD2    H213621   3.821   0.854  17.236 -1.7434  2.5409 -1.1134
  927MPD2    H313622   3.876   1.007  17.059 -0.2447  2.1866  0.8371
  927MPD2     N13623   4.247   1.153  17.282 -0.0909  1.1124 -0.1547
  927MPD2    H513624   4.287   1.157  17.375  3.0919  2.4565 -1.5907
  927MPD2    N113625   3.950   0.798  17.454 -0.3303 -0.5192  0.1986
  927MPD2    H713626   3.857   0.758  17.445  0.0932 -0.6541 -3.6606
  928MPD2     C13627   1.990   4.218   0.717 -0.2007 -0.0716  0.2593
  928MPD2    C113628   2.092   4.300   0.762 -0.0173 -0.2411 -0.2001
  928MPD2    C213629   2.195   4.324   0.670 -0.0823  0.6904  0.1125
  928MPD2    C313630   2.190   4.273   0.540 -0.1086  0.1426  0.2276
  928MPD2    C413631   2.075   4.213   0.493  0.2046 -0.1119  0.4496
  928MPD2    C513632   1.979   4.176   0.582 -0.5895  0.6943  0.0200
  928MPD2     H13633   2.281   4.382   0.701  0.7861  0.4708 -1.8661
  928MPD2    H113634   2.069   4.181   0.390 -1.5221 -0.9743  0.8236
  928MPD2    H213635   1.905   4.198   0.782  0.8380  2.4350  2.3887
  928MPD2    H313636   1.914   4.091   0.561  0.1915  0.4820 -1.5357
  928MPD2     N13637   2.297   4.290   0.448 -0.7373 -0.3365 -0.4814
  928MPD2    H513638   2.287   4.261   0.351  2.3719 -0.2090 -0.8472
  928MPD2    N113639   2.087   4.343   0.896  0.1533  0.1273  0.3500
  928MPD2    H713640   2.012   4.301   0.952 -0.4144  0.1253 -0.4135
  929MPD2     C13641   2.601   4.615   9.687  0.1511  0.6259  0.7823
  929MPD2    C113642   2.467   4.607   9.726  0.1333  0.2254  0.0296
  929MPD2    C213643   2.392   4.719   9.709 -0.0295  0.6347  0.1608
  929MPD2    C313644   2.443   0.098   9.651  0.5449 -1.3153 -0.2220
  929MPD2    C413645   2.573   0.106   9.619 -0.4811 -0.5839 -0.0495
  929MPD2    C513646   2.646   4.731   9.632 -0.5589 -0.1328 -0.5872
  929MPD2     H13647   2.285   4.715   9.728  0.6697 -2.8835  3.3964
  929MPD2    H113648   2.617   0.193   9.572 -0.1010 -1.9624 -2.2859
  929MPD2    H213649   2.681   4.544   9.704 -1.1429 -1.0018  0.0618
  929MPD2    H313650   2.753   0.002   9.615 -0.2789  0.1650  1.2433
  929MPD2     N13651   2.365   0.212   9.623 -0.1190  0.0053  0.6408
  929MPD2    H513652   2.407   0.303   9.603 -1.4312  0.1026 -1.6928
  929MPD2    N113653   2.436   4.491   9.801  0.1631 -0.1175  0.3943
  929MPD2    H713654   2.511   4.430   9.832 -0.9580 -1.8049 -0.2021
  930MPD2     C13655   4.326   1.592  13.998  0.0685 -0.4420 -0.1424
  930MPD2    C113656   4.344   1.627  13.868 -0.5188  0.0539  0.6773
  930MPD2    C213657   4.275   1.563  13.769  0.4929  0.0894  0.5384
  930MPD2    C313658   4.206   1.447  13.792 -0.1780 -0.4566 -0.2694
  930MPD2    C413659   4.183   1.413  13.926  0.2808 -0.2342  0.4436
  930MPD2    C513660   4.240   1.489  14.025 -0.4485 -0.1284  0.6781
  930MPD2     H13661   4.273   1.612  13.672 -0.6004 -0.4884  0.2637
  930MPD2    H113662   4.121   1.327  13.949 -0.0911  0.4220  1.8882
  930MPD2    H213663   4.379   1.648  14.075  2.2520 -1.0301 -1.1987
  930MPD2    H313664   4.227   1.444  14.123 -0.4429 -0.8038  0.3696
  930MPD2     N13665   4.137   1.379  13.688 -0.2409 -0.4258  0.5163
  930MPD2    H513666   4.128   1.278  13.700  0.1415 -0.4494  0.5952
  930MPD2    N113667   4.424   1.749  13.853 -0.3091  0.6184 -0.4857
  930MPD2    H713668   4.447   1.790  13.943 -1.1969 -0.7577  0.3650
  931MPD2     C13669   4.281   0.178   0.029  0.5831 -0.1774  0.2209
  931MPD2    C113670   4.230   0.253   0.134 -1.0331 -0.2150 -0.2368
  931MPD2    C213671   4.265   0.226   0.265 -0.1316  0.6248  0.1246
  931MPD2    C313672   4.362   0.130   0.291 -0.1916 -0.4695  0.2037
  931MPD2    C413673   4.397   0.038   0.188 -0.1670 -0.0190  0.0513
  931MPD2    C513674   4.363   0.068   0.061  0.1961  0.5132 -0.6238
  931MPD2     H13675   4.253   0.307   0.335 -0.8851 -0.7433  1.5885
  931MPD2    H113676   4.469   4.695   0.205  1.6021  1.8512  1.3336
  931MPD2    H213677   4.258   0.193  17.669  0.9162  1.3991  0.3667
  931MPD2    H313678   4.397   0.006  17.724  0.0499 -0.7250  0.2499
  931MPD2     N13679   4.412   0.115   0.422 -0.1613 -0.2478 -0.4847
  931MPD2    H513680   4.488   0.048   0.426  0.3525  0.5245  2.6816
  931MPD2    N113681   4.162   0.371   0.096  0.5481  0.8252  0.4837
  931MPD2    H713682   4.141   0.375  17.742  1.8824  0.9540  0.1979
  932MPD2     C13683   1.474   0.368  11.169  0.2090  0.3517  0.8467
  932MPD2    C113684   1.451   0.334  11.298 -0.9265 -0.1376 -0.0985
  932MPD2    C213685   1.469   0.201  11.337 -0.2415 -0.1778 -0.1353
  932MPD2    C313686   1.488   0.105  11.241  0.5451  0.2404 -0.7762
  932MPD2    C413687   1.489   0.140  11.106  0.4938 -0.1797 -0.0846
  932MPD2    C513688   1.476   0.276  11.068  0.4100  0.5581  0.5948
  932MPD2     H13689   1.478   0.180  11.443 -0.4090  1.9861  0.2988
  932MPD2    H113690   1.498   0.065  11.027  1.6923 -1.8127  1.5873
  932MPD2    H213691   1.473   0.469  11.132 -0.2604  0.4569  1.1462
  932MPD2    H313692   1.506   0.309  10.970 -1.4334 -1.3357 -0.6073
  932MPD2     N13693   1.515   4.704  11.265  0.7816  0.2028  0.3752
  932MPD2    H513694   1.532   4.643  11.186  3.1272  2.2694 -0.6999
  932MPD2    N113695   1.425   0.448  11.391 -0.5873  0.2524  0.7021
  932MPD2    H713696   1.400   0.532  11.339  0.3554 -0.6126 -1.1472
  933MPD2     C13697   1.892   4.678   1.682 -0.1554 -0.1367  0.1412
  933MPD2    C113698   1.858   4.627   1.556  0.0822  0.3585 -0.0697
  933MPD2    C213699   1.723   4.622   1.526  0.4052 -0.0087 -0.1950
  933MPD2    C313700   1.623   4.664   1.614  0.2080 -0.4128  0.3714
  933MPD2    C413701   1.657   4.708   1.744  0.0455 -0.2110 -0.3721
  933MPD2    C513702   1.796   4.719   1.779 -0.0602 -0.3850 -0.2347
  933MPD2     H13703   1.688   4.587   1.430 -1.0385  0.1608  0.2718
  933MPD2    H113704   1.590   4.714   1.828  0.0845  2.8052 -0.5610
  933MPD2    H213705   1.995   4.685   1.715 -0.0811 -0.9271  0.0753
  933MPD2    H313706   1.834   0.021   1.872  1.0739 -2.7447  0.2893
  933MPD2     N13707   1.491   4.668   1.566  0.9033 -0.1483  0.1117
  933MPD2    H513708   1.490   4.629   1.472 -0.9822  0.4447 -0.1022
  933MPD2    N113709   1.954   4.571   1.468  0.2988  0.5471  0.2725
  933MPD2    H713710   2.050   4.584   1.499  0.0208 -1.7995  2.1571
  934MPD2     C13711   3.390   0.785   2.098 -0.2808 -0.0702  0.4540
  934MPD2    C113712   3.458   0.712   1.998  0.0797 -0.6749 -0.0422
  934MPD2    C213713   3.400   0.694   1.874  0.4749 -0.0589  0.0493
  934MPD2    C313714   3.285   0.762   1.843  0.1702 -0.0747  0.0170
  934MPD2    C413715   3.218   0.826   1.943  0.0115  0.1376  0.4831
  934MPD2    C513716   3.264   0.832   2.070  0.4429 -0.4428 -0.1385
  934MPD2     H13717   3.431   0.628   1.793 -2.0008 -0.6460 -0.3997
  934MPD2    H113718   3.116   0.858   1.925  0.8471  1.6756 -1.4920
  934MPD2    H213719   3.437   0.806   2.193 -1.3018 -0.7390  1.1040
  934MPD2    H313720   3.205   0.881   2.147 -1.3787 -3.3902  0.3392
  934MPD2     N13721   3.235   0.767   1.715 -0.2648 -0.3452 -0.2147
  934MPD2    H513722   3.141   0.804   1.710 -0.5029 -0.7079  1.4992
  934MPD2    N113723   3.584   0.651   2.025  0.2730  0.3935  0.8455
  934MPD2    H713724   3.627   0.609   1.943 -0.6422 -0.2051  0.6660
  935MPD2     C13725   3.604   0.429   0.836 -0.2559  0.1850 -0.4351
  935MPD2    C113726   3.468   0.435   0.812  0.5164 -0.6869  0.6567
  935MPD2    C213727   3.379   0.471   0.917 -0.2594  0.1393 -0.1743
  935MPD2    C313728   3.429   0.518   1.039  0.6047 -0.3120  0.3178
  935MPD2    C413729   3.566   0.506   1.055 -0.3943  0.2753 -0.2330
  935MPD2    C513730   3.654   0.461   0.965  0.0726 -0.3086  0.3447
  935MPD2     H13731   3.273   0.452   0.903  0.0122 -1.8579  0.5204
  935MPD2    H113732   3.609   0.519   1.153 -1.8041  0.0103  0.4162
  935MPD2    H213733   3.671   0.399   0.757 -0.8249 -1.0842 -0.4263
  935MPD2    H313734   3.759   0.443   0.985  0.4449 -0.2264 -1.5086
  935MPD2     N13735   3.352   0.555   1.152  0.4309  0.1545  0.0524
  935MPD2    H513736   3.414   0.578   1.230  1.4490 -1.3722 -0.3006
  935MPD2    N113737   3.406   0.397   0.688  0.2811 -0.1566  0.1222
  935MPD2    H713738   3.305   0.387   0.690  0.6437 -4.0342 -0.8994
  936MPD2     C13739   2.415   2.833  12.929 -0.6726 -0.7452  0.1947
  936MPD2    C113740   2.295   2.808  12.867  0.3016  0.9959 -0.1662
  936MPD2    C213741   2.294   2.822  12.724  0.3226 -0.8940  0.0769
  936MPD2    C313742   2.400   2.877  12.659 -0.1681  0.1577  0.2374
  936MPD2    C413743   2.518   2.905  12.721 -0.0621  0.1851 -1.2633
  936MPD2    C513744   2.526   2.871  12.857 -0.0553 -0.2249 -0.3513
  936MPD2     H13745   2.198   2.800  12.678 -0.4197  2.5880 -0.0661
  936MPD2    H113746   2.600   2.957  12.673  0.1000  0.6216 -0.5017
  936MPD2    H213747   2.431   2.818  13.035  1.3489  0.8686  0.1187
  936MPD2    H313748   2.614   2.901  12.912 -0.4695  0.3308  0.0024
  936MPD2     N13749   2.388   2.920  12.522  0.0655 -0.0013  0.1920
  936MPD2    H513750   2.465   2.968  12.476  0.2452 -0.8236 -0.3740
  936MPD2    N113751   2.173   2.792  12.931 -0.0097  0.2535  0.1177
  936MPD2    H713752   2.091   2.762  12.879  0.3681 -0.3440 -0.1412
  937MPD2     C13753   4.642   4.482  11.262 -0.2619  0.0723  0.0478
  937MPD2    C113754   4.682   4.614  11.291  0.2924  0.7371  0.3604
  937MPD2    C213755   0.031   4.677  11.197 -0.1170  0.0024 -0.1592
  937MPD2    C313756   0.083   4.601  11.090 -0.1313  0.1596  0.1296
  937MPD2    C413757   0.044   4.474  11.070 -0.0110 -0.0290  0.2711
  937MPD2    C513758   4.689   4.420  11.151  0.4710 -0.2157 -0.0392
  937MPD2     H13759   0.057   0.043  11.219 -1.5717  0.6286 -1.3157
  937MPD2    H113760   0.080   4.407  10.992 -0.4972 -0.0012  0.0196
  937MPD2    H213761   4.569   4.431  11.325 -1.0859  1.6119  0.3427
  937MPD2    H313762   4.645   4.324  11.126  1.8043 -0.6571 -0.6579
  937MPD2     N13763   0.174   4.669  11.009 -0.5571  0.1905 -0.2089
  937MPD2    H513764   0.203   0.026  11.037 -3.3830  1.2727 -0.9305
  937MPD2    N113765   4.633   4.696  11.390 -0.8443 -0.3433 -0.3308
  937MPD2    H713766   4.652   0.059  11.395 -3.0840  0.0503  0.2203
  938MPD2     C13767   2.242   0.805   0.628 -0.0322 -0.4152 -0.1884
  938MPD2    C113768   2.292   0.870   0.734 -0.6272 -0.6450  0.4848
  938MPD2    C213769   2.303   0.807   0.860 -0.2793  0.4588 -0.0005
  938MPD2    C313770   2.269   0.670   0.868 -0.3710  0.2915  0.7375
  938MPD2    C413771   2.219   0.608   0.755  0.3133  0.0727 -0.0974
  938MPD2    C513772   2.200   0.676   0.640  0.4703 -0.0961  0.1619
  938MPD2     H13773   2.348   0.862   0.942 -1.4261  0.1302  0.8487
  938MPD2    H113774   2.190   0.504   0.757  2.6558 -0.5675  0.7762
  938MPD2    H213775   2.258   0.837   0.525 -0.6120  0.9326  0.1409
  938MPD2    H313776   2.168   0.618   0.554 -0.0724  0.7468 -0.1965
  938MPD2     N13777   2.283   0.587   0.986  0.1350 -0.0014 -0.1695
  938MPD2    H513778   2.241   0.495   0.979  0.4074 -0.2470  1.4103
  938MPD2    N113779   2.345   1.000   0.720 -0.4230  0.1009  0.0321
  938MPD2    H713780   2.398   1.033   0.800 -3.0532  0.9717  1.4140
  939MPD2     C13781   2.935   1.851   0.803 -0.5981 -0.5761 -0.6345
  939MPD2    C113782   2.950   1.982   0.774  1.1758 -0.6589  0.1603
  939MPD2    C213783   2.953   2.018   0.638  0.0559 -0.6383 -0.0498
  939MPD2    C313784   2.943   1.925   0.533 -0.1977 -0.5627 -0.9046
  939MPD2    C413785   2.924   1.795   0.567  0.9690 -1.2333 -0.3186
  939MPD2    C513786   2.923   1.759   0.698  0.2389  0.5154  0.3617
  939MPD2     H13787   2.962   2.123   0.612  1.0339 -0.4198  1.1296
  939MPD2    H113788   2.908   1.721   0.490  0.0199 -1.8126  0.4376
  939MPD2    H213789   2.911   1.821   0.904  0.8341 -0.9644 -0.4165
  939MPD2    H313790   2.907   1.653   0.718 -0.5270  0.7341  0.9164
  939MPD2     N13791   2.969   1.972   0.400  0.3457  0.0004  0.9551
  939MPD2    H513792   2.972   2.072   0.380  1.5379 -0.0922  0.6825
  939MPD2    N113793   2.951   2.073   0.885 -0.2988 -0.3578  1.1928
  939MPD2    H713794   2.947   2.025   0.974  0.4873 -1.8878  0.4043
  940MPD2     C13795   1.894   3.711  12.842  0.2922 -0.2481 -0.3068
  940MPD2    C113796   2.001   3.702  12.926 -0.5708  0.8852 -0.8102
  940MPD2    C213797   2.128   3.746  12.887  0.3110  0.5453 -0.9409
  940MPD2    C313798   2.147   3.813  12.767  0.1880 -0.5867 -0.3773
  940MPD2    C413799   2.041   3.819  12.683 -0.6525 -0.0095 -0.0921
  940MPD2    C513800   1.925   3.757  12.716 -0.3599 -0.1815  0.2923
  940MPD2     H13801   2.210   3.738  12.958 -1.4262  0.8798  1.0978
  940MPD2    H113802   2.049   3.859  12.583 -0.4155  0.8042  0.2538
  940MPD2    H213803   1.796   3.670  12.862 -0.0113  0.6365  0.0164
  940MPD2    H313804   1.848   3.755  12.640  0.6203 -1.4687 -0.6536
  940MPD2     N13805   2.272   3.875  12.735  0.2489 -0.6033 -0.3095
  940MPD2    H513806   2.271   3.925  12.647  2.7983  0.6698  0.3815
  940MPD2    N113807   1.999   3.648  13.055  0.2720  0.3820  0.3460
  940MPD2    H713808   2.090   3.624  13.093  0.3263 -1.4067 -0.9241
  941MPD2     C13809   1.389   3.089  10.005 -0.1777  0.4397  0.3891
  941MPD2    C113810   1.529   3.089  10.004 -0.5245  0.4412  0.2755
  941MPD2    C213811   1.597   3.003  10.095 -0.1358  0.1911  0.2649
  941MPD2    C313812   1.523   2.925  10.177 -0.6025 -0.2779  0.0590
  941MPD2    C413813   1.388   2.932  10.175  0.3796  0.1314 -0.3613
  941MPD2    C513814   1.316   3.016  10.094 -0.7583  0.1108 -0.6982
  941MPD2     H13815   1.704   3.010  10.102 -0.0913  2.3812 -2.4096
  941MPD2    H113816   1.333   2.869  10.244  0.4763 -0.3850 -0.7588
  941MPD2    H213817   1.333   3.157   9.941  1.2365  1.3496  0.1296
  941MPD2    H313818   1.210   3.036  10.100 -0.7150  0.4717 -1.1204
  941MPD2     N13819   1.573   2.845  10.285  0.1802 -0.5501 -0.7545
  941MPD2    H513820   1.508   2.786  10.335  0.1241  0.7943  0.7495
  941MPD2    N113821   1.606   3.174   9.923 -0.0601 -0.1795 -0.5791
  941MPD2    H713822   1.707   3.176   9.938 -0.0216  1.5841 -1.0699
  942MPD2     C13823   0.532   4.173   9.352  0.9277  0.3147  0.3316
  942MPD2    C113824   0.608   4.229   9.451 -0.3382 -0.1723  0.0963
  942MPD2    C213825   0.643   4.360   9.435 -0.9480 -0.3675  0.1499
  942MPD2    C313826   0.613   4.433   9.323 -0.0300 -0.5618  0.7886
  942MPD2    C413827   0.532   4.374   9.228 -0.0691  0.5142 -0.1076
  942MPD2    C513828   0.499   4.243   9.241  0.5187  0.2500 -0.4977
  942MPD2     H13829   0.711   4.406   9.504 -1.5811  2.5762 -1.1666
  942MPD2    H113830   0.491   4.425   9.142 -2.0065  0.0796  0.5488
  942MPD2    H213831   0.506   4.068   9.358 -0.8388  0.7180 -0.2074
  942MPD2    H313832   0.427   4.202   9.172 -1.0513 -1.5226  2.1934
  942MPD2     N13833   0.670   4.561   9.293 -0.0984  0.2183 -0.6076
  942MPD2    H513834   0.653   4.598   9.200  0.6886 -2.0944 -1.6591
  942MPD2    N113835   0.644   4.162   9.570 -0.3581  0.3199 -0.0074
  942MPD2    H713836   0.684   4.220   9.643 -1.2772  0.5343  0.3227
  943MPD2     C13837   1.375   2.233  10.578 -0.1718  0.7488  0.0489
  943MPD2    C113838   1.249   2.183  10.585 -0.4171  0.1188  0.2198
  943MPD2    C213839   1.157   2.244  10.667 -0.2822 -0.0946 -0.6318
  943MPD2    C313840   1.194   2.357  10.744  0.1043  0.8179  0.1816
  943MPD2    C413841   1.314   2.410  10.732 -0.0232 -0.0823  0.1350
  943MPD2    C513842   1.402   2.347  10.651 -0.2600 -0.2656 -0.4504
  943MPD2     H13843   1.053   2.213  10.665 -0.3283 -0.1237  1.9469
  943MPD2    H113844   1.333   2.495  10.797  3.0478 -0.3186 -0.4499
  943MPD2    H213845   1.457   2.200  10.515 -0.0947 -0.6698  0.9013
  943MPD2    H313846   1.498   2.391  10.627 -1.2108  1.7373 -0.5316
  943MPD2     N13847   1.103   2.414  10.837  0.3608  0.1845  0.3030
  943MPD2    H513848   1.141   2.495  10.885  0.8130  0.8423 -1.1497
  943MPD2    N113849   1.213   2.080  10.491 -0.1252  0.0065 -0.2820
  943MPD2    H713850   1.289   2.054  10.429 -0.1764 -0.8781  0.0166
  944MPD2     C13851   0.670   1.656  10.918  0.6261  0.0639 -0.3083
  944MPD2    C113852   0.782   1.622  10.993 -0.6791  0.3743  0.2844
  944MPD2    C213853   0.772   1.570  11.119 -0.2699 -0.3519  0.3306
  944MPD2    C313854   0.646   1.565  11.177  0.6320 -0.4682 -0.0760
  944MPD2    C413855   0.535   1.596  11.095 -0.7836  0.0667  1.0845
  944MPD2    C513856   0.546   1.627  10.959 -0.6073  0.1317 -0.1095
  944MPD2     H13857   0.862   1.545  11.173  0.4762  0.3279 -0.5915
  944MPD2    H113858   0.431   1.576  11.122 -0.8196 -1.0197  0.1383
  944MPD2    H213859   0.687   1.704  10.823  2.6936  3.1649  1.6110
  944MPD2    H313860   0.456   1.649  10.903 -0.0637 -0.3136 -1.1450
  944MPD2     N13861   0.636   1.531  11.312  0.1383 -0.6727  0.1995
  944MPD2    H513862   0.722   1.504  11.359 -0.3487 -1.3033  0.7393
  944MPD2    N113863   0.903   1.647  10.937 -0.8288 -0.3899  0.3471
  944MPD2    H713864   0.893   1.705  10.855 -2.0535  1.0802  1.5365
    1TMC1    C113865   3.712   2.036  14.055  0.9239  0.2922  0.4892
    1TMC1    C213866   3.612   2.027  13.964 -0.2073  0.4058 -0.1654
    1TMC1    C313867   3.621   1.923  13.872 -0.0970  0.0997  0.4095
    1TMC1    C413868   3.821   1.948  14.058 -0.2046 -0.8642  0.5784
    1TMC1    C513869   3.820   1.841  13.965 -0.3343 -0.2897 -0.5301
    1TMC1    C613870   3.720   1.830  13.871 -0.7037  0.4348 -0.2705
    1TMC1     C13871   3.699   2.122  14.173  0.3628 -0.8623 -0.1705
    1TMC1     O13872   3.777   2.096  14.262  0.1188 -0.7216 -0.1530
    1TMC1     H13873   3.524   2.090  13.970 -0.0853  0.4845  0.7709
    1TMC1    H113874   3.903   1.961  14.128  0.6124  0.9148 -0.7136
    1TMC1    H213875   3.719   1.740  13.811  1.9374  0.6847 -0.7157
    1TMC1    C713876   3.876   1.709  13.981  0.0075 -0.1398  0.4867
    1TMC1    C813877   3.493   1.897  13.811 -0.4021 -0.5649  0.2256
    1TMC1    O113878   3.801   1.613  13.968  0.8500 -0.1370 -0.0726
    1TMC1    O213879   3.387   1.929  13.866 -0.0910  0.2332  0.3110
    1TMC1    O313880   3.989   1.716  14.056 -0.2989 -0.2267  0.1062
    1TMC1    H313881   4.021   1.809  14.062 -1.3128  0.1883 -1.0562
    1TMC1    O513882   3.519   1.929  13.684 -0.4507 -0.4207  0.2710
    1TMC1    H513883   3.604   1.896  13.647  0.8082  1.3042  1.6773
    2MPD2     C13884   3.499   2.510  14.438  0.0918  0.1888 -0.1221
    2MPD2    C113885   3.432   2.509  14.316 -0.4600 -0.5448  0.2350
    2MPD2    C213886   3.482   2.422  14.222  0.0471  0.2180  0.0765
    2MPD2    C313887   3.571   2.316  14.257 -0.4506 -0.2599 -0.3276
    2MPD2    C413888   3.621   2.314  14.389 -0.5139  0.2412 -0.4417
    2MPD2    C513889   3.584   2.409  14.480 -0.6062  0.3403  0.2287
    2MPD2     H13890   3.445   2.427  14.120  1.0256 -3.8131 -0.4632
    2MPD2    H113891   3.681   2.230  14.422 -0.1526 -0.5806 -3.1614
    2MPD2    H213892   3.472   2.579  14.517  1.0847 -0.2107  0.5654
    2MPD2    H313893   3.639   2.405  14.573  1.3481  1.9082 -0.8916
    2MPD2     N13894   3.600   2.218  14.159 -0.1088 -0.1906 -0.6724
    2MPD2    H513895   3.558   2.231  14.067 -3.1797 -0.0340  0.7520
    2MPD2    N113896   3.337   2.615  14.293 -0.1663  0.4469  0.2036
    2MPD2    H713897   3.301   2.658  14.378 -0.7972  0.4021 -0.0412
    3TMC2    C113898   3.251   2.788  14.169 -0.6257 -0.3752  0.4996
    3TMC2    C213899   3.252   2.855  14.281  0.0165 -0.1591  0.4317
    3TMC2    C313900   3.170   2.974  14.296 -0.5123 -0.1011 -0.0767
    3TMC2    C413901   3.172   2.834  14.067  0.2199  0.2435 -0.2696
    3TMC2    C513902   3.091   2.940  14.077  0.2050  0.1926 -0.0897
    3TMC2    C613903   3.092   3.018  14.192  0.2946 -0.2290  0.3874
    3TMC2     C13904   3.282   2.647  14.173 -0.1637  0.0995  0.6284
    3TMC2     O13905   3.294   2.585  14.069  0.1766  0.0599  0.4616
    3TMC2     H13906   3.322   2.844  14.362  1.0348 -0.2344 -0.4533
    3TMC2    H113907   3.165   2.777  13.975  1.5594  1.8667 -1.3676
    3TMC2    H213908   3.015   3.089  14.221  3.4985  3.3799  0.0644
    3TMC2    C713909   3.025   2.991  13.963 -0.1210 -0.1801  0.3657
    3TMC2    C813910   3.156   3.027  14.431  0.7457  0.0800 -0.1896
    3TMC2    O113911   3.049   2.944  13.851 -0.3169 -0.3276  0.7405
    3TMC2    O213912   3.172   2.966  14.539 -0.0072 -0.4601  0.0721
    3TMC2    O513913   3.117   3.156  14.425  0.3852  0.4620 -0.2384
    3TMC2    H513914   3.146   3.192  14.338  1.2047 -2.0138 -1.0040
    4TMC2    C113915   2.325   3.673  14.086  0.8358 -0.3989 -0.1982
    4TMC2    C213916   2.303   3.705  14.220  0.2816  0.1437  0.3226
    4TMC2    C313917   2.411   3.694  14.300  0.2052  0.7011 -0.6526
    4TMC2    C413918   2.437   3.620  14.034  0.3894 -0.4900  0.2553
    4TMC2    C513919   2.543   3.621  14.122  0.9629  0.2196  0.2131
    4TMC2    C613920   2.532   3.653  14.255  0.7791  0.2114  0.4813
    4TMC2     C13921   2.212   3.666  14.005 -0.6256 -0.2107  0.7093
    4TMC2     O13922   2.102   3.673  14.056  0.8060  1.0156 -0.2356
    4TMC2     H13923   2.211   3.748  14.260  0.5211  0.6688  0.3153
    4TMC2    H113924   2.458   3.598  13.929  2.9271  3.4139 -0.0870
    4TMC2    H213925   2.613   3.641  14.326  0.7540  1.4339  0.7209
    4TMC2    C713926   2.638   3.509  14.093  0.0182 -0.5162 -0.6021
    4TMC2    C813927   2.399   3.724  14.442 -0.1259 -0.4567  0.4842
    4TMC2    O113928   2.679   3.437  14.182  0.0256 -0.1073  0.4838
    4TMC2    O213929   2.289   3.741  14.494  0.0918 -0.2343  0.3053
    4TMC2    O513930   2.504   3.796  14.483 -0.3708 -0.1581 -0.4585
    4TMC2    H513931   2.583   3.805  14.425  1.2752  0.5937  1.9166
    5MPD2     C13932   1.951   3.808  13.593  0.1535 -0.5456  0.1613
    5MPD2    C113933   2.080   3.809  13.551  0.0105 -0.1255 -0.4440
    5MPD2    C213934   2.173   3.767  13.649  0.6301 -0.6587 -0.3677
    5MPD2    C313935   2.141   3.715  13.777 -1.1963 -0.5349  1.1651
    5MPD2    C413936   2.000   3.707  13.802  0.5228  0.2299  0.2318
    5MPD2    C513937   1.909   3.758  13.715  0.5122  0.4084 -0.0117
    5MPD2     H13938   2.281   3.780  13.640  0.7733 -0.4313  1.7533
    5MPD2    H113939   1.947   3.665  13.886  2.6234 -0.2862  1.3149
    5MPD2    H213940   1.872   3.852  13.533  0.4779 -0.9637 -0.5674
    5MPD2    H313941   1.802   3.753  13.733  0.6226 -0.8989  0.2404
    5MPD2     N13942   2.237   3.678  13.871 -0.7301  0.1699  0.4105
    5MPD2    H513943   2.334   3.677  13.842 -0.0955  1.4663  2.4452
    5MPD2    N113944   2.103   3.854  13.421 -0.1261 -0.1061 -0.2461
    5MPD2    H713945   2.022   3.888  13.371 -0.3717 -0.6588 -0.2216
    6MPD1     C13946   0.950   0.282  12.851 -0.6060 -0.2878 -0.2807
    6MPD1    C113947   1.027   0.343  12.954  0.6705  0.3455  0.8170
    6MPD1    C213948   1.169   0.324  12.951  0.0871  0.3628 -0.0707
    6MPD1    C313949   1.222   0.244  12.847 -0.4880 -0.4028 -0.7364
    6MPD1    C413950   1.142   0.184  12.750 -0.2294 -0.0832 -0.6118
    6MPD1    C513951   1.001   0.215  12.746 -0.1133  0.2394  0.0723
    6MPD1     H13952   1.238   0.366  13.022 -1.2396 -0.8559  1.9372
    6MPD1    H113953   1.194   0.121  12.679  3.0643 -0.3985  2.0875
    6MPD1    H213954   0.843   0.301  12.853 -0.8464 -1.4051 -3.0655
    6MPD1    H313955   0.936   0.174  12.669  1.8596 -0.8809 -0.9861
    6MPD1     N13956   1.364   0.206  12.847  0.3523 -0.0507 -0.2353
    6MPD1    H513957   1.397   0.159  12.763  1.4292  0.4759 -0.1075
    6MPD1    N113958   0.963   0.434  13.044 -0.2727  0.6912 -0.2497
    6MPD1    H613959   0.866   0.411  13.062  0.5639 -1.1537  1.8330
    6MPD1    H713960   1.017   0.460  13.127 -0.8374  2.3201 -0.3879
    7MPD2     C13961   1.583   4.224  12.871  0.1920 -0.3207 -0.2386
    7MPD2    C113962   1.686   4.303  12.903 -0.4511  0.6773  0.9409
    7MPD2    C213963   1.804   4.238  12.946  0.2727  0.1507 -0.9964
    7MPD2    C313964   1.815   4.105  12.949 -0.3619 -0.2531  1.0219
    7MPD2    C413965   1.699   4.029  12.926  0.3329  0.2412 -0.4963
    7MPD2    C513966   1.590   4.093  12.885  0.3117 -0.0712  0.7091
    7MPD2     H13967   1.885   4.298  12.986  1.4159 -2.0077 -0.0645
    7MPD2    H113968   1.702   3.920  12.930 -2.5721  0.1169 -1.8575
    7MPD2    H213969   1.487   4.258  12.832  1.4374  1.0439 -2.1292
    7MPD2    H313970   1.503   4.042  12.847 -0.0269  0.8361  0.2510
    7MPD2     N13971   1.938   4.038  12.983 -0.1717  0.2153  0.4687
    7MPD2    H513972   1.932   3.940  13.007 -1.5696 -0.3716 -2.3014
    7MPD2    N113973   1.695   4.446  12.882  0.2090  0.0794  0.4576
    7MPD2    H713974   1.781   4.486  12.918 -0.0440  2.1503 -1.2467
    8TMC3    C113975   2.172   4.043  13.050  0.5060 -0.4629 -0.3030
    8TMC3    C213976   2.146   3.947  13.147 -0.4215 -0.7485  0.2965
    8TMC3    C313977   2.246   3.934  13.238 -0.2790  0.2448 -0.1540
    8TMC3    C413978   2.291   4.118  13.041 -0.4715  0.7796  0.8624
    8TMC3    C513979   2.367   4.121  13.158 -0.0423 -0.0881  0.4403
    8TMC3    C613980   2.357   4.020  13.249  0.1519  0.0883 -0.6784
    8TMC3     C13981   2.061   4.095  12.975 -0.7681  0.0052  0.0820
    8TMC3     O13982   2.081   4.184  12.889 -0.5461 -0.2637 -0.2060
    8TMC3     H13983   2.053   3.897  13.170 -0.3057 -1.3442 -0.5355
    8TMC3    H113984   2.295   4.187  12.957  0.1869 -0.0779  0.1982
    8TMC3    H213985   2.416   4.018  13.340  0.1492 -0.2567 -0.6862
    8TMC3    C713986   2.325   4.244  13.233  0.0628 -0.2379 -0.4484
    8TMC3    C813987   2.229   3.854  13.361 -0.2060  0.3128 -0.2653
    8TMC3    O113988   2.313   4.238  13.353  0.3594  0.3865  0.3369
    8TMC3    O213989   2.329   3.807  13.416 -0.0732  0.2338  0.2120
    9TMC3    C113990   1.573   0.136  12.926 -0.5755  0.0248 -0.0085
    9TMC3    C213991   1.687   0.151  13.008 -0.5848 -0.8962 -0.0550
    9TMC3    C313992   1.793   0.068  12.985 -0.4927  0.4479  0.5367
    9TMC3    C413993   1.564   0.029  12.842  0.0092 -0.0249 -0.3245
    9TMC3    C513994   1.661   4.666  12.846  1.1795  0.2516 -0.3731
    9TMC3    C613995   1.783   4.694  12.899  0.4385  0.0251  0.3866
    9TMC3     C13996   1.455   0.225  12.948  1.0572 -0.3986  0.6273
    9TMC3     O13997   1.459   0.298  13.045 -0.7834  0.4453 -0.2708
    9TMC3     H13998   1.692   0.236  13.075  0.8626 -1.5234  0.6426
    9TMC3    H113999   1.472   4.737  12.791 -0.1469 -0.4750  0.2141
    9TMC3    H214000   1.864   4.622  12.894  1.4494  1.1210  1.0545
    9TMC3    C714001   1.610   4.533  12.822  0.0544 -0.2229  0.4721
    9TMC3    C814002   1.911   0.083  13.070 -0.1334 -0.2557 -0.0866
    9TMC3    O114003   1.494   4.514  12.792 -0.1408  0.0518  0.0127
    9TMC3    O214004   1.893   0.158  13.165 -0.4842 -0.6384 -0.3724
   10MPD2     C14005   2.243   4.512  13.330  0.2883  0.1953  0.2487
   10MPD2    C114006   2.236   4.473  13.193 -0.6620  0.2914 -0.0727
   10MPD2    C214007   2.165   4.550  13.096 -0.2198  0.4988 -0.1602
   10MPD2    C314008   2.092   4.655  13.146 -0.0712  0.1736 -0.0667
   10MPD2    C414009   2.098   4.685  13.279 -0.3262  0.3977 -0.1055
   10MPD2    C514010   2.171   4.619  13.373 -0.2794 -0.4925  0.7262
   10MPD2     H14011   2.168   4.523  12.991  2.0137 -0.0069  0.0319
   10MPD2    H114012   2.030   0.021  13.322 -0.1072 -1.0531  2.6950
   10MPD2    H214013   2.297   4.459  13.408 -0.3648 -1.2327 -0.2744
   10MPD2    H314014   2.166   4.641  13.479  1.0808 -2.1824  1.1378
   10MPD2     N14015   2.011   4.721  13.055 -0.0070 -0.2403 -0.0902
   10MPD2    H514016   2.015   4.679  12.963 -1.1084 -0.9897  0.2021
   10MPD2    N114017   2.297   4.355  13.153 -0.2506  0.2665 -0.2345
   10MPD2    H714018   2.297   4.347  13.052  2.6503  1.7470 -0.3519
   11MPD2     C14019   2.888   3.190  13.773 -0.3409 -0.3745  0.6124
   11MPD2    C114020   2.876   3.191  13.908  0.2335  0.9732  0.8142
   11MPD2    C214021   2.801   3.288  13.969 -0.3371  0.7604 -0.2259
   11MPD2    C314022   2.756   3.402  13.900  0.0802 -0.1216  0.4659
   11MPD2    C414023   2.770   3.397  13.761  1.1543  0.4236 -0.0203
   11MPD2    C514024   2.832   3.293  13.697 -0.5626 -0.4403  0.2202
   11MPD2     H14025   2.793   3.285  14.077  0.7902  1.3436 -0.1243
   11MPD2    H114026   2.729   3.478  13.702  3.2334  1.0063 -0.6264
   11MPD2    H214027   2.960   3.124  13.726  1.4980  1.2405  1.1377
   11MPD2    H314028   2.844   3.290  13.589  0.4847 -0.2212  0.3387
   11MPD2     N14029   2.679   3.509  13.958  0.0219  0.0319  0.2331
   11MPD2    H514030   2.649   3.583  13.896  0.3911 -0.5031 -0.5815
   11MPD2    N114031   2.938   3.100  13.996 -0.1576 -0.2596  0.3637
   11MPD2    H714032   2.917   3.109  14.095  1.5597  0.8379  0.6358
    1MPD1     C14033   1.829   4.119  17.081 -0.1859 -0.7428  0.0097
    1MPD1    C114034   1.752   4.190  16.987  0.7389  0.9137  0.4559
    1MPD1    C214035   1.715   4.324  17.023 -0.1445  0.2254  0.2052
    1MPD1    C314036   1.778   4.387  17.128  0.8031  0.4796 -0.4398
    1MPD1    C414037   1.857   4.319  17.213  0.4851  0.8592  0.7337
    1MPD1    C514038   1.879   4.186  17.187  0.5114  0.6960 -0.0081
    1MPD1     H14039   1.647   4.374  16.955 -1.6764 -1.0572  0.7737
    1MPD1    H114040   1.896   4.357  17.307  1.8632  0.4160  0.3455
    1MPD1    H214041   1.858   4.015  17.074  1.6683 -0.3990  2.3950
    1MPD1    H314042   1.929   4.124  17.261 -2.6241 -1.8074  0.0241
    1MPD1     N14043   1.756   4.529  17.159 -0.3694  0.8847  0.7426
    1MPD1    H514044   1.807   4.576  17.233  0.4968  1.1232 -0.0179
    1MPD1    N114045   1.686   4.120  16.885  0.4284 -0.2020  0.2329
    1MPD1    H614046   1.666   4.193  16.817  2.6797 -1.2173 -1.5200
    1MPD1    H714047   1.748   4.049  16.846  0.7322 -0.7158  1.6312
    2MPD1     C14048   0.952   0.392  17.270 -0.4843  0.2733 -0.5162
    2MPD1    C114049   0.963   0.272  17.212 -0.5472  0.3240 -0.1001
    2MPD1    C214050   1.091   0.219  17.189  0.2562  0.8785 -0.4923
    2MPD1    C314051   1.202   0.294  17.207 -0.2585 -1.1057 -0.7783
    2MPD1    C414052   1.186   0.421  17.264 -0.1186  0.0827  0.1355
    2MPD1    C514053   1.066   0.472  17.287  0.8110  0.0415  0.1851
    2MPD1     H14054   1.102   0.120  17.146 -1.0929 -0.2833  1.8077
    2MPD1    H114055   1.274   0.480  17.285 -0.0016  0.6697 -2.0045
    2MPD1    H214056   0.852   0.433  17.284  0.4974  3.0013 -1.6519
    2MPD1    H314057   1.064   0.571  17.332 -1.8727 -0.2608  0.7587
    2MPD1     N14058   1.329   0.232  17.186  0.1756 -0.1804 -0.1378
    2MPD1    H514059   1.330   0.131  17.173 -1.6472 -0.0488 -1.2729
    2MPD1    N114060   0.850   0.195  17.195 -0.2244  0.1671 -0.1477
    2MPD1    H614061   0.768   0.256  17.202 -1.5393 -1.5777 -0.4610
    2MPD1    H714062   0.856   0.165  17.098  3.4542 -0.2851  0.2188
    3TMC3    C114063   1.565   0.203  17.191  0.0953  0.2387  0.1986
    3TMC3    C214064   1.690   0.276  17.195  0.1623  0.6138 -0.2033
    3TMC3    C314065   1.797   0.196  17.165 -0.2667 -0.1630  0.9688
    3TMC3    C414066   1.547   0.072  17.166  0.5346 -0.3682  0.7777
    3TMC3    C514067   1.664   0.001  17.154 -0.1921  0.4798  0.3515
    3TMC3    C614068   1.788   0.058  17.152 -0.0154 -0.0112 -0.0888
    3TMC3     C14069   1.454   0.291  17.192 -0.0574 -0.3043 -0.2501
    3TMC3     O14070   1.487   0.408  17.198  0.1010  0.1036 -0.1769
    3TMC3     H14071   1.692   0.383  17.214 -0.2361  0.5003  0.4518
    3TMC3    H114072   1.452   0.020  17.159  0.8213 -0.7613 -0.1122
    3TMC3    H214073   1.880   0.000  17.159  0.1010  0.2972  1.0144
    3TMC3    C714074   1.654   4.608  17.110  0.4772 -0.5504  0.9243
    3TMC3    C814075   1.930   0.255  17.163 -0.2737  0.3514  0.1036
    3TMC3    O114076   1.557   4.563  17.051  0.3726  0.3635 -0.0347
    3TMC3    O214077   2.027   0.185  17.149 -0.1682 -0.1579 -0.2549
    4MPD1     C14078   2.262   0.619  17.216 -0.1358  0.0801  0.1179
    4MPD1    C114079   2.141   0.663  17.254  0.6025 -0.5869  0.4735
    4MPD1    C214080   2.031   0.588  17.233 -0.3458  0.6587 -0.2343
    4MPD1    C314081   2.052   0.468  17.167  0.9366 -0.1729  0.2887
    4MPD1    C414082   2.167   0.426  17.106  0.1557  0.1724 -0.4400
    4MPD1    C514083   2.271   0.508  17.135 -0.3695 -0.6632 -0.8132
    4MPD1     H14084   1.937   0.624  17.274 -1.2168 -1.4255 -0.4271
    4MPD1    H114085   2.177   0.339  17.042 -1.4690 -0.2657 -0.0904
    4MPD1    H214086   2.349   0.675  17.249  0.2392 -0.7170  0.4767
    4MPD1    H314087   2.363   0.478  17.087 -0.5872 -0.9225 -1.0647
    4MPD1     N14088   1.933   0.394  17.169  0.1124 -0.7713  0.1945
    4MPD1    H514089   1.851   0.442  17.205  1.0307  0.6127  0.4412
    4MPD1    N114090   2.131   0.778  17.338 -0.1722 -0.1618 -0.2685
    4MPD1    H614091   2.038   0.820  17.332 -1.1152 -2.3897 -1.0504
    4MPD1    H714092   2.196   0.856  17.348 -0.1877 -0.2771  0.7168
    1TCq1    O114093   2.458   4.216  11.123 -0.0440  0.0560 -0.7352
    1TCq1    C114094   2.445   4.215  11.255 -0.7930 -0.3299  0.0211
    1TCq1    O214095   2.532   4.190  11.334  0.8437 -0.0489 -0.6495
    1TCq1    C214096   2.309   4.269  11.272  0.5027  0.3155 -0.8705
    1TCq1    C314097   2.207   4.212  11.210  0.3960  0.0473 -0.7296
    1TCq1    C414098   2.080   4.258  11.236  0.0235  1.2218  0.7466
    1TCq1    C514099   2.056   4.336  11.339  0.4460  0.2573 -0.1248
    1TCq1    C614100   2.168   4.402  11.399  0.5222 -0.4026 -0.1228
    1TCq1    C714101   2.296   4.366  11.366 -0.8500 -0.1499 -0.2460
    1TCq1    C814102   2.149   4.500  11.507 -0.6655 -0.1021  0.5355
    1TCq1    O414103   2.255   4.524  11.563 -0.2202  0.4847 -0.0954
    1TCq1    C914104   1.974   4.171  11.188 -0.1527  0.2798 -0.3255
    1TCq1    O514105   2.007   4.088  11.096  0.4850 -0.4225  0.1195
    1TCq1    O614106   1.868   4.170  11.257 -0.4794  0.1392 -0.0301
    1TCq1    H114107   2.382   4.256  11.075 -1.0571  0.3836  1.1458
    1TCq1    H214108   2.224   4.129  11.144 -1.1491  0.4256 -1.5998
    1TCq1    H314109   1.956   4.370  11.365  0.0941 -0.9849  0.1854
    1TCq1    H414110   2.379   4.409  11.421 -1.4168  2.7086 -1.6697
    2MPD1     C14111   1.853   0.056  11.798 -0.0342  0.0885  0.8206
    2MPD1    C114112   1.776   0.005  11.699 -0.5874 -0.3846  0.4170
    2MPD1    C214113   1.831   4.653  11.609 -0.4748 -0.3091 -0.1181
    2MPD1    C314114   1.963   4.626  11.615  0.8590  0.2003  0.0098
    2MPD1    C414115   2.046   4.675  11.718 -0.0046  0.0178 -0.0339
    2MPD1    C514116   1.990   0.023  11.810  0.0141 -0.1188  0.0969
    2MPD1     H14117   1.771   4.605  11.533 -1.0038  0.7857 -0.3910
    2MPD1    H114118   2.150   4.646  11.731 -0.3487 -2.0179 -1.8828
    2MPD1    H214119   1.819   0.135  11.865 -0.3995 -0.0354  0.7825
    2MPD1    H314120   2.054   0.068  11.885 -0.8556  0.2408  0.6233
    2MPD1     N14121   2.019   4.544  11.516  0.1265 -0.4239  0.7352
    2MPD1    H514122   1.956   4.514  11.443 -1.0803 -1.4520  2.1791
    2MPD1    N114123   1.633   0.020  11.711  0.0642 -0.0551 -0.2772
    2MPD1    H614124   1.578   4.733  11.629  2.1780  1.7498 -2.2181
    2MPD1    H714125   1.599   0.110  11.745 -1.9864 -1.6630  1.9318
    1TMC1    C114126   4.091   1.059   0.146  0.2127 -0.3860 -0.1286
    1TMC1    C214127   4.173   1.046   0.035  0.5107 -0.0901  0.5401
    1TMC1    C314128   4.311   1.049   0.051  0.4906  0.2868 -0.4617
    1TMC1    C414129   4.141   1.060   0.266 -0.2088  0.2145 -0.1361
    1TMC1    C514130   4.279   1.049   0.279 -0.1950  0.8486  0.2694
    1TMC1    C614131   4.371   1.041   0.176 -0.7718 -0.1494 -0.1311
    1TMC1     C14132   3.943   1.062   0.124 -0.4975  0.2416 -0.9966
    1TMC1     O14133   3.870   1.061   0.227  0.7121  0.1404  0.1160
    1TMC1     H14134   4.140   1.035  17.677  1.8825 -1.9680  0.2977
    1TMC1    H114135   4.071   1.067   0.348 -0.2880  1.4989 -0.2990
    1TMC1    H214136   4.479   1.038   0.183 -0.9072 -1.4067  1.3289
    1TMC1    C714137   4.327   1.055   0.416  0.2347 -0.2434  0.0227
    1TMC1    C814138   4.399   1.056  17.682 -0.2220 -0.3390 -0.1101
    1TMC1    O114139   4.245   1.056   0.510  0.4337 -0.5457  0.3501
    1TMC1    O214140   4.356   1.090  17.575 -0.2852 -0.1156  0.0974
    1TMC1    O314141   4.446   0.989   0.421  0.3796  0.4387 -0.3664
    1TMC1    H314142   4.501   1.001   0.341  0.1127  0.7375 -0.5038
    1TMC1    O514143   4.493   0.962  17.694  0.1656  0.1190  0.4038
    1TMC1    H514144   4.497   0.924   0.040 -1.7995  0.9845  0.8466
    2MPD1     C14145   3.511   1.034  17.595  0.5423 -0.7021 -0.2827
    2MPD1    C114146   3.612   1.074  17.511  0.1913  0.8122 -0.8464
    2MPD1    C214147   3.740   1.093  17.561 -0.8256  0.4547  0.0370
    2MPD1    C314148   3.758   1.085  17.697 -0.4353  0.1680  0.2332
    2MPD1    C414149   3.647   1.082   0.036  0.4392 -0.4973  0.0954
    2MPD1    C514150   3.524   1.040  17.728 -0.1091  0.1414 -0.0262
    2MPD1     H14151   3.824   1.120  17.499  0.0613 -0.6405  0.7513
    2MPD1    H114152   3.643   1.089   0.144 -0.6790 -1.7287  0.1334
    2MPD1    H214153   3.416   1.003  17.555  0.3087 -1.2645  0.7046
    2MPD1    H314154   3.438   1.006   0.039 -0.4153  0.1387 -0.4999
    2MPD1     N14155   3.894   1.075  17.741  0.1433 -0.4321 -0.0533
    2MPD1    H514156   3.963   1.086  17.667 -0.3943 -0.8410 -0.6147
    2MPD1    N114157   3.594   1.064  17.376 -0.2743  0.2526 -0.0297
    2MPD1    H614158   3.499   1.083  17.344 -0.8166 -3.1534 -0.5150
    2MPD1    H714159   3.655   1.134  17.334 -0.6226  0.6396  0.1079
    1MPD1     C14160   3.191   4.692  11.313  0.1087  0.5937 -0.0864
    1MPD1    C114161   3.157   4.668  11.444 -0.1962  0.9077  0.8423
    1MPD1    C214162   3.259   4.662  11.535 -0.0599  0.0862  0.3983
    1MPD1    C314163   3.392   4.650  11.490  0.1043  0.2704  0.4890
    1MPD1    C414164   3.425   4.658  11.356 -0.0622  0.3848  0.5142
    1MPD1    C514165   3.326   4.679  11.270  0.4263 -0.1921  0.2405
    1MPD1     H14166   3.237   4.653  11.641  0.3175 -2.6752  0.2378
    1MPD1    H114167   3.527   4.667  11.319 -0.5935  0.8457 -0.8480
    1MPD1    H214168   3.117   4.708  11.236 -0.4068  3.4783  1.0022
    1MPD1    H314169   3.338   4.682  11.163  0.7036  2.2323  0.3387
    1MPD1     N14170   3.492   4.645  11.586  0.3636 -0.0552  0.2431
    1MPD1    H514171   3.469   4.659  11.684 -0.2782  0.3079  0.0414
    1MPD1    N114172   3.025   4.668  11.487  0.3275  0.2995  0.2985
    1MPD1    H614173   2.962   4.625  11.419 -0.3524  1.3457  0.2674
    1MPD1    H714174   3.020   4.618  11.576 -0.3390 -0.4445 -0.1557
    2MPD1     C14175   3.465   4.066  10.039 -0.2272 -0.9255 -0.1733
    2MPD1    C114176   3.445   4.151   9.935 -1.0597  1.0637  0.0702
    2MPD1    C214177   3.474   4.287   9.958  0.2300  0.1044 -0.3756
    2MPD1    C314178   3.518   4.329  10.083 -0.4331  0.3654 -0.4258
    2MPD1    C414179   3.535   4.235  10.185 -0.2141 -0.0498  0.2125
    2MPD1    C514180   3.510   4.104  10.158  0.4037  0.0244  0.0023
    2MPD1     H14181   3.459   4.359   9.879 -3.3111  0.3382  0.4738
    2MPD1    H114182   3.581   4.258  10.280  0.2419 -0.9020  0.2094
    2MPD1    H214183   3.437   3.965  10.014  1.9290 -2.2476  2.7448
    2MPD1    H314184   3.533   4.033  10.237 -0.8209  0.3871  0.6879
    2MPD1     N14185   3.543   4.464  10.110  0.2108 -0.2910 -0.4830
    2MPD1    H514186   3.580   4.486  10.202 -0.7798 -0.8931  0.0569
    2MPD1    N114187   3.421   4.105   9.805  0.2627 -0.3788 -0.7191
    2MPD1    H614188   3.363   4.021   9.804  0.1445 -0.3714  2.7403
    2MPD1    H714189   3.386   4.178   9.743  2.4434  1.1758 -0.1104
    3MPD1     C14190   3.061   0.441   9.755 -0.3609  0.2193 -0.1507
    3MPD1    C114191   3.059   0.305   9.763  0.0040  0.5452  0.3492
    3MPD1    C214192   3.162   0.245   9.828  0.7622  0.5372  0.0409
    3MPD1    C314193   3.269   0.313   9.887 -0.0171  0.1783 -0.1852
    3MPD1    C414194   3.269   0.451   9.879  0.7730  0.2434 -0.4842
    3MPD1    C514195   3.163   0.507   9.813  0.7318 -0.0480 -0.9344
    3MPD1     H14196   3.167   0.138   9.840  1.0137  0.4981 -0.3973
    3MPD1    H114197   3.345   0.512   9.926 -0.4917  0.1386  1.6807
    3MPD1    H214198   2.987   0.497   9.699  0.3553  0.7161 -0.6075
    3MPD1    H314199   3.166   0.615   9.799  0.4638 -0.0998 -1.3980
    3MPD1     N14200   3.373   0.245   9.948 -0.4635 -0.3104  0.3905
    3MPD1    H514201   3.368   0.144   9.951  0.7885 -0.3038  2.8381
    3MPD1    N114202   2.956   0.235   9.699 -0.2580 -0.3691  0.0919
    3MPD1    H614203   2.932   0.151   9.752 -2.0798  1.4779  2.2249
    3MPD1    H714204   2.872   0.289   9.677 -0.1677  0.3576  1.4809
    4MPD2     C14205   3.882   0.455  11.446 -0.2798 -0.2780  1.0034
    4MPD2    C114206   3.936   0.331  11.458  0.2375 -0.1584  0.4730
    4MPD2    C214207   4.016   0.284  11.355 -0.6362 -0.6359  0.2093
    4MPD2    C314208   4.046   0.372  11.249 -0.2859  0.1376 -0.1559
    4MPD2    C414209   3.987   0.495  11.238  0.2133  0.0037  1.2203
    4MPD2    C514210   3.903   0.532  11.338  0.3225  0.0153  0.3226
    4MPD2     H14211   4.070   0.192  11.374 -0.2740 -0.3878  0.3723
    4MPD2    H114212   3.992   0.562  11.153  1.5089 -0.8487  0.6317
    4MPD2    H214213   3.824   0.496  11.528 -2.6118 -0.0060 -0.7881
    4MPD2    H314214   3.847   0.624  11.330  1.5049  0.8350  1.4041
    4MPD2     N14215   4.127   0.331  11.144  0.6655 -0.1004  0.2899
    4MPD2    H514216   4.109   0.390  11.063 -0.6403  0.1893  0.7977
    4MPD2    N114217   3.917   0.244  11.563 -0.0346 -0.0921 -0.0130
    4MPD2    H714218   3.970   0.157  11.568  1.9775  1.0945 -0.5115
    5TMC3    C114219   3.816   0.122  11.729  0.7050 -0.4543 -0.3187
    5TMC3    C214220   3.705   0.056  11.698  1.1753 -0.3609 -0.1867
    5TMC3    C314221   3.711   4.653  11.674  0.6024 -0.2948  0.2607
    5TMC3    C414222   3.934   0.051  11.735  0.1940 -0.1703 -0.0118
    5TMC3    C514223   3.940   4.653  11.708  0.3768 -0.2141 -0.1164
    5TMC3    C614224   3.829   4.584  11.679  0.3088  0.0181  0.6439
    5TMC3     C14225   3.821   0.252  11.664  0.3470  0.1967 -0.0054
    5TMC3     O14226   3.732   0.332  11.679 -0.1709  0.4646 -0.0504
    5TMC3     H14227   3.611   0.110  11.694  2.1971  1.4632  0.2992
    5TMC3    H114228   4.030   0.098  11.756 -0.5580  0.7237  1.4624
    5TMC3    H214229   3.832   4.482  11.643  0.0283 -1.0917  3.7380
    5TMC3    C714230   4.049   4.638  11.613  0.4335  0.1734  0.2949
    5TMC3    C814231   3.627   4.618  11.561 -0.4414  0.4290  0.0480
    5TMC3    O114232   4.080   0.010  11.562 -0.2970  0.6974  0.0102
    5TMC3    O214233   3.682   4.579  11.460  0.4230  0.0835  0.1963
    6TMC3    C114234   3.574   4.689  10.082 -0.3808 -0.1198 -0.3919
    6TMC3    C214235   3.499   0.067  10.062  0.4971  0.3479  0.2008
    6TMC3    C314236   3.555   0.190  10.074 -0.3097  0.3084  0.1462
    6TMC3    C414237   3.711   4.697  10.105 -0.7875  0.0710 -0.8201
    6TMC3    C514238   3.762   0.090  10.124  0.2480 -0.0145 -0.0992
    6TMC3    C614239   3.686   0.206  10.115  0.0536  0.3127  0.9481
    6TMC3     C14240   3.525   4.569  10.027 -0.5588 -0.3669 -0.2077
    6TMC3     O14241   3.442   4.582   9.936 -0.2693  0.3717  0.3563
    6TMC3     H14242   3.393   0.046  10.063  0.2994  1.3169  0.1011
    6TMC3    H114243   3.766   4.609  10.138 -3.0383 -1.3451 -0.7734
    6TMC3    H214244   3.723   0.308  10.123  0.6719  0.2498 -1.1944
    6TMC3    C714245   3.869   0.102  10.222  0.7546 -0.6885  0.2282
    6TMC3    C814246   3.484   0.300  10.008  0.0043 -0.5724  0.3297
    6TMC3    O114247   3.851   0.188  10.310 -0.3540  0.4346  0.0545
    6TMC3    O214248   3.538   0.408   9.985  0.0922 -0.1470  0.2194
    7MPD2     C14249   4.320   4.394  11.253  0.4069  0.0637  0.1697
    7MPD2    C114250   4.271   4.520  11.257  0.1061  0.8720  0.2878
    7MPD2    C214251   4.202   4.561  11.373  0.2495 -0.0191 -0.5371
    7MPD2    C314252   4.170   4.471  11.472  0.4471  0.7384  0.5991
    7MPD2    C414253   4.211   4.342  11.455  0.0114 -0.3200 -0.8550
    7MPD2    C514254   4.283   4.302  11.351  0.0625  0.4777 -0.1488
    7MPD2     H14255   4.158   4.661  11.371 -1.4671 -0.7031  4.4260
    7MPD2    H114256   4.207   4.269  11.535  1.3601  1.3535  0.7321
    7MPD2    H214257   4.373   4.355  11.167 -1.0324  1.8001 -1.5088
    7MPD2    H314258   4.323   4.202  11.363  1.3898  1.2977  2.1253
    7MPD2     N14259   4.089   4.506  11.588  0.0188 -0.1019 -0.4251
    7MPD2    H514260   4.074   4.431  11.655 -0.3523 -0.0139 -0.4118
    7MPD2    N114261   4.307   4.616  11.157  0.3177  0.2470  0.6774
    7MPD2    H714262   4.271   4.710  11.171  0.8871  1.0539 -3.0800
    8TMC3    C114263   4.356   4.723  10.956 -0.3801 -0.3095 -0.6699
    8TMC3    C214264   4.279   4.727  10.841  0.6848  0.6116 -1.0091
    8TMC3    C314265   4.200   0.102  10.824  0.0700 -0.5586 -0.6437
    8TMC3    C414266   4.369   0.095  11.031  0.0573 -0.0109  0.1196
    8TMC3    C514267   4.276   0.200  11.020 -0.2594  0.3497  0.1841
    8TMC3    C614268   4.193   0.208  10.913  0.4740  0.0016 -0.1081
    8TMC3     C14269   4.361   4.594  11.032 -0.4184  0.1658  0.4966
    8TMC3     O14270   4.374   4.490  10.969  0.2118 -0.1014  0.5349
    8TMC3     H14271   4.267   4.637  10.782 -0.5147  1.0377 -1.4051
    8TMC3    H114272   4.445   0.089  11.108  0.5538  2.4394 -0.1894
    8TMC3    H214273   4.126   0.291  10.894  1.3914  0.5545 -0.9409
    8TMC3    C714274   4.234   0.245  11.152 -0.2663  0.1904  0.1054
    8TMC3    C814275   4.153   0.135  10.687 -0.3663 -0.0597 -0.0885
    8TMC3    O114276   4.287   0.186  11.246  0.2469  0.1688  0.1595
    8TMC3    O214277   4.062   0.217  10.678 -0.9237 -0.1780  0.0092
    9MPD2     C14278   4.329   4.716  10.416  1.0841  0.1250  0.6329
    9MPD2    C114279   4.221   0.052  10.464  0.1679  0.3962 -0.0804
    9MPD2    C214280   4.108   0.078  10.394 -0.9591  0.2600 -0.6540
    9MPD2    C314281   4.100   0.023  10.273  0.0439 -0.2236 -0.0072
    9MPD2    C414282   4.203   4.691  10.213  0.8218 -0.8963 -0.1509
    9MPD2    C514283   4.319   4.669  10.285  0.1369 -0.4447  0.0924
    9MPD2     H14284   4.026   0.136  10.437 -1.2670 -0.4496 -0.2707
    9MPD2    H114285   4.199   4.634  10.121  4.8621  0.7966 -1.3909
    9MPD2    H214286   4.421   4.712  10.473  1.7106  1.1006 -0.3148
    9MPD2    H314287   4.407   4.627  10.239 -1.4196 -0.8913 -2.5010
    9MPD2     N14288   3.981   0.028  10.192 -0.7049 -0.4496 -0.0949
    9MPD2    H514289   3.982   4.718  10.102  1.4576  0.5681 -0.5968
    9MPD2    N114290   4.241   0.091  10.599 -1.1286  0.0880 -0.5638
    9MPD2    H714291   4.331   0.063  10.636  0.0272  1.0915 -2.6610
    1MPD1     C14292   3.869   3.912  16.860 -0.7550 -0.5673  0.7510
    1MPD1    C114293   3.799   3.834  16.944  0.2872  0.0578 -0.0668
    1MPD1    C214294   3.699   3.760  16.893 -0.5736  0.2016 -0.1903
    1MPD1    C314295   3.656   3.767  16.764  0.1202 -0.8810 -0.0852
    1MPD1    C414296   3.718   3.860  16.681  0.4716  0.6049  0.1781
    1MPD1    C514297   3.826   3.925  16.729 -0.6602 -0.1303 -0.1182
    1MPD1     H14298   3.642   3.689  16.951  0.1472  0.8796  1.3503
    1MPD1    H114299   3.686   3.874  16.579  2.6843 -1.5272 -0.8231
    1MPD1    H214300   3.954   3.972  16.888 -1.2756 -0.6188  2.4513
    1MPD1    H314301   3.876   3.986  16.655  0.8980 -1.1187  0.1194
    1MPD1     N14302   3.552   3.684  16.704  0.4997  0.6547  0.7474
    1MPD1    H514303   3.533   3.694  16.605  0.3289  4.9578  1.1821
    1MPD1    N114304   3.829   3.814  17.081 -0.2518 -0.6734  0.1416
    1MPD1    H614305   3.744   3.793  17.134 -1.6717  1.7589 -1.1486
    1MPD1    H714306   3.873   3.897  17.119  0.3341 -0.3920 -1.1761
    2TMC2    C114307   3.345   3.403  16.476  0.6431  0.2377 -0.2061
    2TMC2    C214308   3.231   3.342  16.526  0.2574 -0.2677  0.3409
    2TMC2    C314309   3.211   3.367  16.662  0.7573 -0.2102  0.0970
    2TMC2    C414310   3.419   3.495  16.547 -0.0126  0.2257 -0.3176
    2TMC2    C514311   3.392   3.517  16.675 -0.1411  0.5960  0.7393
    2TMC2    C614312   3.283   3.456  16.734  0.4084  0.4371 -0.5258
    2TMC2     C14313   3.361   3.361  16.335 -0.5151 -0.0668 -0.4575
    2TMC2     O14314   3.303   3.259  16.302  0.0294  0.7619  0.0686
    2TMC2     H14315   3.160   3.284  16.468  0.6851  0.8565 -1.3328
    2TMC2    H114316   3.509   3.532  16.499  0.1023  2.1009  1.3559
    2TMC2    H214317   3.239   3.492  16.827  0.9784 -0.3541  0.0552
    2TMC2    C714318   3.477   3.583  16.770 -0.1339  0.2064  0.2767
    2TMC2    C814319   3.077   3.340  16.714  0.5130 -0.5601 -0.0852
    2TMC2    O114320   3.467   3.557  16.886  0.0373  0.3238  0.7118
    2TMC2    O214321   3.010   3.426  16.767  0.3717 -0.2772  0.3334
    2TMC2    O514322   3.031   3.219  16.683  0.6003  0.0840  0.0579
    2TMC2    H514323   3.100   3.164  16.640 -0.2481  1.0925 -2.5589
    3MPD1     C14324   3.490   3.470  15.856  0.0056 -0.0351  0.4738
    3MPD1    C114325   3.530   3.575  15.934 -0.5526 -0.4999 -0.1440
    3MPD1    C214326   3.500   3.568  16.069  0.2188  0.4397 -0.0318
    3MPD1    C314327   3.427   3.463  16.125 -0.0770 -0.5134 -0.0385
    3MPD1    C414328   3.371   3.367  16.038 -0.4102 -0.0429  0.7829
    3MPD1    C514329   3.404   3.378  15.903 -0.4952 -0.1882 -0.2066
    3MPD1     H14330   3.536   3.649  16.131  0.6190 -1.8666  2.7342
    3MPD1    H114331   3.300   3.295  16.076 -0.0823 -0.0752  1.3285
    3MPD1    H214332   3.519   3.455  15.752  3.7335  0.1307  1.4892
    3MPD1    H314333   3.374   3.300  15.834 -2.2790  1.8486 -1.7418
    3MPD1     N14334   3.417   3.460  16.262 -0.3760  0.1121 -0.5517
    3MPD1    H514335   3.457   3.538  16.313  0.5610 -2.1822  2.2331
    3MPD1    N114336   3.620   3.669  15.884 -0.1287  0.1910  0.0460
    3MPD1    H614337   3.618   3.763  15.923  0.7246 -0.9716  2.8897
    3MPD1    H714338   3.599   3.682  15.785 -0.1114  0.1386  0.0353
    1TMC1    C114339   1.436   2.431  13.381  0.3332 -0.5952  0.3040
    1TMC1    C214340   1.298   2.415  13.375 -0.5439 -0.1373  0.5840
    1TMC1    C314341   1.250   2.349  13.272  0.2923  0.1064 -0.7952
    1TMC1    C414342   1.520   2.354  13.302 -0.6201 -0.3947  0.5821
    1TMC1    C514343   1.460   2.291  13.192 -0.7030 -0.0208 -0.2397
    1TMC1    C614344   1.325   2.289  13.174  0.3386  0.4592  0.5258
    1TMC1     C14345   1.489   2.477  13.505  0.7403  0.3546 -0.0333
    1TMC1     O14346   1.438   2.573  13.557  0.2520  0.5132  0.4107
    1TMC1     H14347   1.235   2.441  13.459 -1.0757  0.3764  0.0294
    1TMC1    H114348   1.626   2.379  13.299 -0.0895 -2.5044  1.9138
    1TMC1    H214349   1.277   2.227  13.099  1.5641  2.2766 -1.7421
    1TMC1    C714350   1.542   2.262  13.074  1.5245 -0.3862  0.4110
    1TMC1    C814351   1.100   2.342  13.269  0.0735  0.6852  0.6159
    1TMC1    O114352   1.662   2.229  13.078 -0.0631 -0.9754 -0.2037
    1TMC1    O214353   1.026   2.384  13.357  0.1141 -0.6639  0.0255
    1TMC1    O314354   1.490   2.331  12.968  0.0394 -0.3885  0.1764
    1TMC1    H314355   1.409   2.378  12.999  2.0189  2.4872  1.0434
    1TMC1    O514356   1.061   2.320  13.138 -0.3967  0.1960 -0.4776
    1TMC1    H514357   1.138   2.313  13.077 -1.4096 -1.0166 -1.5997
    2MPD2     C14358   1.639   2.531  13.749  0.2316 -0.0648  0.1084
    2MPD2    C114359   1.650   2.416  13.675 -0.4599 -0.3494  0.1209
    2MPD2    C214360   1.729   2.318  13.721  0.0806 -0.2361 -0.2389
    2MPD2    C314361   1.791   2.323  13.845  0.5603  0.9386  0.6727
    2MPD2    C414362   1.777   2.433  13.918 -0.2258 -0.2866  0.0604
    2MPD2    C514363   1.689   2.526  13.877  0.3046  0.1837  0.9208
    2MPD2     H14364   1.732   2.226  13.665 -0.2329 -1.2779  1.4632
    2MPD2    H114365   1.827   2.452  14.013 -2.5171 -0.1326  1.2210
    2MPD2    H214366   1.584   2.621  13.722 -2.7915 -1.3834  1.8298
    2MPD2    H314367   1.667   2.609  13.943  0.3482  0.3836  0.6801
    2MPD2     N14368   1.851   2.207  13.894 -0.0397  0.8608  0.0003
    2MPD2    H514369   1.858   2.195  13.994 -0.5152 -1.4960 -0.2549
    2MPD2    N114370   1.587   2.397  13.548  0.0023  0.6639 -0.5611
    2MPD2    H714371   1.591   2.312  13.492 -1.5091 -0.1532  0.5785
    3TCq1    O114372   1.835   1.720  14.284 -0.8386  0.7094 -0.0789
    3TCq1    C114373   1.764   1.807  14.207 -0.3129 -0.2927 -0.1633
    3TCq1    O214374   1.646   1.832  14.221 -0.4145  0.2544  0.7449
    3TCq1    C214375   1.842   1.841  14.091  0.8999  0.1920 -0.7220
    3TCq1    C314376   1.890   1.731  14.023 -0.3136 -0.1633 -0.3816
    3TCq1    C414377   1.912   1.742  13.891 -0.0478  0.0800  0.1949
    3TCq1    C514378   1.921   1.859  13.825  0.2666 -0.0730 -0.4357
    3TCq1    C614379   1.878   1.967  13.892  0.9369  0.6015  0.1115
    3TCq1    C714380   1.835   1.960  14.023 -0.1697 -0.2501  0.2204
    3TCq1    C814381   1.871   2.091  13.817 -0.0434 -0.3888  0.8912
    3TCq1    O414382   1.915   2.091  13.703  0.0707  0.5105  0.1134
    3TCq1    C914383   1.937   1.625  13.812 -0.0380 -0.0996 -0.1367
    3TCq1    O514384   1.914   1.633  13.689 -0.3965 -0.3597  0.2857
    3TCq1    O614385   1.961   1.521  13.877 -0.8654 -0.5854  0.8842
    3TCq1    H114386   1.929   1.726  14.257 -0.5964 -0.8994  0.4059
    3TCq1    H214387   1.868   1.635  14.066 -0.6552 -0.4561 -1.2107
    3TCq1    H314388   1.965   1.866  13.726  0.7640 -2.1785 -0.3642
    3TCq1    H414389   1.786   2.040  14.077 -0.3389  0.3250 -0.7809
    1MPD2     C14390   1.654   3.497  14.706  0.0114 -0.7487  0.0308
    1MPD2    C114391   1.518   3.479  14.717 -0.5784  0.4152  0.2633
    1MPD2    C214392   1.477   3.350  14.737  0.1471 -0.2361  0.1463
    1MPD2    C314393   1.554   3.244  14.760  0.0968 -1.0827 -0.6593
    1MPD2    C414394   1.691   3.271  14.770  0.9475 -0.4999 -0.0833
    1MPD2    C514395   1.734   3.396  14.738 -0.6346  0.5108  0.1691
    1MPD2     H14396   1.370   3.334  14.727 -0.0689  1.3415 -0.1010
    1MPD2    H114397   1.773   3.206  14.795  1.6120  0.7128  0.8783
    1MPD2    H214398   1.696   3.593  14.677  0.7258 -0.9436  0.4317
    1MPD2    H314399   1.841   3.415  14.738 -1.0293  2.6532  2.3739
    1MPD2     N14400   1.488   3.126  14.806  0.1616 -0.1101  0.9240
    1MPD2    H514401   1.392   3.120  14.773  0.4775  0.3456 -0.0651
    1MPD2    N114402   1.417   3.568  14.701 -0.2795 -0.5061  0.6566
    1MPD2    H714403   1.323   3.534  14.720 -0.2011 -1.3236 -0.4567
    2TMC3    C114404   1.309   3.758  14.666  0.0579 -0.4139  0.0668
    2TMC3    C214405   1.227   3.693  14.752  0.3718 -0.8351 -0.3636
    2TMC3    C314406   1.103   3.664  14.707 -0.4933  0.6912 -0.5679
    2TMC3    C414407   1.264   3.807  14.548 -0.0105 -0.1318  0.0512
    2TMC3    C514408   1.146   3.761  14.504 -0.1845  0.3524 -0.2920
    2TMC3    C614409   1.055   3.699  14.584  0.4727  0.0924  0.1876
    2TMC3     C14410   1.439   3.696  14.664 -0.2826  0.0037  0.1967
    2TMC3     O14411   1.535   3.753  14.612  0.4155 -0.1039  0.0613
    2TMC3     H14412   1.254   3.662  14.852 -1.1233  0.3930  0.4277
    2TMC3    H114413   1.341   3.824  14.474 -0.6519  1.0755 -0.3487
    2TMC3    H214414   0.953   3.674  14.556  0.8390 -2.7060  1.3905
    2TMC3    C714415   1.104   3.809  14.374 -0.0906  0.6176 -0.0750
    2TMC3    C814416   1.071   3.531  14.755 -0.0852 -0.4096 -0.2635
    2TMC3    O114417   1.010   3.753  14.326  0.1566 -0.4580 -0.1957
    2TMC3    O214418   1.169   3.473  14.799  0.3132  0.0712  0.0157
    3TCq1    O114419   1.484   4.709  13.778  0.7742  0.5484 -0.4409
    3TCq1    C114420   1.543   4.705  13.905 -0.1630 -0.3769 -0.1027
    3TCq1    O214421   1.661   4.687  13.939 -0.1696  0.0952  0.6771
    3TCq1    C214422   1.433   4.704  14.003  0.1300  0.3546  0.5029
    3TCq1    C314423   1.468   4.734  14.134  0.1176 -0.8695  0.1675
    3TCq1    C414424   1.391   4.680  14.235 -0.8988 -0.2649  0.7924
    3TCq1    C514425   1.281   4.607  14.213 -0.5562 -0.1820  0.0471
    3TCq1    C614426   1.240   4.592  14.080 -0.3831  0.4052 -0.0969
    3TCq1    C714427   1.316   4.640  13.980  0.8442  0.1261  0.2312
    3TCq1    C814428   1.163   4.471  14.051  0.0171  0.1677  0.2498
    3TCq1    O414429   1.133   4.455  13.933  0.2729  0.1354  0.0351
    3TCq1    C914430   1.434   4.712  14.368  0.2316 -0.2841  0.2807
    3TCq1    O514431   1.377   4.648  14.456  0.6857  0.1075 -0.2973
    3TCq1    O614432   1.537   0.047  14.378  0.9431 -0.7036  0.3872
    3TCq1    H114433   1.387   4.721  13.773  0.4086 -2.7197 -1.3530
    3TCq1    H214434   1.558   0.054  14.153  0.0424  0.2916 -2.8624
    3TCq1    H314435   1.228   4.572  14.300 -0.4466 -0.8194 -0.1414
    3TCq1    H414436   1.285   4.610  13.880 -0.7742  1.4404  0.3304
    4MPD2     C14437   1.012   4.218  14.079 -0.7754 -0.6359 -0.2252
    4MPD2    C114438   1.130   4.247  14.153  0.2923 -0.2104 -0.2150
    4MPD2    C214439   1.175   4.160  14.251 -0.1199 -0.2314 -0.6507
    4MPD2    C314440   1.111   4.032  14.263 -1.1070 -0.5596 -0.2222
    4MPD2    C414441   1.004   4.000  14.182 -0.3759 -0.8672 -0.0682
    4MPD2    C514442   0.960   4.092  14.087  1.2484  0.1084 -0.3252
    4MPD2     H14443   1.260   4.185  14.313 -2.4410  0.4808  2.2433
    4MPD2    H114444   0.968   3.898  14.172 -1.9376 -0.2686 -0.5809
    4MPD2    H214445   0.973   4.291  14.010 -1.4395  0.1174  0.9338
    4MPD2    H314446   0.869   4.072  14.032 -0.4133  1.5749  1.8873
    4MPD2     N14447   1.155   3.937  14.357 -0.1473  0.3131 -0.4433
    4MPD2    H514448   1.216   3.975  14.429  1.0088 -1.4214 -0.5076
    4MPD2    N114449   1.193   4.374  14.148  0.0022  0.2262 -0.5633
    4MPD2    H714450   1.269   4.389  14.213 -1.1241 -0.2017  0.8530
    5TMC2    C114451   1.208   2.910  14.839  0.2331  0.0995  0.5536
    5TMC2    C214452   1.166   2.893  14.970 -0.3291  0.8144  0.2149
    5TMC2    C314453   1.261   2.895  15.068  0.0574 -0.2235 -0.2800
    5TMC2    C414454   1.344   2.922  14.817 -0.2011 -0.1424 -0.3200
    5TMC2    C514455   1.435   2.931  14.917 -0.3942 -0.6817  0.3685
    5TMC2    C614456   1.394   2.919  15.049  0.1078 -0.8285  0.4367
    5TMC2     C14457   1.139   3.016  14.780  0.2661 -0.6359 -0.3399
    5TMC2     O14458   1.213   3.107  14.754 -0.1577  0.3398  0.4962
    5TMC2     H14459   1.063   2.901  15.004 -0.1800  1.6777  0.4862
    5TMC2    H114460   1.388   2.937  14.719 -0.1601 -1.2928 -0.4699
    5TMC2    H214461   1.471   2.926  15.125 -0.7400  1.2046  1.0905
    5TMC2    C714462   1.541   3.034  14.899  0.1315  0.1932 -0.6738
    5TMC2    C814463   1.225   2.883  15.206  0.5306  0.4251  0.1616
    5TMC2    O114464   1.640   3.030  14.972  0.4732 -0.2019 -0.0968
    5TMC2    O214465   1.297   2.923  15.295 -0.0357 -0.5605  0.0060
    5TMC2    O514466   1.154   2.773  15.220 -0.2524 -0.4836  0.1486
    5TMC2    H514467   1.112   2.742  15.137 -1.8416  1.5705  0.1606
    6MPD2     C14468   0.747   3.339  14.732  0.8590  0.2198  0.4534
    6MPD2    C114469   0.888   3.364  14.738 -0.4822 -0.0027  0.3980
    6MPD2    C214470   0.975   3.259  14.751 -0.0271 -0.4232 -0.5256
    6MPD2    C314471   0.920   3.134  14.776 -0.6004 -0.3114  0.2983
    6MPD2    C414472   0.787   3.107  14.775 -0.4219  0.4857 -0.3908
    6MPD2    C514473   0.704   3.214  14.759  0.3828 -0.2035 -0.1285
    6MPD2     H14474   1.081   3.281  14.741  0.6343 -3.3997 -0.1140
    6MPD2    H114475   0.750   3.005  14.781  0.1906  0.2510 -0.6376
    6MPD2    H214476   0.672   3.417  14.721 -1.5450 -1.9705  1.3582
    6MPD2    H314477   0.598   3.193  14.760 -0.1706  2.4789 -4.2885
    6MPD2     N14478   1.001   3.018  14.796 -0.4472  0.2612 -0.1576
    6MPD2    H514479   0.953   2.928  14.795 -1.2989  0.7237 -1.1923
    6MPD2    N114480   0.943   3.492  14.721 -0.1586 -0.6751 -0.4233
    6MPD2    H714481   0.873   3.562  14.700 -3.3306 -3.2806  1.3995
  945NH4     N114482   1.780   0.576  13.335 -0.1034 -0.4555  0.1313
  945NH4     H214483   1.701   0.644  13.336  0.5795  0.3030  1.9176
  945NH4     H314484   1.777   0.516  13.420  0.2597 -0.6217  0.0259
  945NH4     H414485   1.871   0.626  13.330  0.3887 -1.1899  1.5951
  945NH4     H514486   1.763   0.521  13.248 -1.0706 -2.1650  1.3903
  946SOD     NA14487   1.581   4.221  12.184  0.7938 -0.4227  0.2982
  947SOD     NA14488   2.104   3.828  14.625  0.0701  0.6450  0.5050
  948SOD     NA14489   3.251   1.213  16.305 -0.1458 -0.4243 -0.4216
  949SOD     NA14490   0.375   0.213  14.879  0.4731  0.1690 -0.0369
  950SOD     NA14491   4.345   0.448   2.470 -0.0142  0.2372  0.4739
  951SOD     NA14492   3.731   1.814   5.926  0.0171  0.0384 -0.2588
  952SOD     NA14493   1.635   2.935  11.675  0.6680 -0.4882 -0.0792
  953SOL     OW14494   2.486   1.083  15.670 -0.1844  0.0132 -0.1839
  953SOL    HW114495   2.448   1.138  15.739 -0.3199 -1.4762  0.9081
  953SOL    HW214496   2.458   0.998  15.703 -0.5023  0.2906  0.2648
  954SOL     OW14497   2.551   1.008   9.232  0.1638 -0.1523  0.4648
  954SOL    HW114498   2.572   0.924   9.192 -2.1665  0.5679 -2.2918
  954SOL    HW214499   2.486   1.040   9.170 -0.3175  0.3441  1.2232
  955SOL     OW14500   3.273   2.065  10.368 -0.6781 -0.1385 -0.1407
  955SOL    HW114501   3.256   1.977  10.402 -2.6459  0.2107 -0.2294
  955SOL    HW214502   3.238   2.112  10.443  1.4392 -1.6227  1.7691
  956SOL     OW14503   3.998   1.402   2.557 -0.3048  0.4487  0.1667
  956SOL    HW114504   4.043   1.366   2.481 -1.3049  0.4070 -0.4129
  956SOL    HW214505   3.922   1.434   2.508  0.7792 -0.0157 -1.7865
  957SOL     OW14506   0.546   0.224   7.245 -0.3972 -0.6559 -0.2985
  957SOL    HW114507   0.642   0.221   7.249 -0.4035 -0.9951 -0.4140
  957SOL    HW214508   0.535   0.168   7.321  0.1871 -1.0296 -0.4884
  958SOL     OW14509   1.732   0.923   5.064 -0.2378  0.2562 -0.1605
  958SOL    HW114510   1.733   1.009   5.022 -0.4814  0.5085  0.3524
  958SOL    HW214511   1.825   0.909   5.082 -0.4580  1.0701  1.5990
  959SOL     OW14512   4.287   4.414   9.024 -0.1318 -0.3875  0.0016
  959SOL    HW114513   4.354   4.435   8.958 -3.3319  2.7824 -2.2627
  959SOL    HW214514   4.301   4.327   9.060  1.6383  0.3514  1.0982
  960SOL     OW14515   1.393   3.917   7.901 -0.1550 -0.3566 -0.2652
  960SOL    HW114516   1.390   3.917   7.997 -3.0186  1.4632 -0.3541
  960SOL    HW214517   1.435   3.833   7.880  0.2490 -0.1666 -0.2190
  961SOL     OW14518   2.965   0.256   8.585  0.3021 -0.3311  0.4440
  961SOL    HW114519   2.885   0.242   8.636 -0.6409 -0.6721 -1.1164
  961SOL    HW214520   3.035   0.205   8.625  2.0866  0.8668 -1.1497
  962SOL     OW14521   3.414   3.219   4.611 -0.2271 -0.2934  0.6051
  962SOL    HW114522   3.417   3.200   4.705  1.4738 -0.9731  0.4199
  962SOL    HW214523   3.492   3.173   4.581  0.0594  0.6833 -0.1448
  963SOL     OW14524   0.907   0.882   5.957  0.1144 -0.5326  0.2343
  963SOL    HW114525   0.836   0.852   6.014 -1.3884 -3.6720 -3.2663
  963SOL    HW214526   0.873   0.967   5.931  2.7279  1.3452  2.8780
  964SOL     OW14527   4.389   4.043   2.410  0.2126  0.4099  0.0693
  964SOL    HW114528   4.405   4.002   2.495  0.2138  3.5425  1.5697
  964SOL    HW214529   4.383   3.965   2.354  0.5925  0.4382 -0.0102
  965SOL     OW14530   2.826   2.472  10.830  0.2349  0.2947 -0.3936
  965SOL    HW114531   2.794   2.509  10.748 -2.1191 -0.3747  0.2159
  965SOL    HW214532   2.911   2.515  10.831  0.4837 -0.1724 -1.2483
  966SOL     OW14533   4.306   2.608   1.262 -0.9628 -0.4176 -0.0748
  966SOL    HW114534   4.315   2.513   1.264 -1.5379 -0.4124  2.7530
  966SOL    HW214535   4.355   2.640   1.339  0.2125  2.6635 -2.0912
  967SOL     OW14536   1.887   0.178  10.700 -0.2904  0.4513 -0.1196
  967SOL    HW114537   1.815   0.219  10.652  0.5558  0.9559 -0.9544
  967SOL    HW214538   1.842   0.144  10.778  1.3508  0.1409  0.7124
  968SOL     OW14539   2.848   0.793   2.274 -0.2676 -0.3807 -0.2900
  968SOL    HW114540   2.791   0.717   2.262  0.2334 -0.9518  0.9551
  968SOL    HW214541   2.875   0.781   2.364  1.5422 -0.6978 -0.8838
  969SOL     OW14542   3.849   3.506  17.594 -0.0210 -0.0751 -0.1165
  969SOL    HW114543   3.832   3.426  17.545 -2.4340 -0.4545  1.3378
  969SOL    HW214544   3.827   3.483  17.685 -1.3154 -2.5941 -1.0792
  970SOL     OW14545   3.683   3.829   3.983  0.1116  0.4913 -0.1888
  970SOL    HW114546   3.691   3.739   3.952  0.5363  1.3585 -2.5597
  970SOL    HW214547   3.632   3.814   4.063 -0.2962 -0.7778 -0.6804
  971SOL     OW14548   2.184   3.220   1.882 -0.0208  0.1742  0.1660
  971SOL    HW114549   2.270   3.257   1.860 -1.1470  3.5072  1.2910
  971SOL    HW214550   2.199   3.188   1.971 -0.4845  1.3868  0.6848
  972SOL     OW14551   3.183   0.805  15.504  0.0360  0.2695  0.5265
  972SOL    HW114552   3.225   0.720  15.505 -1.4956 -0.4905 -0.2239
  972SOL    HW214553   3.093   0.776  15.513  0.1086 -0.5783 -1.5343
  973SOL     OW14554   0.529   4.010   7.409 -0.2542  0.3737  0.1814
  973SOL    HW114555   0.447   3.991   7.453 -1.5318  0.0513 -2.3663
  973SOL    HW214556   0.588   4.024   7.484 -0.8121  1.1524  0.4766
  974SOL     OW14557   4.273   2.072   4.252 -0.4416  0.0144 -0.2589
  974SOL    HW114558   4.289   2.122   4.332 -1.0536 -0.4236  0.1297
  974SOL    HW214559   4.190   2.111   4.226 -1.1721 -0.0972  1.9843
  975SOL     OW14560   1.853   1.926  10.050  0.6634 -0.0033 -0.1960
  975SOL    HW114561   1.914   1.991  10.014 -0.4679  0.8982 -0.4744
  975SOL    HW214562   1.904   1.850  10.079  1.0844 -0.1135 -1.2192
  976SOL     OW14563   1.405   2.631   5.117  0.2631 -0.0034  0.3664
  976SOL    HW114564   1.367   2.678   5.191 -0.4928  1.1545 -0.7760
  976SOL    HW214565   1.417   2.543   5.154 -0.9023 -0.5469 -0.5648
  977SOL     OW14566   2.126   4.301  15.649  0.0965  0.4212  0.3987
  977SOL    HW114567   2.178   4.229  15.685  0.4346  0.3116 -0.3094
  977SOL    HW214568   2.042   4.255  15.645  0.1800  0.3828 -0.7613
  978SOL     OW14569   4.390   4.616   4.672 -0.0681  0.6190  0.2886
  978SOL    HW114570   4.429   4.583   4.591 -1.8871 -0.1764 -0.2636
  978SOL    HW214571   4.306   4.570   4.672 -1.5831  3.4823 -3.8664
  979SOL     OW14572   2.438   1.521  11.510  0.1575  0.3846 -0.1954
  979SOL    HW114573   2.457   1.582  11.438 -1.8618 -2.3327 -3.0515
  979SOL    HW214574   2.523   1.499  11.548 -0.6804  0.8547  1.9485
  980SOL     OW14575   0.165   2.211  10.159  0.2583  0.2569 -0.0156
  980SOL    HW114576   0.171   2.128  10.206  2.8560  0.0456 -0.7686
  980SOL    HW214577   0.248   2.254  10.179  0.2810 -1.1964  3.0155
  981SOL     OW14578   2.486   3.008   3.545 -0.1039  0.2524  0.0900
  981SOL    HW114579   2.396   3.007   3.577  0.4724 -0.0760  1.6893
  981SOL    HW214580   2.526   3.078   3.596 -0.7411 -0.2548  1.2857
  982SOL     OW14581   0.934   4.543   8.735 -0.3060  0.7854 -0.5884
  982SOL    HW114582   0.888   4.459   8.735 -1.2919  1.3189 -1.2722
  982SOL    HW214583   0.971   4.551   8.823  0.0433 -1.0426 -0.5654
  983SOL     OW14584   0.299   4.147   0.124  0.0006  0.2488  0.0556
  983SOL    HW114585   0.256   4.229   0.147 -3.2477 -1.5354  0.4714
  983SOL    HW214586   0.344   4.121   0.204  0.4497 -0.6167 -0.4805
  984SOL     OW14587   4.109   2.960   1.778 -0.4772 -0.3783  0.2499
  984SOL    HW114588   4.078   2.888   1.834 -1.2401  0.7730  1.3187
  984SOL    HW214589   4.118   2.912   1.696 -1.7144 -1.2767  0.6397
  985SOL     OW14590   1.128   0.551  12.116 -0.0136  0.6397 -0.2094
  985SOL    HW114591   1.155   0.504  12.195 -0.9917 -1.2631 -0.9925
  985SOL    HW214592   1.093   0.626  12.165  0.3798 -1.2661  3.0317
  986SOL     OW14593   2.974   2.005   2.633  0.0883 -0.2340  0.4411
  986SOL    HW114594   2.941   1.934   2.580 -2.0846 -0.7246  2.4654
  986SOL    HW214595   3.042   1.960   2.684 -1.9315 -2.1578  1.4238
  987SOL     OW14596   2.185   0.484  14.896  0.3305 -0.0665  0.1383
  987SOL    HW114597   2.172   0.537  14.818 -1.5083 -0.4592  0.1693
  987SOL    HW214598   2.257   0.529  14.940 -0.3959  1.7695 -0.5362
  988SOL     OW14599   4.158   4.448   4.709 -0.0636 -0.3675  0.0848
  988SOL    HW114600   4.122   4.437   4.797 -1.1521  1.5842 -0.1163
  988SOL    HW214601   4.097   4.399   4.654 -0.8532  0.7570 -0.0308
  989SOL     OW14602   4.198   2.248  11.878  0.3171 -0.7856 -0.1121
  989SOL    HW114603   4.241   2.253  11.792  0.6270 -1.0402  0.0306
  989SOL    HW214604   4.226   2.335  11.907 -1.7047  0.2011 -1.1465
  990SOL     OW14605   1.994   0.016   8.391  0.1517  0.1981 -0.2868
  990SOL    HW114606   2.059   0.075   8.353  0.2182  1.4534  1.7776
  990SOL    HW214607   2.041   4.711   8.463  4.2166  2.2195 -1.7860
  991SOL     OW14608   1.637   3.479   4.126 -0.1382  0.5524 -0.2417
  991SOL    HW114609   1.710   3.482   4.065  2.4628  1.9486  2.9649
  991SOL    HW214610   1.668   3.434   4.204  1.1368 -1.4292 -1.8975
  992SOL     OW14611   3.968   2.453   6.025 -0.1325  0.0125  0.0546
  992SOL    HW114612   3.883   2.420   6.054 -0.1161  0.7817  0.9628
  992SOL    HW214613   3.987   2.396   5.950 -0.7951 -1.7131  1.2139
  993SOL     OW14614   4.360   4.637   5.615 -0.5592  0.2703 -0.5526
  993SOL    HW114615   4.289   4.658   5.675  0.0645 -0.1586  0.3442
  993SOL    HW214616   4.372   4.710   5.554  1.4078  0.1836 -0.2874
  994SOL     OW14617   3.353   1.244   7.940  0.7865  0.3803  0.0415
  994SOL    HW114618   3.362   1.338   7.954 -0.3717  0.1207  2.5123
  994SOL    HW214619   3.266   1.258   7.904  0.6949  1.5112  0.6971
  995SOL     OW14620   3.455   3.443   3.369  0.0670  0.1566  0.4090
  995SOL    HW114621   3.529   3.397   3.408  0.2167  0.9286  1.0338
  995SOL    HW214622   3.495   3.530   3.361  1.9694 -0.4161  3.7612
  996SOL     OW14623   3.726   1.836  13.549  0.1556 -0.0038 -0.1037
  996SOL    HW114624   3.808   1.810  13.592 -0.6971 -2.0954  0.2627
  996SOL    HW214625   3.749   1.861  13.460 -0.1965 -1.4551 -0.5919
  997SOL     OW14626   0.193   4.288   4.888  0.1922  0.8017  0.2780
  997SOL    HW114627   0.267   4.336   4.850  0.6367  0.7843  1.1242
  997SOL    HW214628   0.212   4.298   4.981  3.5021  1.0939 -0.4433
  998SOL     OW14629   4.387   4.617   3.094 -0.5967 -0.5876 -0.6383
  998SOL    HW114630   4.340   4.625   3.177  0.1072  1.7873 -0.4609
  998SOL    HW214631   4.351   4.541   3.049 -3.2239 -0.6327  1.5236
  999SOL     OW14632   3.708   4.573   6.866 -0.6147  0.2839  0.3278
  999SOL    HW114633   3.748   4.583   6.780  1.6289 -0.7198  1.2466
  999SOL    HW214634   3.788   4.576   6.919 -1.5135 -0.1387  1.7256
 1000SOL     OW14635   2.256   1.830   5.788 -0.1667  0.0195 -0.1561
 1000SOL    HW114636   2.257   1.743   5.748 -0.4975 -0.8454  1.7208
 1000SOL    HW214637   2.162   1.838   5.773 -0.0326 -0.3253 -1.2039
 1001SOL     OW14638   0.073   3.346   3.755  0.0973  0.2594  0.0636
 1001SOL    HW114639   0.072   3.323   3.848  0.7400  1.7382  0.4358
 1001SOL    HW214640   4.722   3.325   3.724  1.1551 -2.1147 -1.3520
 1002SOL     OW14641   0.647   1.933   6.859 -0.7714  0.5489  0.1285
 1002SOL    HW114642   0.600   2.015   6.874 -1.4646 -0.1792  1.8547
 1002SOL    HW214643   0.655   1.902   6.949 -2.0718  1.3294  0.5119
 1003SOL     OW14644   3.870   1.065   5.089  0.5060 -0.0981 -0.2968
 1003SOL    HW114645   3.887   1.143   5.142 -1.5956  0.7853 -0.9548
 1003SOL    HW214646   3.812   1.027   5.155  0.5816  1.9287  0.9459
 1004SOL     OW14647   4.371   0.673   4.573  0.7396 -0.1192  0.1111
 1004SOL    HW114648   4.418   0.657   4.491  1.0953  0.5076  0.1916
 1004SOL    HW214649   4.285   0.705   4.544  0.9048 -0.4425 -0.7386
 1005SOL     OW14650   1.907   0.524   2.730 -0.0936  0.1768  0.1214
 1005SOL    HW114651   1.943   0.446   2.689  1.8155  0.9484  0.3185
 1005SOL    HW214652   1.825   0.518   2.680  0.4028  0.0379 -0.6791
 1006SOL     OW14653   0.300   1.482   1.723  0.1917 -0.4970 -0.3790
 1006SOL    HW114654   0.344   1.438   1.651 -0.0040 -1.8354  0.3112
 1006SOL    HW214655   0.235   1.532   1.674  0.5845  1.9695  1.6053
 1007SOL     OW14656   1.525   1.535   8.392  0.3359 -0.1131 -0.4058
 1007SOL    HW114657   1.612   1.568   8.372  1.1639 -2.0895 -0.0050
 1007SOL    HW214658   1.511   1.470   8.322 -0.1509  1.8708 -2.1569
 1008SOL     OW14659   3.728   0.051   2.510  0.2215  0.0128 -0.1214
 1008SOL    HW114660   3.714   0.126   2.452  1.4333 -0.3587 -0.8821
 1008SOL    HW214661   3.662   0.071   2.577  1.4036  0.1628  0.9818
 1009SOL     OW14662   0.270   4.582   2.994  0.0774 -0.5406  0.2686
 1009SOL    HW114663   0.183   4.620   3.008  0.7117  1.8204 -2.1598
 1009SOL    HW214664   0.249   4.506   2.939 -0.7306 -0.8019  0.9272
 1010SOL     OW14665   3.481   3.783   4.707  0.1479 -0.1469  0.9307
 1010SOL    HW114666   3.510   3.699   4.743  0.9397 -1.2311 -2.2669
 1010SOL    HW214667   3.506   3.832   4.785  1.7232  1.6068 -0.6679
 1011SOL     OW14668   1.403   3.387   7.443 -0.3240  0.4837 -0.8885
 1011SOL    HW114669   1.319   3.359   7.407 -0.1784 -0.9450 -0.1425
 1011SOL    HW214670   1.408   3.336   7.524 -0.4313 -0.7851 -1.6860
 1012SOL     OW14671   1.115   2.631  10.279 -0.2452  0.1040  0.3737
 1012SOL    HW114672   1.197   2.645  10.326 -0.0449 -3.6760  1.1881
 1012SOL    HW214673   1.068   2.711  10.302 -0.0653  0.2011  0.3993
 1013SOL     OW14674   1.709   2.940   5.430 -0.0190  0.2333  0.0343
 1013SOL    HW114675   1.738   2.901   5.512 -1.3946  0.1730  0.4747
 1013SOL    HW214676   1.693   3.029   5.461  3.4119  1.0954 -0.5667
 1014SOL     OW14677   1.524   3.063   6.114 -0.1251  0.2153  0.0950
 1014SOL    HW114678   1.460   3.018   6.059  0.5545 -0.5912 -0.0276
 1014SOL    HW214679   1.558   3.119   6.045  0.7221 -0.6506 -0.1932
 1015SOL     OW14680   4.369   0.901  16.455 -0.2622 -0.0369  0.3916
 1015SOL    HW114681   4.404   0.990  16.446 -1.3236  0.3347  0.0064
 1015SOL    HW214682   4.363   0.884  16.549 -0.1560  0.2943  0.4599
 1016SOL     OW14683   2.427   1.114   5.158 -0.3141  0.2443  0.0265
 1016SOL    HW114684   2.371   1.108   5.081 -0.3754  2.8233 -0.1090
 1016SOL    HW214685   2.447   1.207   5.156  1.3832 -0.1630 -2.8145
 1017SOL     OW14686   1.262   0.883   7.901  0.4909 -0.3117  0.2881
 1017SOL    HW114687   1.228   0.887   7.811  1.0014 -0.5753  0.0820
 1017SOL    HW214688   1.192   0.923   7.951  0.7157  3.1836 -2.1585
 1018SOL     OW14689   0.084   0.349  16.927  0.3732  0.1391 -0.4285
 1018SOL    HW114690   4.734   0.379  16.953  0.2366 -1.3886  0.8646
 1018SOL    HW214691   0.089   0.393  16.842 -1.7396  0.8359 -0.1828
 1019SOL     OW14692   0.434   3.435   1.891 -0.1612 -0.3711 -0.2962
 1019SOL    HW114693   0.381   3.514   1.884 -2.5516 -2.0647 -0.9933
 1019SOL    HW214694   0.503   3.459   1.828 -1.1284 -1.0688 -1.6168
 1020SOL     OW14695   0.533   2.784   6.142 -0.1268 -0.1304  0.1804
 1020SOL    HW114696   0.585   2.751   6.069  0.4121 -1.2789  1.0925
 1020SOL    HW214697   0.542   2.878   6.124  3.0977 -0.7003 -1.1376
 1021SOL     OW14698   4.424   4.708   6.526 -0.3678  0.4457 -0.1363
 1021SOL    HW114699   4.356   4.648   6.497  0.1101 -0.1615 -0.0218
 1021SOL    HW214700   4.472   4.654   6.589  0.8154  0.7842 -0.7387
 1022SOL     OW14701   0.257   0.610   7.244  0.1368  0.2167  0.1098
 1022SOL    HW114702   0.296   0.654   7.319 -1.2710  2.0236 -0.1983
 1022SOL    HW214703   0.312   0.532   7.245  1.4601  1.1199 -2.4524
 1023SOL     OW14704   1.728   2.065   2.097  0.2790 -0.1984  0.0292
 1023SOL    HW114705   1.706   2.011   2.021  0.7592 -0.1840 -0.1200
 1023SOL    HW214706   1.744   2.000   2.165 -0.7028  0.5463  0.9855
 1024SOL     OW14707   1.951   0.364   4.496 -0.4471 -0.0896  0.4022
 1024SOL    HW114708   2.002   0.287   4.472  1.9677  1.7934 -0.4770
 1024SOL    HW214709   1.991   0.390   4.579 -2.2450  0.8195  0.9922
 1025SOL     OW14710   0.323   1.699  10.285 -0.4032  0.3208 -0.4945
 1025SOL    HW114711   0.401   1.733  10.240  0.0891  2.5923  2.0764
 1025SOL    HW214712   0.286   1.648  10.213 -1.9810 -0.9185  1.2021
 1026SOL     OW14713   2.901   1.565   7.905  0.7264 -0.1925 -0.1747
 1026SOL    HW114714   2.816   1.524   7.920  0.1432  1.1971  0.3066
 1026SOL    HW214715   2.906   1.552   7.811  2.3663  0.5682 -0.1891
 1027SOL     OW14716   0.413   0.967   2.719 -0.0546 -0.3946  0.8312
 1027SOL    HW114717   0.412   0.881   2.761 -4.1239 -0.5350  0.4498
 1027SOL    HW214718   0.318   0.980   2.723 -0.2683 -2.0856  1.1147
 1028SOL     OW14719   1.952   3.466  11.330  0.2609 -0.5267 -0.4591
 1028SOL    HW114720   2.028   3.407  11.324  1.0631  0.7349 -2.8182
 1028SOL    HW214721   1.965   3.531  11.261 -0.0286 -1.3053 -1.2448
 1029SOL     OW14722   1.399   3.982   6.510 -0.1509 -0.2481 -0.2635
 1029SOL    HW114723   1.425   3.983   6.602  1.6774  0.4194 -0.7798
 1029SOL    HW214724   1.362   4.070   6.512  1.6187  0.4430  1.3216
 1030SOL     OW14725   0.606   2.448   1.157  0.0075 -0.1048 -0.1425
 1030SOL    HW114726   0.639   2.537   1.160  0.5217 -0.3467  1.4261
 1030SOL    HW214727   0.572   2.440   1.246  0.9742 -0.5958  0.1810
 1031SOL     OW14728   0.961   0.702   6.902 -0.1282 -0.1699  0.3181
 1031SOL    HW114729   1.057   0.707   6.905 -0.1242  1.1236 -1.2763
 1031SOL    HW214730   0.953   0.797   6.891 -0.1927 -0.1305  0.6988
 1032SOL     OW14731   2.732   3.611   4.853  0.1595  0.0507  0.2978
 1032SOL    HW114732   2.763   3.520   4.846 -0.1238 -0.2209  2.4384
 1032SOL    HW214733   2.820   3.644   4.874  0.5671 -0.1893 -1.0071
 1033SOL     OW14734   0.437   0.473   6.291  0.4436  0.1716 -0.2612
 1033SOL    HW114735   0.474   0.480   6.379  0.1044 -0.1044 -0.0973
 1033SOL    HW214736   0.505   0.430   6.239  0.1413 -0.3629 -0.2124
 1034SOL     OW14737   1.497   1.803   3.582 -0.4110  0.4034 -0.4497
 1034SOL    HW114738   1.558   1.752   3.527  1.1332  1.4634  0.2731
 1034SOL    HW214739   1.415   1.785   3.535 -0.7630  1.4819 -0.2424
 1035SOL     OW14740   3.045   2.870   7.237  0.5033  0.4189 -0.6464
 1035SOL    HW114741   3.028   2.933   7.168 -0.7145  0.4237 -0.3422
 1035SOL    HW214742   3.136   2.848   7.219  1.2835  1.0934  2.4776
 1036SOL     OW14743   2.754   0.629   8.045  0.1130 -0.1604  0.0791
 1036SOL    HW114744   2.708   0.557   8.088 -0.3723  0.5529  0.7471
 1036SOL    HW214745   2.822   0.589   7.990  0.6907  1.5366 -0.4354
 1037SOL     OW14746   0.967   3.853   3.829 -0.2889 -0.3659  0.3302
 1037SOL    HW114747   0.967   3.829   3.736  1.2899 -0.4363  0.3470
 1037SOL    HW214748   0.952   3.948   3.824  0.0956 -0.4148 -1.7113
 1038SOL     OW14749   0.770   3.381   6.506 -0.1141  0.0065 -0.1063
 1038SOL    HW114750   0.865   3.397   6.513 -0.2736  1.1289 -0.5234
 1038SOL    HW214751   0.740   3.429   6.429 -0.0151  0.5832  0.2211
 1039SOL     OW14752   1.071   0.556   9.112  0.8320 -0.0453  0.1692
 1039SOL    HW114753   1.104   0.466   9.107  1.3291  0.0900  0.9399
 1039SOL    HW214754   1.009   0.558   9.185  0.8092 -1.2164  0.1772
 1040SOL     OW14755   4.136   2.866   1.035 -0.1191 -0.0513  0.0830
 1040SOL    HW114756   4.228   2.841   1.029 -0.1813 -0.0395 -0.9677
 1040SOL    HW214757   4.111   2.812   1.110 -1.8556  0.0484 -0.4248
 1041SOL     OW14758   3.501   3.585  14.571  1.0275  0.1549  0.5331
 1041SOL    HW114759   3.483   3.527  14.644 -2.1452  0.7480  0.2009
 1041SOL    HW214760   3.428   3.646  14.579 -0.4773 -1.4233 -1.0456
 1042SOL     OW14761   3.202   0.846   4.440 -0.4594 -0.1670 -0.0676
 1042SOL    HW114762   3.119   0.809   4.410 -1.1095 -0.9866  2.7029
 1042SOL    HW214763   3.250   0.763   4.434  0.1618  0.2961 -1.6022
 1043SOL     OW14764   2.710   1.336   6.289 -0.7647  0.4904 -0.2573
 1043SOL    HW114765   2.620   1.305   6.279 -1.1001  0.4630  2.8032
 1043SOL    HW214766   2.757   1.264   6.246  0.8556  2.8699 -2.5024
 1044SOL     OW14767   0.562   2.011   0.517  0.7893 -0.2362  0.1889
 1044SOL    HW114768   0.506   2.034   0.443  0.8893  0.0003  0.1875
 1044SOL    HW214769   0.625   1.955   0.470 -1.3907 -1.5911 -1.0947
 1045SOL     OW14770   1.386   1.468  15.869 -0.4779  0.5537  0.4798
 1045SOL    HW114771   1.463   1.411  15.858 -0.1124  1.2145 -0.3798
 1045SOL    HW214772   1.314   1.409  15.847  0.0887  0.1384 -0.2784
 1046SOL     OW14773   0.849   3.758   9.462 -0.1358 -0.6321  0.6979
 1046SOL    HW114774   0.774   3.812   9.441  0.4902  0.1931  0.5893
 1046SOL    HW214775   0.908   3.785   9.392  0.4384  0.3019  1.5453
 1047SOL     OW14776   1.967   4.634   3.412  0.2117 -0.4017  0.0907
 1047SOL    HW114777   1.873   4.633   3.399 -0.1684 -1.0839  2.8184
 1047SOL    HW214778   2.005   4.620   3.326 -0.2790 -0.2092 -0.1533
 1048SOL     OW14779   2.020   1.077   8.883  0.1018  0.7148 -0.5325
 1048SOL    HW114780   2.103   1.038   8.910 -1.1435 -0.5075  1.4244
 1048SOL    HW214781   1.996   1.015   8.815 -1.3174 -0.2385  0.8507
 1049SOL     OW14782   0.744   0.534   2.198  0.5567 -0.3155 -0.1732
 1049SOL    HW114783   0.788   0.449   2.193  0.0286 -0.5897 -0.1715
 1049SOL    HW214784   0.815   0.596   2.210 -1.4924  1.8253  0.9373
 1050SOL     OW14785   4.237   3.430   5.872 -0.5349  1.0513 -0.0325
 1050SOL    HW114786   4.208   3.521   5.875 -1.1928  0.8535 -0.3557
 1050SOL    HW214787   4.150   3.392   5.887 -0.6989  0.4959 -2.5148
 1051SOL     OW14788   2.611   0.321  11.813  0.2331  0.1100  0.2935
 1051SOL    HW114789   2.631   0.310  11.720 -1.5485  0.0850 -0.0910
 1051SOL    HW214790   2.649   0.238  11.841 -2.3380 -0.6916  1.4360
 1052SOL     OW14791   4.093   4.224   6.498 -0.8522 -0.8695  0.1281
 1052SOL    HW114792   4.058   4.245   6.585 -0.5815 -2.1125  0.5351
 1052SOL    HW214793   4.013   4.246   6.450 -0.4013  0.4689  0.0014
 1053SOL     OW14794   2.738   2.242   4.534 -0.1284 -0.0405 -0.1900
 1053SOL    HW114795   2.711   2.274   4.620 -0.2637 -2.9761  0.8815
 1053SOL    HW214796   2.832   2.257   4.541 -0.7110  3.2262  0.6315
 1054SOL     OW14797   2.321   0.328   7.046 -0.6667  0.2260  0.6127
 1054SOL    HW114798   2.339   0.267   7.118 -0.4506 -2.6184 -1.8661
 1054SOL    HW214799   2.261   0.392   7.086 -0.8128 -0.7031  1.9088
 1055SOL     OW14800   1.274   1.231   8.115  0.0720 -0.1248  0.3014
 1055SOL    HW114801   1.305   1.222   8.024  2.5465  1.4096  0.9719
 1055SOL    HW214802   1.360   1.239   8.156  1.2377 -3.3955 -1.4647
 1056SOL     OW14803   4.654   1.976  15.024 -0.3710 -0.4492  0.7043
 1056SOL    HW114804   4.660   2.053  14.967  0.1235 -0.0896  1.2449
 1056SOL    HW214805   4.601   1.919  14.968 -0.5697  0.5081 -0.1070
 1057SOL     OW14806   2.557   0.243  10.429  0.1866  0.2414 -0.1867
 1057SOL    HW114807   2.544   0.338  10.423  0.4199  0.5131  3.6570
 1057SOL    HW214808   2.485   0.217  10.486  1.9296 -2.7099  0.6577
 1058SOL     OW14809   2.355   0.949   7.617  0.3176 -0.2356 -0.3615
 1058SOL    HW114810   2.417   0.951   7.690 -2.2143 -0.3965  1.8090
 1058SOL    HW214811   2.330   1.041   7.608  1.2377 -0.0269 -0.7864
 1059SOL     OW14812   3.044   4.158   5.671  0.0997  0.4073 -0.3112
 1059SOL    HW114813   3.050   4.163   5.576 -0.7779  0.8084 -0.3541
 1059SOL    HW214814   2.985   4.230   5.695  0.0219 -0.2911  1.6077
 1060SOL     OW14815   3.644   1.553   7.128  0.2315  0.3739  0.0652
 1060SOL    HW114816   3.723   1.589   7.168 -0.1578  0.6725  0.5775
 1060SOL    HW214817   3.598   1.514   7.202  1.4505 -0.7247  0.2414
 1061SOL     OW14818   3.781   1.753   4.214  0.3860 -0.8786  0.4371
 1061SOL    HW114819   3.833   1.687   4.259 -2.1056 -1.3703  2.5723
 1061SOL    HW214820   3.821   1.759   4.127  1.0887  0.7736  0.8867
 1062SOL     OW14821   0.322   4.341  13.815  0.6171 -0.0844  0.0487
 1062SOL    HW114822   0.295   4.301  13.732 -1.9236  3.7897 -1.0248
 1062SOL    HW214823   0.382   4.405  13.777  1.3493 -0.6397  0.2856
 1063SOL     OW14824   0.019   3.602   5.731 -0.1559  0.4516  0.1488
 1063SOL    HW114825   0.014   3.626   5.824 -1.3206  1.2500 -0.1127
 1063SOL    HW214826   4.668   3.564   5.725  0.4402 -0.6868 -1.1494
 1064SOL     OW14827   1.323   2.037   2.301 -0.3602 -0.3494  0.3191
 1064SOL    HW114828   1.401   2.088   2.279 -1.6440  1.0484 -1.0110
 1064SOL    HW214829   1.259   2.107   2.309 -1.3086 -0.9767 -1.7619
 1065SOL     OW14830   3.320   3.963   3.415  0.4222 -0.6868  0.2447
 1065SOL    HW114831   3.304   4.038   3.473 -0.3783 -0.2010 -0.6077
 1065SOL    HW214832   3.344   3.894   3.477 -0.6866 -0.4819  0.9039
 1066SOL     OW14833   1.191   2.171   7.375  0.3983  0.2458 -0.3974
 1066SOL    HW114834   1.123   2.214   7.428  1.9422  2.2783 -0.0771
 1066SOL    HW214835   1.140   2.120   7.311  1.1602  0.5115 -1.2133
 1067SOL     OW14836   3.645   1.918   9.080  0.4568 -0.1031 -0.1678
 1067SOL    HW114837   3.557   1.911   9.043 -0.1085  2.2021  0.7638
 1067SOL    HW214838   3.689   1.986   9.030  2.9105 -2.4490 -1.2072
 1068SOL     OW14839   2.385   2.738   2.419  0.2186  0.0229 -0.4416
 1068SOL    HW114840   2.363   2.646   2.407  3.4356 -0.6257 -1.2200
 1068SOL    HW214841   2.312   2.768   2.472  0.2098  1.3245 -1.1865
 1069SOL     OW14842   3.844   4.519  14.411 -0.1977  0.7663 -0.1210
 1069SOL    HW114843   3.872   4.432  14.385 -1.3251  0.7969 -1.4184
 1069SOL    HW214844   3.808   4.499  14.497 -0.7871  0.5893 -0.4121
 1070SOL     OW14845   2.789   0.972   6.374  0.0917  0.8250  0.5404
 1070SOL    HW114846   2.767   0.972   6.467  1.3059 -2.1987  0.8214
 1070SOL    HW214847   2.866   0.915   6.367  1.0742  1.8120  3.2946
 1071SOL     OW14848   1.910   1.935   7.311 -0.0969  0.2509 -0.2506
 1071SOL    HW114849   1.842   1.985   7.357  0.8691  0.6702  0.7382
 1071SOL    HW214850   1.851   1.908   7.241 -0.7919 -3.4572  1.8151
 1072SOL     OW14851   2.109   1.794   3.429 -0.0587 -0.3699 -0.5390
 1072SOL    HW114852   2.171   1.725   3.407  0.0432 -0.9741  1.6755
 1072SOL    HW214853   2.171   1.864   3.412 -1.0337  1.3709  3.2456
 1073SOL     OW14854   0.453   3.032   8.179  0.0367  0.2146  0.4336
 1073SOL    HW114855   0.415   2.972   8.244 -0.8190  0.6823  0.3539
 1073SOL    HW214856   0.462   3.119   8.218  0.7247  0.5803 -0.5439
 1074SOL     OW14857   4.602   1.519  13.498  0.0240  0.1449 -0.2483
 1074SOL    HW114858   4.686   1.527  13.452 -0.4707 -2.1041 -1.5733
 1074SOL    HW214859   4.551   1.594  13.468 -0.3418 -0.2706 -0.6716
 1075SOL     OW14860   2.852   3.581  10.563  0.1650 -0.2982 -0.2579
 1075SOL    HW114861   2.901   3.647  10.612 -1.4405  0.0672  0.8518
 1075SOL    HW214862   2.915   3.570  10.492  0.9898 -0.2557  0.4592
 1076SOL     OW14863   4.638   4.469  17.459  0.0793  0.1459  0.6613
 1076SOL    HW114864   4.629   4.532  17.388  1.4671 -0.2979  0.0949
 1076SOL    HW214865   4.616   4.387  17.415  3.7252 -0.3369 -0.2411
 1077SOL     OW14866   0.073   3.767  11.787 -0.4994 -0.2026  0.3458
 1077SOL    HW114867   0.154   3.718  11.771 -0.2553  0.1404  0.5433
 1077SOL    HW214868   0.095   3.846  11.739 -2.1843 -0.7376 -1.3331
 1078SOL     OW14869   0.502   1.591   7.957 -0.0408 -0.1687 -0.8772
 1078SOL    HW114870   0.557   1.542   7.896  1.4578  0.3783  0.0619
 1078SOL    HW214871   0.539   1.679   7.951  0.5830 -0.4834 -1.6433
 1079SOL     OW14872   3.139   4.476   2.762  0.0792 -0.4133 -0.0804
 1079SOL    HW114873   3.187   4.429   2.694 -0.8014 -1.3862 -0.0377
 1079SOL    HW214874   3.088   4.405   2.802  0.3781  0.0513  1.1114
 1080SOL     OW14875   0.749   3.088   7.369 -1.0573  0.4941  0.3875
 1080SOL    HW114876   0.796   3.169   7.348  3.0218 -2.5373 -2.0794
 1080SOL    HW214877   0.755   3.059   7.278  1.0320  2.1000  0.0166
 1081SOL     OW14878   0.593   4.132   4.118  0.3058  0.6195 -0.3733
 1081SOL    HW114879   0.618   4.210   4.168 -1.9596 -0.8961  3.1599
 1081SOL    HW214880   0.670   4.077   4.132 -0.9321 -0.8915  0.5072
 1082SOL     OW14881   0.651   2.850   5.453 -0.2763 -0.4515 -0.3427
 1082SOL    HW114882   0.593   2.896   5.393 -1.4035  0.6211  1.5520
 1082SOL    HW214883   0.625   2.889   5.536  0.6835 -1.7142  0.5606
 1083SOL     OW14884   1.872   3.395   7.775 -0.0432 -0.1644  0.3261
 1083SOL    HW114885   1.886   3.301   7.785 -0.4543 -0.3806 -1.1979
 1083SOL    HW214886   1.912   3.434   7.853 -0.6190 -1.1606  1.1163
 1084SOL     OW14887   0.838   0.924  12.396  0.3592 -0.6513 -0.3620
 1084SOL    HW114888   0.780   0.996  12.370  0.8618 -1.2059 -2.9996
 1084SOL    HW214889   0.867   0.967  12.476  1.1495  1.3223 -1.7012
 1085SOL     OW14890   2.877   3.094  11.767  0.3619  0.1497  0.1843
 1085SOL    HW114891   2.953   3.141  11.733  0.4094 -0.6406 -0.8046
 1085SOL    HW214892   2.908   3.077  11.856  1.6785  1.0061 -0.1212
 1086SOL     OW14893   0.098   1.775   6.634 -0.2768 -0.5208  0.1588
 1086SOL    HW114894   0.066   1.690   6.665 -2.8012  0.7061  0.9289
 1086SOL    HW214895   0.026   1.808   6.581 -1.8383 -2.8192  0.7999
 1087SOL     OW14896   4.722   2.687  15.745 -0.3977 -0.9788  0.5946
 1087SOL    HW114897   4.724   2.694  15.650  2.0827 -0.7997  0.6387
 1087SOL    HW214898   0.033   2.604  15.758 -0.9820 -1.1701  1.4889
 1088SOL     OW14899   4.449   1.414   3.897 -0.5101  0.0186 -0.3956
 1088SOL    HW114900   4.412   1.326   3.892  1.0277 -0.6680  0.2080
 1088SOL    HW214901   4.489   1.420   3.810  0.4133 -3.2810 -0.2282
 1089SOL     OW14902   3.491   1.604   2.073 -0.2571  0.0221  0.1088
 1089SOL    HW114903   3.406   1.648   2.063 -1.1408 -0.7617  3.8192
 1089SOL    HW214904   3.520   1.597   1.983  1.6707 -0.4413  0.7658
 1090SOL     OW14905   3.223   2.787   1.304  0.3061 -0.1611  0.1360
 1090SOL    HW114906   3.222   2.859   1.367 -2.0296 -0.5095  0.4865
 1090SOL    HW214907   3.315   2.801   1.280 -0.8147  3.2366 -2.1885
 1091SOL     OW14908   2.868   2.309   4.184 -0.1801  0.2006 -0.0614
 1091SOL    HW114909   2.781   2.281   4.214 -0.4287 -0.6610 -1.5961
 1091SOL    HW214910   2.925   2.235   4.204 -0.3435  0.2629  0.6475
 1092SOL     OW14911   1.335   3.277   3.814 -0.0249 -0.0012  0.5811
 1092SOL    HW114912   1.356   3.368   3.836 -0.9679  0.6318 -1.1408
 1092SOL    HW214913   1.419   3.246   3.779 -0.7091  0.7736 -1.7829
 1093SOL     OW14914   3.833   4.303   0.407  0.2988 -0.7180  0.4539
 1093SOL    HW114915   3.855   4.352   0.486 -1.5362  1.6349 -0.5140
 1093SOL    HW214916   3.744   4.277   0.432 -1.2692  3.9064 -0.4656
 1094SOL     OW14917   0.591   0.873   0.828 -0.2617 -0.3210 -0.1722
 1094SOL    HW114918   0.523   0.829   0.778 -0.3373  1.1547 -1.3815
 1094SOL    HW214919   0.651   0.799   0.821  0.5112  0.3100 -0.2354
 1095SOL     OW14920   4.115   2.713   4.642 -0.0368  0.2666  0.0243
 1095SOL    HW114921   4.163   2.787   4.679  0.0750  0.3101 -0.2141
 1095SOL    HW214922   4.168   2.647   4.686 -1.6183 -0.8772  0.2428
 1096SOL     OW14923   1.283   2.954   2.266  0.3101  0.4522  0.1258
 1096SOL    HW114924   1.377   2.970   2.262  0.6262 -1.1788  1.3388
 1096SOL    HW214925   1.284   2.887   2.334 -0.1363  1.6163  1.2878
 1097SOL     OW14926   1.440   0.424   5.273 -0.7768 -0.2643  0.2342
 1097SOL    HW114927   1.377   0.466   5.331  0.1862  0.3639  0.8043
 1097SOL    HW214928   1.391   0.346   5.247  0.3421 -0.0843 -2.4161
 1098SOL     OW14929   3.574   2.857   9.818 -0.1390 -0.5256 -0.1716
 1098SOL    HW114930   3.599   2.848   9.910 -2.1769  0.4340  0.4675
 1098SOL    HW214931   3.537   2.770   9.806 -1.8330  0.2008 -0.1692
 1099SOL     OW14932   1.971   0.970  11.940  0.6519  0.3275  0.1985
 1099SOL    HW114933   2.026   0.908  11.892  0.0870 -1.0424  1.3082
 1099SOL    HW214934   1.946   1.016  11.860 -1.5899 -0.6484  0.3369
 1100SOL     OW14935   3.481   4.478   5.863 -0.3173 -0.2889  0.1597
 1100SOL    HW114936   3.503   4.390   5.891  1.4220  0.2825  0.6101
 1100SOL    HW214937   3.536   4.503   5.788 -1.0354 -0.2125 -0.3421
 1101SOL     OW14938   1.717   0.169  14.778  0.3653  0.2841 -0.2287
 1101SOL    HW114939   1.741   0.231  14.709 -4.4131  1.2200 -1.0925
 1101SOL    HW214940   1.627   0.145  14.755  0.1048 -0.4919  1.6031
 1102SOL     OW14941   2.910   1.563   6.569  0.2532 -0.5681  0.3629
 1102SOL    HW114942   2.859   1.619   6.628  1.3686  2.3351 -1.4218
 1102SOL    HW214943   2.945   1.503   6.635 -0.0657  0.1993  1.2326
 1103SOL     OW14944   3.566   1.401   4.601  0.2668 -0.3915  0.3146
 1103SOL    HW114945   3.635   1.423   4.664  0.0436  3.6774 -0.8529
 1103SOL    HW214946   3.543   1.486   4.563 -0.1704 -0.4471  0.4519
 1104SOL     OW14947   3.632   1.625   5.864 -0.2208 -0.0081  0.4075
 1104SOL    HW114948   3.567   1.564   5.829 -3.5587  2.4821  2.2463
 1104SOL    HW214949   3.708   1.578   5.830  0.0875  1.4615 -0.9370
 1105SOL     OW14950   3.512   3.872  14.263 -0.2106 -0.1798 -0.2963
 1105SOL    HW114951   3.506   3.939  14.194  1.1970  1.7596  1.4454
 1105SOL    HW214952   3.605   3.852  14.260 -0.7660 -2.9007  1.1273
 1106SOL     OW14953   0.084   2.976  13.196 -0.1847 -0.4536 -0.3892
 1106SOL    HW114954   0.116   3.066  13.210  0.7451 -0.7476 -0.6645
 1106SOL    HW214955   0.074   2.959  13.103  1.3267 -1.4126 -0.3710
 1107SOL     OW14956   4.400   4.254  10.090  0.3691  0.2610  0.3230
 1107SOL    HW114957   4.317   4.245  10.138  2.6380  0.0385  4.2587
 1107SOL    HW214958   4.402   4.176  10.034  2.6989  1.8086 -1.7583
 1108SOL     OW14959   1.886   4.214   6.522 -0.6534 -0.4513  0.4538
 1108SOL    HW114960   1.903   4.305   6.501 -0.6961 -0.5011  0.2051
 1108SOL    HW214961   1.878   4.223   6.617 -2.1833 -1.1261  0.3869
 1109SOL     OW14962   3.725   2.390   6.162 -0.1390 -0.4803  0.5498
 1109SOL    HW114963   3.669   2.450   6.211 -0.8403  1.5876 -2.7514
 1109SOL    HW214964   3.662   2.359   6.097  0.9487 -2.0628  0.2449
 1110SOL     OW14965   0.598   0.490   5.408 -0.1828  0.6103  0.0129
 1110SOL    HW114966   0.676   0.522   5.452  0.0450  1.8695 -1.3139
 1110SOL    HW214967   0.522   0.529   5.451  0.7271 -0.6117  2.7177
 1111SOL     OW14968   1.494   4.204   4.293  0.0946  0.6507 -0.4012
 1111SOL    HW114969   1.399   4.193   4.297 -0.1153  3.4017  2.3461
 1111SOL    HW214970   1.498   4.268   4.364 -2.1305  0.8112 -0.4103
 1112SOL     OW14971   3.227   1.523   5.055  0.5733 -0.0520  0.6839
 1112SOL    HW114972   3.235   1.484   5.141 -0.3404  0.2292  0.8985
 1112SOL    HW214973   3.134   1.543   5.064  0.3581 -0.2301 -1.0078
 1113SOL     OW14974   3.372   1.892   1.195  0.4993 -0.4736  0.0825
 1113SOL    HW114975   3.467   1.903   1.195  0.7771 -2.9029 -0.2347
 1113SOL    HW214976   3.353   1.920   1.106 -0.9484 -1.3776  0.1060
 1114SOL     OW14977   2.956   4.497   6.881  0.4656 -0.2806 -0.2982
 1114SOL    HW114978   2.912   4.503   6.796  2.4320  0.8603 -1.2313
 1114SOL    HW214979   3.028   4.558   6.869  0.3094  0.1867  1.1024
 1115SOL     OW14980   1.806   4.131   7.626  0.0604  0.4628 -0.0361
 1115SOL    HW114981   1.772   4.048   7.592 -0.0526  0.9104 -1.0197
 1115SOL    HW214982   1.830   4.172   7.542  0.0896 -0.3297 -0.4164
 1116SOL     OW14983   4.369   0.485  17.329  0.2553  0.5884 -0.0763
 1116SOL    HW114984   4.463   0.505  17.331  0.4788 -0.4837  0.1478
 1116SOL    HW214985   4.340   0.544  17.399  0.0252  0.5615 -0.1484
 1117SOL     OW14986   2.655   4.598   8.169 -0.0340 -0.0150 -0.0186
 1117SOL    HW114987   2.590   4.666   8.187  2.9575  2.9093 -0.4285
 1117SOL    HW214988   2.593   4.525   8.175  0.1582 -0.3106 -1.7412
 1118SOL     OW14989   1.760   0.077   8.181 -0.3560 -0.1702 -0.4563
 1118SOL    HW114990   1.749   0.142   8.112 -1.6297 -0.9687 -1.0067
 1118SOL    HW214991   1.797   0.002   8.133  0.0613  0.5523 -1.2640
 1119SOL     OW14992   1.994   2.738   5.249 -0.0515 -0.1741 -0.2795
 1119SOL    HW114993   2.018   2.764   5.338 -1.5293  0.1960  0.0008
 1119SOL    HW214994   2.000   2.821   5.202 -1.5538 -0.9223 -1.8277
 1120SOL     OW14995   0.556   3.393   8.127  0.2903  0.6507 -0.1765
 1120SOL    HW114996   0.515   3.479   8.121 -1.7204 -0.1828  1.7663
 1120SOL    HW214997   0.515   3.354   8.204  1.3106  0.5181  0.3030
 1121SOL     OW14998   2.916   3.287  10.638 -0.7393 -0.4888  0.3485
 1121SOL    HW114999   2.872   3.356  10.588 -2.3217 -1.9219 -0.2439
 1121SOL    HW215000   2.841   3.251  10.685 -3.4225  2.7842 -1.3670
 1122SOL     OW15001   3.838   2.466  10.267 -0.6733 -0.0538 -0.2227
 1122SOL    HW115002   3.858   2.419  10.348 -0.7775  1.1288  0.4927
 1122SOL    HW215003   3.849   2.554  10.305  1.3824  0.1372 -1.2374
 1123SOL     OW15004   1.491   3.962   6.785  0.0303  0.3999 -0.3017
 1123SOL    HW115005   1.575   3.994   6.817 -0.6668  0.3965  1.5537
 1123SOL    HW215006   1.473   3.888   6.844 -0.9240  1.0163  0.1758
 1124SOL     OW15007   2.548   1.910   1.603 -0.0552 -0.4509 -0.0647
 1124SOL    HW115008   2.485   1.883   1.536  0.5041 -1.2570 -0.2615
 1124SOL    HW215009   2.606   1.971   1.558  0.2494  0.5918  1.7434
 1125SOL     OW15010   3.220   1.361   4.818  0.1373  0.0705 -0.1512
 1125SOL    HW115011   3.209   1.417   4.895  4.1324 -1.1344  1.2931
 1125SOL    HW215012   3.221   1.277   4.864  2.5645 -0.4714 -1.2167
 1126SOL     OW15013   3.327   1.398   1.651 -0.1899 -0.0667  0.5511
 1126SOL    HW115014   3.419   1.416   1.668  0.2910  0.5765 -2.6823
 1126SOL    HW215015   3.315   1.312   1.693 -1.4062 -0.1263  0.0856
 1127SOL     OW15016   0.682   2.216   3.620  0.0807  0.4823 -0.1500
 1127SOL    HW115017   0.742   2.188   3.689  0.7990  0.8718 -0.6200
 1127SOL    HW215018   0.650   2.132   3.587 -2.3449  1.4456 -0.2423
 1128SOL     OW15019   1.446   2.509   4.618 -0.3808  0.2274  0.2453
 1128SOL    HW115020   1.508   2.567   4.575 -0.9320  0.8445  0.2869
 1128SOL    HW215021   1.361   2.549   4.637 -0.4056  0.2837  0.0138
 1129SOL     OW15022   1.960   2.714  14.103 -0.3540  0.0074 -0.4370
 1129SOL    HW115023   1.956   2.743  14.012 -0.3800  0.2226 -0.3680
 1129SOL    HW215024   2.026   2.645  14.109 -1.5403 -1.0726  0.1674
 1130SOL     OW15025   3.927   2.366   5.010  0.8124 -0.0169 -0.2905
 1130SOL    HW115026   4.011   2.351   5.054  0.4840 -1.1753 -0.0662
 1130SOL    HW215027   3.956   2.413   4.932  0.8933 -0.3825 -0.4805
 1131SOL     OW15028   4.539   1.781   9.639 -0.1377 -0.4738 -0.1149
 1131SOL    HW115029   4.570   1.702   9.683 -0.0394 -0.9133 -0.9763
 1131SOL    HW215030   4.617   1.834   9.657 -0.0122  0.0991 -2.2580
 1132SOL     OW15031   0.953   4.051   4.745  0.7714 -0.1360 -0.1655
 1132SOL    HW115032   0.929   3.959   4.730 -0.0425  0.2681 -1.3252
 1132SOL    HW215033   1.047   4.034   4.744  0.7228 -0.3780 -0.6275
 1133SOL     OW15034   4.160   3.566   3.263 -0.2362  0.3465  0.0392
 1133SOL    HW115035   4.176   3.611   3.180 -1.0168 -1.6956 -1.2183
 1133SOL    HW215036   4.211   3.617   3.325 -1.0519  0.6279  0.4839
 1134SOL     OW15037   1.138   3.868  10.630 -0.0172 -0.5789  0.4560
 1134SOL    HW115038   1.065   3.824  10.674 -0.1491 -0.6658  0.1454
 1134SOL    HW215039   1.110   3.870  10.539  0.8293 -0.6603  0.1969
 1135SOL     OW15040   3.348   4.589  14.927  0.6100 -0.1756 -0.0015
 1135SOL    HW115041   3.277   4.525  14.928  0.2347  0.2082 -2.0227
 1135SOL    HW215042   3.327   4.644  14.852 -2.0646 -1.0020  0.1463
 1136SOL     OW15043   3.850   3.282   9.828 -0.0045  0.3912 -0.2271
 1136SOL    HW115044   3.784   3.309   9.892  0.1574  0.5001 -0.1070
 1136SOL    HW215045   3.823   3.194   9.800 -0.9572  0.0671  1.7440
 1137SOL     OW15046   3.239   2.050  12.116  0.4716 -0.4689 -0.8089
 1137SOL    HW115047   3.216   2.084  12.203  0.3112  0.5231 -1.2366
 1137SOL    HW215048   3.244   1.957  12.134  3.0393 -0.3184 -0.7970
 1138SOL     OW15049   0.841   3.375   6.890 -0.9450 -0.2545 -0.2565
 1138SOL    HW115050   0.849   3.447   6.952 -0.8732 -1.3375  0.9802
 1138SOL    HW215051   0.922   3.384   6.840 -1.5079  0.1091 -1.1111
 1139SOL     OW15052   3.144   0.914   8.578  0.8908  0.0550 -0.0323
 1139SOL    HW115053   3.077   0.981   8.561  1.5084  0.3574 -1.2516
 1139SOL    HW215054   3.186   0.904   8.493 -0.8191  1.2365 -1.0290
 1140SOL     OW15055   2.681   2.435   3.349 -0.2983 -0.2645 -0.1068
 1140SOL    HW115056   2.632   2.464   3.426 -2.8408 -1.5428 -1.2533
 1140SOL    HW215057   2.696   2.348   3.386  1.9982  0.5930  0.9878
 1141SOL     OW15058   0.926   4.447  11.215 -0.0101  0.3795  0.3201
 1141SOL    HW115059   0.919   4.368  11.270  1.8593 -0.8287 -1.1679
 1141SOL    HW215060   0.834   4.449  11.191 -0.1623 -0.2983  0.8445
 1142SOL     OW15061   2.958   2.656   7.091 -0.2994 -0.2590 -0.0130
 1142SOL    HW115062   2.873   2.651   7.135 -0.0371 -1.2865  0.3636
 1142SOL    HW215063   3.004   2.709   7.157  1.0010 -0.4947 -0.7241
 1143SOL     OW15064   4.464   2.785   9.491 -0.5246 -0.0512 -0.5066
 1143SOL    HW115065   4.381   2.831   9.473 -0.8724 -0.2822  0.5156
 1143SOL    HW215066   4.479   2.815   9.581 -1.1009  0.1488 -0.4744
 1144SOL     OW15067   3.080   0.429   4.465 -0.1732  0.3729  0.0651
 1144SOL    HW115068   3.028   0.456   4.389 -0.1034  0.0279 -0.1088
 1144SOL    HW215069   3.086   0.334   4.450 -0.7678  0.1631  1.1499
 1145SOL     OW15070   3.233   0.017   2.744 -0.1900  0.0345 -0.5047
 1145SOL    HW115071   3.197   0.031   2.657 -1.2697 -1.0740 -0.2290
 1145SOL    HW215072   3.196   4.669   2.768  1.2343 -0.2974  0.5637
 1146SOL     OW15073   4.726   0.730   4.398  0.2154 -0.3774  0.2392
 1146SOL    HW115074   4.685   0.817   4.403  1.9224  0.4281  0.3167
 1146SOL    HW215075   0.081   0.753   4.407  0.5464 -1.0989 -1.2611
 1147SOL     OW15076   1.839   2.217   6.509 -0.1867 -0.0186  0.1429
 1147SOL    HW115077   1.761   2.176   6.548  0.5284 -2.6299 -1.1484
 1147SOL    HW215078   1.798   2.302   6.495 -0.2121 -0.0967 -0.2402
 1148SOL     OW15079   3.193   3.529   3.324  0.3869 -0.5667  0.4383
 1148SOL    HW115080   3.279   3.488   3.326  1.2240  1.2179  1.0046
 1148SOL    HW215081   3.133   3.462   3.292  1.9317 -0.1464 -3.4158
 1149SOL     OW15082   2.559   4.695   2.134 -0.3316 -0.3225 -0.0413
 1149SOL    HW115083   2.537   0.051   2.124 -1.3275 -0.5601 -0.0107
 1149SOL    HW215084   2.484   4.661   2.183 -1.0498  0.6246 -0.4812
 1150SOL     OW15085   4.575   3.641   4.429 -0.5814  0.3683 -0.0107
 1150SOL    HW115086   4.520   3.654   4.506 -0.6090 -0.9234  0.1778
 1150SOL    HW215087   4.529   3.678   4.353  0.2955  1.0215 -0.2194
 1151SOL     OW15088   4.516   0.580   2.846  0.0494  0.1416  0.1064
 1151SOL    HW115089   4.480   0.667   2.829 -2.1649 -0.6794  0.5666
 1151SOL    HW215090   4.530   0.551   2.756 -0.2308 -2.0215  0.7607
 1152SOL     OW15091   4.427   3.654   3.996 -0.3020 -0.7216 -0.2933
 1152SOL    HW115092   4.339   3.616   3.999 -1.1536  1.0902 -2.0820
 1152SOL    HW215093   4.431   3.695   4.083  1.9174 -2.2929  0.3401
 1153SOL     OW15094   0.413   1.036   2.395 -0.2117  0.1857  0.2964
 1153SOL    HW115095   0.377   1.085   2.469  1.4684 -0.9367  1.8659
 1153SOL    HW215096   0.506   1.032   2.419 -0.0604  0.0633 -0.3235
 1154SOL     OW15097   0.869   4.563   5.743  0.0612  0.2087  0.5790
 1154SOL    HW115098   0.878   4.639   5.801 -0.0450  0.4149  0.3245
 1154SOL    HW215099   0.781   4.534   5.764  0.2549 -0.1842  0.8525
 1155SOL     OW15100   0.027   0.452   7.229 -0.1404  0.1981  0.0395
 1155SOL    HW115101   0.083   0.529   7.222 -2.0151  1.3348 -2.2605
 1155SOL    HW215102   0.086   0.393   7.276 -0.7775  1.6411  2.6537
 1156SOL     OW15103   3.607   0.065   2.995  0.0989 -0.1641 -0.0263
 1156SOL    HW115104   3.609   0.157   3.021  0.7640  0.2001 -1.3752
 1156SOL    HW215105   3.582   0.023   3.077  2.3458 -0.9996  0.2364
 1157SOL     OW15106   2.554   1.812  10.375 -0.8423  0.5143 -0.0679
 1157SOL    HW115107   2.577   1.787  10.286 -2.6486 -0.4694 -0.2433
 1157SOL    HW215108   2.463   1.837  10.361 -0.6107  0.9849 -0.7445
 1158SOL     OW15109   0.222   1.409  11.069 -0.0478 -0.2822 -0.1686
 1158SOL    HW115110   0.177   1.325  11.057  1.1601 -1.2373  1.8973
 1158SOL    HW215111   0.254   1.397  11.159  1.7322 -0.1987 -0.7983
 1159SOL     OW15112   4.630   1.569  17.105  0.4427  0.3696 -0.4827
 1159SOL    HW115113   4.597   1.559  17.194  2.1090  1.9199  0.2955
 1159SOL    HW215114   4.553   1.603  17.058 -1.4180  0.1774  2.3947
 1160SOL     OW15115   4.590   1.046   7.436  0.0125  0.1447  0.1525
 1160SOL    HW115116   4.652   1.022   7.505 -1.5977 -2.4357  0.7016
 1160SOL    HW215117   4.619   1.134   7.413  1.1919  0.1153  1.4876
 1161SOL     OW15118   0.108   3.077   8.279  0.2192 -0.3307 -0.1636
 1161SOL    HW115119   0.139   3.137   8.211  1.4590  0.5825  1.2345
 1161SOL    HW215120   0.014   3.073   8.260  0.7204  0.7908 -2.9397
 1162SOL     OW15121   0.742   3.709  14.672  0.3844 -0.1185 -0.5133
 1162SOL    HW115122   0.660   3.724  14.720 -0.2132 -0.5403 -1.3956
 1162SOL    HW215123   0.747   3.785  14.615  1.1422  0.7971  0.7790
 1163SOL     OW15124   2.550   4.250   4.117  0.4901 -0.1290  0.3198
 1163SOL    HW115125   2.573   4.177   4.174 -0.7507 -1.6605 -1.1031
 1163SOL    HW215126   2.522   4.198   4.041  0.3832 -0.9124  0.8957
 1164SOL     OW15127   2.717   3.778   7.268  0.0943 -0.3647 -0.1675
 1164SOL    HW115128   2.624   3.757   7.262 -0.3143  1.4157 -0.0092
 1164SOL    HW215129   2.737   3.722   7.343 -0.8280  0.9134  1.0288
 1165SOL     OW15130   2.281   4.616   3.405 -0.2893 -0.4364 -0.1329
 1165SOL    HW115131   2.224   4.542   3.386 -0.7077  0.5646 -2.6412
 1165SOL    HW215132   2.299   4.657   3.321 -0.8908 -1.0552 -0.5570
 1166SOL     OW15133   2.472   0.158   0.493 -0.1394 -0.1230  0.0292
 1166SOL    HW115134   2.502   0.155   0.584  0.4351  2.9040 -0.0533
 1166SOL    HW215135   2.384   0.124   0.509 -0.1690 -0.1600 -0.2180
 1167SOL     OW15136   2.897   2.584   3.522  0.4814 -0.2079  0.8234
 1167SOL    HW115137   2.880   2.519   3.454  1.4168 -1.0720  1.4108
 1167SOL    HW215138   2.817   2.632   3.541  0.6856  0.1726  0.7255
 1168SOL     OW15139   1.695   2.966   7.815 -0.3516 -0.1408 -0.0703
 1168SOL    HW115140   1.745   3.033   7.768 -3.7641  1.5505 -1.3477
 1168SOL    HW215141   1.761   2.939   7.879  0.2256  0.7429 -0.2909
 1169SOL     OW15142   2.842   3.552   3.817  0.1840 -0.9234 -0.3019
 1169SOL    HW115143   2.806   3.469   3.848 -2.7787  0.4417 -0.1377
 1169SOL    HW215144   2.773   3.589   3.762  1.1295 -1.0787 -1.5892
 1170SOL     OW15145   1.895   2.157  16.151  0.4267  0.2870 -0.0804
 1170SOL    HW115146   1.964   2.114  16.100 -0.7284 -1.8944  0.1970
 1170SOL    HW215147   1.835   2.087  16.178  1.9270 -1.2053 -0.5872
 1171SOL     OW15148   0.787   1.084   3.019 -0.5106  0.2959  0.0282
 1171SOL    HW115149   0.713   1.120   2.969 -0.7483  0.5018  0.5316
 1171SOL    HW215150   0.745   1.087   3.105 -0.5197 -0.2753  0.0438
 1172SOL     OW15151   3.992   0.335   0.550  0.7170 -0.1819 -0.0873
 1172SOL    HW115152   4.058   0.355   0.484  1.7368 -0.9440  0.7197
 1172SOL    HW215153   3.935   0.407   0.522  3.7335  3.0185  2.0990
 1173SOL     OW15154   0.608   2.814   9.617 -0.4478  0.2702 -0.5194
 1173SOL    HW115155   0.701   2.803   9.600  0.0265  1.5928  1.3038
 1173SOL    HW215156   0.612   2.897   9.663  0.0251 -0.5364  0.8785
 1174SOL     OW15157   2.786   3.585  17.219 -0.3245 -0.3098  0.2352
 1174SOL    HW115158   2.761   3.673  17.247  1.5385  0.1108  0.5671
 1174SOL    HW215159   2.819   3.598  17.131  1.7971  0.3003  1.1393
 1175SOL     OW15160   3.363   3.228   6.568 -0.1114  0.3719  0.4079
 1175SOL    HW115161   3.350   3.221   6.663 -4.8176  1.6101 -0.1382
 1175SOL    HW215162   3.448   3.185   6.555 -0.7846 -0.3535 -1.5870
 1176SOL     OW15163   2.041   2.264   4.607  0.3031 -0.0164  0.2307
 1176SOL    HW115164   2.039   2.286   4.700 -0.5550  1.6886 -0.1844
 1176SOL    HW215165   2.082   2.344   4.574  0.6908  0.3314  1.5392
 1177SOL     OW15166   1.467   1.021   7.112 -0.3607  0.3116  0.4278
 1177SOL    HW115167   1.412   0.964   7.165  0.5131 -2.6419 -1.8294
 1177SOL    HW215168   1.398   1.082   7.085 -0.6431  0.5098  1.6076
 1178SOL     OW15169   3.569   4.506   7.264  0.3846  0.3799 -0.3505
 1178SOL    HW115170   3.580   4.487   7.171 -1.8377  0.8312 -0.7077
 1178SOL    HW215171   3.518   4.428   7.285 -2.8900  2.5108 -0.2769
 1179SOL     OW15172   0.499   3.062   9.233  0.1884  0.0317 -0.3487
 1179SOL    HW115173   0.450   3.144   9.236 -2.7728 -1.8048  0.8472
 1179SOL    HW215174   0.455   3.012   9.301  1.8885 -1.8077 -0.5862
 1180SOL     OW15175   3.175   1.623   8.155 -0.2197  0.1973 -0.1150
 1180SOL    HW115176   3.231   1.571   8.214 -2.8675 -1.4710  0.9224
 1180SOL    HW215177   3.096   1.571   8.169  0.1640 -0.6889 -1.3003
 1181SOL     OW15178   0.230   1.889   7.745 -0.2721  0.3589  0.7104
 1181SOL    HW115179   0.255   1.974   7.708 -1.1688 -0.3624 -1.5890
 1181SOL    HW215180   0.169   1.864   7.675 -0.0032 -1.2352  1.0480
 1182SOL     OW15181   3.887   0.277   6.263 -0.6307 -0.0242  0.5331
 1182SOL    HW115182   3.916   0.328   6.339  4.0649 -0.5989 -0.8906
 1182SOL    HW215183   3.965   0.279   6.208 -1.9145 -2.3272 -1.3333
 1183SOL     OW15184   2.307   0.192   7.289 -0.4927 -0.5153  0.3098
 1183SOL    HW115185   2.367   0.125   7.321  0.9266  0.2334 -0.8008
 1183SOL    HW215186   2.282   0.240   7.368 -1.7170 -1.3124  0.4028
 1184SOL     OW15187   4.730   4.645   3.590  0.1007 -0.1399 -0.0180
 1184SOL    HW115188   0.019   0.000   3.592  0.0991 -0.1325 -0.3445
 1184SOL    HW215189   4.653   4.648   3.534  0.6998  0.6031 -0.8005
 1185SOL     OW15190   2.636   3.201   0.353 -0.1123  0.0831  0.8210
 1185SOL    HW115191   2.622   3.184   0.260  0.1584 -1.6750  1.1116
 1185SOL    HW215192   2.580   3.278   0.369 -0.2532  0.5087 -1.7265
 1186SOL     OW15193   3.236   3.453  14.991  0.5520 -0.1713  0.6502
 1186SOL    HW115194   3.153   3.495  15.014 -0.3567  0.0739 -2.9330
 1186SOL    HW215195   3.235   3.385  15.058  2.5957  0.1450  0.9801
 1187SOL     OW15196   0.770   2.608  12.955  0.4040 -0.2793 -0.3815
 1187SOL    HW115197   0.709   2.561  13.011 -0.3601 -0.0193 -1.0046
 1187SOL    HW215198   0.728   2.691  12.933 -1.1210 -1.3175 -1.3555
 1188SOL     OW15199   3.417   4.666   7.442 -0.1010  0.0895  0.3384
 1188SOL    HW115200   3.332   4.638   7.409 -1.7186  3.4012  1.7272
 1188SOL    HW215201   3.471   4.636   7.369 -0.9594 -0.4979 -0.0586
 1189SOL     OW15202   2.294   3.565   3.142  0.4010 -0.3504 -0.3953
 1189SOL    HW115203   2.387   3.571   3.119  1.0504 -2.0801  1.8063
 1189SOL    HW215204   2.288   3.609   3.226  2.7857 -1.4210  0.3149
 1190SOL     OW15205   3.457   1.486   0.596 -0.4503  0.5830 -0.1574
 1190SOL    HW115206   3.366   1.507   0.574 -0.0135  0.4768 -2.0436
 1190SOL    HW215207   3.497   1.441   0.522  1.8976  2.0692  0.2182
 1191SOL     OW15208   2.382   0.719   8.264 -0.0793 -0.1002 -0.6106
 1191SOL    HW115209   2.319   0.684   8.201 -0.1566  0.4844 -0.8613
 1191SOL    HW215210   2.434   0.772   8.202  2.2545 -1.9539 -0.2325
 1192SOL     OW15211   0.422   0.931   4.486 -0.3945 -0.1626 -0.9511
 1192SOL    HW115212   0.464   0.934   4.572 -1.9060  0.5292 -0.2476
 1192SOL    HW215213   0.389   1.018   4.467  0.7853  0.2653 -1.0780
 1193SOL     OW15214   2.847   2.124   7.111 -0.4960 -0.7021 -0.4623
 1193SOL    HW115215   2.925   2.108   7.058 -0.8834 -3.1757 -0.2514
 1193SOL    HW215216   2.824   2.215   7.091  3.8849 -0.1837 -3.1801
 1194SOL     OW15217   3.420   0.908   3.183  0.2139  0.3679 -0.9746
 1194SOL    HW115218   3.415   1.003   3.180  1.8271  0.5019  0.9337
 1194SOL    HW215219   3.441   0.897   3.276  1.7180 -0.1759 -1.3852
 1195SOL     OW15220   1.761   2.822   2.355 -0.8030  0.3595 -0.0205
 1195SOL    HW115221   1.799   2.865   2.431 -1.8601 -0.6891  1.1059
 1195SOL    HW215222   1.709   2.894   2.319 -2.9419 -1.3996 -0.4708
 1196SOL     OW15223   3.679   4.064  13.411 -0.0403  0.4602  0.0367
 1196SOL    HW115224   3.742   4.004  13.451 -0.3770  1.7745  2.4833
 1196SOL    HW215225   3.618   4.007  13.364 -0.5822  2.3009 -1.5044
 1197SOL     OW15226   1.754   1.807   4.149  0.4238  0.3324  0.1385
 1197SOL    HW115227   1.702   1.831   4.226 -0.4057 -0.2521 -0.2360
 1197SOL    HW215228   1.836   1.798   4.197  0.2406 -1.7921  0.0779
 1198SOL     OW15229   1.548   1.213   7.920  0.7939 -0.0588 -0.3606
 1198SOL    HW115230   1.575   1.301   7.945  0.1669 -0.2642  1.0147
 1198SOL    HW215231   1.635   1.173   7.932  0.2728  0.0069  3.6596
 1199SOL     OW15232   0.877   4.186   4.522 -0.1753 -0.4819 -0.0193
 1199SOL    HW115233   0.936   4.142   4.583 -0.0490 -0.8048 -0.3748
 1199SOL    HW215234   0.925   4.156   4.445 -0.2087 -1.5180  0.3678
 1200SOL     OW15235   0.970   0.192  16.167  0.1477  0.9436 -0.2362
 1200SOL    HW115236   0.977   0.203  16.261 -0.5452 -2.8738  0.2638
 1200SOL    HW215237   0.894   0.134  16.159  1.6473 -1.1719  0.6618
 1201SOL     OW15238   3.385   0.868   6.412  0.1467  0.3258  0.1026
 1201SOL    HW115239   3.326   0.832   6.346 -0.3712  0.4085  0.5196
 1201SOL    HW215240   3.353   0.958   6.422  0.1207 -0.0093  2.9930
 1202SOL     OW15241   3.707   1.075  15.036 -0.1003 -0.2990 -0.1447
 1202SOL    HW115242   3.741   1.164  15.029 -0.9899 -0.0286 -0.9182
 1202SOL    HW215243   3.614   1.087  15.017 -0.0773  0.1560  0.0521
 1203SOL     OW15244   4.694   0.098   8.892 -0.3037 -0.5317 -0.9310
 1203SOL    HW115245   4.611   0.128   8.856 -1.5532 -2.4677  0.2978
 1203SOL    HW215246   4.676   0.025   8.952 -1.0997 -0.3037 -0.8906
 1204SOL     OW15247   3.732   0.637   7.461 -0.0226 -0.3460 -0.0930
 1204SOL    HW115248   3.750   0.617   7.369  0.1090 -2.0292  0.2864
 1204SOL    HW215249   3.781   0.569   7.508 -0.3192  0.5953  1.5724
 1205SOL     OW15250   1.946   2.637   0.022  0.1264  0.2177 -0.3308
 1205SOL    HW115251   1.857   2.640  17.734 -0.9609  2.1691  2.7879
 1205SOL    HW215252   1.991   2.665  17.687 -0.6353 -0.0915 -0.8596
 1206SOL     OW15253   0.104   3.265   4.625 -0.5966  0.8029 -0.5617
 1206SOL    HW115254   0.180   3.318   4.650 -0.0671 -0.9790  1.5963
 1206SOL    HW215255   0.108   3.264   4.530 -1.8309  1.1674 -0.6218
 1207SOL     OW15256   0.962   0.872   1.349 -0.3731  0.2440  0.0168
 1207SOL    HW115257   1.049   0.877   1.389 -0.4636 -3.3011  0.6311
 1207SOL    HW215258   0.928   0.957   1.378 -0.0229 -0.1588  1.6331
 1208SOL     OW15259   2.611   2.434   3.080  0.1098 -0.1319 -0.3019
 1208SOL    HW115260   2.543   2.501   3.084  0.0746 -0.0394 -2.3720
 1208SOL    HW215261   2.648   2.426   3.167  0.3140  1.5119 -0.2399
 1209SOL     OW15262   2.118   1.470  11.925  0.9163 -0.0476 -0.1153
 1209SOL    HW115263   2.181   1.519  11.871  0.0455  0.7026 -0.4571
 1209SOL    HW215264   2.162   1.385  11.927 -0.8075 -0.8673  1.7804
 1210SOL     OW15265   2.727   4.257  11.542  0.1483  0.6010  0.2315
 1210SOL    HW115266   2.723   4.167  11.574  0.3176  0.6677  0.4383
 1210SOL    HW215267   2.680   4.254  11.459  2.9290  0.7351 -1.3297
 1211SOL     OW15268   2.851   1.349   4.228 -0.0999  0.3355 -0.7984
 1211SOL    HW115269   2.893   1.368   4.312 -1.6757 -1.1627  0.3035
 1211SOL    HW215270   2.763   1.383   4.240  0.8042  2.8364 -1.1181
 1212SOL     OW15271   3.175   2.428   7.507 -0.5945  0.6802  0.2186
 1212SOL    HW115272   3.143   2.419   7.417  1.7613  1.5433 -0.6992
 1212SOL    HW215273   3.121   2.505   7.523  1.5432  1.7551  2.3111
 1213SOL     OW15274   2.200   1.606   4.536 -0.1311 -0.5594  0.0883
 1213SOL    HW115275   2.131   1.651   4.488 -0.0157  0.8683  1.2461
 1213SOL    HW215276   2.157   1.582   4.619  0.0393 -0.8696  0.0870
 1214SOL     OW15277   3.384   2.235   3.026  0.1574 -0.2738  0.1614
 1214SOL    HW115278   3.345   2.179   3.094  0.6402 -1.9136 -0.9103
 1214SOL    HW215279   3.419   2.169   2.967  0.7615  0.0344  0.1765
 1215SOL     OW15280   4.685   4.524   6.956 -0.0415 -0.2312 -0.2430
 1215SOL    HW115281   4.698   4.564   7.042 -0.8152  0.4591 -0.4547
 1215SOL    HW215282   0.040   4.498   6.942 -0.7362 -2.1498 -1.2696
 1216SOL     OW15283   3.207   1.530  12.681  0.0520 -0.2931 -0.4704
 1216SOL    HW115284   3.280   1.501  12.735  0.3774 -0.9917 -1.2649
 1216SOL    HW215285   3.152   1.452  12.685 -1.3417  0.6395 -1.3343
 1217SOL     OW15286   0.164   1.046   1.260 -0.0285 -0.0405 -0.3008
 1217SOL    HW115287   0.166   0.988   1.184  0.7440 -0.5928  0.1397
 1217SOL    HW215288   0.102   1.117   1.244  0.0462  0.4181  1.4529
 1218SOL     OW15289   2.109   3.307  14.642 -0.1164 -0.2160 -0.0464
 1218SOL    HW115290   2.088   3.320  14.735 -0.0390 -1.1372  0.0918
 1218SOL    HW215291   2.201   3.324  14.623 -0.3129  1.3586  0.3873
 1219SOL     OW15292   3.379   3.989   2.415  0.0199  0.1662  0.4114
 1219SOL    HW115293   3.309   3.988   2.480 -1.1933  2.1428 -0.8439
 1219SOL    HW215294   3.364   3.910   2.363  1.6470  0.7249 -0.9161
 1220SOL     OW15295   0.484   1.423  13.245  0.8122  0.1161 -0.0246
 1220SOL    HW115296   0.430   1.350  13.272  1.0355  0.7658  2.1979
 1220SOL    HW215297   0.434   1.458  13.171 -0.9201 -0.1187  1.0436
 1221SOL     OW15298   4.028   1.993   4.604  0.1398  0.3303  0.5374
 1221SOL    HW115299   4.093   2.060   4.583  1.6485 -1.2648  0.1197
 1221SOL    HW215300   3.952   2.046   4.629 -2.5559 -2.5159 -1.7191
 1222SOL     OW15301   2.483   3.082   5.789 -0.0045  0.0264  0.0084
 1222SOL    HW115302   2.423   3.096   5.862 -1.3697 -1.9208 -0.7423
 1222SOL    HW215303   2.512   2.990   5.793  1.3369  0.3982 -0.8515
 1223SOL     OW15304   0.561   0.449  15.191 -0.2528 -0.3623 -0.5932
 1223SOL    HW115305   0.528   0.472  15.277  1.1815  0.6853 -0.3173
 1223SOL    HW215306   0.533   0.525  15.141  1.5908  0.2826 -0.6480
 1224SOL     OW15307   0.465   4.627  11.446 -0.1122  0.2061  0.0317
 1224SOL    HW115308   0.468   4.568  11.371 -1.3883  2.0145 -1.4196
 1224SOL    HW215309   0.449   4.713  11.407  0.6185  0.3683  0.0826
 1225SOL     OW15310   0.986   2.866   1.852 -0.1565  0.4465  0.1309
 1225SOL    HW115311   0.973   2.931   1.921  0.0722  0.1336  0.4729
 1225SOL    HW215312   0.987   2.786   1.905  0.5983 -1.1833 -2.3329
 1226SOL     OW15313   3.143   1.904   4.887 -0.0643 -0.4113  0.5300
 1226SOL    HW115314   3.062   1.855   4.872 -2.0792  3.0756  0.0337
 1226SOL    HW215315   3.210   1.861   4.834  1.2829  0.3148  1.6340
 1227SOL     OW15316   4.007   4.294   6.751  0.1891 -0.3786 -0.0948
 1227SOL    HW115317   3.992   4.388   6.742  0.7509 -0.1048  1.7746
 1227SOL    HW215318   3.926   4.278   6.801  0.1578 -0.9493 -0.3385
 1228SOL     OW15319   2.101   2.291   8.546  0.1154 -0.2271 -0.2593
 1228SOL    HW115320   2.048   2.211   8.548  2.0349 -1.5098 -0.9534
 1228SOL    HW215321   2.129   2.293   8.637 -0.3654  0.4098 -0.1231
 1229SOL     OW15322   1.339   2.010   6.818 -0.2840 -0.2816 -0.4082
 1229SOL    HW115323   1.432   1.992   6.829  0.8103  3.9100 -2.6442
 1229SOL    HW215324   1.315   2.067   6.892 -2.0883  0.1426 -1.3389
 1230SOL     OW15325   3.983   3.668   0.368 -0.3283 -0.8934 -0.5259
 1230SOL    HW115326   4.056   3.685   0.308  1.3052  0.6537  1.9269
 1230SOL    HW215327   4.025   3.611   0.432  4.4050  1.2693 -1.7392
 1231SOL     OW15328   0.231   3.620  13.221  0.1274  0.1897 -0.1269
 1231SOL    HW115329   0.187   3.565  13.155  1.3402  1.2899 -1.8530
 1231SOL    HW215330   0.300   3.669  13.176 -0.3729 -0.0907 -1.2063
 1232SOL     OW15331   3.557   3.580  10.726  0.4314  0.2672  0.5188
 1232SOL    HW115332   3.462   3.591  10.724  0.4394  0.3443  0.5418
 1232SOL    HW215333   3.583   3.639  10.655  0.9473 -0.0435  0.4488
 1233SOL     OW15334   3.926   2.701   6.213 -0.4668 -0.1304  0.1299
 1233SOL    HW115335   3.955   2.760   6.143 -2.0233 -0.6741 -0.9827
 1233SOL    HW215336   3.868   2.643   6.164  0.5220 -0.5199 -0.6039
 1234SOL     OW15337   1.994   0.853   2.089  0.4973  0.6409  0.0076
 1234SOL    HW115338   2.006   0.934   2.039  1.8478  1.4298  1.6040
 1234SOL    HW215339   2.047   0.875   2.166 -0.6653  0.6365  0.8109
 1235SOL     OW15340   3.984   3.807   5.601  0.2589  0.5217 -0.1913
 1235SOL    HW115341   4.046   3.738   5.576  0.9951  0.7415  0.9914
 1235SOL    HW215342   3.929   3.797   5.524  0.4002 -0.8014 -0.1316
 1236SOL     OW15343   4.438   2.505   2.918  0.1546  0.3231  0.0471
 1236SOL    HW115344   4.480   2.569   2.976  3.6687  1.6081 -3.9378
 1236SOL    HW215345   4.389   2.566   2.863 -0.8385 -0.3412  0.2062
 1237SOL     OW15346   3.202   3.427   2.222 -0.3029 -0.1289 -0.1477
 1237SOL    HW115347   3.231   3.518   2.219  0.0138 -0.2734 -1.3058
 1237SOL    HW215348   3.247   3.401   2.302  1.5179 -0.6823 -1.3576
 1238SOL     OW15349   1.725   3.414   7.447  0.1517  0.1950  0.2629
 1238SOL    HW115350   1.720   3.321   7.425  4.2978 -0.1107  0.5335
 1238SOL    HW215351   1.700   3.427   7.538 -1.3486 -0.1821 -0.0943
 1239SOL     OW15352   0.936   3.863   1.272 -0.1723 -0.4847 -0.1465
 1239SOL    HW115353   0.941   3.860   1.367  1.4266  0.2365 -0.2095
 1239SOL    HW215354   0.852   3.910   1.272  0.2267  0.2309 -0.6237
 1240SOL     OW15355   0.922   0.373   4.407  0.1404 -0.2353  0.1498
 1240SOL    HW115356   0.996   0.428   4.432  0.6829 -0.6010 -0.6671
 1240SOL    HW215357   0.885   0.430   4.339  0.1782 -0.4119 -0.0190
 1241SOL     OW15358   3.724   3.739   4.598 -0.0487 -0.8760  0.0509
 1241SOL    HW115359   3.629   3.732   4.601 -0.1724  0.4078 -0.9960
 1241SOL    HW215360   3.727   3.785   4.515  0.1080  1.3067  1.2585
 1242SOL     OW15361   3.566   0.652   6.393 -0.5015 -0.2075  0.4200
 1242SOL    HW115362   3.557   0.634   6.300 -3.3636  1.1149  0.4523
 1242SOL    HW215363   3.544   0.745   6.383  1.9346  0.1922 -1.3571
 1243SOL     OW15364   0.474   1.460  12.963  0.2643  0.3000  0.4921
 1243SOL    HW115365   0.569   1.453  12.955  0.3150  2.1965 -0.4885
 1243SOL    HW215366   0.439   1.396  12.900 -0.7873  1.5865 -0.2304
 1244SOL     OW15367   3.271   4.631   8.396 -0.2399 -0.2247 -0.3063
 1244SOL    HW115368   3.345   4.613   8.338  0.4876  4.1533 -0.7274
 1244SOL    HW215369   3.313   4.664   8.476  0.0432 -2.3279  0.4288
 1245SOL     OW15370   3.846   2.182  12.707  0.1270 -0.4117 -0.2507
 1245SOL    HW115371   3.891   2.252  12.755 -1.0927  0.0580  0.2250
 1245SOL    HW215372   3.756   2.210  12.693 -0.3170 -1.4102  0.5903
 1246SOL     OW15373   0.964   0.002  17.393 -0.1221  0.4781  0.1601
 1246SOL    HW115374   0.973   0.041  17.480  0.3794  1.0027 -0.1272
 1246SOL    HW215375   0.932   0.079  17.345 -2.5028 -1.7992 -1.8857
 1247SOL     OW15376   1.314   0.660  16.549 -0.2270  0.2594 -0.3238
 1247SOL    HW115377   1.408   0.647  16.536 -0.5045 -0.9527 -1.1646
 1247SOL    HW215378   1.312   0.745  16.506 -1.7051  0.6148  0.4406
 1248SOL     OW15379   4.648   4.667   0.380 -0.4345 -0.4168  0.3619
 1248SOL    HW115380   4.726   4.657   0.434 -0.6892 -0.7729  0.6704
 1248SOL    HW215381   4.693   4.631   0.304 -0.2382  1.8466 -0.5617
 1249SOL     OW15382   3.211   4.513   7.730 -0.3101  0.2969 -0.0713
 1249SOL    HW115383   3.224   4.448   7.661  1.7247  0.1694  0.4180
 1249SOL    HW215384   3.290   4.567   7.720 -1.0900  1.2437 -1.1408
 1250SOL     OW15385   1.424   2.354   3.654  0.7201  0.7526  0.6338
 1250SOL    HW115386   1.426   2.263   3.624  1.5950  1.3917 -1.1849
 1250SOL    HW215387   1.477   2.345   3.734  1.7410 -0.0294 -0.1385
 1251SOL     OW15388   1.764   3.480   1.666 -0.0765  0.6145  0.1248
 1251SOL    HW115389   1.710   3.438   1.598  0.5781 -1.7661  1.0778
 1251SOL    HW215390   1.822   3.405   1.682 -0.4577  0.1193 -0.7395
 1252SOL     OW15391   3.953   1.977   7.270  0.1655 -0.3036  0.2542
 1252SOL    HW115392   4.021   1.979   7.337 -0.5666  1.1665  0.9665
 1252SOL    HW215393   3.921   2.068   7.274 -0.0091 -0.3215 -0.8252
 1253SOL     OW15394   0.409   3.718   1.526 -0.0790  0.1416  0.3145
 1253SOL    HW115395   0.490   3.736   1.479  0.2529 -0.0582  0.8112
 1253SOL    HW215396   0.409   3.793   1.584  2.1308  1.2653 -1.1604
 1254SOL     OW15397   2.303   0.586   4.758  0.4566  0.0758  0.2135
 1254SOL    HW115398   2.391   0.551   4.745  0.5858  0.7700 -0.7164
 1254SOL    HW215399   2.284   0.634   4.678  0.4618  0.3224  0.3613
 1255SOL     OW15400   4.545   2.654  16.249 -0.1373  0.1138  0.6676
 1255SOL    HW115401   4.640   2.658  16.246 -0.2934  3.0889 -0.3911
 1255SOL    HW215402   4.536   2.660  16.154 -0.0968  0.0050  0.6575
 1256SOL     OW15403   2.838   2.119  10.646  0.3440 -0.3120 -0.4890
 1256SOL    HW115404   2.869   2.064  10.718 -0.4262 -2.0332 -1.4474
 1256SOL    HW215405   2.914   2.134  10.589 -0.5709  3.3893 -0.7051
 1257SOL     OW15406   3.643   3.805   1.492 -0.6007 -0.9526  1.1617
 1257SOL    HW115407   3.571   3.821   1.431  0.9992 -2.1380 -1.0632
 1257SOL    HW215408   3.608   3.860   1.562 -0.7581  0.4620 -0.0155
 1258SOL     OW15409   4.313   3.207  14.419 -0.1298  0.0258 -0.5457
 1258SOL    HW115410   4.397   3.236  14.454  0.1285 -0.8754 -0.4179
 1258SOL    HW215411   4.263   3.197  14.500 -0.2916 -1.0776 -0.7745
 1259SOL     OW15412   3.002   4.565   2.136  0.4993 -0.4767 -0.2395
 1259SOL    HW115413   2.939   4.629   2.169  0.2678  0.0235 -1.6341
 1259SOL    HW215414   3.060   4.634   2.102 -0.6414  0.5975  0.0124
 1260SOL     OW15415   0.274   4.172   8.895  0.0121  0.8538 -0.1297
 1260SOL    HW115416   0.220   4.184   8.818 -0.3772  1.9023  0.3097
 1260SOL    HW215417   0.348   4.227   8.867 -0.5981  0.9301 -1.5780
 1261SOL     OW15418   3.963   1.589  14.618  0.3225 -0.2712  0.4179
 1261SOL    HW115419   4.037   1.624  14.667  1.3541  1.6658 -2.5794
 1261SOL    HW215420   3.905   1.545  14.680  0.0607  0.9854  1.0695
 1262SOL     OW15421   0.623   4.664  14.720  0.2964  0.4316 -0.0153
 1262SOL    HW115422   0.694   4.683  14.781  0.5772  0.5424 -0.3766
 1262SOL    HW215423   0.660   4.699  14.639  1.7108  1.0593  0.9090
 1263SOL     OW15424   3.808   3.280  12.670 -0.3054  0.1826 -0.0025
 1263SOL    HW115425   3.733   3.333  12.643 -0.2588  1.2057  1.8585
 1263SOL    HW215426   3.826   3.322  12.754 -0.6026 -1.6152  0.9700
 1264SOL     OW15427   2.406   0.872   1.345 -0.4987  0.0706 -0.5508
 1264SOL    HW115428   2.395   0.841   1.255 -0.1917  1.5883 -1.1250
 1264SOL    HW215429   2.499   0.851   1.350 -0.8217 -0.1718  4.2007
 1265SOL     OW15430   0.642   1.349   5.796  0.0502  0.3015  0.2738
 1265SOL    HW115431   0.604   1.410   5.859  0.8453  0.6630  0.4054
 1265SOL    HW215432   0.614   1.393   5.715 -0.0873 -2.0422 -0.9498
 1266SOL     OW15433   2.683   4.423  16.748 -0.0095 -0.1099 -0.1408
 1266SOL    HW115434   2.771   4.424  16.711 -1.2053  3.0543 -2.9055
 1266SOL    HW215435   2.689   4.382  16.834 -1.4784 -0.4456 -0.1940
 1267SOL     OW15436   0.097   2.582  16.309 -0.6553 -0.1089  0.2287
 1267SOL    HW115437   0.108   2.639  16.234  2.7213 -2.1593 -0.8327
 1267SOL    HW215438   0.138   2.506  16.268 -1.8007 -0.4802 -0.2154
 1268SOL     OW15439   3.108   4.352   1.983 -0.1408 -0.0248  0.0417
 1268SOL    HW115440   3.076   4.383   1.899  1.5951 -1.6184 -1.2199
 1268SOL    HW215441   3.052   4.403   2.042 -0.1227 -1.3108  1.1745
 1269SOL     OW15442   2.015   2.830   0.875 -0.7470 -0.1826  0.2747
 1269SOL    HW115443   2.040   2.838   0.967  0.7725 -0.8247 -0.0882
 1269SOL    HW215444   1.997   2.921   0.852  0.5134  0.3531  1.4250
 1270SOL     OW15445   4.644   1.227   6.332  0.5279  0.1607  0.2029
 1270SOL    HW115446   4.691   1.302   6.368  3.1078  0.1453 -3.1639
 1270SOL    HW215447   4.630   1.177   6.412 -2.8836  1.1449  0.2199
 1271SOL     OW15448   3.180   1.749   3.844 -0.0139  0.3427  0.0611
 1271SOL    HW115449   3.265   1.744   3.801 -0.7725 -0.1693 -1.3908
 1271SOL    HW215450   3.154   1.837   3.816  1.6901  0.0725 -2.4309
 1272SOL     OW15451   2.886   1.607   3.599  0.4132  0.1056 -0.2661
 1272SOL    HW115452   2.924   1.693   3.618 -0.7051 -0.0445  2.7701
 1272SOL    HW215453   2.807   1.627   3.549 -0.0997 -0.0043  0.5007
 1273SOL     OW15454   0.782   2.939   8.182 -0.4704 -0.5510 -0.1915
 1273SOL    HW115455   0.708   2.930   8.243  0.4795 -0.0218  1.0419
 1273SOL    HW215456   0.804   3.030   8.204  0.0933 -0.2578 -1.9940
 1274SOL     OW15457   2.510   0.751   5.363 -0.4650  0.1230  0.4996
 1274SOL    HW115458   2.446   0.721   5.299  0.2758  0.4848 -0.4244
 1274SOL    HW215459   2.461   0.820   5.408 -0.7538  1.7407 -2.2800
 1275SOL     OW15460   0.786   4.642   2.485  0.7215 -0.2591  0.2483
 1275SOL    HW115461   0.855   4.708   2.497  1.3868 -0.8883 -0.0858
 1275SOL    HW215462   0.754   4.677   2.402  0.6347  1.1203  0.8745
 1276SOL     OW15463   3.225   2.925   4.628 -0.4807  0.4900 -0.5050
 1276SOL    HW115464   3.161   2.991   4.652 -0.6416  0.4636 -0.8679
 1276SOL    HW215465   3.245   2.877   4.708 -0.1317  0.0748 -0.8366
 1277SOL     OW15466   1.582   3.280   0.389  0.0782  0.0408  0.2012
 1277SOL    HW115467   1.523   3.300   0.317 -0.0050 -0.4196  0.1464
 1277SOL    HW215468   1.522   3.287   0.463 -0.1413 -1.0030  0.1183
 1278SOL     OW15469   2.926   3.693  13.998 -0.6038 -0.2326 -0.2140
 1278SOL    HW115470   3.017   3.722  14.005 -0.4958 -1.0458  2.0361
 1278SOL    HW215471   2.883   3.766  14.042 -0.2116 -1.0559  1.5643
 1279SOL     OW15472   2.053   1.235   7.455 -0.2297 -0.4283  0.4882
 1279SOL    HW115473   2.041   1.252   7.362  2.0976 -0.7368  0.1470
 1279SOL    HW215474   1.977   1.286   7.484  1.0583  1.4174  0.5942
 1280SOL     OW15475   2.753   0.880   0.981 -0.8107  0.2403  0.1983
 1280SOL    HW115476   2.715   0.793   0.994  1.1646 -0.4132  1.6144
 1280SOL    HW215477   2.781   0.910   1.068 -0.5899  0.9664 -0.1288
 1281SOL     OW15478   2.162   1.143   2.253 -0.3323  0.1657  0.9535
 1281SOL    HW115479   2.174   1.052   2.277  0.2814 -0.3285 -1.3057
 1281SOL    HW215480   2.226   1.184   2.311 -0.5979 -0.7814  1.9032
 1282SOL     OW15481   3.262   2.698   7.468  0.3480  0.3100  0.3997
 1282SOL    HW115482   3.251   2.603   7.460 -1.3356  0.3310  2.4326
 1282SOL    HW215483   3.273   2.712   7.374  0.0566 -0.4047  0.2585
 1283SOL     OW15484   0.176   3.505   4.390  0.6727 -0.4384  0.1210
 1283SOL    HW115485   0.188   3.573   4.324 -1.9390  0.5015  0.6324
 1283SOL    HW215486   0.148   3.556   4.466 -2.9326 -1.2406 -0.6498
 1284SOL     OW15487   2.165   3.045   1.555  0.1001 -0.6786  0.1788
 1284SOL    HW115488   2.180   3.140   1.564  2.0400 -0.9788  0.0469
 1284SOL    HW215489   2.158   3.027   1.461 -1.8255  0.2996  0.1325
 1285SOL     OW15490   2.326   3.336   0.070  0.4839 -0.3752  0.1130
 1285SOL    HW115491   2.286   3.398   0.009  1.5691  0.8410  0.6417
 1285SOL    HW215492   2.287   3.359   0.155  0.5596  2.5301 -0.6370
 1286SOL     OW15493   3.115   2.433   8.656  0.1432  0.3989 -1.1690
 1286SOL    HW115494   3.099   2.524   8.629  0.4773  0.4106 -1.3295
 1286SOL    HW215495   3.209   2.437   8.675  0.5886  1.0920 -3.4660
 1287SOL     OW15496   4.476   1.202   8.440  0.4125  0.1129  0.5761
 1287SOL    HW115497   4.518   1.288   8.442 -0.5636  0.5074  3.9691
 1287SOL    HW215498   4.410   1.222   8.506 -2.0667  1.3378 -2.2759
 1288SOL     OW15499   1.778   3.231  12.684 -0.0764  0.3049 -1.0066
 1288SOL    HW115500   1.753   3.148  12.722 -0.7012  0.4529 -1.0934
 1288SOL    HW215501   1.834   3.266  12.753  0.3934 -0.2027 -1.1324
 1289SOL     OW15502   0.402   1.352   1.934 -0.4562  0.5015  0.2056
 1289SOL    HW115503   0.355   1.408   1.872  1.0518 -0.2417 -1.5885
 1289SOL    HW215504   0.459   1.302   1.875  0.3417  1.1799  0.4046
 1290SOL     OW15505   4.384   2.867   5.118 -0.2869 -0.0360  0.1205
 1290SOL    HW115506   4.411   2.803   5.052 -1.3252 -1.3897  1.0065
 1290SOL    HW215507   4.373   2.812   5.196  0.5466  0.9759  0.9530
 1291SOL     OW15508   2.253   1.856   6.856  0.4194 -0.1408 -0.6096
 1291SOL    HW115509   2.162   1.867   6.829  0.7276  0.5482 -1.3739
 1291SOL    HW215510   2.244   1.848   6.951  0.2379 -0.8536 -0.6871
 1292SOL     OW15511   0.618   1.306  12.046  0.3540 -0.0096  1.1261
 1292SOL    HW115512   0.568   1.340  12.121  0.8067 -0.3641  1.5892
 1292SOL    HW215513   0.692   1.258  12.085 -1.0631 -0.9400  2.6827
 1293SOL     OW15514   2.009   0.563   7.504  0.9098  0.4360 -0.0287
 1293SOL    HW115515   2.025   0.600   7.418  1.3699  1.1200  0.3510
 1293SOL    HW215516   2.056   0.625   7.560  0.1578 -0.3740  1.5275
 1294SOL     OW15517   4.267   3.443   2.627  0.0616  0.2115  0.4780
 1294SOL    HW115518   4.353   3.437   2.586  0.5124  0.9788  1.2998
 1294SOL    HW215519   4.227   3.359   2.607  0.3896  0.1744 -0.0128
 1295SOL     OW15520   4.447   2.915   3.543  0.0463  0.1221 -0.2066
 1295SOL    HW115521   4.515   2.965   3.589 -1.5452  1.5427  0.5766
 1295SOL    HW215522   4.372   2.974   3.546  0.3275  0.4779 -0.1034
 1296SOL     OW15523   3.707   4.104   7.735  0.0151 -0.0982  0.1913
 1296SOL    HW115524   3.678   4.117   7.645 -1.6054 -1.1551  0.5589
 1296SOL    HW215525   3.624   4.123   7.779  1.0746  0.8631  1.7617
 1297SOL     OW15526   1.391   4.430  14.578 -0.1225  0.0238  0.8749
 1297SOL    HW115527   1.391   4.505  14.519 -2.3767 -1.1301 -0.5851
 1297SOL    HW215528   1.335   4.462  14.649  0.1632  0.8225  0.7461
 1298SOL     OW15529   1.686   3.689   2.050 -0.5382  0.0383  0.0572
 1298SOL    HW115530   1.743   3.723   1.981 -0.9877 -0.9381 -0.7950
 1298SOL    HW215531   1.617   3.651   1.996 -0.4200  0.5560 -0.4598
 1299SOL     OW15532   4.481   3.747  11.345  0.5673  0.2016  0.0567
 1299SOL    HW115533   4.471   3.675  11.283  0.0848 -0.8321  1.3471
 1299SOL    HW215534   4.571   3.773  11.322  1.8560 -3.9772  0.2857
 1300SOL     OW15535   2.009   0.703   7.260 -0.2150 -0.7996  0.1102
 1300SOL    HW115536   1.984   0.716   7.168  1.2484  0.2848 -0.1403
 1300SOL    HW215537   2.082   0.762   7.278 -0.0727 -1.9278  3.2377
 1301SOL     OW15538   3.491   4.180   7.870  0.0560  0.5146 -0.3107
 1301SOL    HW115539   3.401   4.154   7.893  1.2006 -0.3134  3.2271
 1301SOL    HW215540   3.507   4.254   7.929  0.9196  0.6838 -0.7606
 1302SOL     OW15541   0.613   4.238  13.587  0.3969 -0.1380  0.3631
 1302SOL    HW115542   0.640   4.186  13.662  0.6468  0.3384  0.6086
 1302SOL    HW215543   0.587   4.319  13.632  1.1476 -0.8325  2.0319
 1303SOL     OW15544   3.480   4.495   1.655 -0.1557 -0.5980 -0.2204
 1303SOL    HW115545   3.446   4.576   1.692  2.3819 -0.1526  1.1034
 1303SOL    HW215546   3.552   4.535   1.606 -1.2311  0.2970 -1.0842
 1304SOL     OW15547   0.452   1.736   7.146  0.2614 -0.3311 -0.3279
 1304SOL    HW115548   0.536   1.755   7.104  0.0376  1.3052 -0.0289
 1304SOL    HW215549   0.469   1.766   7.235 -1.1575 -1.5578  0.3526
 1305SOL     OW15550   0.099   0.545   3.534 -0.3660 -0.6980 -0.0269
 1305SOL    HW115551   0.174   0.503   3.575  1.0963  1.8977 -0.0078
 1305SOL    HW215552   0.028   0.482   3.548  0.2483 -1.5358 -0.6528
 1306SOL     OW15553   3.150   2.088   8.914 -0.1716  0.0539 -0.3329
 1306SOL    HW115554   3.174   2.070   8.823 -1.5641 -0.3282 -0.6153
 1306SOL    HW215555   3.099   2.168   8.903  0.0149  0.3983  1.2058
 1307SOL     OW15556   2.937   0.992   4.101  0.1006  0.2258 -1.0204
 1307SOL    HW115557   2.852   1.021   4.069 -1.1785 -0.4737  1.7262
 1307SOL    HW215558   2.919   1.013   4.193  0.7093 -0.1184 -0.8210
 1308SOL     OW15559   2.841   3.997  14.862  0.2777  0.5323  0.2025
 1308SOL    HW115560   2.866   3.973  14.773 -1.3396  0.7470 -0.3031
 1308SOL    HW215561   2.753   3.960  14.864  1.1105 -1.4661  0.2735
 1309SOL     OW15562   3.235   4.320   4.495  0.3262  0.1920  0.1927
 1309SOL    HW115563   3.186   4.318   4.577 -1.2378 -3.1781 -0.8355
 1309SOL    HW215564   3.290   4.399   4.496 -1.8893  1.7752 -2.2871
 1310SOL     OW15565   3.861   4.402   8.468  0.3852 -0.4909 -0.3236
 1310SOL    HW115566   3.879   4.313   8.436 -2.5956 -1.5999  1.0900
 1310SOL    HW215567   3.851   4.381   8.561  0.3541 -0.2494 -0.2725
 1311SOL     OW15568   2.047   2.111   3.973  0.1088  0.3762 -0.2690
 1311SOL    HW115569   2.132   2.106   3.929 -0.0872 -2.5143 -0.2776
 1311SOL    HW215570   1.990   2.092   3.898 -0.0453  0.2942 -0.1302
 1312SOL     OW15571   0.277   3.867   4.852  0.1953  0.0913  0.4800
 1312SOL    HW115572   0.322   3.890   4.934  0.7693 -1.3205  0.5699
 1312SOL    HW215573   0.190   3.841   4.880 -0.4405  2.8605  1.0282
 1313SOL     OW15574   0.526   2.272  12.651 -0.5818 -0.1486  0.2229
 1313SOL    HW115575   0.431   2.284  12.653 -0.8880 -2.1811 -1.6094
 1313SOL    HW215576   0.538   2.234  12.564 -0.8891  1.5182 -0.5328
 1314SOL     OW15577   2.343   4.633  16.521  0.3077  0.1000 -0.3487
 1314SOL    HW115578   2.432   4.614  16.491  0.1439  1.1819 -1.4853
 1314SOL    HW215579   2.314   4.704  16.465  1.1011 -2.0337 -3.4518
 1315SOL     OW15580   3.391   2.379   4.933 -0.1071  0.3359  0.7381
 1315SOL    HW115581   3.347   2.382   5.018  1.7531  0.2646  1.6822
 1315SOL    HW215582   3.354   2.296   4.900 -0.4711  0.1912  1.5085
 1316SOL     OW15583   2.096   2.000   2.164 -0.5441 -0.5675 -0.3864
 1316SOL    HW115584   2.163   1.936   2.139  2.0610  0.9973  2.4984
 1316SOL    HW215585   2.132   2.027   2.249  0.8448  1.2213 -1.5203
 1317SOL     OW15586   3.147   2.587   0.146  0.2042 -0.2288  0.2226
 1317SOL    HW115587   3.161   2.529   0.072  1.2512 -1.0111  1.0282
 1317SOL    HW215588   3.075   2.541   0.187 -0.9565  1.7298  0.4036
 1318SOL     OW15589   0.549   0.195   3.442  0.0523  0.2917  0.1315
 1318SOL    HW115590   0.577   0.232   3.526  2.3038  1.1374 -0.9946
 1318SOL    HW215591   0.461   0.163   3.463  1.3028 -0.9465  3.4717
 1319SOL     OW15592   0.086   3.088   2.267 -0.5509 -0.3452  0.5223
 1319SOL    HW115593   0.049   3.096   2.355 -0.8377  0.9860  0.2838
 1319SOL    HW215594   0.007   3.093   2.214  0.4196  2.5641 -0.6225
 1320SOL     OW15595   1.098   0.468  13.284 -0.3606 -0.1470  0.1995
 1320SOL    HW115596   1.058   0.444  13.368 -0.0560 -1.2284  0.0405
 1320SOL    HW215597   1.173   0.519  13.316 -0.3942 -0.2682  0.4783
 1321SOL     OW15598   0.380   2.279   2.340 -0.8205 -0.2184  0.1399
 1321SOL    HW115599   0.317   2.347   2.365  1.5709  1.6210  1.0796
 1321SOL    HW215600   0.362   2.215   2.408 -0.1257  1.4648  1.9119
 1322SOL     OW15601   0.949   1.195   4.264 -0.1241 -0.2775 -0.1608
 1322SOL    HW115602   1.015   1.152   4.318  0.1795 -0.6691 -0.8420
 1322SOL    HW215603   0.871   1.192   4.319  0.8354  1.7485  1.2884
 1323SOL     OW15604   3.883   3.264   1.188 -0.3990 -0.0868 -0.2157
 1323SOL    HW115605   3.853   3.279   1.277  2.6154 -2.6414  1.2298
 1323SOL    HW215606   3.849   3.176   1.173 -2.1385  0.1769  2.2235
 1324SOL     OW15607   3.444   4.286   0.867  0.4410  0.1789 -0.3868
 1324SOL    HW115608   3.394   4.358   0.828  0.1965 -1.1372 -2.5234
 1324SOL    HW215609   3.432   4.212   0.807 -0.2947  0.4915 -0.6304
 1325SOL     OW15610   0.071   3.653  11.199 -0.1248  1.0190  0.2148
 1325SOL    HW115611   0.166   3.637  11.197 -0.1188  1.1377 -0.5591
 1325SOL    HW215612   0.049   3.682  11.288 -0.5719  0.1775  0.3730
 1326SOL     OW15613   1.354   3.309  10.930  0.6140 -0.2717 -0.5567
 1326SOL    HW115614   1.377   3.376  10.865  1.5503  0.5080  0.5809
 1326SOL    HW215615   1.336   3.365  11.006 -1.5244  1.8983 -2.6440
 1327SOL     OW15616   2.173   0.960   4.476  0.2188 -0.8590 -0.2901
 1327SOL    HW115617   2.078   0.950   4.472  0.1964 -0.4149 -0.8424
 1327SOL    HW215618   2.181   0.995   4.387  2.0793 -2.6228 -0.8332
 1328SOL     OW15619   2.034   2.080   9.949 -0.3452  0.5561 -0.1569
 1328SOL    HW115620   2.123   2.109   9.929 -0.5117  0.7394 -0.6327
 1328SOL    HW215621   1.979   2.133   9.891 -0.4766 -0.9960 -1.4207
 1329SOL     OW15622   1.699   1.284  16.950  0.1478  0.7135 -0.1744
 1329SOL    HW115623   1.653   1.312  17.029  0.5234  0.4749  0.1280
 1329SOL    HW215624   1.783   1.252  16.982  0.5975  1.2376 -0.8168
 1330SOL     OW15625   2.320   2.954   1.912  0.4137  0.2585  0.0928
 1330SOL    HW115626   2.277   3.029   1.871  1.4093  2.0315  2.3106
 1330SOL    HW215627   2.393   2.990   1.963  0.9458  1.7860 -1.7201
 1331SOL     OW15628   2.246   0.216   6.362 -0.3682 -0.3892  0.1091
 1331SOL    HW115629   2.204   0.199   6.278 -0.3281 -0.5336  0.1177
 1331SOL    HW215630   2.338   0.223   6.340 -0.5374  1.7492  0.1150
 1332SOL     OW15631   3.608   2.969  11.877 -0.4899 -0.0488 -0.1377
 1332SOL    HW115632   3.570   2.930  11.956 -1.2916 -0.1951 -0.5895
 1332SOL    HW215633   3.543   3.033  11.850  1.4572  1.3302 -1.5483
 1333SOL     OW15634   1.700   4.315   0.945 -0.0904 -0.8488 -0.2544
 1333SOL    HW115635   1.655   4.244   0.899 -1.9418  0.4782 -0.4887
 1333SOL    HW215636   1.777   4.267   0.974  1.9808  2.3383 -0.4985
 1334SOL     OW15637   2.018   3.099   3.451 -0.3308 -0.5564  0.1405
 1334SOL    HW115638   1.958   3.025   3.458 -2.4744  1.1646  0.1587
 1334SOL    HW215639   1.955   3.166   3.479 -1.3472 -2.6587  2.9527
 1335SOL     OW15640   2.552   3.431   5.733  0.0649 -0.3103  0.2353
 1335SOL    HW115641   2.569   3.381   5.813  0.9912  0.5098  0.5501
 1335SOL    HW215642   2.577   3.521   5.750 -2.0683  0.2294  0.4260
 1336SOL     OW15643   0.517   1.776   8.597 -0.3329  0.4988 -0.1788
 1336SOL    HW115644   0.494   1.698   8.648  3.0581 -0.7709 -0.5959
 1336SOL    HW215645   0.570   1.740   8.526 -0.7991 -0.9144  0.1851
 1337SOL     OW15646   3.062   2.280   8.395  0.5220  0.5356  0.4137
 1337SOL    HW115647   3.156   2.271   8.416  0.8222  0.4531 -0.9740
 1337SOL    HW215648   3.030   2.301   8.482 -1.1612 -1.3560  0.2639
 1338SOL     OW15649   0.209   2.823   6.185  0.1311 -0.3955 -0.3938
 1338SOL    HW115650   0.267   2.794   6.115  0.3189  0.6327 -0.6721
 1338SOL    HW215651   0.256   2.895   6.226 -0.8412  0.0990 -0.1473
 1339SOL     OW15652   0.902   4.609  11.591 -0.1061  0.4683  0.0144
 1339SOL    HW115653   0.987   4.650  11.576 -0.0305 -0.1258 -1.2222
 1339SOL    HW215654   0.857   4.660  11.524  1.5215  1.4968 -0.2840
 1340SOL     OW15655   3.785   2.739   5.088  0.2622  0.1481 -0.4722
 1340SOL    HW115656   3.807   2.762   4.998  0.7465  2.6993  0.3119
 1340SOL    HW215657   3.872   2.731   5.127 -0.1171 -0.8106  0.1839
 1341SOL     OW15658   0.908   1.027  16.611  0.3226  0.7203  0.1390
 1341SOL    HW115659   0.921   1.024  16.706  1.4005  2.8861  0.0649
 1341SOL    HW215660   0.934   1.117  16.591 -0.3676  0.6924 -0.8964
 1342SOL     OW15661   2.871   4.419   3.265  0.1821 -0.0035 -0.1581
 1342SOL    HW115662   2.911   4.443   3.182 -0.1936  0.8221 -0.1028
 1342SOL    HW215663   2.931   4.349   3.292 -0.2505 -0.7194 -1.0537
 1343SOL     OW15664   3.822   3.744   1.274  0.1628 -0.2736  0.2207
 1343SOL    HW115665   3.790   3.764   1.362  2.1262 -0.4027  0.9815
 1343SOL    HW215666   3.789   3.656   1.257 -0.1311 -0.6269  2.4975
 1344SOL     OW15667   2.006   0.342   8.620 -0.0988 -0.3008 -0.7687
 1344SOL    HW115668   1.925   0.335   8.670  0.5627  0.7559  0.4512
 1344SOL    HW215669   1.966   0.323   8.535  1.4709  0.0572 -1.5908
 1345SOL     OW15670   3.065   2.629   1.440  0.3357 -0.1273  0.0129
 1345SOL    HW115671   3.053   2.696   1.507 -2.8657  0.4379 -1.1349
 1345SOL    HW215672   3.134   2.677   1.395 -0.9120 -0.2295 -1.9696
 1346SOL     OW15673   3.111   0.347  15.593 -0.3870  0.1758  0.0083
 1346SOL    HW115674   3.178   0.412  15.575  0.7310 -1.1005 -0.4439
 1346SOL    HW215675   3.025   0.384  15.614 -0.6678  0.2239 -1.2290
 1347SOL     OW15676   3.815   2.153  10.145  0.7717 -0.0087  0.4158
 1347SOL    HW115677   3.764   2.126  10.069  0.1947  1.1440  0.3924
 1347SOL    HW215678   3.770   2.112  10.219 -1.1140 -0.8186 -1.1700
 1348SOL     OW15679   2.990   2.688   8.605  0.1763 -0.1935 -0.0255
 1348SOL    HW115680   2.999   2.746   8.530 -2.0625  0.4945  0.2373
 1348SOL    HW215681   2.896   2.690   8.623  0.3086  0.2590  0.5918
 1349SOL     OW15682   3.642   3.022   3.842 -0.1030 -0.8679 -0.5160
 1349SOL    HW115683   3.674   3.105   3.808  3.8922 -1.5414  1.5505
 1349SOL    HW215684   3.610   3.053   3.926  5.1114 -1.4623  1.6991
 1350SOL     OW15685   1.116   2.791  11.856 -0.2911 -0.1927  0.3854
 1350SOL    HW115686   1.046   2.742  11.899 -0.9917  0.2772 -0.2208
 1350SOL    HW215687   1.182   2.722  11.860  0.9741  1.0577  1.0633
 1351SOL     OW15688   2.723   0.916   6.661  0.6323  0.1168  0.3336
 1351SOL    HW115689   2.766   0.831   6.655  0.7227  0.2920 -1.3411
 1351SOL    HW215690   2.631   0.889   6.657  1.0565 -0.9132 -2.3593
 1352SOL     OW15691   3.582   1.298  10.916  0.3394  0.8595  0.1596
 1352SOL    HW115692   3.645   1.253  10.972 -0.6261 -0.3415  0.2816
 1352SOL    HW215693   3.515   1.331  10.976  0.5669 -0.9471  1.4194
 1353SOL     OW15694   3.852   1.044   8.286 -0.3337 -0.8202  0.6576
 1353SOL    HW115695   3.948   1.043   8.284 -0.2762 -0.9420  2.9004
 1353SOL    HW215696   3.838   0.953   8.263 -1.6062 -0.0310 -1.6806
 1354SOL     OW15697   0.596   4.142   8.761 -0.4918  0.0814 -0.1859
 1354SOL    HW115698   0.643   4.059   8.752  0.1592  0.4044  0.2253
 1354SOL    HW215699   0.635   4.183   8.684  0.6233  0.5914  0.6431
 1355SOL     OW15700   3.923   2.849   6.423  0.3300  0.1622 -0.3246
 1355SOL    HW115701   3.939   2.780   6.359  2.2652  0.9404 -0.6901
 1355SOL    HW215702   3.875   2.803   6.492 -1.1834 -1.6704 -2.6013
 1356SOL     OW15703   4.360   3.144   2.779 -0.2696  0.0641 -0.1576
 1356SOL    HW115704   4.265   3.139   2.776 -0.2718 -0.8424  1.2581
 1356SOL    HW215705   4.377   3.147   2.873 -1.8919  2.4234  0.0605
 1357SOL     OW15706   2.843   3.142   5.803 -0.4489  0.6572  0.2124
 1357SOL    HW115707   2.930   3.135   5.842  0.6147 -0.2887 -2.3398
 1357SOL    HW215708   2.864   3.209   5.738 -0.6713  1.6435  1.1434
 1358SOL     OW15709   4.093   2.432   7.728  0.0993 -0.2567  0.5459
 1358SOL    HW115710   4.161   2.484   7.771 -0.8954  2.4789 -1.1766
 1358SOL    HW215711   4.096   2.350   7.778  0.7157 -0.6376 -0.1044
 1359SOL     OW15712   3.952   2.150  12.414 -0.6529 -0.4889  0.5715
 1359SOL    HW115713   4.040   2.121  12.440 -0.6920  1.2050  2.5890
 1359SOL    HW215714   3.914   2.183  12.496 -1.1062  1.6385 -0.4834
 1360SOL     OW15715   1.412   0.233   4.119 -0.1880  0.6549  0.5174
 1360SOL    HW115716   1.328   0.186   4.117  0.3525 -0.2200 -2.7711
 1360SOL    HW215717   1.398   0.291   4.044 -1.2574  2.5582  2.2153
 1361SOL     OW15718   3.777   1.141   7.608  0.1436 -0.4692 -0.1966
 1361SOL    HW115719   3.758   1.129   7.515  0.0323 -1.6863 -0.0149
 1361SOL    HW215720   3.807   1.054   7.633 -1.9707 -1.0640  0.2266
 1362SOL     OW15721   0.728   1.824   9.372  0.7218 -0.8236  0.3204
 1362SOL    HW115722   0.706   1.783   9.455 -0.2758 -0.9769 -0.0123
 1362SOL    HW215723   0.666   1.773   9.320  0.1481  0.0651  0.1344
 1363SOL     OW15724   3.239   4.711  10.817  0.0470 -0.1552  1.1364
 1363SOL    HW115725   3.327   0.007  10.800 -0.9318  1.2782 -1.2989
 1363SOL    HW215726   3.246   4.648  10.889 -1.1105 -1.0646  0.4615
 1364SOL     OW15727   3.150   1.011   8.872 -0.4029  0.7826  0.1186
 1364SOL    HW115728   3.071   1.017   8.818 -1.6040 -1.4289  1.6028
 1364SOL    HW215729   3.110   0.986   8.956 -1.1454  0.1478 -0.4141
 1365SOL     OW15730   0.384   0.750   0.587 -0.7097 -0.3240  0.4758
 1365SOL    HW115731   0.429   0.755   0.503 -0.5551 -0.8637  0.5233
 1365SOL    HW215732   0.397   0.662   0.624 -1.2817 -0.5913  0.0447
 1366SOL     OW15733   2.655   0.429   5.143 -0.4831  0.3100 -0.5532
 1366SOL    HW115734   2.617   0.506   5.099 -0.0604  0.7807 -0.0863
 1366SOL    HW215735   2.700   0.399   5.064  1.3146 -1.7371  1.2657
 1367SOL     OW15736   3.278   3.478   8.004 -0.3276 -0.2934 -0.2569
 1367SOL    HW115737   3.256   3.387   7.985 -3.5803 -0.1090  2.6026
 1367SOL    HW215738   3.371   3.476   7.983  0.0296  2.9519  0.9545
 1368SOL     OW15739   1.024   4.361   6.998 -0.3732 -0.3666  0.7133
 1368SOL    HW115740   0.984   4.430   7.051 -0.8840 -0.1179 -0.0090
 1368SOL    HW215741   0.942   4.313   6.991 -0.0579 -0.8522  0.3763
 1369SOL     OW15742   2.611   2.558   6.416 -0.0177  0.5382 -0.1490
 1369SOL    HW115743   2.572   2.471   6.413  1.7826 -0.3218  1.4729
 1369SOL    HW215744   2.559   2.604   6.482  1.6912 -0.9628  2.2297
 1370SOL     OW15745   1.903   0.769   7.022  0.5400 -0.3649  0.2941
 1370SOL    HW115746   1.931   0.765   6.931 -1.2139  2.0678 -0.3418
 1370SOL    HW215747   1.843   0.843   7.029  0.8015 -0.2053  0.8947
 1371SOL     OW15748   4.594   0.332   9.507  0.0223 -0.4232  0.0204
 1371SOL    HW115749   4.547   0.360   9.428  0.6663  1.0481  0.1519
 1371SOL    HW215750   4.680   0.310   9.471  0.0265  0.2591 -0.4016
 1372SOL     OW15751   4.526   1.710   9.117  0.0297  0.6269  0.0464
 1372SOL    HW115752   4.442   1.755   9.125 -1.1800 -1.8576  1.4818
 1372SOL    HW215753   4.510   1.652   9.042  0.5575  0.1954  0.2724
 1373SOL     OW15754   0.534   2.651   2.693 -0.0459  0.4821 -0.2808
 1373SOL    HW115755   0.601   2.584   2.680 -2.0487 -1.8575  1.2807
 1373SOL    HW215756   0.528   2.687   2.604  1.7958  0.4918 -0.3857
 1374SOL     OW15757   3.930   3.017   2.087  0.6709 -0.2070  0.4068
 1374SOL    HW115758   3.929   2.933   2.133 -2.0347 -1.1847 -1.3957
 1374SOL    HW215759   3.839   3.019   2.057  0.6299 -0.9979  0.4760
 1375SOL     OW15760   0.599   0.126  14.927 -0.0585 -0.3838 -0.6240
 1375SOL    HW115761   0.606   0.123  15.022  2.1731 -2.1409 -0.8716
 1375SOL    HW215762   0.654   0.201  14.905 -2.8881  1.8045 -0.2723
 1376SOL     OW15763   0.377   0.146   1.258 -0.0070 -0.3659 -0.0601
 1376SOL    HW115764   0.376   0.129   1.353 -1.3517  0.0896  0.0022
 1376SOL    HW215765   0.300   0.199   1.239  0.9622  0.7756 -0.7668
 1377SOL     OW15766   0.604   2.288  17.556  0.2490 -0.3183 -0.0854
 1377SOL    HW115767   0.627   2.267  17.465 -0.8477  0.8154 -0.6150
 1377SOL    HW215768   0.537   2.355  17.545  1.0391  0.3218 -0.9413
 1378SOL     OW15769   3.443   3.221   7.841  0.1491  0.3810 -0.4149
 1378SOL    HW115770   3.463   3.244   7.932 -3.9611 -1.7803  1.0190
 1378SOL    HW215771   3.348   3.212   7.839  0.0803  0.0935  3.4582
 1379SOL     OW15772   2.159   3.506  10.103 -0.3507 -0.0369  0.0941
 1379SOL    HW115773   2.199   3.565  10.039  0.9984 -1.4602 -0.3728
 1379SOL    HW215774   2.130   3.447  10.034 -0.3177  0.5059 -0.3856
 1380SOL     OW15775   1.276   3.630   4.477 -0.1155 -0.0053  0.3324
 1380SOL    HW115776   1.249   3.647   4.387 -0.1763  1.0504  0.5456
 1380SOL    HW215777   1.267   3.535   4.486  1.9044 -0.4083 -1.9323
 1381SOL     OW15778   3.230   1.588   6.724 -0.3043  0.6011  0.7852
 1381SOL    HW115779   3.213   1.674   6.686 -0.1597  1.0388  1.7122
 1381SOL    HW215780   3.280   1.600   6.805  0.9466  1.7941 -0.1604
 1382SOL     OW15781   1.674   4.624   6.994 -0.2027 -0.1080  0.1874
 1382SOL    HW115782   1.691   4.533   6.969 -1.0952 -0.8164  2.1352
 1382SOL    HW215783   1.600   4.645   6.937 -0.0442  1.6988  0.6427
 1383SOL     OW15784   0.564   2.718   3.920 -0.4697 -0.2363  0.1555
 1383SOL    HW115785   0.528   2.741   4.006  0.9721  1.1084  0.3906
 1383SOL    HW215786   0.535   2.791   3.866  1.4420 -1.3843 -2.4330
 1384SOL     OW15787   1.468   1.923   7.184  0.6116  0.3339  0.5251
 1384SOL    HW115788   1.452   1.996   7.124  0.9252  1.5591  1.9544
 1384SOL    HW215789   1.381   1.884   7.190  1.0895 -0.2455  3.5710
 1385SOL     OW15790   2.125   4.631  10.104 -0.1486  0.2987 -0.2015
 1385SOL    HW115791   2.076   4.690  10.046  1.0361 -0.5756 -2.0722
 1385SOL    HW215792   2.171   4.585  10.034 -2.3810  0.2348 -1.6450
 1386SOL     OW15793   0.697   4.709   5.298 -0.0649 -0.7965  0.1189
 1386SOL    HW115794   0.775   4.716   5.353 -0.7050 -0.6177  1.0179
 1386SOL    HW215795   0.654   0.056   5.321  1.2936 -0.7294  2.5102
 1387SOL     OW15796   1.913   4.675   8.882  0.4242 -0.0235  0.1162
 1387SOL    HW115797   1.988   4.635   8.925 -2.3580 -1.0000  4.1684
 1387SOL    HW215798   1.854   4.628   8.942  0.1984  0.1233  0.0093
 1388SOL     OW15799   3.465   0.672   7.840 -0.5263  0.3883  0.2272
 1388SOL    HW115800   3.412   0.653   7.762  2.2676  2.0217 -2.0589
 1388SOL    HW215801   3.495   0.585   7.867  0.7290  1.0861  1.1010
 1389SOL     OW15802   4.512   4.289   9.615 -0.0995 -0.3599  0.1379
 1389SOL    HW115803   4.525   4.383   9.600  2.6373 -0.8096 -0.2736
 1389SOL    HW215804   4.506   4.248   9.529  1.8441 -0.2267 -0.0655
 1390SOL     OW15805   2.260   1.269   7.909 -0.0571 -0.3556  0.4301
 1390SOL    HW115806   2.231   1.190   7.955 -0.4379 -0.8387 -0.6537
 1390SOL    HW215807   2.277   1.249   7.817 -0.8107 -1.1440  0.4603
 1391SOL     OW15808   3.826   1.969   0.407 -0.9266  0.4157 -0.1788
 1391SOL    HW115809   3.763   1.951   0.337 -1.6642  1.4068  0.2379
 1391SOL    HW215810   3.896   1.906   0.389 -1.7480 -0.8092  0.8605
 1392SOL     OW15811   1.282   4.354   8.365 -0.6422 -0.3247 -0.5241
 1392SOL    HW115812   1.282   4.299   8.286 -0.5367 -0.2448 -0.5799
 1392SOL    HW215813   1.372   4.384   8.353 -0.6323 -0.3815 -0.5898
 1393SOL     OW15814   4.369   3.314   8.263  0.1954 -0.3322 -0.3725
 1393SOL    HW115815   4.372   3.399   8.219 -0.9730 -0.2562 -0.3080
 1393SOL    HW215816   4.442   3.270   8.220 -0.2405 -1.2482 -0.1708
 1394SOL     OW15817   2.957   1.258   2.926 -0.2819 -0.4398  0.0846
 1394SOL    HW115818   2.908   1.221   2.999 -0.7904 -0.0487 -0.0620
 1394SOL    HW215819   2.893   1.249   2.855  0.7215  2.4904 -1.1991
 1395SOL     OW15820   0.316   0.458   6.732 -0.5530 -0.5935  0.3016
 1395SOL    HW115821   0.221   0.445   6.733 -0.6941  0.2966 -1.7555
 1395SOL    HW215822   0.333   0.505   6.814 -0.9656  0.4784 -0.2334
 1396SOL     OW15823   0.359   3.351   7.318  0.0139  0.5524 -0.2883
 1396SOL    HW115824   0.400   3.304   7.245 -1.7883  1.2980 -1.7546
 1396SOL    HW215825   0.325   3.278   7.370 -0.6865  1.6408  0.7596
 1397SOL     OW15826   3.969   3.713   8.762 -0.5228 -0.1041  0.3956
 1397SOL    HW115827   4.004   3.624   8.753  0.6503  0.3593  0.4348
 1397SOL    HW215828   4.031   3.747   8.698  0.6607 -2.0211  0.5184
 1398SOL     OW15829   1.670   3.551   5.074 -0.2973  0.2170 -0.1245
 1398SOL    HW115830   1.602   3.522   5.014 -2.3120  2.8459  0.8935
 1398SOL    HW215831   1.619   3.601   5.137 -2.6202  0.8959 -2.5364
 1399SOL     OW15832   0.971   2.398   2.387 -0.0707 -0.2420  0.2539
 1399SOL    HW115833   0.969   2.389   2.292  2.1757  0.0415  0.1879
 1399SOL    HW215834   0.885   2.434   2.408 -0.1907 -0.6915  0.5270
 1400SOL     OW15835   0.415   1.855  16.481 -0.2739  0.2550 -0.2363
 1400SOL    HW115836   0.404   1.933  16.428  0.3319  1.0224  0.7744
 1400SOL    HW215837   0.365   1.786  16.437 -0.3296  0.3323 -0.2949
 1401SOL     OW15838   3.568   2.778   6.448  0.3487 -0.4117 -0.6549
 1401SOL    HW115839   3.512   2.701   6.454  0.3049 -0.4483 -1.6167
 1401SOL    HW215840   3.641   2.750   6.503 -1.6940 -0.2675  2.1343
 1402SOL     OW15841   0.484   4.215   8.341  0.6094 -0.2308 -0.3072
 1402SOL    HW115842   0.431   4.218   8.420  2.0752 -2.7414  0.7426
 1402SOL    HW215843   0.510   4.124   8.353  0.6272 -0.2095 -0.1831
 1403SOL     OW15844   4.236   2.425   4.510 -0.4381  0.2388 -0.5393
 1403SOL    HW115845   4.179   2.494   4.475 -2.7583 -0.2758  2.2157
 1403SOL    HW215846   4.321   2.467   4.504  0.3178 -1.1638  0.2639
 1404SOL     OW15847   2.156   0.105   3.484  0.2439  0.3776 -0.1255
 1404SOL    HW115848   2.063   0.124   3.470  0.9244  1.9126 -2.5471
 1404SOL    HW215849   2.162   0.013   3.458  2.8969  0.8785 -1.2421
 1405SOL     OW15850   0.565   0.204   4.457 -0.4377  0.2942  0.1734
 1405SOL    HW115851   0.516   0.280   4.488 -1.6745 -0.8635  1.0841
 1405SOL    HW215852   0.501   0.157   4.403  1.7486 -1.5286 -0.8685
 1406SOL     OW15853   3.870   3.568   2.745  0.5054  0.1234 -0.3608
 1406SOL    HW115854   3.827   3.550   2.661 -0.0661 -0.6508  0.1044
 1406SOL    HW215855   3.962   3.553   2.723  0.3570  0.0115 -0.9171
 1407SOL     OW15856   3.509   0.110   6.511 -0.5626  0.2510  0.2942
 1407SOL    HW115857   3.512   0.205   6.499 -0.2136  0.1102 -0.7257
 1407SOL    HW215858   3.599   0.094   6.483 -0.8529 -0.2168 -0.3792
 1408SOL     OW15859   3.629   0.946   4.532  0.1814  0.1229 -0.4314
 1408SOL    HW115860   3.568   1.020   4.541 -0.4833 -0.6420  1.3580
 1408SOL    HW215861   3.586   0.901   4.460  0.2463 -0.6395  0.0098
 1409SOL     OW15862   2.926   1.931  10.810 -0.1026  0.2838  0.0377
 1409SOL    HW115863   2.923   1.919  10.905  0.0613 -0.3163 -0.0353
 1409SOL    HW215864   2.935   1.841  10.780 -0.6871  0.2912 -0.1762
 1410SOL     OW15865   0.130   3.556  11.588 -0.0847 -0.1510  0.1243
 1410SOL    HW115866   0.210   3.590  11.628  0.9106  1.2756 -3.1477
 1410SOL    HW215867   0.118   3.467  11.621  1.3614 -0.5607 -0.4954
 1411SOL     OW15868   2.939   1.464   2.660 -0.0223 -0.8213 -0.7330
 1411SOL    HW115869   2.883   1.387   2.672  0.3646 -0.9919 -0.0092
 1411SOL    HW215870   3.017   1.411   2.649  0.4814 -0.5024  1.1953
 1412SOL     OW15871   3.516   3.751   4.210 -0.3270 -0.3220 -0.4417
 1412SOL    HW115872   3.516   3.656   4.203 -0.5792 -0.3256 -0.4057
 1412SOL    HW215873   3.451   3.762   4.280  1.0368  0.5844  0.6750
 1413SOL     OW15874   4.513   0.369  12.900 -0.3776 -0.3707 -0.2456
 1413SOL    HW115875   4.445   0.302  12.892  1.3345 -2.1097  0.0478
 1413SOL    HW215876   4.595   0.322  12.889 -0.5573 -1.3980  2.9754
 1414SOL     OW15877   3.341   2.826  14.692 -0.2904 -0.7292 -0.0582
 1414SOL    HW115878   3.272   2.886  14.663  1.0247  0.6537 -0.3149
 1414SOL    HW215879   3.319   2.751  14.636  1.0312 -0.1976 -1.2741
 1415SOL     OW15880   1.336   1.062   4.782 -0.0927 -0.0975 -0.1400
 1415SOL    HW115881   1.262   1.006   4.804  0.5560 -1.8945 -2.5257
 1415SOL    HW215882   1.412   1.007   4.797 -1.3305 -1.0343  2.6635
 1416SOL     OW15883   0.579   4.641   7.247 -0.7077  0.7181 -0.0665
 1416SOL    HW115884   0.521   4.634   7.172 -0.4225  2.3543 -0.4370
 1416SOL    HW215885   0.520   4.688   7.307  2.0820  2.3907  1.3683
 1417SOL     OW15886   3.820   3.276   1.485  0.0920 -0.1428 -0.4358
 1417SOL    HW115887   3.901   3.258   1.533 -0.4586 -0.9828  0.1903
 1417SOL    HW215888   3.800   3.365   1.514  0.6286 -0.2818  0.3626
 1418SOL     OW15889   1.576   3.710  12.936 -0.0085  0.9086  0.2535
 1418SOL    HW115890   1.652   3.680  12.987 -0.7946  0.1119  0.9461
 1418SOL    HW215891   1.508   3.648  12.961 -0.8477  2.1151  0.9816
 1419SOL     OW15892   1.306   1.617   2.217  0.1645  0.2604  0.0539
 1419SOL    HW115893   1.302   1.529   2.179 -1.4660  0.6323 -0.6060
 1419SOL    HW215894   1.338   1.660   2.138  1.6778  0.0223  0.5207
 1420SOL     OW15895   3.810   0.845  11.055  0.3964 -0.1138  0.1000
 1420SOL    HW115896   3.742   0.848  10.987  1.2369  0.0882 -0.7380
 1420SOL    HW215897   3.762   0.881  11.129  0.6988 -0.7972  0.6222
 1421SOL     OW15898   3.000   3.524   1.482  0.3162  0.5767 -0.5509
 1421SOL    HW115899   2.999   3.592   1.549  0.1324  1.2120 -1.2097
 1421SOL    HW215900   3.095   3.507   1.487  0.2193 -0.0501 -0.8038
 1422SOL     OW15901   1.233   1.225   2.011  0.0181 -0.0053  0.0336
 1422SOL    HW115902   1.243   1.146   1.958 -1.8031 -0.0391 -0.2561
 1422SOL    HW215903   1.326   1.248   2.014  0.5434 -1.8890 -1.8280
 1423SOL     OW15904   4.554   3.537  13.794 -0.1380  0.3553  0.2466
 1423SOL    HW115905   4.527   3.628  13.807 -1.2052 -0.0361  0.7403
 1423SOL    HW215906   4.492   3.489  13.850  0.1137  1.6140  1.5872
 1424SOL     OW15907   2.871   0.931   9.628  0.4097 -0.1364 -0.2896
 1424SOL    HW115908   2.955   0.952   9.669  0.8858 -1.0376 -0.8105
 1424SOL    HW215909   2.863   1.017   9.587 -0.2608  0.0737  0.2811
 1425SOL     OW15910   1.409   2.776   8.534 -0.0990  0.1102  0.1605
 1425SOL    HW115911   1.317   2.784   8.558 -0.5896 -0.2856 -1.5605
 1425SOL    HW215912   1.413   2.763   8.439 -0.2221 -1.8294  0.4109
 1426SOL     OW15913   1.971   1.253   4.397  0.2360  0.3971 -0.3296
 1426SOL    HW115914   1.905   1.303   4.445  1.6453  1.5163  0.4769
 1426SOL    HW215915   2.032   1.231   4.468  0.8454  1.5418 -0.4855
 1427SOL     OW15916   1.867   3.688   0.136  0.0207 -0.4018 -0.4045
 1427SOL    HW115917   1.857   3.710   0.044 -2.7724  1.0825  0.2178
 1427SOL    HW215918   1.791   3.731   0.177 -0.1692 -0.3570 -0.8026
 1428SOL     OW15919   4.165   4.534   3.946  0.3429  0.4364 -0.3597
 1428SOL    HW115920   4.074   4.523   3.920  0.4541  3.6050 -2.1239
 1428SOL    HW215921   4.213   4.513   3.866 -3.0938 -0.9714 -2.0457
 1429SOL     OW15922   0.456   3.956   8.935  0.5275  0.2235 -0.1479
 1429SOL    HW115923   0.503   4.030   8.897  1.6918 -0.3067  0.2857
 1429SOL    HW215924   0.367   3.986   8.913  0.9181  2.6792  1.6325
 1430SOL     OW15925   2.349   3.143   7.183  0.1554 -0.9686  0.0112
 1430SOL    HW115926   2.266   3.175   7.218 -0.0687  1.1032 -2.3810
 1430SOL    HW215927   2.351   3.195   7.102 -1.0432 -1.3809 -0.2936
 1431SOL     OW15928   3.847   2.174   4.709 -0.2630 -0.6304  0.1901
 1431SOL    HW115929   3.769   2.225   4.686  0.2727 -0.1799 -0.6151
 1431SOL    HW215930   3.914   2.241   4.713  1.9290 -2.6607 -2.1100
 1432SOL     OW15931   3.161   1.304   3.173 -1.0083  0.4754  0.2762
 1432SOL    HW115932   3.190   1.381   3.125 -2.0853  0.8256  0.1822
 1432SOL    HW215933   3.243   1.254   3.178 -0.3307  1.4821 -0.9122
 1433SOL     OW15934   3.337   2.392   5.422 -0.2386 -0.1607 -0.4597
 1433SOL    HW115935   3.385   2.472   5.442 -0.8530  0.2096 -0.4603
 1433SOL    HW215936   3.265   2.398   5.485  2.1441  2.2457  2.0271
 1434SOL     OW15937   4.306   4.689  15.535  0.1081  0.1810 -0.5229
 1434SOL    HW115938   4.260   4.622  15.585 -0.0499  1.2752  0.8286
 1434SOL    HW215939   4.285   0.024  15.595 -0.9343 -2.1228  1.8532
 1435SOL     OW15940   3.607   1.892   9.605  0.1216 -0.0340  0.0645
 1435SOL    HW115941   3.698   1.922   9.610 -0.2213  0.7376  1.5918
 1435SOL    HW215942   3.554   1.958   9.649 -2.4110 -0.7535 -1.9110
 1436SOL     OW15943   3.427   3.186  12.683  0.4700 -0.4385  0.2193
 1436SOL    HW115944   3.501   3.167  12.742  0.4325  2.1229  1.1172
 1436SOL    HW215945   3.396   3.273  12.708  0.9154 -0.5284  1.1094
 1437SOL     OW15946   1.610   3.913   5.522  0.5030 -0.2397 -0.4311
 1437SOL    HW115947   1.618   3.926   5.617 -2.7714 -0.5518 -0.0995
 1437SOL    HW215948   1.549   3.985   5.505  1.8931  0.6332 -1.6936
 1438SOL     OW15949   2.680   1.659   1.706  0.2296 -0.2199 -0.8413
 1438SOL    HW115950   2.622   1.665   1.630  2.0001 -0.8889 -2.2455
 1438SOL    HW215951   2.673   1.571   1.745 -0.0327  0.3869  0.4844
 1439SOL     OW15952   1.065   3.314  16.322  0.2091  0.1502  0.4466
 1439SOL    HW115953   1.153   3.348  16.339 -0.1415  0.4890  1.5090
 1439SOL    HW215954   1.019   3.350  16.397  0.6625  1.3800  0.1479
 1440SOL     OW15955   0.922   1.595   3.720 -0.2282  1.2601 -0.2558
 1440SOL    HW115956   0.952   1.587   3.630  1.1005 -0.4256  0.3331
 1440SOL    HW215957   0.836   1.553   3.724  0.8253 -0.7809  1.3222
 1441SOL     OW15958   2.324   2.538   1.756 -0.0690 -0.4416 -0.0236
 1441SOL    HW115959   2.348   2.575   1.671  0.2718  2.4579  1.3322
 1441SOL    HW215960   2.315   2.444   1.737 -4.3183 -0.0419  0.1092
 1442SOL     OW15961   4.181   3.456   9.004  0.2574 -0.0927 -0.0146
 1442SOL    HW115962   4.273   3.465   9.027  0.8759 -0.8034 -2.1826
 1442SOL    HW215963   4.173   3.364   9.029  0.4152  0.2949  1.4316
 1443SOL     OW15964   3.872   1.996   7.621  0.0545 -0.3236 -0.0054
 1443SOL    HW115965   3.893   2.057   7.550  1.2130  0.4755  1.0018
 1443SOL    HW215966   3.961   1.975   7.649 -0.6383 -0.2846  2.2099
 1444SOL     OW15967   0.136   3.349   2.874  0.4766 -0.1943 -0.1163
 1444SOL    HW115968   0.078   3.340   2.797  0.1494 -2.3354  0.3649
 1444SOL    HW215969   0.197   3.414   2.839 -0.3979 -0.0583 -1.3978
 1445SOL     OW15970   4.553   2.799   7.238 -0.1975  0.2955  0.2934
 1445SOL    HW115971   4.644   2.819   7.216  0.9274 -3.0198  1.8569
 1445SOL    HW215972   4.516   2.799   7.150  0.5665  1.3569 -0.0230
 1446SOL     OW15973   2.438   2.224   2.118  0.2129  0.1412  0.4593
 1446SOL    HW115974   2.430   2.226   2.213 -1.6604 -1.7260  0.3378
 1446SOL    HW215975   2.399   2.308   2.097 -0.7325 -0.2928  0.5092
 1447SOL     OW15976   0.869   1.219   7.399  0.4700 -0.5133  0.4555
 1447SOL    HW115977   0.886   1.127   7.378 -0.0835 -0.2384 -1.2446
 1447SOL    HW215978   0.871   1.253   7.309 -1.7494 -0.5257  0.3838
 1448SOL     OW15979   0.812   1.772   4.907 -0.5773 -0.1814 -0.0910
 1448SOL    HW115980   0.821   1.863   4.935 -1.1060 -0.1124 -0.1649
 1448SOL    HW215981   0.881   1.765   4.840 -1.4003 -2.3730 -0.6950
 1449SOL     OW15982   1.567   2.973   0.478 -0.5180 -0.3639  0.0590
 1449SOL    HW115983   1.620   2.949   0.402  1.4991  2.5053  0.5614
 1449SOL    HW215984   1.627   3.038   0.516  1.1556 -0.6224 -2.1070
 1450SOL     OW15985   1.836   1.626   9.906  0.2898 -0.2738 -0.5950
 1450SOL    HW115986   1.799   1.554   9.956  0.0211 -0.2716 -0.7890
 1450SOL    HW215987   1.805   1.604   9.818  1.7674 -0.5999 -1.0294
 1451SOL     OW15988   0.217   3.573  15.003  0.3674  0.2362  0.2256
 1451SOL    HW115989   0.283   3.507  14.984 -0.7117 -1.1380  1.2169
 1451SOL    HW215990   0.236   3.612  15.089  3.1283  1.0847 -0.7781
 1452SOL     OW15991   2.003   2.691   1.144 -0.0032 -0.2846 -0.5610
 1452SOL    HW115992   1.908   2.683   1.136 -0.1998  0.9189  0.6402
 1452SOL    HW215993   1.999   2.778   1.184  0.2795  0.1554 -1.4766
 1453SOL     OW15994   2.335   0.145  14.997 -0.0873  0.0569  0.5783
 1453SOL    HW115995   2.250   0.187  14.984 -1.0468 -1.7960  0.8519
 1453SOL    HW215996   2.352   0.116  14.907 -0.0477 -0.4367  0.7474
 1454SOL     OW15997   1.350   4.409  16.566 -0.0246  0.5592  0.4255
 1454SOL    HW115998   1.405   4.335  16.593  1.9459  1.7952 -0.2124
 1454SOL    HW215999   1.339   4.389  16.473 -2.0103 -0.5314  0.8821
 1455SOL     OW16000   4.267   1.944  16.928  0.5676  0.4375  0.0811
 1455SOL    HW116001   4.255   1.927  16.835 -0.5173  1.2459  0.0724
 1455SOL    HW216002   4.225   2.029  16.941  1.4700  0.8420  0.3886
 1456SOL     OW16003   3.137   4.421   5.780 -0.2621 -0.1728 -0.0754
 1456SOL    HW116004   3.056   4.458   5.815  1.0267  1.5559  1.1274
 1456SOL    HW216005   3.116   4.331   5.754  0.3055 -0.3260  0.0015
 1457SOL     OW16006   2.851   2.276  14.228  0.2765  0.0074 -0.1576
 1457SOL    HW116007   2.896   2.209  14.176  0.1212  1.6796 -2.4060
 1457SOL    HW216008   2.788   2.304  14.162  1.3017  2.1801 -0.2034
 1458SOL     OW16009   1.929   0.965   8.079 -0.2858 -0.3022 -0.3498
 1458SOL    HW116010   1.889   0.945   8.164 -0.0276  1.7906  0.2589
 1458SOL    HW216011   1.894   0.900   8.017 -1.3021 -0.0504 -0.0487
 1459SOL     OW16012   0.023   2.782   7.869  0.0135 -0.7063  0.1648
 1459SOL    HW116013   0.053   2.743   7.951 -1.1672  0.1072  0.9809
 1459SOL    HW216014   4.681   2.731   7.851  0.0321 -0.2867 -1.1265
 1460SOL     OW16015   3.515   2.106  10.063  0.2606 -0.6145 -0.2829
 1460SOL    HW116016   3.526   2.044  10.135  1.2289 -1.3197 -1.0435
 1460SOL    HW216017   3.422   2.127  10.066  0.6579  1.4292 -2.5193
 1461SOL     OW16018   4.662   1.046   5.872 -0.9639  0.3353 -0.4870
 1461SOL    HW116019   4.603   0.995   5.927  0.0719 -0.7581 -0.3710
 1461SOL    HW216020   4.691   1.112   5.935  0.0009 -1.6209  1.0989
 1462SOL     OW16021   4.302   2.851   6.540 -0.2691  0.1655  0.0944
 1462SOL    HW116022   4.271   2.790   6.472 -0.6275  2.1060 -1.4725
 1462SOL    HW216023   4.383   2.805   6.563 -0.1900 -1.3952 -3.1970
 1463SOL     OW16024   2.959   3.247   5.370  0.3507  0.5103 -0.6730
 1463SOL    HW116025   2.964   3.302   5.448  1.6791 -0.5021 -0.0469
 1463SOL    HW216026   3.037   3.192   5.365  1.1880  1.6123  0.3335
 1464SOL     OW16027   0.755   0.672  12.374  0.5791  0.1715 -0.1349
 1464SOL    HW116028   0.765   0.765  12.395 -2.4393  0.6957 -0.8962
 1464SOL    HW216029   0.766   0.623  12.456 -1.8267 -1.0108 -0.5020
 1465SOL     OW16030   4.135   3.674  10.313  0.5470 -0.8692 -0.1480
 1465SOL    HW116031   4.223   3.704  10.335  0.8205 -2.0336  0.3405
 1465SOL    HW216032   4.123   3.697  10.221  0.5016 -0.9355 -0.1582
 1466SOL     OW16033   4.008   2.925  16.876 -0.0410 -0.0295  0.2609
 1466SOL    HW116034   3.998   3.008  16.922 -0.1089  0.8560 -1.3328
 1466SOL    HW216035   4.103   2.911  16.879  0.1991  1.1529 -1.5658
 1467SOL     OW16036   1.766   3.917  11.216  0.1249  0.4927 -0.0656
 1467SOL    HW116037   1.774   3.895  11.123 -1.6707 -1.9507  0.3662
 1467SOL    HW216038   1.818   3.997  11.225 -0.6909  1.1574 -1.2881
 1468SOL     OW16039   2.651   2.877  17.588 -0.4256  0.1812  0.0765
 1468SOL    HW116040   2.559   2.877  17.614 -1.3922  0.6427 -3.3975
 1468SOL    HW216041   2.661   2.966  17.556  1.6797  0.4182  1.4113
 1469SOL     OW16042   3.116   0.424  13.250 -0.2030  0.2339 -0.0269
 1469SOL    HW116043   3.206   0.392  13.243  0.2154  0.9958  1.9708
 1469SOL    HW216044   3.115   0.512  13.210 -0.6935 -0.6025 -1.8555
 1470SOL     OW16045   1.557   4.026   2.624  0.2315 -0.1864  0.6879
 1470SOL    HW116046   1.599   3.993   2.704  0.1725  1.1031  1.2412
 1470SOL    HW216047   1.466   4.043   2.651  0.1111  0.7333 -0.3293
 1471SOL     OW16048   3.171   1.526   8.862 -0.1410  0.2191  0.1490
 1471SOL    HW116049   3.236   1.459   8.839 -0.0237  0.9574 -1.6923
 1471SOL    HW216050   3.196   1.603   8.811  2.3649  0.5327  1.8710
 1472SOL     OW16051   1.345   0.203  16.470  0.1084 -0.0809  0.3257
 1472SOL    HW116052   1.325   0.110  16.468 -1.1999  0.1739  1.5390
 1472SOL    HW216053   1.397   0.205  16.551 -0.4408 -1.3130  0.7059
 1473SOL     OW16054   4.472   1.880   4.979 -0.3596 -0.0431 -0.7556
 1473SOL    HW116055   4.474   1.836   5.065  0.5952 -0.2590 -0.8837
 1473SOL    HW216056   4.523   1.814   4.932 -0.6578 -0.2630 -0.7703
 1474SOL     OW16057   0.805   1.402   1.650 -0.5262 -0.3480  0.2924
 1474SOL    HW116058   0.882   1.368   1.696 -0.0319 -0.3580 -0.5419
 1474SOL    HW216059   0.806   1.494   1.677  0.2400 -0.0357 -0.7828
 1475SOL     OW16060   1.670   3.224   0.689 -0.6631 -0.6483  0.1925
 1475SOL    HW116061   1.690   3.287   0.620  0.2140 -1.4007 -0.2206
 1475SOL    HW216062   1.727   3.258   0.758  0.8737 -0.2462 -1.2785
 1476SOL     OW16063   2.567   4.142   1.305  0.6847 -0.3768 -0.5178
 1476SOL    HW116064   2.492   4.119   1.250 -0.6583  1.2253  0.6095
 1476SOL    HW216065   2.556   4.237   1.297  2.7248  0.0568  1.9327
 1477SOL     OW16066   1.488   0.206  14.582  0.3666 -0.3555  0.1850
 1477SOL    HW116067   1.502   0.158  14.500 -0.4076  1.3232 -0.9260
 1477SOL    HW216068   1.418   0.157  14.625 -0.6664 -1.1674 -2.4119
 1478SOL     OW16069   1.188   0.964   5.995 -0.0266  0.3527  0.0616
 1478SOL    HW116070   1.096   0.941   6.002  0.1682 -0.7942 -1.0312
 1478SOL    HW216071   1.223   0.903   6.060 -1.6499 -0.2800  0.3417
 1479SOL     OW16072   4.313   4.318   0.742 -0.5656  0.1627  0.9514
 1479SOL    HW116073   4.396   4.273   0.757 -1.2689 -1.7069 -0.8314
 1479SOL    HW216074   4.320   4.383   0.813  2.3583  0.6093  0.2845
 1480SOL     OW16075   3.630   0.130   7.269  0.5393  0.7995  0.1313
 1480SOL    HW116076   3.684   0.052   7.275  0.9531  1.1714  1.1680
 1480SOL    HW216077   3.594   0.115   7.182  1.5750 -1.3335  0.0970
 1481SOL     OW16078   0.396   1.805   9.993 -0.6969 -0.4067  0.0832
 1481SOL    HW116079   0.371   1.727   9.944  1.3014 -1.1435  0.2222
 1481SOL    HW216080   0.326   1.862   9.962 -0.2287  0.2109  0.1717
 1482SOL     OW16081   1.433   4.502   6.483  0.2588 -0.3573 -0.0431
 1482SOL    HW116082   1.434   4.596   6.467  1.7774 -0.3656 -0.0201
 1482SOL    HW216083   1.515   4.491   6.531  0.4204 -1.5435 -0.5989
 1483SOL     OW16084   3.983   1.290   0.638  0.1247 -0.0204 -0.1014
 1483SOL    HW116085   3.925   1.255   0.707  0.6159 -2.6019 -1.0001
 1483SOL    HW216086   4.048   1.221   0.654 -0.4461 -0.1957  1.4755
 1484SOL     OW16087   2.086   3.323   2.585  0.2741 -0.2809 -0.0067
 1484SOL    HW116088   2.029   3.246   2.577  1.1110 -1.0217  1.1468
 1484SOL    HW216089   2.160   3.287   2.634  2.2716  3.1210 -0.5670
 1485SOL     OW16090   3.804   1.385   2.054  0.1224 -0.2434 -0.6517
 1485SOL    HW116091   3.847   1.304   2.084  0.2011 -1.7243 -4.7160
 1485SOL    HW216092   3.713   1.361   2.068  0.3302  0.2390  1.4935
 1486SOL     OW16093   2.950   2.160   3.561  0.0989 -0.0508  0.1047
 1486SOL    HW116094   2.978   2.224   3.496 -1.8221 -0.1559 -0.8350
 1486SOL    HW216095   2.856   2.159   3.542 -0.2668 -3.8198  2.1260
 1487SOL     OW16096   2.472   1.216   6.182 -0.5248  0.4837 -0.2986
 1487SOL    HW116097   2.458   1.128   6.146  2.1762  1.3670 -3.4355
 1487SOL    HW216098   2.482   1.274   6.107  0.5736 -0.7179 -1.0928
 1488SOL     OW16099   3.851   1.834   2.679 -0.2376  0.1173 -0.0353
 1488SOL    HW116100   3.881   1.826   2.589  2.0606 -0.1154  0.7679
 1488SOL    HW216101   3.936   1.829   2.722 -0.5766 -1.9479  0.4166
 1489SOL     OW16102   0.919   2.704   9.194  0.8932 -0.1062 -0.0785
 1489SOL    HW116103   0.947   2.631   9.250 -0.3153 -0.1909  0.4326
 1489SOL    HW216104   0.871   2.763   9.253  2.5976 -0.3011  1.5093
 1490SOL     OW16105   2.432   4.564  13.944  0.5402 -0.3341  0.2833
 1490SOL    HW116106   2.478   4.584  14.026  0.2789  2.1237 -0.1664
 1490SOL    HW216107   2.345   4.572  13.984 -0.2784 -2.2337 -1.1285
 1491SOL     OW16108   2.704   0.940   5.771  0.2328 -0.6636 -0.5488
 1491SOL    HW116109   2.611   0.930   5.789  0.0098  0.4222 -1.0808
 1491SOL    HW216110   2.690   0.943   5.676 -2.5464 -0.8982 -0.1519
 1492SOL     OW16111   4.616   3.462   3.056  0.3072  0.0646  0.9569
 1492SOL    HW116112   4.709   3.451   3.037 -0.2274 -1.7519 -0.5801
 1492SOL    HW216113   4.581   3.432   2.973 -0.7512  0.3754  1.2938
 1493SOL     OW16114   3.645   0.864   2.876  0.1145  0.8155 -0.3731
 1493SOL    HW116115   3.594   0.926   2.929  0.6282  0.4900  0.5024
 1493SOL    HW216116   3.673   0.928   2.810 -0.8301  1.3317 -0.2880
 1494SOL     OW16117   1.843   2.980   0.430 -0.1260 -0.3986 -0.2493
 1494SOL    HW116118   1.842   2.918   0.502 -2.7992  0.1893  0.2201
 1494SOL    HW216119   1.867   2.919   0.360  3.3573 -0.2246  0.7639
 1495SOL     OW16120   0.008   4.582   0.141 -0.0868 -0.3454  0.3455
 1495SOL    HW116121   0.079   4.599   0.079 -1.6289  2.0523 -0.7647
 1495SOL    HW216122   4.675   4.570   0.076 -1.0021  2.1157  0.8929
 1496SOL     OW16123   2.971   2.970   0.522  0.3312 -0.0371 -0.1129
 1496SOL    HW116124   2.980   2.943   0.431 -1.6992  4.0767 -1.5373
 1496SOL    HW216125   3.027   3.046   0.538  0.6127 -0.4328  0.7852
 1497SOL     OW16126   4.065   3.870   1.331  0.1126  0.6028  0.1646
 1497SOL    HW116127   4.119   3.849   1.255 -1.5709 -2.0633 -0.3026
 1497SOL    HW216128   3.983   3.848   1.286 -0.6391 -0.2007  1.9291
 1498SOL     OW16129   1.389   3.876   1.015  0.1339 -0.1599  0.0082
 1498SOL    HW116130   1.334   3.811   1.058  1.7355 -2.2268 -1.0694
 1498SOL    HW216131   1.339   3.956   1.027  1.6628  0.6759  0.7483
 1499SOL     OW16132   0.587   3.736   8.617 -0.0775  0.3526 -0.2891
 1499SOL    HW116133   0.677   3.751   8.590  0.8754 -2.9129  1.0696
 1499SOL    HW216134   0.596   3.742   8.712 -4.6877  0.5204  0.1771
 1500SOL     OW16135   3.531   2.831   5.481 -0.1114  0.2129 -0.4842
 1500SOL    HW116136   3.449   2.845   5.434 -0.8698 -0.3934  0.6468
 1500SOL    HW216137   3.501   2.841   5.572 -2.8625 -1.1877 -1.2417
 1501SOL     OW16138   4.576   1.209   4.915  0.2365 -0.1056  0.0422
 1501SOL    HW116139   4.639   1.156   4.963  0.0485  0.4296  0.8792
 1501SOL    HW216140   4.498   1.201   4.970 -0.4557 -2.0778 -1.2310
 1502SOL     OW16141   3.052   0.483   3.949 -0.0647  0.0251  0.9535
 1502SOL    HW116142   2.988   0.464   3.881  0.4494  0.4177  0.3625
 1502SOL    HW216143   3.122   0.420   3.934  0.2648  0.9851 -1.5460
 1503SOL     OW16144   3.234   1.334  15.954  0.1705 -0.1194  0.3016
 1503SOL    HW116145   3.270   1.399  15.893  1.1856  0.9899  2.0619
 1503SOL    HW216146   3.246   1.252  15.906 -0.8194  0.3825 -0.7941
 1504SOL     OW16147   4.361   4.001  16.780 -0.0991  0.2616 -0.4074
 1504SOL    HW116148   4.414   4.071  16.818 -0.5103  0.4258 -0.1441
 1504SOL    HW216149   4.379   3.925  16.836 -1.1715  1.6080  1.7606
 1505SOL     OW16150   3.661   0.180   7.985 -0.1377 -0.3495 -0.1597
 1505SOL    HW116151   3.665   0.105   8.045 -0.7806 -1.1963 -1.1687
 1505SOL    HW216152   3.657   0.141   7.897  1.9099 -0.7385 -0.0745
 1506SOL     OW16153   4.437   1.164  11.723  0.0433 -0.4276  0.1014
 1506SOL    HW116154   4.351   1.199  11.699  0.1664  0.7623  1.3739
 1506SOL    HW216155   4.442   1.093  11.659 -3.4925 -0.2655 -0.3218
 1507SOL     OW16156   0.568   3.312   8.395 -0.6169 -0.5965  0.0888
 1507SOL    HW116157   0.622   3.298   8.473  2.5869 -0.4502 -2.1107
 1507SOL    HW216158   0.484   3.271   8.417 -0.2679 -1.4966 -0.2447
 1508SOL     OW16159   2.799   4.693  14.652  0.0943  0.0072 -0.3192
 1508SOL    HW116160   2.778   4.697  14.558 -3.8937  2.9300  0.6906
 1508SOL    HW216161   2.710   4.679  14.685  0.0492  0.6680 -0.1598
 1509SOL     OW16162   3.622   3.966   6.015 -0.0496  0.2317  0.5637
 1509SOL    HW116163   3.594   3.882   6.050  1.3452 -1.0467 -1.3425
 1509SOL    HW216164   3.669   3.940   5.936 -0.7873 -0.8490  0.4932
 1510SOL     OW16165   3.720   3.731   0.253  0.1934 -0.2877 -0.0373
 1510SOL    HW116166   3.733   3.822   0.278 -2.1448 -0.2597  1.1031
 1510SOL    HW216167   3.797   3.691   0.294 -0.8155 -0.8826  1.2695
 1511SOL     OW16168   2.825   4.092   1.332  0.6691  0.5887 -0.1238
 1511SOL    HW116169   2.835   3.998   1.315 -1.6167 -0.2264  2.8769
 1511SOL    HW216170   2.734   4.095   1.305  0.6973  0.8924 -0.1796
 1512SOL     OW16171   2.884   1.244   9.067  0.2088  0.4104  0.0654
 1512SOL    HW116172   2.958   1.235   9.128  1.2031  3.0687 -0.7814
 1512SOL    HW216173   2.899   1.334   9.039  1.1341 -0.0651 -0.9530
 1513SOL     OW16174   0.124   4.328  15.478  0.0811  0.3563  0.6563
 1513SOL    HW116175   0.158   4.246  15.513 -1.1994  0.3382  1.8277
 1513SOL    HW216176   0.032   4.304  15.484 -0.0661  0.3324 -1.7223
 1514SOL     OW16177   1.616   1.684   4.675  0.2006  0.2179  0.2808
 1514SOL    HW116178   1.564   1.764   4.669 -0.8550 -0.4084  1.0657
 1514SOL    HW216179   1.559   1.612   4.648 -0.3971  0.5201  0.7328
 1515SOL     OW16180   2.100   0.171  13.831  0.6066 -0.2206 -0.2748
 1515SOL    HW116181   2.091   0.081  13.864  1.4134  0.0797  0.7572
 1515SOL    HW216182   2.038   0.175  13.758  0.0156 -1.8150  0.1405
 1516SOL     OW16183   3.724   2.239   7.272 -0.5774  0.9306  0.3011
 1516SOL    HW116184   3.659   2.205   7.211  0.5824  1.0192 -0.9970
 1516SOL    HW216185   3.669   2.271   7.343 -2.4882 -0.8157 -0.4031
 1517SOL     OW16186   3.195   3.754   2.967  0.0405  1.1440  0.1725
 1517SOL    HW116187   3.190   3.774   3.060  1.0879 -0.1695  0.5175
 1517SOL    HW216188   3.217   3.661   2.971  1.2079  1.4128  0.1320
 1518SOL     OW16189   0.310   0.201  12.848  0.2032 -0.0235 -0.2456
 1518SOL    HW116190   0.396   0.216  12.888 -0.2989  1.8517  0.1617
 1518SOL    HW216191   0.321   0.172  12.758  0.0707 -1.4666  0.2097
 1519SOL     OW16192   0.458   1.915   2.183  0.2941 -0.1124 -0.2334
 1519SOL    HW116193   0.423   1.895   2.270 -0.3965 -0.0398 -0.4974
 1519SOL    HW216194   0.542   1.955   2.205  0.2564  0.2670 -0.7902
 1520SOL     OW16195   4.327   1.137   6.920  0.1274  0.4089  0.2134
 1520SOL    HW116196   4.270   1.188   6.977 -1.0579  0.8093 -1.3411
 1520SOL    HW216197   4.280   1.054   6.910  0.4307  0.2043  0.4852
 1521SOL     OW16198   4.030   3.004  13.197  0.0353 -0.6804 -0.0046
 1521SOL    HW116199   4.009   3.019  13.289  0.6032  0.3280 -0.0391
 1521SOL    HW216200   4.092   2.931  13.204  0.6477 -0.0332  1.2909
 1522SOL     OW16201   2.421   1.062   1.521 -0.4356 -0.0565 -0.2869
 1522SOL    HW116202   2.364   1.134   1.494 -2.7739 -1.0188  2.0719
 1522SOL    HW216203   2.418   1.008   1.442 -0.1487  0.7401 -0.8419
 1523SOL     OW16204   2.052   3.435   3.733 -0.0168 -0.0756 -0.1229
 1523SOL    HW116205   2.050   3.430   3.638  2.8094 -0.8726 -0.1326
 1523SOL    HW216206   2.119   3.503   3.743 -0.4128  0.2319  0.4096
 1524SOL     OW16207   0.055   2.562   4.957 -0.5062  0.3374  0.0070
 1524SOL    HW116208   0.136   2.552   5.008 -0.7922  0.8314  0.5531
 1524SOL    HW216209   0.045   2.657   4.962  3.4739  0.7980 -0.3694
 1525SOL     OW16210   2.712   3.541  16.954 -0.5294 -0.1537  0.0887
 1525SOL    HW116211   2.718   3.488  17.033 -1.0651  0.2443  0.3968
 1525SOL    HW216212   2.799   3.580  16.945  0.2326 -1.6719  1.1029
 1526SOL     OW16213   4.089   1.776   4.460 -0.4978 -0.4363  0.2896
 1526SOL    HW116214   4.066   1.860   4.500  0.1015  0.3631 -1.0743
 1526SOL    HW216215   4.160   1.797   4.399 -0.6858 -0.3879  0.0897
 1527SOL     OW16216   0.506   2.952   3.802  0.5941  0.0706  0.2925
 1527SOL    HW116217   0.449   2.953   3.725  1.7705 -0.2488 -0.5686
 1527SOL    HW216218   0.527   3.044   3.816 -1.3978  0.4321  0.9739
 1528SOL     OW16219   0.891   0.867   5.612  0.5832 -0.3842  0.4878
 1528SOL    HW116220   0.875   0.961   5.603  2.7559 -0.2606 -2.0780
 1528SOL    HW216221   0.933   0.868   5.526 -1.4279 -2.9258 -0.5367
 1529SOL     OW16222   2.450   3.141  17.613 -0.8028 -0.1679 -0.0037
 1529SOL    HW116223   2.394   3.082  17.561 -0.1147 -1.3033  0.5443
 1529SOL    HW216224   2.396   3.219  17.622  2.3038  2.5077 -4.5115
 1530SOL     OW16225   0.345   3.492  14.747 -0.1582 -0.3324 -0.1232
 1530SOL    HW116226   0.413   3.547  14.786 -0.3587 -0.6524  0.6644
 1530SOL    HW216227   0.275   3.557  14.741 -0.7579 -0.9510  0.1408
 1531SOL     OW16228   3.327   3.987   5.980 -0.7111 -0.2275 -0.7047
 1531SOL    HW116229   3.301   4.078   5.967  0.1000  0.2671  1.0663
 1531SOL    HW216230   3.421   3.988   5.960 -0.3417  1.3967  1.1111
 1532SOL     OW16231   4.402   2.515   6.402  0.4073 -0.3382  0.2453
 1532SOL    HW116232   4.353   2.581   6.354  0.1262  0.7862  2.0866
 1532SOL    HW216233   4.341   2.442   6.393  1.5650 -1.1931 -0.7123
 1533SOL     OW16234   2.539   0.901  15.926 -0.1877 -0.0032  0.1413
 1533SOL    HW116235   2.446   0.901  15.949 -0.0038 -2.6243  0.9587
 1533SOL    HW216236   2.563   0.991  15.947 -0.8025  0.4918 -1.2886
 1534SOL     OW16237   3.507   3.719   6.031  0.3068 -0.3540  0.4018
 1534SOL    HW116238   3.414   3.741   6.025  0.1956 -0.8842  0.1077
 1534SOL    HW216239   3.520   3.669   6.111  0.5789 -0.6734  0.1589
 1535SOL     OW16240   2.560   2.939   0.446  0.1334  0.0688  0.0141
 1535SOL    HW116241   2.490   2.960   0.384  0.3173 -0.7749 -0.4797
 1535SOL    HW216242   2.619   3.012   0.429  0.0158  0.0329 -0.5493
 1536SOL     OW16243   0.948   3.182   9.970  0.2712 -0.0880  0.3108
 1536SOL    HW116244   0.972   3.275   9.977 -3.3557  0.9499 -0.7414
 1536SOL    HW216245   1.016   3.151   9.910 -0.4705  1.3420 -1.2653
 1537SOL     OW16246   4.665   2.323   4.866 -0.4519 -0.1691 -0.3661
 1537SOL    HW116247   4.714   2.401   4.891 -1.0417  0.1845 -0.3202
 1537SOL    HW216248   4.683   2.322   4.771 -2.2394 -0.9886 -0.6935
 1538SOL     OW16249   3.596   0.344   2.903  0.0054  0.0008 -0.2685
 1538SOL    HW116250   3.623   0.333   2.812  0.0027  1.4001 -0.4342
 1538SOL    HW216251   3.629   0.430   2.927 -0.8851  0.1256  0.5087
 1539SOL     OW16252   4.410   2.507   5.989 -0.0854 -0.6488  0.7138
 1539SOL    HW116253   4.503   2.483   5.996 -0.5624 -3.1266 -1.3976
 1539SOL    HW216254   4.375   2.464   6.067  1.8755 -0.5233  1.6725
 1540SOL     OW16255   4.346   2.213   7.414 -0.3392  0.3841 -0.1474
 1540SOL    HW116256   4.271   2.270   7.430 -0.1597 -0.1223  2.4577
 1540SOL    HW216257   4.392   2.253   7.340 -0.6681  2.4656  0.7997
 1541SOL     OW16258   1.581   3.171   3.731 -0.0607 -0.2060 -0.3574
 1541SOL    HW116259   1.594   3.224   3.653 -1.5021  0.7100  0.0186
 1541SOL    HW216260   1.656   3.113   3.718 -1.7080 -2.1560 -1.1282
 1542SOL     OW16261   0.158   2.017   9.130 -0.3329  0.3807 -0.2063
 1542SOL    HW116262   0.093   2.028   9.199  0.9532 -2.4202  1.4528
 1542SOL    HW216263   0.111   1.954   9.075 -0.9512  0.1831  0.5587
 1543SOL     OW16264   4.507   1.823   6.773 -0.5728  0.6221 -0.5276
 1543SOL    HW116265   4.426   1.863   6.742 -0.7141 -0.1772 -1.2163
 1543SOL    HW216266   4.469   1.822   6.860  0.0210 -0.7727 -0.2829
 1544SOL     OW16267   2.216   0.021  16.942  0.5065  0.4754  0.3830
 1544SOL    HW116268   2.165   0.093  16.905  1.1891  1.3051  1.0576
 1544SOL    HW216269   2.225   0.053  17.032  4.1245  1.6468 -0.3772
 1545SOL     OW16270   3.460   2.579   1.022 -0.4104 -0.0316 -0.6807
 1545SOL    HW116271   3.524   2.533   0.967  0.8409 -0.6120  1.2509
 1545SOL    HW216272   3.505   2.664   1.026 -4.0317  1.9698 -2.7130
 1546SOL     OW16273   1.940   3.211  15.173 -0.5757 -0.0641 -0.4861
 1546SOL    HW116274   1.917   3.121  15.149 -2.6097 -0.3412  2.5351
 1546SOL    HW216275   1.882   3.213  15.249 -0.1299 -0.7907 -0.1346
 1547SOL     OW16276   3.405   3.711   7.854 -0.3324  0.0194 -0.0572
 1547SOL    HW116277   3.495   3.695   7.824 -0.4857 -0.4319 -0.2784
 1547SOL    HW216278   3.360   3.718   7.770 -0.7086 -0.6088  0.0962
 1548SOL     OW16279   2.555   4.584   2.490  0.4742 -0.0234  0.0639
 1548SOL    HW116280   2.542   4.673   2.523  0.4036 -0.3161  0.8360
 1548SOL    HW216281   2.511   4.534   2.559 -1.5001  0.6330 -0.7012
 1549SOL     OW16282   3.237   0.926   4.102  0.0138 -0.3467 -0.2658
 1549SOL    HW116283   3.144   0.932   4.124  0.5782 -0.4953  2.0949
 1549SOL    HW216284   3.243   0.837   4.070 -1.8564 -0.3012 -0.7623
 1550SOL     OW16285   1.006   3.521   1.886  0.2873  0.8230  0.6484
 1550SOL    HW116286   1.022   3.432   1.917 -1.7432  0.1695 -0.1751
 1550SOL    HW216287   0.952   3.507   1.808  1.9312  0.8606 -0.5171
 1551SOL     OW16288   2.251   0.080  15.245  0.2436  0.3282 -0.0452
 1551SOL    HW116289   2.252   0.136  15.168 -0.6127  3.0207  1.8864
 1551SOL    HW216290   2.239   4.729  15.207  1.7023  0.4183 -0.7055
 1552SOL     OW16291   0.037   1.901   9.677 -0.1308  0.2941 -0.1816
 1552SOL    HW116292   0.076   1.909   9.764  0.3696 -1.2082 -0.2661
 1552SOL    HW216293   0.097   1.837   9.639  1.1536  1.4838 -0.1366
 1553SOL     OW16294   1.515   1.155   3.055 -0.2797  0.1243  0.4858
 1553SOL    HW116295   1.506   1.095   3.129 -1.6063 -0.0388  0.1870
 1553SOL    HW216296   1.575   1.103   3.001  0.4176  1.1723  0.2388
 1554SOL     OW16297   3.314   1.519   0.225 -0.0202  0.5622  0.0001
 1554SOL    HW116298   3.232   1.517   0.275 -0.0750 -0.8513 -0.1634
 1554SOL    HW216299   3.318   1.424   0.215  1.2550  0.4717  1.4707
 1555SOL     OW16300   4.362   0.235  17.000 -0.3582  0.7881 -0.8270
 1555SOL    HW116301   4.311   0.211  16.923 -1.1939 -3.2204  0.9483
 1555SOL    HW216302   4.443   0.262  16.956 -0.0100 -0.9440 -1.2695
 1556SOL     OW16303   4.590   4.399   1.945 -0.1753 -0.4426  0.2553
 1556SOL    HW116304   4.567   4.478   1.994 -0.8193 -0.9620  0.7939
 1556SOL    HW216305   4.506   4.393   1.899 -1.0807  0.3125  1.8000
 1557SOL     OW16306   4.628   2.760   0.645 -0.1854  0.0289  0.0408
 1557SOL    HW116307   4.538   2.791   0.636 -0.2593 -0.4728 -0.9866
 1557SOL    HW216308   4.616   2.712   0.727 -1.2027  1.2859  0.6278
 1558SOL     OW16309   0.492   3.606   7.284  0.0709 -0.1656  0.1312
 1558SOL    HW116310   0.438   3.528   7.294 -0.7958  0.5877  1.4596
 1558SOL    HW216311   0.433   3.673   7.249  0.7304 -0.0550 -0.7596
 1559SOL     OW16312   0.496   0.005   2.707  0.0543  0.2806 -0.9573
 1559SOL    HW116313   0.401   0.021   2.716  0.4662  2.4931 -0.4044
 1559SOL    HW216314   0.512   0.048   2.623  3.0551  2.1100  0.5521
 1560SOL     OW16315   0.836   3.278   8.902  0.9964  0.2362  0.6295
 1560SOL    HW116316   0.746   3.248   8.888  1.1321  0.8198 -1.5620
 1560SOL    HW216317   0.848   3.332   8.823 -0.0297 -0.5498 -0.0674
 1561SOL     OW16318   0.950   1.672   9.801 -0.1653  0.7646 -0.7249
 1561SOL    HW116319   1.030   1.620   9.803  0.6075  1.9105 -1.9276
 1561SOL    HW216320   0.902   1.633   9.727 -0.0520  0.6536 -0.7407
 1562SOL     OW16321   3.885   2.556  12.723 -0.8068 -0.1772  0.0724
 1562SOL    HW116322   3.979   2.546  12.708 -0.1888  2.7974  1.9706
 1562SOL    HW216323   3.868   2.523  12.811  1.0421  1.3571  1.0000
 1563SOL     OW16324   0.715   3.820   3.975  0.3649 -0.9575 -0.2992
 1563SOL    HW116325   0.664   3.749   3.936  0.1030 -0.9129 -0.0372
 1563SOL    HW216326   0.781   3.826   3.906  0.1080 -1.0912 -0.5539
 1564SOL     OW16327   3.861   3.032   5.209  0.1989 -1.1055 -0.2643
 1564SOL    HW116328   3.911   3.085   5.272  0.5824 -0.2770 -1.2717
 1564SOL    HW216329   3.829   2.961   5.265 -1.6305 -1.0829 -1.2790
 1565SOL     OW16330   0.388   2.316   3.111 -0.0887  0.0543 -0.1645
 1565SOL    HW116331   0.444   2.361   3.048 -0.2002  0.7053  0.2026
 1565SOL    HW216332   0.424   2.348   3.194 -0.9818 -0.5213  0.4448
 1566SOL     OW16333   2.070   3.515   0.084  0.2642 -0.0570 -0.4165
 1566SOL    HW116334   2.090   3.454   0.156 -0.7869  0.2849  0.1531
 1566SOL    HW216335   1.988   3.557   0.108  0.7773  0.0070  1.1804
 1567SOL     OW16336   1.418   2.838   8.210 -0.0016 -0.3095  0.2936
 1567SOL    HW116337   1.478   2.901   8.250 -0.2448 -0.3520  0.7271
 1567SOL    HW216338   1.450   2.817   8.122  0.7553  1.1181  0.2271
 1568SOL     OW16339   1.846   0.766   7.906 -0.2017 -0.1188 -0.3877
 1568SOL    HW116340   1.761   0.773   7.949  0.7034 -2.9114  1.8730
 1568SOL    HW216341   1.823   0.734   7.819  0.2090  2.0899 -1.3051
 1569SOL     OW16342   2.208   2.599   4.236 -0.6368  0.1728  0.9906
 1569SOL    HW116343   2.269   2.670   4.255 -1.2195  1.3362 -1.3932
 1569SOL    HW216344   2.169   2.647   4.162 -0.6500 -0.9438  0.2838
 1570SOL     OW16345   1.934   4.160  12.656 -0.2503 -1.1578 -0.1739
 1570SOL    HW116346   1.890   4.241  12.682  2.5808 -0.1642  1.4787
 1570SOL    HW216347   1.973   4.146  12.742 -2.2042 -2.1425  0.5424
 1571SOL     OW16348   4.669   4.125   9.747 -0.1467  0.3233  0.5113
 1571SOL    HW116349   4.594   4.165   9.702 -1.3161 -0.3530  1.8540
 1571SOL    HW216350   4.704   4.201   9.792  0.1887  0.6269 -0.2570
 1572SOL     OW16351   1.423   4.510   9.574  0.0749 -0.1792 -0.2743
 1572SOL    HW116352   1.513   4.544   9.578 -0.2847  0.7670 -0.2527
 1572SOL    HW216353   1.425   4.447   9.646  1.8664  0.7068  0.4662
 1573SOL     OW16354   1.696   0.576   6.543 -0.1773  0.8889  0.3459
 1573SOL    HW116355   1.735   0.606   6.461 -0.8147  1.7542  0.3526
 1573SOL    HW216356   1.734   0.489   6.552 -1.3091  0.3615  0.0022
 1574SOL     OW16357   0.221   0.178   4.398 -0.2740 -0.0510  0.5634
 1574SOL    HW116358   0.189   0.267   4.380  1.7327  0.5021 -0.3197
 1574SOL    HW216359   0.150   0.137   4.347 -0.0600  1.3128 -0.8307
 1575SOL     OW16360   2.244   1.508   9.256 -0.4555  0.0932  0.0948
 1575SOL    HW116361   2.335   1.497   9.285 -1.1193 -0.6384  1.8773
 1575SOL    HW216362   2.197   1.538   9.333 -0.9703  0.6154 -0.4329
 1576SOL     OW16363   2.625   3.588  11.650  0.0727 -0.0802 -0.1427
 1576SOL    HW116364   2.694   3.649  11.622 -0.5919  0.9871  0.5803
 1576SOL    HW216365   2.588   3.621  11.731  1.5225 -2.1117  1.3524
 1577SOL     OW16366   0.660   3.432   8.680 -0.6130 -0.0358 -0.4157
 1577SOL    HW116367   0.639   3.339   8.691  2.7473 -0.6827  0.7945
 1577SOL    HW216368   0.581   3.484   8.689  0.4886  1.6160 -0.3466
 1578SOL     OW16369   1.118   4.615   1.863 -0.6011  0.0475 -0.8696
 1578SOL    HW116370   1.056   4.647   1.929  1.0500 -0.1604  0.7763
 1578SOL    HW216371   1.071   4.535   1.838 -0.4476  0.0243 -1.0903
 1579SOL     OW16372   1.549   3.864  10.631 -0.4828 -0.1828  0.2660
 1579SOL    HW116373   1.557   3.861  10.726 -0.3734  0.6737  0.2825
 1579SOL    HW216374   1.466   3.821  10.611 -1.0725  0.8065  0.5631
 1580SOL     OW16375   4.156   2.399   6.418 -0.1139 -0.9357 -0.1330
 1580SOL    HW116376   4.119   2.454   6.487  0.1871 -0.6427 -0.2041
 1580SOL    HW216377   4.156   2.309   6.452 -1.0152 -1.0195 -0.3431
 1581SOL     OW16378   0.649   0.571   5.947 -0.1726  0.0279 -0.4542
 1581SOL    HW116379   0.688   0.656   5.971  0.3977  0.0374 -1.4078
 1581SOL    HW216380   0.584   0.602   5.885 -1.8299  0.8589  1.6925
 1582SOL     OW16381   4.030   4.018  14.259  0.5640 -0.4005  0.0894
 1582SOL    HW116382   4.006   3.942  14.312  0.6147 -1.0605 -0.8383
 1582SOL    HW216383   4.119   3.997  14.229  0.5971  0.8498 -0.7017
 1583SOL     OW16384   0.643   3.466   7.645  0.2211  0.3793 -0.1779
 1583SOL    HW116385   0.648   3.377   7.681  0.1498  0.4091 -0.0943
 1583SOL    HW216386   0.672   3.524   7.715  2.0120  0.3231 -0.8657
 1584SOL     OW16387   1.753   0.126   9.437  0.4927  0.6711  0.1160
 1584SOL    HW116388   1.729   0.206   9.390 -1.2245 -0.8742 -1.6601
 1584SOL    HW216389   1.783   0.078   9.360 -0.4283  0.0578  0.1329
 1585SOL     OW16390   4.421   0.227  16.082 -0.0602  0.4557 -0.1345
 1585SOL    HW116391   4.493   0.194  16.136  0.3381  0.1725 -0.8346
 1585SOL    HW216392   4.357   0.156  16.092 -0.0133  0.6241  1.3198
 1586SOL     OW16393   0.157   1.472  13.378  0.3978 -0.2723  0.3187
 1586SOL    HW116394   0.227   1.517  13.425  2.9178 -2.4803 -1.3384
 1586SOL    HW216395   0.203   1.398  13.338  0.2546  1.7143 -3.4867
 1587SOL     OW16396   1.933   2.710   3.603  0.0983 -0.2040  0.0740
 1587SOL    HW116397   1.991   2.666   3.542  1.5990  1.1975  0.4584
 1587SOL    HW216398   1.986   2.709   3.684 -1.3292 -0.2422  1.0044
 1588SOL     OW16399   2.156   4.229   6.019  0.1281 -0.0250  0.2902
 1588SOL    HW116400   2.132   4.180   5.940  1.8804  0.6824 -0.6618
 1588SOL    HW216401   2.177   4.159   6.081 -1.0793 -0.5864  0.0619
 1589SOL     OW16402   3.028   0.195   5.633 -0.3116  0.4943  0.3931
 1589SOL    HW116403   3.046   0.206   5.540  0.4964  1.2243  0.6273
 1589SOL    HW216404   3.051   0.284   5.662 -0.1128  0.3588  0.6514
 1590SOL     OW16405   3.525   2.786   2.624  0.5138  0.5179  0.7322
 1590SOL    HW116406   3.491   2.699   2.604  2.2374 -0.0139  0.1066
 1590SOL    HW216407   3.522   2.773   2.719  1.4624  1.5587  0.9062
 1591SOL     OW16408   2.638   4.011  15.092  0.5461  0.1454  0.1556
 1591SOL    HW116409   2.548   4.029  15.066  0.2195  0.8373  1.7761
 1591SOL    HW216410   2.627   3.945  15.161  1.9847  0.5839  0.8013
 1592SOL     OW16411   3.101   1.681   3.354 -0.1058  0.2616  0.0702
 1592SOL    HW116412   3.084   1.741   3.427  0.0198  0.2763  0.0862
 1592SOL    HW216413   3.191   1.704   3.333  1.3286 -2.6203  3.0707
 1593SOL     OW16414   0.458   0.195   8.244  0.1089  0.0674  0.7288
 1593SOL    HW116415   0.413   0.219   8.325 -0.7736  0.9628 -0.0235
 1593SOL    HW216416   0.507   0.272   8.217 -1.2506  0.9845  0.8625
 1594SOL     OW16417   3.259   2.037  16.683  0.0366  0.4922  0.1476
 1594SOL    HW116418   3.328   2.035  16.617 -0.0986 -0.6202  0.0338
 1594SOL    HW216419   3.280   2.118  16.730  0.3927  0.7321 -0.4346
 1595SOL     OW16420   0.097   1.849   7.452 -0.5476  0.0724 -0.2323
 1595SOL    HW116421   0.026   1.914   7.462 -1.4811 -1.0951  0.7337
 1595SOL    HW216422   0.107   1.844   7.357  3.8892 -1.0251  0.3309
 1596SOL     OW16423   1.336   4.694   6.943  0.2414  0.0980 -0.0159
 1596SOL    HW116424   1.401   4.709   6.874  1.4190  0.3957  1.1593
 1596SOL    HW216425   1.258   4.653   6.906  1.5108 -0.7246 -1.7514
 1597SOL     OW16426   0.276   1.727   3.105  0.2899  0.4821  0.4252
 1597SOL    HW116427   0.356   1.763   3.144  0.2651 -0.6316  1.5189
 1597SOL    HW216428   0.220   1.716   3.182  0.8088 -0.0918  0.7232
 1598SOL     OW16429   1.867   2.665   7.289  0.0923 -0.8884  0.8214
 1598SOL    HW116430   1.943   2.715   7.262  0.4164 -1.5400  0.5144
 1598SOL    HW216431   1.790   2.717   7.266  0.8027 -1.0779 -1.9312
 1599SOL     OW16432   1.994   0.004   5.434 -0.1192 -0.3800  0.0007
 1599SOL    HW116433   1.977   0.097   5.422 -1.7359 -0.6857 -0.1686
 1599SOL    HW216434   1.930   4.716   5.501  1.9827 -1.4097  1.6417
 1600SOL     OW16435   3.848   4.537  13.321 -0.1666  0.2110 -0.1484
 1600SOL    HW116436   3.795   4.458  13.316 -0.3874  0.3740 -0.4225
 1600SOL    HW216437   3.910   4.510  13.388  0.7606  1.5269 -0.4880
 1601SOL     OW16438   4.736   1.903   8.127  0.1110  0.4252 -0.2109
 1601SOL    HW116439   0.052   1.823   8.127  1.5117  1.3340 -3.3840
 1601SOL    HW216440   4.657   1.880   8.078 -0.3720 -0.6318  1.0556
 1602SOL     OW16441   1.735   1.402  16.318  0.2606  0.0690 -0.2006
 1602SOL    HW116442   1.700   1.344  16.251 -3.0556  1.9190 -0.0590
 1602SOL    HW216443   1.764   1.482  16.275  1.0062  0.2297  0.5775
 1603SOL     OW16444   2.417   1.860   9.076  0.1823 -0.1713  0.9718
 1603SOL    HW116445   2.486   1.867   9.141  2.1101 -4.5879 -0.5682
 1603SOL    HW216446   2.398   1.766   9.079 -0.4591 -0.1082 -0.6332
 1604SOL     OW16447   3.480   4.003   0.719 -0.1171 -0.4427  1.0186
 1604SOL    HW116448   3.536   3.979   0.793  0.1793  1.8784  1.5674
 1604SOL    HW216449   3.449   3.917   0.692  1.8103 -1.0586  0.8175
 1605SOL     OW16450   4.213   3.897   6.195  0.2515 -0.1962 -0.0516
 1605SOL    HW116451   4.298   3.934   6.218 -0.0494  0.5942 -0.2178
 1605SOL    HW216452   4.160   3.976   6.204  0.9332  0.3374 -0.7738
 1606SOL     OW16453   2.769   0.349  12.087 -0.4099  0.5470 -0.5636
 1606SOL    HW116454   2.807   0.271  12.127 -0.9717  2.1548  3.0800
 1606SOL    HW216455   2.843   0.382  12.037  0.2674 -0.5603 -0.3041
 1607SOL     OW16456   4.511   2.171   2.679  1.0295 -0.0685 -0.0751
 1607SOL    HW116457   4.547   2.229   2.746  1.2424 -0.5867  0.2561
 1607SOL    HW216458   4.437   2.219   2.641  0.3993 -1.9783 -1.2582
 1608SOL     OW16459   3.033   3.153  15.256 -0.0723 -0.5096 -0.6570
 1608SOL    HW116460   3.038   3.067  15.298  1.0675  0.0216  0.3104
 1608SOL    HW216461   3.125   3.162  15.228  0.1289 -0.5275 -0.0099
 1609SOL     OW16462   1.648   2.949   6.752  0.2822  0.2940  0.8310
 1609SOL    HW116463   1.615   3.026   6.706 -0.0966 -1.0143 -1.0783
 1609SOL    HW216464   1.567   2.913   6.790 -0.1026  0.4684  0.1889
 1610SOL     OW16465   0.003   4.581   8.305 -0.2026 -0.2955 -0.4910
 1610SOL    HW116466   0.029   4.491   8.287 -3.8298 -1.2076 -1.1327
 1610SOL    HW216467   0.092   4.618   8.306 -0.2192 -0.3042  0.8379
 1611SOL     OW16468   3.818   3.642   3.257  0.5261 -0.0798 -0.8064
 1611SOL    HW116469   3.849   3.698   3.185 -0.6157  0.2875 -1.0078
 1611SOL    HW216470   3.840   3.555   3.226  2.3065  0.1688 -0.2427
 1612SOL     OW16471   2.683   3.543   2.831  0.3319  0.5946  0.3169
 1612SOL    HW116472   2.664   3.616   2.772 -1.9836  0.4582  0.8852
 1612SOL    HW216473   2.756   3.500   2.787  0.0649 -0.4590  0.8995
 1613SOL     OW16474   1.644   2.197   9.098 -0.0562 -0.3442 -0.2776
 1613SOL    HW116475   1.622   2.183   9.190  3.5927  1.2536  0.8471
 1613SOL    HW216476   1.737   2.220   9.100 -0.1302 -0.2410  2.1856
 1614SOL     OW16477   4.214   3.937   6.488 -0.2987  0.6634 -0.2628
 1614SOL    HW116478   4.305   3.966   6.484  0.6570 -2.7588 -3.2315
 1614SOL    HW216479   4.162   4.018   6.488 -0.1976  0.7235  1.1824
 1615SOL     OW16480   0.239   2.649   0.252 -0.0898  0.2671  0.3755
 1615SOL    HW116481   0.176   2.680   0.318 -0.8079 -0.7602  0.1643
 1615SOL    HW216482   0.208   2.703   0.179 -1.9747 -0.1678  0.8379
 1616SOL     OW16483   1.557   3.442   3.642 -0.6636 -0.7863 -0.2514
 1616SOL    HW116484   1.563   3.427   3.736 -0.5707  1.7453  0.1607
 1616SOL    HW216485   1.562   3.538   3.637  0.7616 -0.9370 -1.8496
 1617SOL     OW16486   1.085   2.536   9.343  0.2211 -0.0103 -0.6436
 1617SOL    HW116487   1.177   2.527   9.370  0.1091 -1.1780 -0.6295
 1617SOL    HW216488   1.043   2.530   9.429  1.0409  0.4213 -0.2078
 1618SOL     OW16489   0.122   4.164   6.722  0.6155  0.0074 -0.1798
 1618SOL    HW116490   0.048   4.104   6.720  0.3023  0.3502  0.9514
 1618SOL    HW216491   0.079   4.244   6.753  0.0065  0.3105 -1.8145
 1619SOL     OW16492   2.712   2.442   9.719  0.1544  0.3952  0.2313
 1619SOL    HW116493   2.621   2.440   9.751 -0.6715 -1.0855 -2.2968
 1619SOL    HW216494   2.761   2.475   9.795  1.1940 -0.2861 -0.1530
 1620SOL     OW16495   2.484   0.871   6.304  0.0578  0.1530 -0.3253
 1620SOL    HW116496   2.572   0.906   6.313 -0.0716  0.8842 -1.8714
 1620SOL    HW216497   2.421   0.920   6.356  1.8264  1.1313  0.8835
 1621SOL     OW16498   3.698   3.367   4.538 -0.1234 -0.5858  0.0034
 1621SOL    HW116499   3.693   3.327   4.625  1.9349  1.7124  1.1842
 1621SOL    HW216500   3.732   3.454   4.560 -0.1455 -1.5296  3.8829
 1622SOL     OW16501   0.325   4.047  10.690 -0.1716 -0.1348 -0.6543
 1622SOL    HW116502   0.339   4.050  10.784  0.2621  0.7239 -0.7427
 1622SOL    HW216503   0.250   4.103  10.669 -0.2828 -0.3822 -0.9176
 1623SOL     OW16504   2.969   0.575   5.082  0.1338 -0.0882  0.3017
 1623SOL    HW116505   2.980   0.523   5.161 -1.3674  1.5590  1.6002
 1623SOL    HW216506   2.910   0.516   5.036  0.2090 -0.2515  0.4140
 1624SOL     OW16507   0.832   0.374   4.842 -1.1536 -0.1319 -0.6439
 1624SOL    HW116508   0.745   0.398   4.811 -0.3856 -0.4403 -3.0332
 1624SOL    HW216509   0.829   0.282   4.870  1.0216 -0.0834 -0.2621
 1625SOL     OW16510   0.858   3.869   7.378 -0.4628 -0.4147  0.4613
 1625SOL    HW116511   0.934   3.826   7.415  0.1750  0.5958  0.3387
 1625SOL    HW216512   0.811   3.786   7.376 -0.7751 -0.2353  0.2814
 1626SOL     OW16513   3.980   3.576   4.209 -0.6221 -0.0967  0.2796
 1626SOL    HW116514   3.954   3.529   4.288 -0.1140  0.4951  0.7938
 1626SOL    HW216515   3.967   3.509   4.142  2.1418  0.5944 -0.9283
 1627SOL     OW16516   2.999   3.689   4.267 -0.5089  0.2555 -0.5697
 1627SOL    HW116517   3.024   3.613   4.319 -2.0470 -0.8625 -1.4769
 1627SOL    HW216518   3.047   3.675   4.185  1.3977 -2.6701  1.0767
 1628SOL     OW16519   3.442   3.009   7.616 -0.4394  0.6751 -0.6987
 1628SOL    HW116520   3.459   3.062   7.694 -0.2137 -0.3340 -0.0628
 1628SOL    HW216521   3.517   2.950   7.624 -3.1404 -2.9516 -2.3678
 1629SOL     OW16522   2.462   1.577   4.488 -0.0252 -0.1132  0.2518
 1629SOL    HW116523   2.367   1.582   4.495 -0.0498  3.0554 -2.2682
 1629SOL    HW216524   2.480   1.605   4.577  2.0516 -1.8870  0.3980
 1630SOL     OW16525   0.550   3.048   6.039 -0.0197  0.4302 -0.0667
 1630SOL    HW116526   0.564   3.118   5.975 -0.7061  1.5262  0.9795
 1630SOL    HW216527   0.463   3.062   6.077  0.0333  0.2602  0.1144
 1631SOL     OW16528   3.071   3.206  12.639 -0.0109 -0.0265 -0.7348
 1631SOL    HW116529   3.096   3.298  12.631  0.5231 -0.0743  0.5113
 1631SOL    HW216530   3.154   3.161  12.623 -0.0104 -0.3537  0.2033
 1632SOL     OW16531   4.047   1.369  10.392  0.4368 -0.4680 -0.1522
 1632SOL    HW116532   4.047   1.357  10.297 -0.5420 -0.5279 -0.1452
 1632SOL    HW216533   4.017   1.460  10.398  2.2489  0.0183  1.4046
 1633SOL     OW16534   2.113   4.138   5.600 -0.1499  0.2856  0.3662
 1633SOL    HW116535   2.174   4.089   5.545 -1.8756 -1.2626 -0.1992
 1633SOL    HW216536   2.164   4.214   5.627  0.7650 -0.2398  0.1010
 1634SOL     OW16537   0.316   0.220   8.483  0.4166 -0.3389 -0.2574
 1634SOL    HW116538   0.379   0.171   8.536 -0.7085  1.8480  3.0898
 1634SOL    HW216539   0.241   0.235   8.540  1.2217 -0.6961  0.9012
 1635SOL     OW16540   4.277   1.853   3.055 -0.2917 -0.2249  0.2665
 1635SOL    HW116541   4.306   1.804   3.132 -0.9311  0.4428  0.9315
 1635SOL    HW216542   4.300   1.942   3.082  0.3970 -0.2070 -0.3857
 1636SOL     OW16543   2.204   3.498   6.226 -0.5973 -0.2367  0.3224
 1636SOL    HW116544   2.128   3.547   6.258  0.0161  0.1416  1.1964
 1636SOL    HW216545   2.161   3.418   6.194  1.1904 -0.9960 -0.1413
 1637SOL     OW16546   2.230   1.713  17.165 -0.3687 -0.0627  0.3196
 1637SOL    HW116547   2.218   1.727  17.259 -0.1826  1.4960  0.1073
 1637SOL    HW216548   2.193   1.796  17.134  0.3023 -0.0117 -0.3426
 1638SOL     OW16549   2.357   3.247   5.632  0.1512 -0.0409  0.1099
 1638SOL    HW116550   2.413   3.180   5.671 -0.7119 -0.8978 -0.1189
 1638SOL    HW216551   2.396   3.327   5.666 -1.6881  1.0512 -0.3531
 1639SOL     OW16552   3.669   0.516   1.782 -0.3945  0.1635  0.4220
 1639SOL    HW116553   3.672   0.450   1.713 -0.1343  1.1997 -0.5664
 1639SOL    HW216554   3.655   0.599   1.736  0.9331  0.9813  1.4972
 1640SOL     OW16555   0.261   4.680   8.402  0.0293 -0.0601  0.2752
 1640SOL    HW116556   0.348   4.641   8.397  0.8604  1.6348  1.2758
 1640SOL    HW216557   0.278   0.036   8.382  1.3052 -0.9478 -2.6967
 1641SOL     OW16558   1.443   4.158   5.519 -0.1075 -0.0174  0.2883
 1641SOL    HW116559   1.360   4.148   5.472 -0.5577  1.0106  0.8586
 1641SOL    HW216560   1.412   4.224   5.582  1.4792  1.3312 -0.3709
 1642SOL     OW16561   0.011   1.106   7.051 -0.1048 -0.2893  0.2767
 1642SOL    HW116562   4.683   1.175   7.060 -0.5497 -1.0751  2.9867
 1642SOL    HW216563   0.003   1.085   6.958  0.6963 -1.1890  0.4022
 1643SOL     OW16564   1.768   4.724   6.632 -0.0792 -0.2993 -0.1774
 1643SOL    HW116565   1.817   0.040   6.695 -0.5107  0.4210 -0.4500
 1643SOL    HW216566   1.819   4.733   6.552 -0.1644  1.2348 -0.0522
 1644SOL     OW16567   3.372   3.669  14.125  0.6176 -0.0050  0.2132
 1644SOL    HW116568   3.321   3.730  14.071 -1.0482 -2.1936 -0.7337
 1644SOL    HW216569   3.437   3.729  14.160  1.6653 -0.3477 -1.1731
 1645SOL     OW16570   1.771   1.364   4.561 -0.1246  0.2459 -0.4699
 1645SOL    HW116571   1.705   1.425   4.593 -1.0471 -0.5187 -0.9027
 1645SOL    HW216572   1.803   1.323   4.641  0.5129 -1.1743 -1.4506
 1646SOL     OW16573   4.662   3.975   7.375 -0.3677 -0.2298  0.2880
 1646SOL    HW116574   4.659   3.913   7.448  0.0813 -0.7837 -0.1558
 1646SOL    HW216575   4.571   4.004   7.366 -0.0941 -0.8009 -4.5579
 1647SOL     OW16576   0.220   3.934  11.556  0.0920 -0.6912  0.1284
 1647SOL    HW116577   0.219   3.976  11.470 -0.1272 -0.7198  0.1173
 1647SOL    HW216578   0.307   3.958  11.589 -0.6265  1.0719  0.7365
 1648SOL     OW16579   2.642   3.090   4.496  0.2566 -0.1533 -0.4629
 1648SOL    HW116580   2.669   3.168   4.546  2.3643 -2.0492  1.3824
 1648SOL    HW216581   2.727   3.047   4.484  0.7096  0.1644  1.6617
 1649SOL     OW16582   2.003   0.266   7.199  0.3776  0.2743  0.5614
 1649SOL    HW116583   1.981   0.279   7.107 -0.4872 -0.0487  0.7256
 1649SOL    HW216584   2.074   0.328   7.213  0.3536 -0.3249  3.3017
 1650SOL     OW16585   3.074   4.734  12.062  0.1917  0.1713  0.0283
 1650SOL    HW116586   3.016   4.665  12.028 -0.0760  1.0571 -1.3098
 1650SOL    HW216587   3.069   0.069  12.000 -1.7016 -1.6206 -1.9062
 1651SOL     OW16588   0.602   1.531   4.051 -0.5621  0.5050 -0.2133
 1651SOL    HW116589   0.649   1.576   4.121  2.0904 -0.7825 -1.1781
 1651SOL    HW216590   0.676   1.529   3.991 -1.0156 -0.6807 -0.7369
 1652SOL     OW16591   3.588   1.809   2.733 -0.1944  0.3587 -0.4400
 1652SOL    HW116592   3.676   1.816   2.697  0.3319  3.0609  1.3320
 1652SOL    HW216593   3.526   1.806   2.660  0.1561  0.5175 -0.7443
 1653SOL     OW16594   0.604   3.501  13.179 -0.7843 -0.1487 -0.2453
 1653SOL    HW116595   0.634   3.580  13.223  0.9410 -0.6957 -0.4262
 1653SOL    HW216596   0.590   3.523  13.087  1.3318 -2.5676 -1.1472
 1654SOL     OW16597   2.719   2.082   5.001 -0.1493 -0.1330  0.1349
 1654SOL    HW116598   2.626   2.080   5.022 -0.0509 -0.9206  0.5266
 1654SOL    HW216599   2.737   2.174   4.981  0.2912 -0.9589 -3.1578
 1655SOL     OW16600   0.477   1.069  16.918 -0.0783  0.7770 -0.5614
 1655SOL    HW116601   0.534   1.143  16.941  0.5604  0.3836 -0.8763
 1655SOL    HW216602   0.492   1.061  16.824  2.7478  0.7300 -0.1003
 1656SOL     OW16603   2.146   4.498  16.903 -0.0600  0.0421 -0.1846
 1656SOL    HW116604   2.158   4.593  16.909 -0.0035 -0.0076  0.5431
 1656SOL    HW216605   2.239   4.482  16.890  0.2411  1.2201  0.5798
 1657SOL     OW16606   1.536   4.412   8.400  0.6852  0.4104  0.1726
 1657SOL    HW116607   1.568   4.417   8.490 -0.6601  0.5673  0.6390
 1657SOL    HW216608   1.526   4.500   8.362  0.0945  1.2781  2.3323
 1658SOL     OW16609   2.835   0.053   3.041 -0.3964 -0.0423  0.3022
 1658SOL    HW116610   2.917   0.012   3.067 -0.8064  0.2550  2.1074
 1658SOL    HW216611   2.778   0.020   3.111 -0.0583 -1.7736 -0.2333
 1659SOL     OW16612   1.311   0.789   2.585 -0.1021 -0.8998  0.1314
 1659SOL    HW116613   1.225   0.771   2.623  0.4226 -0.6326  1.4407
 1659SOL    HW216614   1.351   0.702   2.578 -0.1856 -0.8738 -0.7752
 1660SOL     OW16615   1.005   3.713   0.198  0.3851 -0.0840 -0.1719
 1660SOL    HW116616   0.995   3.722   0.103  2.1522  3.4473 -0.0366
 1660SOL    HW216617   1.049   3.794   0.225  1.6298 -1.0986  0.8255
 1661SOL     OW16618   1.234   0.195  16.146 -0.3895 -0.1628  0.0396
 1661SOL    HW116619   1.234   0.291  16.139  0.3117 -0.0686  1.2287
 1661SOL    HW216620   1.140   0.178  16.137 -1.0322  0.8196  4.6088
 1662SOL     OW16621   2.014   3.467   7.978 -0.5351  0.3284 -0.1597
 1662SOL    HW116622   2.088   3.500   7.926 -1.3925  1.4507 -0.6811
 1662SOL    HW216623   2.066   3.422   8.044 -1.6807  1.3729  1.4552
 1663SOL     OW16624   2.266   0.427   2.599 -0.1082 -0.0840  0.6944
 1663SOL    HW116625   2.280   0.334   2.618 -1.8828 -0.9947 -2.4063
 1663SOL    HW216626   2.316   0.462   2.672  0.7396 -2.1631  1.1122
 1664SOL     OW16627   1.253   4.424   5.349 -0.0131  0.7138 -0.0310
 1664SOL    HW116628   1.253   4.377   5.433 -2.9088  0.3130 -0.2348
 1664SOL    HW216629   1.346   4.429   5.331 -0.1497  0.9214 -0.6589
 1665SOL     OW16630   0.480   0.882  15.555 -0.3542 -0.1654 -0.0716
 1665SOL    HW116631   0.501   0.840  15.472  3.0838  3.4188 -1.0215
 1665SOL    HW216632   0.523   0.823  15.616 -1.2920  0.5359  1.2734
 1666SOL     OW16633   4.645   4.403   5.724 -0.1165 -0.2626  0.1155
 1666SOL    HW116634   4.628   4.417   5.817  0.5231  2.3725 -0.1686
 1666SOL    HW216635   4.718   4.461   5.705 -0.6302  0.6459  0.9215
 1667SOL     OW16636   2.791   3.004   5.083 -0.2871  0.4899 -0.3588
 1667SOL    HW116637   2.709   2.985   5.037 -1.1889  0.8028  1.1075
 1667SOL    HW216638   2.756   3.082   5.127  0.6592  0.6942  0.0271
 1668SOL     OW16639   3.639   1.128  15.606 -0.4531 -0.1740  0.0449
 1668SOL    HW116640   3.578   1.138  15.533  0.9955  2.1610 -0.8661
 1668SOL    HW216641   3.586   1.082  15.671 -1.4485  1.5085  0.4255
 1669SOL     OW16642   4.186   3.656   6.611 -0.4553 -0.4006 -0.3550
 1669SOL    HW116643   4.213   3.621   6.696 -1.0596 -0.2588 -0.1054
 1669SOL    HW216644   4.270   3.666   6.567 -0.9631  1.8107 -0.7926
 1670SOL     OW16645   2.439   4.418   8.188 -0.4644  0.1008 -0.3615
 1670SOL    HW116646   2.399   4.340   8.226 -0.6603  0.4678  0.1937
 1670SOL    HW216647   2.362   4.471   8.168  0.6405  1.2915 -1.4489
 1671SOL     OW16648   3.781   2.550  14.723  0.2680  0.5481 -0.4220
 1671SOL    HW116649   3.731   2.500  14.788 -1.3693  1.3228 -1.0889
 1671SOL    HW216650   3.736   2.635  14.718 -0.5782  0.2925  2.3790
 1672SOL     OW16651   3.933   0.793   9.309 -0.2028 -0.3334  0.1725
 1672SOL    HW116652   3.870   0.745   9.255  0.3359  0.7754 -1.4277
 1672SOL    HW216653   3.939   0.742   9.389 -1.2047  1.5398  1.4375
 1673SOL     OW16654   1.618   3.140  17.366  0.5641  0.1841  0.3401
 1673SOL    HW116655   1.650   3.116  17.453  3.3101 -0.5174 -0.8754
 1673SOL    HW216656   1.652   3.229  17.365 -1.5254  0.9553 -1.6073
 1674SOL     OW16657   3.249   2.810   0.620 -0.3675  0.1765  0.4190
 1674SOL    HW116658   3.158   2.813   0.591 -0.1215 -1.2715 -0.5125
 1674SOL    HW216659   3.263   2.715   0.630 -0.6092  0.0767 -0.2171
 1675SOL     OW16660   3.733   1.561   6.864  0.2678  0.1698 -0.4454
 1675SOL    HW116661   3.661   1.544   6.804 -0.3632 -0.0941  0.3977
 1675SOL    HW216662   3.678   1.543   6.940  0.9322  0.6883  0.1609
 1676SOL     OW16663   1.572   1.396   6.483  0.5673 -0.2582 -0.1251
 1676SOL    HW116664   1.644   1.389   6.420  1.0314 -0.8147  0.4603
 1676SOL    HW216665   1.605   1.335   6.550 -0.5390 -2.0995 -1.2375
 1677SOL     OW16666   2.412   2.841   7.129 -0.1493  0.0357  0.4804
 1677SOL    HW116667   2.403   2.783   7.204 -0.6291 -1.2425 -0.5687
 1677SOL    HW216668   2.381   2.928   7.155  1.3642  0.7297 -0.0219
 1678SOL     OW16669   0.323   1.925  10.472 -0.3116  0.5527 -0.0285
 1678SOL    HW116670   0.369   1.854  10.516  3.6742  2.7283 -0.6702
 1678SOL    HW216671   0.292   1.886  10.390 -2.0358 -1.9016  1.7947
 1679SOL     OW16672   0.568   0.039   3.879  0.7308  0.6157 -0.0663
 1679SOL    HW116673   0.479   0.007   3.896  0.5375  1.6640  0.8871
 1679SOL    HW216674   0.543   0.128   3.852 -1.5207 -0.1221 -0.4234
 1680SOL     OW16675   2.768   1.921   2.096  0.1975 -0.5766  0.0251
 1680SOL    HW116676   2.749   1.953   2.008 -0.3831 -1.6513 -0.2298
 1680SOL    HW216677   2.863   1.934   2.098  0.3947 -1.9407 -0.4755
 1681SOL     OW16678   4.696   4.079   2.024 -0.2110 -0.2110  0.1115
 1681SOL    HW116679   4.665   4.161   1.985  0.6116 -0.0974 -0.3121
 1681SOL    HW216680   4.697   4.112   2.113 -1.0564  2.5605 -0.8962
 1682SOL     OW16681   0.691   4.412  14.478  0.0162 -0.0681 -0.1267
 1682SOL    HW116682   0.681   4.479  14.410  3.7316  0.4531 -0.1562
 1682SOL    HW216683   0.747   4.463  14.537  1.0113 -1.1254 -0.1742
 1683SOL     OW16684   3.300   2.648   4.773  0.8001 -0.1331  0.5899
 1683SOL    HW116685   3.377   2.593   4.789  1.8223  1.7434  2.1153
 1683SOL    HW216686   3.340   2.721   4.819 -0.5041  0.8613  0.1442
 1684SOL     OW16687   1.808   4.291   3.306 -0.2841  0.2562 -0.4981
 1684SOL    HW116688   1.795   4.357   3.238 -1.4374 -0.2187 -0.7485
 1684SOL    HW216689   1.715   4.279   3.328  0.3851  0.5864  2.5865
 1685SOL     OW16690   2.155   3.156   0.996  0.1058  0.3063 -0.1325
 1685SOL    HW116691   2.188   3.227   0.941 -2.3382  3.2492  2.2071
 1685SOL    HW216692   2.075   3.131   0.951  0.9839  0.2332 -1.6516
 1686SOL     OW16693   0.432   1.655  10.558  0.0230  0.3737  0.5239
 1686SOL    HW116694   0.408   1.616  10.474 -0.3627 -0.5847  1.0815
 1686SOL    HW216695   0.478   1.591  10.613  0.6602  0.2398 -0.1644
 1687SOL     OW16696   2.342   1.405   5.278  0.1606  0.2356  0.6717
 1687SOL    HW116697   2.354   1.458   5.199  0.1613 -0.6380  0.0882
 1687SOL    HW216698   2.248   1.391   5.270  0.0872  1.2594 -0.1775
 1688SOL     OW16699   2.935   1.580   6.897  0.5845 -0.1113  0.2264
 1688SOL    HW116700   2.935   1.624   6.982  0.9164 -0.3871  0.3661
 1688SOL    HW216701   3.025   1.548   6.888 -0.1334 -2.5021  1.5911
 1689SOL     OW16702   2.689   4.704   7.054  0.0011  0.6452  0.1475
 1689SOL    HW116703   2.604   4.679   7.089  0.3267  1.0418  1.2256
 1689SOL    HW216704   2.657   4.717   6.965  2.8654  1.0443 -0.8103
 1690SOL     OW16705   4.598   0.372   3.663  0.5858  0.0579 -0.4027
 1690SOL    HW116706   4.649   0.349   3.741 -0.0586 -1.2746 -0.3702
 1690SOL    HW216707   4.510   0.341   3.682 -0.0345  0.6708 -2.2439
 1691SOL     OW16708   4.113   0.753   5.784 -0.3652  0.9521  0.1716
 1691SOL    HW116709   4.154   0.757   5.870  0.0764 -3.4081  0.1683
 1691SOL    HW216710   4.150   0.828   5.736  0.3083  1.4943  1.5432
 1692SOL     OW16711   2.164   2.129  16.893 -0.4214  0.5641 -0.8607
 1692SOL    HW116712   2.128   2.211  16.925 -0.1443  0.4465 -0.2333
 1692SOL    HW216713   2.176   2.130  16.799 -1.7931 -1.5181 -1.0637
 1693SOL     OW16714   3.068   0.816   8.110 -0.1314  0.1154 -0.2148
 1693SOL    HW116715   3.008   0.847   8.177  0.7287  0.3363  0.4591
 1693SOL    HW216716   3.139   0.880   8.120  1.4220 -1.4696 -1.1687
 1694SOL     OW16717   0.683   2.210   3.278  0.6387 -0.1695 -0.2402
 1694SOL    HW116718   0.714   2.297   3.251 -3.4684  1.1148 -0.9205
 1694SOL    HW216719   0.680   2.209   3.374  1.4119  0.1816 -0.2134
 1695SOL     OW16720   2.794   0.342   7.656  1.0184 -0.4233  0.6676
 1695SOL    HW116721   2.849   0.399   7.710 -0.8040  1.4367  0.5821
 1695SOL    HW216722   2.728   0.309   7.718 -1.0556 -1.1831 -1.9328
 1696SOL     OW16723   0.758   0.288  15.281 -0.4972  0.0228 -0.3021
 1696SOL    HW116724   0.681   0.340  15.259 -0.0631  1.4033  1.4215
 1696SOL    HW216725   0.786   0.313  15.370 -0.8804  1.7824 -0.6895
 1697SOL     OW16726   2.507   0.248   6.317  0.6010 -0.1763 -0.3722
 1697SOL    HW116727   2.541   0.170   6.361 -0.4241 -1.7845 -2.4391
 1697SOL    HW216728   2.586   0.302   6.311 -0.2812  1.1365 -0.1876
 1698SOL     OW16729   0.293   1.398  12.533 -0.2781 -0.3965 -0.0146
 1698SOL    HW116730   0.247   1.458  12.591 -1.0811  1.0205 -2.0899
 1698SOL    HW216731   0.231   1.385  12.461 -1.7105 -3.0630  1.7311
 1699SOL     OW16732   2.210   4.557   8.082  0.1561 -0.1480 -0.2340
 1699SOL    HW116733   2.181   4.648   8.072 -2.8193 -1.2427 -1.6157
 1699SOL    HW216734   2.138   4.505   8.047 -0.0619  0.6732 -1.0306
 1700SOL     OW16735   4.532   3.495  14.177  0.2087 -0.4787  0.2236
 1700SOL    HW116736   4.511   3.483  14.084 -0.0720 -2.1066  0.4904
 1700SOL    HW216737   4.482   3.572  14.201  3.0336  0.7949  1.9468
 1701SOL     OW16738   4.070   1.414   4.786  0.1703 -0.1620 -0.1998
 1701SOL    HW116739   4.077   1.351   4.714  0.8219 -0.6694  0.3075
 1701SOL    HW216740   3.974   1.415   4.786  0.1974  1.2151  1.0477
 1702SOL     OW16741   1.209   1.007  14.203  0.1571 -0.0420  0.5128
 1702SOL    HW116742   1.125   0.975  14.170  1.3821 -0.7132 -1.9616
 1702SOL    HW216743   1.257   0.996  14.121  1.4287  0.9513  1.1271
 1703SOL     OW16744   3.507   1.329   2.112  0.5786  0.1661  0.1829
 1703SOL    HW116745   3.502   1.425   2.117 -0.9527  0.1728 -1.4553
 1703SOL    HW216746   3.453   1.301   2.186  0.0615  3.1397  0.9266
 1704SOL     OW16747   2.421   2.716   2.130  0.1757 -0.1071  0.4967
 1704SOL    HW116748   2.501   2.722   2.077  0.1086  0.5780  0.4751
 1704SOL    HW216749   2.457   2.749   2.212  0.5705 -1.0238  0.6929
 1705SOL     OW16750   2.903   2.101  11.671  0.1879  0.5129 -0.3449
 1705SOL    HW116751   2.911   2.053  11.753 -1.0467 -0.0337 -0.5384
 1705SOL    HW216752   2.926   2.039  11.601  1.0974  1.3544 -0.7874
 1706SOL     OW16753   3.853   4.145   4.877 -0.2128  0.3156  0.2753
 1706SOL    HW116754   3.805   4.157   4.795 -1.0376 -1.7525  0.4426
 1706SOL    HW216755   3.938   4.113   4.847 -0.6633 -1.0340  0.4240
 1707SOL     OW16756   3.773   2.345   5.713  0.1235  0.1447 -0.5485
 1707SOL    HW116757   3.720   2.292   5.772  1.6750 -0.3684  0.3857
 1707SOL    HW216758   3.718   2.376   5.641 -0.5425  0.0138 -0.0909
 1708SOL     OW16759   4.665   1.427   4.796 -0.9600  0.0752 -0.1455
 1708SOL    HW116760   4.620   1.364   4.851 -0.0738 -1.6439 -1.4164
 1708SOL    HW216761   4.636   1.390   4.712  0.6153  0.6297 -0.9350
 1709SOL     OW16762   2.066   4.457  15.427  0.0036 -0.0342 -0.2138
 1709SOL    HW116763   2.049   4.539  15.475 -0.2380  1.2345 -2.4692
 1709SOL    HW216764   2.096   4.398  15.497  1.4773  0.2399 -0.6219
 1710SOL     OW16765   2.939   1.303   8.098 -0.1996  0.0255  0.3477
 1710SOL    HW116766   2.908   1.223   8.142 -0.6465  0.8293  1.4844
 1710SOL    HW216767   3.014   1.268   8.051  0.8797  2.3320  0.4022
 1711SOL     OW16768   3.796   0.827  15.129 -0.8350 -0.2531  0.0947
 1711SOL    HW116769   3.744   0.761  15.082  1.2008 -1.1701 -0.8470
 1711SOL    HW216770   3.751   0.910  15.110  0.2684 -0.2627 -2.6117
 1712SOL     OW16771   1.333   2.981   0.903 -0.1085  0.9510 -0.3347
 1712SOL    HW116772   1.426   2.999   0.915  0.1219 -1.3289  1.2470
 1712SOL    HW216773   1.344   2.915   0.834  2.6979 -0.5597  1.5565
 1713SOL     OW16774   2.637   1.372   8.101 -0.2321 -0.1823  0.1368
 1713SOL    HW116775   2.678   1.333   8.024  1.3164  2.2482 -0.2611
 1713SOL    HW216776   2.706   1.345   8.162  0.7499 -0.0830 -0.9211
 1714SOL     OW16777   3.320   3.374   4.850 -0.3165 -0.0952 -0.0141
 1714SOL    HW116778   3.340   3.435   4.920 -1.4894 -0.7093  0.8474
 1714SOL    HW216779   3.398   3.320   4.838 -0.8452 -0.5770 -1.3075
 1715SOL     OW16780   4.282   2.319   9.132  0.0596 -0.0822 -0.0826
 1715SOL    HW116781   4.280   2.379   9.206  1.2464  1.6472 -1.4486
 1715SOL    HW216782   4.316   2.245   9.182 -1.5841 -0.1448  0.9596
 1716SOL     OW16783   2.132   0.098   5.128 -0.8229  0.4494  0.5099
 1716SOL    HW116784   2.100   0.182   5.098  0.4023  1.2550  1.4403
 1716SOL    HW216785   2.174   0.119   5.212 -0.1944  0.4917  0.1804
 1717SOL     OW16786   4.550   4.508   0.887 -0.1309 -0.0349 -0.1795
 1717SOL    HW116787   4.553   4.523   0.792 -1.3414  1.8001  0.0741
 1717SOL    HW216788   4.643   4.511   0.911 -0.4673 -1.2841  1.2838
 1718SOL     OW16789   1.663   1.044  11.623 -0.1090  0.1822  0.2562
 1718SOL    HW116790   1.738   1.086  11.664 -0.1148 -1.0130  1.5103
 1718SOL    HW216791   1.633   1.004  11.705  0.5232  1.6387  1.1926
 1719SOL     OW16792   0.906   3.772  12.149 -0.0522 -0.6294  0.5292
 1719SOL    HW116793   0.829   3.828  12.137  1.7488  1.8387  0.4522
 1719SOL    HW216794   0.899   3.702  12.084  2.0033 -1.1304  0.8495
 1720SOL     OW16795   0.606   3.189  15.085 -0.0468 -0.1099 -0.3226
 1720SOL    HW116796   0.592   3.095  15.071 -0.9360  0.2530 -1.9288
 1720SOL    HW216797   0.693   3.176  15.121 -0.9867  0.8926  2.3246
 1721SOL     OW16798   3.885   3.957   3.865  0.4094  0.1180 -0.0957
 1721SOL    HW116799   3.810   3.914   3.905 -0.3926 -0.2473 -1.9910
 1721SOL    HW216800   3.947   3.887   3.885  1.9006  1.5895  0.4125
 1722SOL     OW16801   2.173   1.499   8.070 -0.6366  0.0710 -0.2898
 1722SOL    HW116802   2.201   1.408   8.058 -1.9429 -0.3140 -0.4140
 1722SOL    HW216803   2.107   1.490   8.138  1.3033 -1.0303  1.4458
 1723SOL     OW16804   0.708   2.939   8.546  0.0790  0.2384  0.0339
 1723SOL    HW116805   0.656   2.883   8.603 -1.6817 -0.4415 -2.2791
 1723SOL    HW216806   0.703   2.893   8.463 -0.4413 -0.8757  0.6873
 1724SOL     OW16807   4.368   1.842  12.050  0.5389  0.2813 -0.5700
 1724SOL    HW116808   4.332   1.929  12.067 -1.6462 -0.7138 -0.0745
 1724SOL    HW216809   4.371   1.837  11.955 -0.0791 -2.0253 -0.4822
 1725SOL     OW16810   1.945   3.369  12.476 -0.9592  0.3259  0.1890
 1725SOL    HW116811   1.904   3.325  12.551 -2.5390 -0.6770 -1.2390
 1725SOL    HW216812   1.883   3.346  12.406 -0.3293  0.2230 -0.3342
 1726SOL     OW16813   1.305   3.580  15.352  0.2566 -0.2675  0.1703
 1726SOL    HW116814   1.334   3.598  15.262  1.6122 -3.0146  0.0701
 1726SOL    HW216815   1.268   3.493  15.353  1.6442 -0.8787 -1.5678
 1727SOL     OW16816   2.143   2.073   7.495 -0.2113  0.1579 -0.7437
 1727SOL    HW116817   2.122   2.030   7.578 -0.4324 -0.2346 -1.0066
 1727SOL    HW216818   2.080   2.031   7.437  0.2231 -2.5446  0.7600
 1728SOL     OW16819   3.933   1.174   1.587 -0.4598 -0.5896 -0.1864
 1728SOL    HW116820   3.911   1.236   1.518  0.1277 -0.0728  0.0926
 1728SOL    HW216821   4.022   1.149   1.562 -1.0273 -1.5853 -1.1980
 1729SOL     OW16822   4.551   2.256   7.623 -0.0327 -0.2673 -0.0905
 1729SOL    HW116823   4.492   2.249   7.697  0.6351  2.8579  0.7171
 1729SOL    HW216824   4.485   2.253   7.553 -0.3241  0.8364  0.1443
 1730SOL     OW16825   3.151   3.620   1.911 -0.0578 -0.4681 -0.6504
 1730SOL    HW116826   3.098   3.671   1.972 -1.0862 -1.7041 -0.5128
 1730SOL    HW216827   3.102   3.640   1.831 -1.0918  0.7982  0.2985
 1731SOL     OW16828   2.906   3.260   0.344  0.4890  0.0970  0.4473
 1731SOL    HW116829   2.904   3.295   0.433 -0.4410  0.6926  0.2072
 1731SOL    HW216830   2.813   3.236   0.336  0.1106  1.5675  0.2661
 1732SOL     OW16831   2.191   3.958  17.109  0.0056 -0.0452  0.2123
 1732SOL    HW116832   2.264   3.944  17.049 -0.6256  1.8336 -0.9917
 1732SOL    HW216833   2.228   4.037  17.150 -1.6695  2.0678 -2.3396
 1733SOL     OW16834   0.481   4.599  14.956  0.1118 -0.1182  0.3086
 1733SOL    HW116835   0.524   4.532  14.902  1.1721 -1.6161  3.0378
 1733SOL    HW216836   0.520   4.681  14.927 -0.0067  0.3621  1.5131
 1734SOL     OW16837   0.169   2.698   8.074 -0.7230 -0.2385  0.4641
 1734SOL    HW116838   0.157   2.668   8.165  3.4617  0.9843  1.3958
 1734SOL    HW216839   0.231   2.771   8.075 -0.0172 -0.8364  0.6930
 1735SOL     OW16840   0.888   0.167   0.544  0.6549 -0.3475  0.3954
 1735SOL    HW116841   0.888   0.080   0.503 -0.5746 -0.3555  0.4102
 1735SOL    HW216842   0.902   0.139   0.634 -0.2167  2.4773  1.4228
 1736SOL     OW16843   0.461   1.149   5.574 -0.3033  0.5382 -0.7081
 1736SOL    HW116844   0.381   1.100   5.590  0.9346 -0.7098  1.5822
 1736SOL    HW216845   0.432   1.228   5.620 -0.7497  0.3233 -0.6278
 1737SOL     OW16846   0.629   1.224  16.376 -0.3448 -0.1088  0.1195
 1737SOL    HW116847   0.695   1.276  16.421  0.1616  0.3761 -1.1743
 1737SOL    HW216848   0.676   1.153  16.332  0.0546  1.0373 -1.3253
 1738SOL     OW16849   1.612   4.105  10.846 -0.5094  0.2325 -0.4750
 1738SOL    HW116850   1.631   4.147  10.930 -0.9646 -1.2763  0.3925
 1738SOL    HW216851   1.522   4.073  10.855  0.5824 -2.8429 -0.4392
 1739SOL     OW16852   3.482   4.143  13.590  0.0760 -0.2760  0.1885
 1739SOL    HW116853   3.568   4.119  13.557 -0.0444  0.0730 -0.3748
 1739SOL    HW216854   3.442   4.168  13.507  0.6582  0.4170  0.1199
 1740SOL     OW16855   4.556   3.102   5.193 -0.0712 -0.7026  0.3048
 1740SOL    HW116856   4.630   3.073   5.246 -1.3057 -1.3838  1.6460
 1740SOL    HW216857   4.534   3.021   5.147  0.7548 -0.1915 -0.9936
 1741SOL     OW16858   1.896   3.141   0.104 -0.1152 -0.0064 -0.1580
 1741SOL    HW116859   1.898   3.226   0.148 -1.2570  0.6063 -1.2807
 1741SOL    HW216860   1.987   3.111   0.110  0.3678  1.8822  1.6841
 1742SOL     OW16861   2.603   3.590   3.638 -0.6321 -0.1265  0.2335
 1742SOL    HW116862   2.657   3.559   3.565  0.9335  1.7273  0.6112
 1742SOL    HW216863   2.539   3.519   3.641 -0.6738 -0.1694 -2.0942
 1743SOL     OW16864   2.832   0.783  12.700 -0.6650  0.0880  0.3107
 1743SOL    HW116865   2.849   0.733  12.620  1.5724  0.2554  0.6850
 1743SOL    HW216866   2.781   0.855  12.663 -0.3233  0.4887  0.6210
 1744SOL     OW16867   3.097   1.605   4.206  0.0719 -0.3721  0.4179
 1744SOL    HW116868   3.101   1.530   4.264  0.3395 -0.6264  0.0737
 1744SOL    HW216869   3.032   1.586   4.138 -0.0813  1.3277  0.0751
 1745SOL     OW16870   2.080   2.431   9.722  0.2298  0.1419  0.5259
 1745SOL    HW116871   2.077   2.498   9.654 -0.3557  0.4646  0.8719
 1745SOL    HW216872   2.088   2.352   9.668 -1.5100  0.5294 -0.3152
 1746SOL     OW16873   3.442   4.127  14.103  0.4203 -0.4232  0.7075
 1746SOL    HW116874   3.527   4.170  14.091  1.1034 -1.7575  0.6813
 1746SOL    HW216875   3.431   4.096  14.013  0.2151 -1.2524  1.0215
 1747SOL     OW16876   0.763   0.135   8.437 -0.1317  0.1538  0.4255
 1747SOL    HW116877   0.830   0.152   8.370 -0.2280  1.0186  0.5449
 1747SOL    HW216878   0.687   0.164   8.387 -2.1899 -1.8897  2.4132
 1748SOL     OW16879   1.587   0.787   7.439 -0.0312  0.3633  0.3337
 1748SOL    HW116880   1.537   0.855   7.483  1.1271  1.4135  0.0442
 1748SOL    HW216881   1.660   0.840   7.406  0.3241 -0.6060 -0.4516
 1749SOL     OW16882   0.009   3.827   4.916 -0.2923  0.3293 -0.2147
 1749SOL    HW116883   4.727   3.847   5.008  1.0219 -0.3828  0.2113
 1749SOL    HW216884   4.663   3.822   4.870  0.1119  3.2186 -1.2460
 1750SOL     OW16885   4.135   0.324   4.124  0.1797  0.7961 -0.4928
 1750SOL    HW116886   4.230   0.316   4.113  0.2991  1.8414 -0.2679
 1750SOL    HW216887   4.120   0.418   4.111 -1.9445  0.3327 -1.2910
 1751SOL     OW16888   3.036   4.084  14.029 -0.1443  0.8138  0.1939
 1751SOL    HW116889   3.022   4.052  13.940 -0.1448  1.3183  0.0113
 1751SOL    HW216890   3.058   4.172  13.999  0.3576  0.7730  0.4338
 1752SOL     OW16891   3.060   0.104  12.411  0.2422 -0.2262 -0.0030
 1752SOL    HW116892   2.972   0.069  12.424 -1.1156  3.1242 -0.0918
 1752SOL    HW216893   3.061   0.184  12.463 -2.3797  0.4549 -1.0128
 1753SOL     OW16894   3.728   1.541   2.543  0.3447  0.0713 -0.0067
 1753SOL    HW116895   3.779   1.612   2.506  0.7199 -0.2917 -0.1852
 1753SOL    HW216896   3.715   1.564   2.635 -2.1298 -0.7490 -0.1329
 1754SOL     OW16897   2.564   1.035   7.809  0.3726  0.4323 -0.0597
 1754SOL    HW116898   2.497   1.032   7.877  1.3219 -0.2002  0.8536
 1754SOL    HW216899   2.636   0.981   7.842  1.4676 -0.2503 -3.5916
 1755SOL     OW16900   0.935   2.353   2.942 -0.5364 -0.5004  0.2386
 1755SOL    HW116901   1.012   2.314   2.984  0.2634  0.0171 -0.7568
 1755SOL    HW216902   0.892   2.273   2.912 -3.2331  1.5682 -1.4312
 1756SOL     OW16903   3.321   2.865   1.746 -0.4644 -0.0501 -0.5495
 1756SOL    HW116904   3.284   2.950   1.769 -1.2371 -1.4173  3.2321
 1756SOL    HW216905   3.392   2.851   1.808 -0.9481 -2.7186 -0.5776
 1757SOL     OW16906   0.101   1.798   6.911 -0.1580 -0.2777 -0.0500
 1757SOL    HW116907   0.126   1.803   6.818 -0.4741 -1.6335 -0.2102
 1757SOL    HW216908   0.036   1.728   6.915  0.3491 -0.5637  2.7279
 1758SOL     OW16909   0.372   4.570   0.319  0.0717  0.7188  0.2919
 1758SOL    HW116910   0.317   4.644   0.292 -0.9835  0.7702  2.5636
 1758SOL    HW216911   0.312   4.497   0.308  0.1804  0.2897  2.4584
 1759SOL     OW16912   2.250   2.253   6.175 -0.4254  0.2236  0.0858
 1759SOL    HW116913   2.263   2.269   6.082 -0.0967 -0.7959 -0.0451
 1759SOL    HW216914   2.155   2.265   6.182 -0.5357 -1.2646  1.1929
 1760SOL     OW16915   0.596   2.114  10.640 -0.1258  0.0597 -0.2430
 1760SOL    HW116916   0.555   2.030  10.621 -0.5835  0.2627 -0.1462
 1760SOL    HW216917   0.521   2.164  10.609  0.5393  1.6961  0.7750
 1761SOL     OW16918   2.820   2.213  16.412  0.1990  0.1446 -0.4211
 1761SOL    HW116919   2.747   2.269  16.384  1.3163  0.9210 -1.7788
 1761SOL    HW216920   2.769   2.132  16.408  0.3931  0.0169 -0.2699
 1762SOL     OW16921   2.892   1.593  13.336  0.0986 -0.2288  0.0203
 1762SOL    HW116922   2.931   1.527  13.393 -1.8049 -0.0421  1.5493
 1762SOL    HW216923   2.919   1.674  13.379  0.0772  0.1474 -0.6883
 1763SOL     OW16924   1.988   1.680   6.016  0.3796  0.5411 -0.1693
 1763SOL    HW116925   2.015   1.604   5.966  3.3877  1.2024  0.4051
 1763SOL    HW216926   1.943   1.644   6.093 -1.1420  1.7826 -0.4789
 1764SOL     OW16927   2.835   0.211   0.133 -0.0066 -0.9633 -0.3506
 1764SOL    HW116928   2.859   0.119   0.129 -0.2406 -1.0386 -0.0740
 1764SOL    HW216929   2.906   0.255   0.087 -0.3576  0.0474  0.0738
 1765SOL     OW16930   1.552   3.078  16.782  0.4618 -0.4401 -0.1342
 1765SOL    HW116931   1.525   3.017  16.851  0.5276 -1.0167 -0.6201
 1765SOL    HW216932   1.626   3.029  16.746  0.9665  1.2119 -1.3311
 1766SOL     OW16933   4.139   2.750  13.466  0.4250  0.1852  0.1324
 1766SOL    HW116934   4.151   2.792  13.381  0.9698 -0.4884 -0.1168
 1766SOL    HW216935   4.171   2.818  13.526 -1.2359  1.7326 -0.7074
 1767SOL     OW16936   1.758   2.820   5.652  0.9560  0.3082  0.3150
 1767SOL    HW116937   1.737   2.788   5.739 -1.7595 -0.3029 -0.5598
 1767SOL    HW216938   1.800   2.743   5.614 -0.1223 -0.0925 -0.0698
 1768SOL     OW16939   3.418   1.198   3.222 -0.4279 -0.1887 -0.6681
 1768SOL    HW116940   3.456   1.252   3.153 -0.2971 -0.4132 -0.7730
 1768SOL    HW216941   3.493   1.185   3.280 -0.2625  1.7833 -0.4485
 1769SOL     OW16942   2.443   2.108   9.416  0.0154  0.6831 -0.0681
 1769SOL    HW116943   2.464   2.161   9.493 -3.7172  1.1334  0.6537
 1769SOL    HW216944   2.532   2.105   9.381 -0.9015  0.3295 -2.3827
 1770SOL     OW16945   3.308   0.236   7.735  0.4626 -0.9752  1.1873
 1770SOL    HW116946   3.217   0.216   7.713  0.0494 -0.0797  2.0603
 1770SOL    HW216947   3.361   0.222   7.657 -0.5228  0.7602  0.2122
 1771SOL     OW16948   4.176   3.952  15.631  0.1824 -0.0980 -0.3357
 1771SOL    HW116949   4.095   3.938  15.679 -1.5851  1.8911 -2.7288
 1771SOL    HW216950   4.237   3.894  15.677  0.8309 -0.7367 -1.9910
 1772SOL     OW16951   0.664   2.452   4.986 -0.0607  0.7372  0.1669
 1772SOL    HW116952   0.730   2.472   5.052  0.5885  1.3456 -0.6524
 1772SOL    HW216953   0.606   2.528   4.994 -2.1034 -1.0856  2.4571
 1773SOL     OW16954   0.864   0.547   8.027 -0.3396  0.5002 -0.4496
 1773SOL    HW116955   0.881   0.476   7.965  0.1370  1.4264 -1.3796
 1773SOL    HW216956   0.819   0.601   7.963 -0.6561 -0.7316 -1.2775
 1774SOL     OW16957   0.872   1.812  15.512  0.1103  0.0503  0.2055
 1774SOL    HW116958   0.809   1.766  15.567  1.1221 -1.5244  0.0524
 1774SOL    HW216959   0.875   1.758  15.433 -0.5299  0.9903 -0.4628
 1775SOL     OW16960   2.888   0.945  16.467  0.3341  0.2597 -0.0936
 1775SOL    HW116961   2.822   0.887  16.428  2.4681 -1.4977 -1.0806
 1775SOL    HW216962   2.837   0.992  16.533 -0.5832  1.3058 -1.5599
 1776SOL     OW16963   3.222   1.453   9.640 -0.2447  0.2076 -0.2437
 1776SOL    HW116964   3.149   1.515   9.640 -1.4207 -1.1771 -0.3467
 1776SOL    HW216965   3.203   1.394   9.713  1.6100  1.5287  1.3200
 1777SOL     OW16966   2.019   2.498   9.048 -0.2099  0.4405  0.1970
 1777SOL    HW116967   1.928   2.522   9.069 -0.8365  0.0520 -2.0543
 1777SOL    HW216968   2.009   2.416   9.000  0.0920 -0.2209  1.2692
 1778SOL     OW16969   3.790   3.658  12.585 -0.5156 -0.3939  0.2988
 1778SOL    HW116970   3.854   3.657  12.655  0.7014  0.6841 -0.7944
 1778SOL    HW216971   3.784   3.567  12.555 -1.3614 -0.9223  2.1125
 1779SOL     OW16972   3.574   3.917   7.262  0.0749  0.0350  0.0009
 1779SOL    HW116973   3.538   3.850   7.203 -2.0865  0.5379  0.7522
 1779SOL    HW216974   3.663   3.884   7.256  0.5153  1.1004  0.8063
 1780SOL     OW16975   4.504   2.082   8.705 -0.4321  0.0283 -0.4885
 1780SOL    HW116976   4.544   2.036   8.631 -0.5143  2.0500 -1.7843
 1780SOL    HW216977   4.411   2.062   8.691 -0.1657 -1.2819 -0.4447
 1781SOL     OW16978   3.731   2.467   2.398 -0.4170 -0.1595 -0.0589
 1781SOL    HW116979   3.797   2.399   2.389 -0.5205 -0.4274  1.1819
 1781SOL    HW216980   3.666   2.414   2.444 -0.5397  0.8204  0.8972
 1782SOL     OW16981   3.480   3.924   6.843 -0.2343 -1.0071 -0.0770
 1782SOL    HW116982   3.478   3.864   6.918  4.2794  0.1621  0.9398
 1782SOL    HW216983   3.389   3.947   6.825 -0.4385 -1.7099  0.0772
 1783SOL     OW16984   4.007   0.619   7.013 -0.2220  0.5711  0.2204
 1783SOL    HW116985   3.938   0.562   6.979  0.8995 -0.3342 -0.5308
 1783SOL    HW216986   4.069   0.557   7.053  0.4421 -0.2107 -1.9981
 1784SOL     OW16987   4.585   1.942   2.871 -0.0293  0.0453  0.0862
 1784SOL    HW116988   4.642   2.015   2.897 -0.8027  0.3404  0.9651
 1784SOL    HW216989   4.514   1.973   2.815 -0.4626  0.5137  0.8920
 1785SOL     OW16990   3.972   1.496   8.410 -0.6104  0.3972 -0.1669
 1785SOL    HW116991   3.897   1.542   8.371 -0.8984 -0.8992 -1.1852
 1785SOL    HW216992   3.972   1.415   8.357 -1.8221  0.7831 -0.7791
 1786SOL     OW16993   1.391   1.851   1.328 -0.4984 -0.2405  0.3023
 1786SOL    HW116994   1.425   1.921   1.384  0.5068 -0.0222 -0.5741
 1786SOL    HW216995   1.301   1.851   1.359 -0.9232 -1.5155 -0.9449
 1787SOL     OW16996   4.006   0.220   7.935 -0.9861  0.1587 -0.2230
 1787SOL    HW116997   3.959   0.142   7.963 -0.8268 -0.0482 -0.5280
 1787SOL    HW216998   3.940   0.289   7.946 -0.0954  0.6932  1.8246
 1788SOL     OW16999   3.400   2.251   6.906  0.0646  0.4376  0.0453
 1788SOL    HW117000   3.391   2.156   6.900  0.4852  0.4917 -1.4768
 1788SOL    HW217001   3.435   2.247   6.995 -0.0131  0.1316  0.0591
 1789SOL     OW17002   3.590   2.639   6.959 -0.2508 -0.4377 -0.2880
 1789SOL    HW117003   3.554   2.582   7.028  1.8533 -1.7081 -0.2414
 1789SOL    HW217004   3.638   2.698   7.017  1.7507 -0.6337 -1.7702
 1790SOL     OW17005   1.255   1.679  12.182  0.3289 -0.1449 -0.3019
 1790SOL    HW117006   1.176   1.691  12.130  0.0843  0.7855  0.2719
 1790SOL    HW217007   1.319   1.701  12.114  1.4041  0.8301  1.0190
 1791SOL     OW17008   1.133   2.462  11.308  0.0444 -0.4399  1.0213
 1791SOL    HW117009   1.113   2.546  11.349  0.2575  0.6441 -1.1505
 1791SOL    HW217010   1.051   2.418  11.332 -0.4517  1.1297  2.2091
 1792SOL     OW17011   4.634   1.004   8.603  0.5632  0.4074 -0.4244
 1792SOL    HW117012   4.574   1.046   8.542 -0.4562 -0.7908 -0.2588
 1792SOL    HW217013   4.582   0.926   8.625 -0.5677  1.0970 -0.6474
 1793SOL     OW17014   3.874   0.644   3.134  0.0230 -0.1832 -0.0669
 1793SOL    HW117015   3.941   0.576   3.129 -3.0539 -3.2316  0.7687
 1793SOL    HW217016   3.846   0.634   3.224 -0.5330 -0.6581 -0.2933
 1794SOL     OW17017   1.962   0.467   4.092 -0.4537  0.4371 -0.1994
 1794SOL    HW117018   1.898   0.410   4.134 -0.6768  2.9328  2.8482
 1794SOL    HW217019   1.989   0.411   4.020  0.0306  1.4726 -0.8240
 1795SOL     OW17020   4.134   2.299   3.067  0.1235  0.3710 -0.7793
 1795SOL    HW117021   4.214   2.262   3.028 -0.2470 -0.2489 -0.9582
 1795SOL    HW217022   4.079   2.223   3.085 -0.2936  0.4427 -1.7650
 1796SOL     OW17023   3.857   0.826  14.112  0.3024 -0.1235  0.4758
 1796SOL    HW117024   3.772   0.841  14.153 -0.4037 -0.1249 -0.9809
 1796SOL    HW217025   3.884   0.917  14.101  1.6956 -0.7385 -1.2011
 1797SOL     OW17026   2.301   2.292   3.367  0.7655  0.1356 -0.0127
 1797SOL    HW117027   2.308   2.343   3.286  1.4846 -2.5630 -1.6720
 1797SOL    HW217028   2.367   2.340   3.417  2.2756 -0.0331 -1.8192
 1798SOL     OW17029   0.466   3.212  12.374  0.1086  0.1205  0.0895
 1798SOL    HW117030   0.559   3.219  12.353  0.2437 -1.5914  0.1644
 1798SOL    HW217031   0.455   3.265  12.453 -0.0910  0.1693  0.0287
 1799SOL     OW17032   1.222   0.944  16.031  0.4243  0.7147  0.2812
 1799SOL    HW117033   1.154   1.003  16.000 -0.9725 -0.6562  0.7196
 1799SOL    HW217034   1.175   0.868  16.066  2.3870  0.4321  2.3331
 1800SOL     OW17035   1.035   2.152   6.505 -0.2273  0.6034  0.0136
 1800SOL    HW117036   1.129   2.132   6.504 -0.3880 -0.0381 -1.1243
 1800SOL    HW217037   1.035   2.248   6.514  2.1631  0.5521  0.7051
 1801SOL     OW17038   3.323   2.384   2.133 -0.6019  0.0160  0.1521
 1801SOL    HW117039   3.263   2.360   2.204 -1.3172 -2.4588 -1.2876
 1801SOL    HW217040   3.276   2.461   2.099  1.3402  1.4519  0.7359
 1802SOL     OW17041   1.536   4.389   6.858  0.2757  0.0359 -0.1621
 1802SOL    HW117042   1.563   4.365   6.769  3.0055  2.0312  0.1157
 1802SOL    HW217043   1.532   4.309   6.911 -1.4543  0.3334  0.1461
 1803SOL     OW17044   1.184   1.165   5.603 -0.0238 -0.0582  0.2585
 1803SOL    HW117045   1.090   1.168   5.586 -0.0789 -1.6640  0.2524
 1803SOL    HW217046   1.191   1.209   5.688  0.4666 -0.6502  0.5274
 1804SOL     OW17047   3.667   2.434   2.805 -0.4493 -0.1835 -0.3472
 1804SOL    HW117048   3.657   2.405   2.715  0.5734 -0.0178 -0.5168
 1804SOL    HW217049   3.761   2.449   2.818  0.0008 -2.5950 -0.8650
 1805SOL     OW17050   2.869   3.182  15.911  0.6028 -0.2065  0.0976
 1805SOL    HW117051   2.880   3.178  15.816 -1.1887 -3.6630  0.0503
 1805SOL    HW217052   2.877   3.276  15.929 -1.0819 -1.0189  5.1473
 1806SOL     OW17053   4.634   2.433   6.810  0.5258 -0.3702 -0.0918
 1806SOL    HW117054   4.560   2.377   6.786  0.4592 -0.1820 -0.3172
 1806SOL    HW217055   4.662   2.399   6.895  3.2344 -0.6390 -1.0844
 1807SOL     OW17056   2.957   0.028   5.265 -0.3524  0.2992 -0.0103
 1807SOL    HW117057   2.882   4.721   5.304  1.4327 -2.9561 -0.1982
 1807SOL    HW217058   2.973   0.095   5.332 -1.1340 -0.6036  1.0678
 1808SOL     OW17059   3.746   1.982   5.250  0.4768 -0.4637 -0.3397
 1808SOL    HW117060   3.752   1.968   5.155  0.2101 -2.2332 -0.0961
 1808SOL    HW217061   3.685   2.055   5.249  2.1403  0.9354 -0.3071
 1809SOL     OW17062   3.729   3.460   9.272 -0.1570 -0.0304  0.1581
 1809SOL    HW117063   3.813   3.500   9.253  0.0320 -0.8699 -0.8183
 1809SOL    HW217064   3.740   3.376   9.226 -0.6251  0.3054 -0.5788
 1810SOL     OW17065   3.972   3.186  17.000  0.3736  0.2209 -0.4254
 1810SOL    HW117066   3.945   3.177  17.092  1.8979 -0.4673 -0.0459
 1810SOL    HW217067   3.983   3.281  17.006  2.8039 -0.1652  1.3545
 1811SOL     OW17068   0.743   0.551  15.972 -0.2585 -0.4506 -0.1974
 1811SOL    HW117069   0.742   0.545  16.067 -1.4204 -1.9686 -0.2993
 1811SOL    HW217070   0.811   0.487  15.954  0.4261  0.5151 -1.0086
 1812SOL     OW17071   4.681   3.245  14.024 -0.2191 -0.3155  0.5437
 1812SOL    HW117072   4.655   3.158  13.995  0.8778 -0.2657 -0.5785
 1812SOL    HW217073   4.599   3.271  14.067 -1.0655 -2.0778 -0.0141
 1813SOL     OW17074   4.544   1.108   6.561  0.2228  0.1371 -0.5083
 1813SOL    HW117075   4.496   1.190   6.549 -1.6326 -0.8574  0.0812
 1813SOL    HW217076   4.473   1.046   6.542 -1.5950  1.7515  1.1393
 1814SOL     OW17077   2.972   4.674   8.720  0.2154 -0.2501  0.1558
 1814SOL    HW117078   2.915   4.603   8.749  1.5908 -1.1899  0.5509
 1814SOL    HW217079   2.908   0.008   8.724  0.9952  0.3379  2.1841
 1815SOL     OW17080   2.530   3.570   9.206 -0.1473  0.1249 -0.2498
 1815SOL    HW117081   2.477   3.533   9.276 -0.0772  0.9869  0.2574
 1815SOL    HW217082   2.543   3.497   9.146 -1.5059 -0.4291  0.1515
 1816SOL     OW17083   0.390   4.022   4.336 -0.1085 -0.1628 -0.2521
 1816SOL    HW117084   0.469   4.056   4.294 -0.0502 -0.2045 -0.1760
 1816SOL    HW217085   0.407   3.930   4.358 -3.1986 -0.7739 -0.4021
 1817SOL     OW17086   0.618   4.349   4.314  0.3933  0.0202 -0.5755
 1817SOL    HW117087   0.609   4.294   4.392  0.3966  2.8338  1.4022
 1817SOL    HW217088   0.611   4.439   4.346 -0.8539 -0.3201  0.1116
 1818SOL     OW17089   4.554   4.377   2.551 -0.0600 -0.0988  0.4110
 1818SOL    HW117090   4.461   4.360   2.569  0.2539 -2.3729 -0.1175
 1818SOL    HW217091   4.560   4.335   2.466  1.5127  0.9153  0.0134
 1819SOL     OW17092   4.316   4.308   2.106 -0.2484  0.1724  0.2513
 1819SOL    HW117093   4.318   4.258   2.024 -1.3488  1.2171 -0.4253
 1819SOL    HW217094   4.264   4.243   2.152  0.3459  0.6214  1.5393
 1820SOL     OW17095   3.594   2.901   0.336  0.1157 -0.7579  0.3898
 1820SOL    HW117096   3.581   2.854   0.419  0.1927  0.9276  1.3535
 1820SOL    HW217097   3.506   2.887   0.301 -0.0144 -4.5638  2.2131
 1821SOL     OW17098   2.486   3.443   8.361 -0.0376 -0.3701 -0.3026
 1821SOL    HW117099   2.448   3.509   8.418  1.2948  1.6469 -1.7332
 1821SOL    HW217100   2.565   3.423   8.410  0.4788  0.7990 -0.6423
 1822SOL     OW17101   2.784   0.784   5.359 -0.2720  0.0979  0.0806
 1822SOL    HW117102   2.699   0.744   5.342 -0.4371 -0.4189  2.1004
 1822SOL    HW217103   2.756   0.862   5.406  1.3775 -0.6075  2.2142
 1823SOL     OW17104   3.631   0.642   5.029  0.0931 -0.2440  0.1407
 1823SOL    HW117105   3.647   0.627   4.936  0.4431 -1.7172  0.4375
 1823SOL    HW217106   3.578   0.565   5.051 -1.2257 -0.1706 -2.7706
 1824SOL     OW17107   0.853   2.416   5.818  0.0449  0.1678 -0.4545
 1824SOL    HW117108   0.854   2.470   5.897  0.4368 -2.7272  1.5042
 1824SOL    HW217109   0.828   2.477   5.749  0.0428  0.2677 -0.3657
 1825SOL     OW17110   3.593   1.377   0.357  0.6793  0.2914  0.1145
 1825SOL    HW117111   3.668   1.318   0.364 -0.5091 -1.3371 -0.6051
 1825SOL    HW217112   3.549   1.326   0.288  0.7005 -0.1288  0.4057
 1826SOL     OW17113   1.708   2.759  16.703  0.0391 -0.6329 -0.2317
 1826SOL    HW117114   1.618   2.769  16.673  0.6940  0.6397 -1.8011
 1826SOL    HW217115   1.748   2.841  16.673 -1.5586  0.1460 -0.2048
 1827SOL     OW17116   3.582   4.651   3.254 -0.3626  0.0283  0.4370
 1827SOL    HW117117   3.552   4.570   3.294 -0.8290 -0.1531 -0.2740
 1827SOL    HW217118   3.637   4.680   3.327  0.6332  1.1074 -0.7408
 1828SOL     OW17119   1.815   3.244  12.275  0.4958  0.2793  0.1610
 1828SOL    HW117120   1.837   3.182  12.205 -1.5129  0.0685 -0.2702
 1828SOL    HW217121   1.720   3.255  12.272  0.1435 -3.0387 -0.8570
 1829SOL     OW17122   1.332   4.413   4.103  0.0916  0.1634 -1.3725
 1829SOL    HW117123   1.262   4.478   4.105 -0.8303 -0.8460 -0.5915
 1829SOL    HW217124   1.335   4.410   4.198  0.7457  1.3620 -1.3564
 1830SOL     OW17125   3.566   4.361   3.792 -0.3779  0.0191 -0.3122
 1830SOL    HW117126   3.527   4.311   3.864 -0.3181 -0.7920 -0.8409
 1830SOL    HW217127   3.517   4.442   3.805 -0.6994  0.1423 -2.3013
 1831SOL     OW17128   3.937   4.652   5.122  0.3834  0.3285  0.2283
 1831SOL    HW117129   4.014   4.707   5.114 -0.0868  1.1348  1.2532
 1831SOL    HW217130   3.902   4.688   5.204 -0.9811  0.4724 -0.4114
 1832SOL     OW17131   2.368   4.100   1.143 -0.5378 -0.1535  0.0607
 1832SOL    HW117132   2.349   4.072   1.053  1.5130 -0.6393 -0.2152
 1832SOL    HW217133   2.296   4.063   1.195 -0.7306  1.5345  1.0068
 1833SOL     OW17134   0.339   1.862   4.681  0.7484 -0.1599  0.3819
 1833SOL    HW117135   0.248   1.857   4.649  0.4832 -1.2595  1.2913
 1833SOL    HW217136   0.398   1.899   4.615 -0.4495  1.2753  0.0957
 1834SOL     OW17137   4.478   3.120   7.895  0.3480 -0.0358 -0.3245
 1834SOL    HW117138   4.403   3.114   7.954  1.0120 -0.2838  0.4978
 1834SOL    HW217139   4.420   3.122   7.819  0.3252 -0.5014 -0.3193
 1835SOL     OW17140   4.285   1.205   9.030 -0.5682  0.2287 -0.0625
 1835SOL    HW117141   4.370   1.233   9.063  1.2806 -3.1191 -1.8949
 1835SOL    HW217142   4.270   1.112   9.050 -1.7496  0.6337  0.8694
 1836SOL     OW17143   1.481   2.047   5.092 -0.3626  0.0477 -0.0506
 1836SOL    HW117144   1.404   2.099   5.114  0.2121  1.0581 -0.3970
 1836SOL    HW217145   1.537   2.044   5.170 -0.4899  1.0763  0.0853
 1837SOL     OW17146   2.257   3.617   9.846  0.2154  0.2206  0.4161
 1837SOL    HW117147   2.352   3.609   9.847  0.2437  0.2912 -1.4073
 1837SOL    HW217148   2.250   3.565   9.765  0.9502  0.2861  0.3066
 1838SOL     OW17149   2.712   3.298  15.066  0.0401  0.0242 -0.1452
 1838SOL    HW117150   2.739   3.387  15.092  1.9456 -0.3608 -0.7992
 1838SOL    HW217151   2.620   3.296  15.091 -0.0251  0.2479 -0.3598
 1839SOL     OW17152   3.136   1.710  14.834 -0.2028  0.2447 -0.0189
 1839SOL    HW117153   3.122   1.687  14.742 -0.8070 -1.6595  0.5529
 1839SOL    HW217154   3.219   1.757  14.821 -0.0804 -0.0873 -0.4474
 1840SOL     OW17155   1.550   4.717  16.548 -0.0167  0.5841  0.0574
 1840SOL    HW117156   1.576   4.673  16.467  2.7947  2.1887  0.0988
 1840SOL    HW217157   1.579   4.653  16.614 -2.1487  0.3272  0.7337
 1841SOL     OW17158   4.227   2.264   1.578 -0.4025  0.0131 -0.0050
 1841SOL    HW117159   4.151   2.277   1.635  1.0102  1.0650  1.6413
 1841SOL    HW217160   4.292   2.319   1.621 -0.6510  0.8980 -0.7584
 1842SOL     OW17161   0.302   4.729   3.384  0.2283 -0.4755 -0.1577
 1842SOL    HW117162   0.315   4.636   3.365  0.9511 -0.0305 -1.7586
 1842SOL    HW217163   0.306   0.018   3.292 -0.2137 -1.3825 -0.4395
 1843SOL     OW17164   3.040   0.850   7.846 -0.1325  0.0973 -0.1034
 1843SOL    HW117165   3.046   0.814   7.934  1.9768 -0.1551 -0.3444
 1843SOL    HW217166   3.129   0.884   7.842 -0.4958  0.9020 -1.4704
 1844SOL     OW17167   2.692   2.519   0.399 -0.3152 -0.2803  0.3046
 1844SOL    HW117168   2.714   2.452   0.464 -3.3772 -0.1909  1.4524
 1844SOL    HW217169   2.632   2.464   0.348 -2.1976  2.9113 -0.9597
 1845SOL     OW17170   4.508   4.060   5.978 -0.5389  0.0240 -0.0391
 1845SOL    HW117171   4.501   4.155   5.976  0.7146  0.1094 -0.2413
 1845SOL    HW217172   4.420   4.041   5.946 -0.8225  1.5968 -0.2100
 1846SOL     OW17173   4.318   2.480  13.974  0.5355 -0.1170  0.1662
 1846SOL    HW117174   4.258   2.469  13.901  1.2081  1.9429 -0.6903
 1846SOL    HW217175   4.273   2.531  14.042  0.4672 -0.7417  0.5946
 1847SOL     OW17176   1.889   2.899   1.944 -0.2059  0.0743  0.0933
 1847SOL    HW117177   1.967   2.870   1.897  0.4478 -1.0941  1.9038
 1847SOL    HW217178   1.823   2.872   1.879 -1.2813  0.9488  0.8175
 1848SOL     OW17179   1.415   2.334   5.095  0.0209  0.1072 -0.6989
 1848SOL    HW117180   1.405   2.359   5.003  0.2749  0.3783 -0.6514
 1848SOL    HW217181   1.507   2.350   5.117  0.8208 -1.5140 -2.8595
 1849SOL     OW17182   2.846   3.510   3.466 -0.2295  0.3139  0.2016
 1849SOL    HW117183   2.878   3.600   3.476 -1.5892  0.7595  0.6075
 1849SOL    HW217184   2.903   3.461   3.525 -0.8324  1.1151  1.4347
 1850SOL     OW17185   3.238   2.513   2.819  0.2846 -0.2659  0.2620
 1850SOL    HW117186   3.247   2.418   2.816  1.9584 -0.1258  1.3565
 1850SOL    HW217187   3.192   2.536   2.900 -1.0292  2.8326 -1.3434
 1851SOL     OW17188   3.391   2.543   0.660 -0.7393 -0.0241  0.3074
 1851SOL    HW117189   3.429   2.461   0.628 -2.1757 -1.2139  1.6857
 1851SOL    HW217190   3.347   2.506   0.736  0.5848 -2.8245 -0.2929
 1852SOL     OW17191   0.692   3.938  14.254  0.4048  0.2549 -0.5050
 1852SOL    HW117192   0.751   4.003  14.216  1.0644 -0.3209 -0.4681
 1852SOL    HW217193   0.716   3.856  14.210  2.4213 -0.1844  1.4096
 1853SOL     OW17194   1.288   3.191   3.481  0.0737  0.1544  0.1421
 1853SOL    HW117195   1.374   3.175   3.444  1.0393 -1.3251  3.0331
 1853SOL    HW217196   1.272   3.284   3.462 -1.5257 -0.7390 -2.8231
 1854SOL     OW17197   3.240   2.604  14.584  0.0458  0.4414  0.6671
 1854SOL    HW117198   3.263   2.511  14.582  0.9133  0.6995 -2.0660
 1854SOL    HW217199   3.171   2.609  14.518 -1.0632 -0.4225  1.7495
 1855SOL     OW17200   0.390   3.293  13.161  0.3636  0.4499  0.0997
 1855SOL    HW117201   0.304   3.335  13.157  0.0896 -0.3202 -1.8123
 1855SOL    HW217202   0.445   3.366  13.188  0.6737  0.6670 -1.1315
 1856SOL     OW17203   0.644   0.220   1.586 -0.3066 -0.2865  0.3434
 1856SOL    HW117204   0.720   0.164   1.602 -0.1775 -0.0624  0.5136
 1856SOL    HW217205   0.684   0.305   1.571 -1.8176  0.3904  0.1299
 1857SOL     OW17206   1.558   1.019   1.549 -0.1142  0.6579  0.8475
 1857SOL    HW117207   1.519   0.947   1.597  2.8194 -1.0932  0.6409
 1857SOL    HW217208   1.549   1.087   1.616 -1.4926 -0.3903  1.6963
 1858SOL     OW17209   3.572   1.052   6.663 -0.4025  0.1451 -0.3210
 1858SOL    HW117210   3.569   1.060   6.568  2.2200 -0.9788 -0.4944
 1858SOL    HW217211   3.633   1.122   6.687 -0.3011  0.0397 -0.2755
 1859SOL     OW17212   4.696   1.384   1.705  0.6864  0.0540  0.2902
 1859SOL    HW117213   4.728   1.454   1.649  2.8992 -1.2868 -0.1262
 1859SOL    HW217214   4.630   1.346   1.648  0.0070 -1.7390  2.2601
 1860SOL     OW17215   0.612   0.428  16.470 -0.5234  0.1671  0.1565
 1860SOL    HW117216   0.566   0.493  16.522  0.9230  0.1064  1.5054
 1860SOL    HW217217   0.677   0.399  16.534 -0.9356 -1.4403 -0.1427
 1861SOL     OW17218   0.118   0.805   7.096  0.2967 -0.1273  0.5597
 1861SOL    HW117219   0.189   0.744   7.118 -0.9056 -1.1784  1.5456
 1861SOL    HW217220   0.166   0.871   7.047  0.9487 -1.5963 -0.8115
 1862SOL     OW17221   0.753   4.353   3.044 -0.7505  0.0176 -0.2271
 1862SOL    HW117222   0.684   4.321   2.987 -1.1757 -0.7225  0.7119
 1862SOL    HW217223   0.796   4.411   2.981 -0.7515 -1.4741 -1.5930
 1863SOL     OW17224   1.555   2.930   2.211 -0.2648  0.2302  0.1470
 1863SOL    HW117225   1.522   2.864   2.151 -3.0389  1.2247  0.5696
 1863SOL    HW217226   1.585   3.001   2.154 -1.2188 -1.0606 -1.9989
 1864SOL     OW17227   2.925   1.451  14.517 -0.0492 -0.0208  0.3002
 1864SOL    HW117228   2.859   1.437  14.450 -1.9876 -0.4205  2.2977
 1864SOL    HW217229   2.924   1.374  14.575  0.4660 -1.3174 -1.4309
 1865SOL     OW17230   2.906   2.991   4.471  0.1604  0.1346  0.2394
 1865SOL    HW117231   2.890   2.898   4.453 -1.1929  0.2807  0.6575
 1865SOL    HW217232   2.958   3.022   4.397 -1.7020  1.2467 -0.6241
 1866SOL     OW17233   4.708   3.405   9.207 -0.4699  0.7947  0.3214
 1866SOL    HW117234   0.049   3.393   9.152 -0.3374 -2.0413  1.1516
 1866SOL    HW217235   4.701   3.316   9.241  0.3755  1.2186  1.6279
 1867SOL     OW17236   1.916   0.950  15.982 -0.2923 -0.0943  0.5924
 1867SOL    HW117237   1.845   0.894  16.014 -2.2123  1.5301 -0.7748
 1867SOL    HW217238   1.995   0.899  15.997  0.3953  0.8412  0.1827
 1868SOL     OW17239   1.783   0.111   4.040  0.7348 -0.0293  0.1130
 1868SOL    HW117240   1.799   0.034   4.094 -1.6300 -0.5000  0.1481
 1868SOL    HW217241   1.761   0.175   4.109  2.7592  1.0967 -0.2759
 1869SOL     OW17242   2.308   4.084  15.695  0.4825 -0.2728 -0.0963
 1869SOL    HW117243   2.348   3.999  15.674  0.7221  0.0578 -0.9967
 1869SOL    HW217244   2.384   4.136  15.721  0.7718 -2.3050  3.0459
 1870SOL     OW17245   0.446   0.954   7.281 -0.1079  0.7277 -0.3588
 1870SOL    HW117246   0.402   0.896   7.344 -1.0534  2.1081  0.2673
 1870SOL    HW217247   0.376   0.982   7.222  0.1883 -0.4372 -1.2424
 1871SOL     OW17248   1.951   4.428  16.759  0.5414 -0.1356 -0.4534
 1871SOL    HW117249   1.963   4.333  16.764  2.0262 -0.0028 -1.7004
 1871SOL    HW217250   2.017   4.466  16.817 -1.0022  0.2682  1.0439
 1872SOL     OW17251   0.380   1.480   4.521  0.1786  0.3268 -0.4196
 1872SOL    HW117252   0.423   1.551   4.473  1.2866  0.5195  0.8535
 1872SOL    HW217253   0.309   1.528   4.564 -1.0954 -1.2221 -0.8203
 1873SOL     OW17254   0.216   2.980   8.697 -0.2646 -0.2398  0.1506
 1873SOL    HW117255   0.278   3.038   8.654 -1.3782  0.4709 -0.4975
 1873SOL    HW217256   0.208   3.027   8.780  0.6847 -0.2989  0.2723
 1874SOL     OW17257   0.271   1.309   6.603  0.0472  0.2325  0.5433
 1874SOL    HW117258   0.243   1.304   6.512 -1.9591 -2.2171  1.2748
 1874SOL    HW217259   0.310   1.221   6.601  1.6932  0.9070  2.5788
 1875SOL     OW17260   2.725   0.081  11.911 -0.2494 -0.4127  0.0083
 1875SOL    HW117261   2.810   0.042  11.929 -1.5056 -3.0352  0.2546
 1875SOL    HW217262   2.661   0.020  11.948 -0.7448 -0.8926 -1.6280
 1876SOL     OW17263   3.206   4.468   6.138  0.5097 -0.3385 -0.3753
 1876SOL    HW117264   3.210   4.551   6.091  2.7098  0.1554  0.7148
 1876SOL    HW217265   3.117   4.463   6.173  1.3202 -1.3283  1.5270
 1877SOL     OW17266   2.804   2.936  14.545 -0.2396 -0.4597  0.1186
 1877SOL    HW117267   2.729   2.889  14.509  0.2871 -0.1727 -1.3966
 1877SOL    HW217268   2.831   2.875  14.613 -2.1765 -1.6934 -0.2174
 1878SOL     OW17269   1.264   1.944   7.972 -0.7852  0.3404 -0.4734
 1878SOL    HW117270   1.332   1.945   7.904  0.4635  1.8168  0.7791
 1878SOL    HW217271   1.316   1.963   8.050  0.7319 -3.1363 -0.6306
 1879SOL     OW17272   1.550   3.352   7.178 -0.2123  0.1314 -0.5650
 1879SOL    HW117273   1.530   3.260   7.193  0.0272  0.0395 -0.7894
 1879SOL    HW217274   1.546   3.386   7.267 -1.4086 -2.5512  0.4086
 1880SOL     OW17275   3.788   3.755   4.863 -0.0226  0.1255 -0.0364
 1880SOL    HW117276   3.883   3.750   4.847 -0.1391 -0.9000 -0.3959
 1880SOL    HW217277   3.768   3.786   4.775 -0.2805 -0.3066 -0.1283
 1881SOL     OW17278   2.764   1.826   6.430 -0.3718 -0.4738 -0.0045
 1881SOL    HW117279   2.739   1.849   6.341 -0.4502  0.1502  0.1801
 1881SOL    HW217280   2.791   1.735   6.418 -3.2193 -1.0398 -1.8553
 1882SOL     OW17281   2.869   4.708   3.342 -0.8997 -0.3392 -0.0223
 1882SOL    HW117282   2.901   4.621   3.317  0.4072  0.0750  0.2322
 1882SOL    HW217283   2.912   4.736   3.423 -0.2939  1.3078 -0.9141
 1883SOL     OW17284   4.539   3.704   1.460 -0.2673  0.4362  0.2719
 1883SOL    HW117285   4.555   3.621   1.503  1.7414 -0.3993 -2.1510
 1883SOL    HW217286   4.499   3.667   1.381 -1.7443 -1.0812  1.7276
 1884SOL     OW17287   0.054   4.166   7.528 -0.3251  0.3517  0.0791
 1884SOL    HW117288   4.719   4.194   7.584  0.3721 -1.8147  2.0321
 1884SOL    HW217289   0.025   4.104   7.461 -2.0389  1.0341  0.1999
 1885SOL     OW17290   1.968   3.900   3.108  0.2648  0.0279  0.5239
 1885SOL    HW117291   1.981   3.970   3.044 -2.0638  0.1826  0.2009
 1885SOL    HW217292   1.979   3.821   3.056 -2.0130  1.5806 -2.3113
 1886SOL     OW17293   3.744   3.184   9.386  0.3773  0.1683  0.1211
 1886SOL    HW117294   3.744   3.156   9.478 -3.6685 -1.4686 -0.3505
 1886SOL    HW217295   3.749   3.101   9.339 -0.8866 -1.5495  3.0214
 1887SOL     OW17296   3.922   4.429   0.629  0.3128  0.2463 -0.4272
 1887SOL    HW117297   3.900   4.504   0.685  0.3289  0.1659 -0.3130
 1887SOL    HW217298   3.979   4.374   0.682  0.5124 -0.1078 -1.0079
 1888SOL     OW17299   2.024   1.896   3.644  0.4179 -0.1097 -0.1522
 1888SOL    HW117300   2.031   1.868   3.552  1.0102  0.0730 -0.1642
 1888SOL    HW217301   2.092   1.840   3.680  1.1100  0.2675 -0.8477
 1889SOL     OW17302   4.188   2.304   3.801 -0.0023 -0.6412  0.0304
 1889SOL    HW117303   4.158   2.217   3.773 -0.3135 -0.7749  0.7561
 1889SOL    HW217304   4.115   2.310   3.863 -0.0296 -2.3837  0.1917
 1890SOL     OW17305   1.995   2.501  12.980 -0.4345  0.0643  0.3835
 1890SOL    HW117306   2.029   2.483  12.892 -0.4533 -1.4517  0.6870
 1890SOL    HW217307   1.981   2.417  13.023 -0.3963 -1.0827 -1.8459
 1891SOL     OW17308   2.682   2.697   6.191 -0.2379 -0.0087  0.2421
 1891SOL    HW117309   2.624   2.766   6.159  0.6351  0.4119 -0.4341
 1891SOL    HW217310   2.628   2.630   6.233 -1.0284  0.6675  0.3093
 1892SOL     OW17311   3.653   0.794  15.371 -0.3355 -0.1253  0.0204
 1892SOL    HW117312   3.586   0.839  15.320  1.1408  1.2614 -0.6922
 1892SOL    HW217313   3.718   0.805  15.302 -0.0528 -0.8852  0.1596
 1893SOL     OW17314   3.363   1.041   5.978  0.0739  0.4612  0.4055
 1893SOL    HW117315   3.380   1.133   5.998 -1.4443  0.9338 -0.4800
 1893SOL    HW217316   3.324   1.046   5.890  0.0100 -1.3201  0.3284
 1894SOL     OW17317   3.010   2.093   4.264 -0.4425  0.0044 -0.0604
 1894SOL    HW117318   3.082   2.131   4.315  0.3554  0.7468 -1.7210
 1894SOL    HW217319   3.037   2.005   4.238  1.8745  1.0187 -1.0494
 1895SOL     OW17320   1.162   4.011   3.508  0.1237  0.2054 -0.2709
 1895SOL    HW117321   1.207   4.057   3.437 -0.1215 -0.5413 -0.8978
 1895SOL    HW217322   1.086   4.068   3.519 -0.7824 -0.4845 -2.9675
 1896SOL     OW17323   2.746   1.056   2.270 -0.2091  0.1564  0.7826
 1896SOL    HW117324   2.651   1.061   2.281  0.1137  1.6348  2.8463
 1896SOL    HW217325   2.771   0.965   2.258 -2.0946 -0.1340 -1.0272
 1897SOL     OW17326   1.441   0.645   9.880 -0.0008  0.0697  0.2575
 1897SOL    HW117327   1.522   0.692   9.902  0.8003 -0.7932 -0.8751
 1897SOL    HW217328   1.399   0.695   9.810  0.4510  1.4851  0.9787
 1898SOL     OW17329   4.249   0.713   6.021 -0.3935  0.1689  0.0931
 1898SOL    HW117330   4.227   0.690   6.112 -1.9034  0.2108 -0.2565
 1898SOL    HW217331   4.265   0.626   5.985 -2.1142  1.0242 -2.7001
 1899SOL     OW17332   3.595   3.529   2.031  0.4924  0.4398 -0.0270
 1899SOL    HW117333   3.643   3.454   1.996  0.4390  0.4855 -0.2003
 1899SOL    HW217334   3.504   3.501   2.032  0.4408  0.7190  2.2060
 1900SOL     OW17335   3.079   0.266   0.936 -0.0007  0.1749 -0.0472
 1900SOL    HW117336   2.991   0.240   0.963 -1.0208  0.6489 -2.8573
 1900SOL    HW217337   3.102   0.290   1.026 -1.4780  1.0704  0.0871
 1901SOL     OW17338   4.455   1.464   9.293  0.1140  0.1378  0.9958
 1901SOL    HW117339   4.473   1.459   9.387  0.5699 -1.7198  0.8095
 1901SOL    HW217340   4.411   1.549   9.290  1.3444  0.7240 -0.2962
 1902SOL     OW17341   4.493   1.493  13.180 -0.0494 -0.6137  0.2352
 1902SOL    HW117342   4.532   1.415  13.219 -2.4714 -2.2538 -0.6546
 1902SOL    HW217343   4.480   1.464  13.090 -0.1808  1.1906 -0.3443
 1903SOL     OW17344   2.306   0.681   5.204  0.5588 -0.1439 -0.0301
 1903SOL    HW117345   2.218   0.668   5.239 -0.0722  0.4926 -1.3525
 1903SOL    HW217346   2.286   0.680   5.110 -0.2214  2.6162  0.1073
 1904SOL     OW17347   4.204   2.081   8.699  0.4023  0.0478 -0.6892
 1904SOL    HW117348   4.172   1.992   8.688 -0.0874 -0.1025  1.9590
 1904SOL    HW217349   4.127   2.119   8.741  2.1901  2.0682  0.7775
 1905SOL     OW17350   2.946   1.174  10.019  0.1264  0.1646 -0.0362
 1905SOL    HW117351   2.853   1.193  10.032  0.5203  2.8821 -1.2626
 1905SOL    HW217352   2.994   1.228  10.082 -0.0393 -0.3233  0.5081
 1906SOL     OW17353   3.002   3.187   2.638 -1.1148 -0.0688 -0.2100
 1906SOL    HW117354   2.974   3.097   2.651 -0.9915 -0.1975 -0.8780
 1906SOL    HW217355   3.098   3.185   2.643 -1.2047  2.3416  2.9244
 1907SOL     OW17356   2.763   3.107  16.766 -0.3056  0.5040 -0.3843
 1907SOL    HW117357   2.829   3.176  16.771  0.4862 -0.1376 -2.2566
 1907SOL    HW217358   2.780   3.077  16.677  0.4175  1.4153 -0.5530
 1908SOL     OW17359   1.339   0.805   8.208 -0.3081  0.4418  0.3953
 1908SOL    HW117360   1.379   0.871   8.152  0.4651  1.4748  2.1539
 1908SOL    HW217361   1.251   0.841   8.224 -1.3584 -0.5542 -3.2919
 1909SOL     OW17362   1.481   0.775   4.608  0.2379  0.3859 -0.1848
 1909SOL    HW117363   1.534   0.696   4.606  2.5473  1.9337 -0.9525
 1909SOL    HW217364   1.523   0.826   4.678 -1.3265 -0.5306  1.4267
 1910SOL     OW17365   0.366   2.444  17.547 -0.6338 -0.7557 -0.1140
 1910SOL    HW117366   0.335   2.516  17.602 -1.6653 -1.5424  0.3273
 1910SOL    HW217367   0.313   2.457  17.469  0.1633 -2.0250 -0.8482
 1911SOL     OW17368   3.786   1.520   3.817  0.1116 -0.2161 -0.0653
 1911SOL    HW117369   3.750   1.494   3.901 -0.8382 -0.3411 -0.5126
 1911SOL    HW217370   3.869   1.562   3.838 -0.4764  0.3655  1.0640
 1912SOL     OW17371   1.694   3.762   2.479 -0.0887  0.5405 -0.2689
 1912SOL    HW117372   1.743   3.679   2.474  0.5871  0.8732  0.7621
 1912SOL    HW217373   1.642   3.751   2.400 -0.7023 -1.1238  0.3547
 1913SOL     OW17374   0.665   2.415   1.718 -0.0944  0.3757 -0.3713
 1913SOL    HW117375   0.692   2.504   1.739 -0.4721  0.4529 -0.2098
 1913SOL    HW217376   0.572   2.417   1.740  0.3392  2.8012  1.1332
 1914SOL     OW17377   4.295   0.723   0.297  0.4107 -0.0873  0.3168
 1914SOL    HW117378   4.244   0.735   0.377  0.4690 -0.6239  0.4393
 1914SOL    HW217379   4.372   0.677   0.332 -0.6527 -1.7769  0.4663
 1915SOL     OW17380   1.858   1.944   6.696 -0.4738  0.0301  0.0950
 1915SOL    HW117381   1.852   2.036   6.670 -0.9773  0.2057  0.8262
 1915SOL    HW217382   1.898   1.954   6.782  0.6008 -1.7242 -0.2052
 1916SOL     OW17383   2.013   4.448  15.866 -0.5547  0.0031  0.3171
 1916SOL    HW117384   2.068   4.507  15.917 -0.6456 -0.5740  1.0736
 1916SOL    HW217385   2.059   4.432  15.783 -1.4022  2.1516 -0.5655
 1917SOL     OW17386   2.374   1.014   5.431 -0.0537  0.7122  0.4160
 1917SOL    HW117387   2.282   1.000   5.452 -0.7806 -0.4153 -3.6161
 1917SOL    HW217388   2.368   1.035   5.338 -1.9139  1.3976  0.6755
 1918SOL     OW17389   1.672   2.579   4.442  0.3110  0.4890  0.5640
 1918SOL    HW117390   1.625   2.542   4.367  2.0547 -0.9872  0.1925
 1918SOL    HW217391   1.755   2.590   4.396  1.3448  0.6810  2.4790
 1919SOL     OW17392   3.923   1.993  10.741  0.0738 -0.1023 -0.3469
 1919SOL    HW117393   3.942   1.918  10.685  1.0991 -0.9954  1.1744
 1919SOL    HW217394   3.987   2.056  10.708 -0.7422 -1.5057 -4.5476
 1920SOL     OW17395   4.715   4.201   0.018  0.2240 -0.6425 -0.3035
 1920SOL    HW117396   0.018   4.278  17.722  0.2127 -1.3384 -1.6274
 1920SOL    HW217397   0.031   4.122   0.005  2.9440  1.1512 -0.2438
 1921SOL     OW17398   1.365   4.079  10.621  0.0398  0.6936 -0.1181
 1921SOL    HW117399   1.444   4.033  10.592  0.0737  0.2052  0.7414
 1921SOL    HW217400   1.300   4.009  10.633  0.1252  1.1394  2.8139
 1922SOL     OW17401   2.768   2.075   5.965 -0.2544 -0.4920  0.3032
 1922SOL    HW117402   2.768   2.160   6.010  0.3846 -0.0638 -0.5078
 1922SOL    HW217403   2.861   2.056   5.961  0.3661  2.7070 -0.2462
 1923SOL     OW17404   4.195   2.579   2.725 -0.2807 -0.3852  0.6089
 1923SOL    HW117405   4.216   2.666   2.757  0.6589 -0.2412 -0.4056
 1923SOL    HW217406   4.099   2.579   2.726 -0.2807 -1.4090  1.0727
 1924SOL     OW17407   0.213   4.342   2.864 -0.4740  0.0501 -0.4510
 1924SOL    HW117408   0.267   4.278   2.817 -1.3905 -0.1103 -1.2928
 1924SOL    HW217409   0.163   4.372   2.789 -1.3019 -0.7734 -0.2415
 1925SOL     OW17410   0.398   0.743   6.170  0.0038  0.0594 -0.3911
 1925SOL    HW117411   0.467   0.734   6.104  0.1964  1.0189 -0.3095
 1925SOL    HW217412   0.400   0.656   6.210 -2.4981  0.8227  1.3489
 1926SOL     OW17413   4.422   2.844  12.341 -0.3276  1.0447 -0.0938
 1926SOL    HW117414   4.507   2.802  12.357 -0.8895 -0.0975 -0.1043
 1926SOL    HW217415   4.446   2.935  12.322  0.1497  0.7683 -0.8409
 1927SOL     OW17416   1.020   1.819   9.283  1.0377  0.0697  0.1613
 1927SOL    HW117417   1.013   1.726   9.305 -0.1915 -0.7502 -3.6985
 1927SOL    HW217418   0.934   1.844   9.314  1.2078  1.8739 -0.8704
 1928SOL     OW17419   3.246   0.890  13.728  0.3923 -0.3719 -0.6198
 1928SOL    HW117420   3.191   0.952  13.775  2.2477 -0.0369  1.0670
 1928SOL    HW217421   3.277   0.938  13.651 -0.4974  2.3107  0.7245
 1929SOL     OW17422   2.427   4.380   5.471  0.3573  0.0005  0.4051
 1929SOL    HW117423   2.429   4.476   5.479 -2.5072  0.1819 -0.6138
 1929SOL    HW217424   2.407   4.354   5.381 -0.4870 -0.3095  0.6750
 1930SOL     OW17425   3.988   2.287   4.001 -0.0948  0.1634  0.7128
 1930SOL    HW117426   3.911   2.343   4.002  0.9382  1.5982  0.4296
 1930SOL    HW217427   4.006   2.273   4.094  1.3509  1.6626  0.6652
 1931SOL     OW17428   2.116   2.028   7.757  0.3702  0.0702  0.6786
 1931SOL    HW117429   2.035   2.062   7.796 -0.4217 -2.6281  1.4098
 1931SOL    HW217430   2.191   2.075   7.793  0.8487 -0.6095  0.5646
 1932SOL     OW17431   3.768   1.909  13.301 -0.3214 -0.2149 -0.5760
 1932SOL    HW117432   3.732   1.861  13.227 -1.1340  0.1422 -0.4170
 1932SOL    HW217433   3.856   1.928  13.268  0.1394  1.8713  1.8317
 1933SOL     OW17434   1.048   1.706   8.480  0.0633 -0.0853  0.2039
 1933SOL    HW117435   1.079   1.679   8.566  1.2124  2.0084  0.4589
 1933SOL    HW217436   0.974   1.761   8.504  0.6335  0.4006  0.8345
 1934SOL     OW17437   4.495   2.432  10.009  0.3640 -0.3638  0.1513
 1934SOL    HW117438   4.426   2.493   9.982  0.4077 -0.0344  0.8049
 1934SOL    HW217439   4.477   2.365   9.942  2.4344 -0.3607 -0.3986
 1935SOL     OW17440   1.871   3.870  10.971 -0.6043  0.5188 -0.9324
 1935SOL    HW117441   1.877   3.855  10.877  1.2850  2.2494 -1.0672
 1935SOL    HW217442   1.918   3.950  10.992  0.5088 -0.0462 -1.3147
 1936SOL     OW17443   0.017   3.656   2.878 -0.1627 -0.3074 -0.1749
 1936SOL    HW117444   0.098   3.648   2.827  1.1876  1.6895  1.6498
 1936SOL    HW217445   0.051   3.692   2.960  1.3762 -0.9027 -0.5533
 1937SOL     OW17446   1.372   2.098   8.663  0.3406  0.1712  0.2793
 1937SOL    HW117447   1.299   2.045   8.697  0.4112 -1.0187 -1.4530
 1937SOL    HW217448   1.432   2.089   8.737  0.1835  0.9516  0.5036
 1938SOL     OW17449   1.134   3.638  15.105 -0.4803  0.5063 -0.7070
 1938SOL    HW117450   1.078   3.705  15.145 -0.0056 -0.4675  1.5241
 1938SOL    HW217451   1.066   3.584  15.064  1.1832 -2.9221  1.0516
 1939SOL     OW17452   1.016   4.584   7.436  0.1057 -0.1129 -0.3853
 1939SOL    HW117453   1.023   4.662   7.381 -2.9778  0.5454  0.1763
 1939SOL    HW217454   1.096   4.537   7.411  1.0735  1.1840  0.2241
 1940SOL     OW17455   3.099   2.127   5.235  0.4657  0.0040  0.3039
 1940SOL    HW117456   3.058   2.056   5.285 -0.9923  0.9194  0.4143
 1940SOL    HW217457   3.025   2.185   5.217  0.2825 -0.4208 -0.3128
 1941SOL     OW17458   4.689   0.884   9.069  0.5502  0.1086 -0.5307
 1941SOL    HW117459   4.712   0.948   9.137 -2.8081  2.3702 -1.5111
 1941SOL    HW217460   4.623   0.830   9.113  2.0162 -1.9100 -0.8060
 1942SOL     OW17461   4.539   2.913  15.710 -0.0728  0.1901 -0.1122
 1942SOL    HW117462   4.451   2.880  15.725 -0.7919  1.5749 -1.3708
 1942SOL    HW217463   4.597   2.840  15.733 -1.9846  0.2348  4.8116
 1943SOL     OW17464   3.422   0.491   7.644  0.0387 -0.0484 -0.2529
 1943SOL    HW117465   3.371   0.422   7.687  0.6031  0.3222  0.9972
 1943SOL    HW217466   3.410   0.455   7.556  0.0130  2.0603 -1.1034
 1944SOL     OW17467   0.091   1.935  12.487  0.0815  0.2663 -0.0707
 1944SOL    HW117468   0.033   1.976  12.423  0.8961  1.9740  0.3032
 1944SOL    HW217469   0.108   2.010  12.543 -2.6612  0.3977  0.5451
 1945SOL     OW17470   3.875   1.790   9.456 -0.6119 -0.3942 -0.2334
 1945SOL    HW117471   3.814   1.716   9.455  0.1328 -1.0304  1.7543
 1945SOL    HW217472   3.930   1.767   9.382 -0.1706  0.8449 -0.2779
 1946SOL     OW17473   0.128   1.102  11.369 -0.0516 -0.4262  0.1487
 1946SOL    HW117474   0.046   1.092  11.321  0.7088  0.3168 -1.3169
 1946SOL    HW217475   0.139   1.197  11.373 -3.0600 -0.1074  0.1386
 1947SOL     OW17476   2.526   1.600  15.216  0.0313  0.3219  0.2446
 1947SOL    HW117477   2.573   1.637  15.141  1.1987  0.5281  1.0718
 1947SOL    HW217478   2.562   1.512  15.216  1.3933  0.8857 -1.0723
 1948SOL     OW17479   0.412   2.264  10.512 -0.6827  0.0674 -0.3334
 1948SOL    HW117480   0.359   2.343  10.526 -1.4939 -0.6053  0.3398
 1948SOL    HW217481   0.438   2.281  10.421 -0.7501 -1.2529 -0.5880
 1949SOL     OW17482   1.646   0.982   5.673  0.1676 -0.1069  0.0838
 1949SOL    HW117483   1.565   1.008   5.631 -1.5388 -0.8992  2.9097
 1949SOL    HW217484   1.691   0.930   5.606 -2.2927 -0.2264 -1.4780
 1950SOL     OW17485   4.729   3.069   2.540 -0.1577 -0.3681  0.3043
 1950SOL    HW117486   4.697   3.137   2.599 -1.6265 -0.9343  0.1693
 1950SOL    HW217487   4.649   3.018   2.551  0.2631 -1.6034 -2.2607
 1951SOL     OW17488   2.089   4.654  12.772  0.1880  0.0382  0.3122
 1951SOL    HW117489   2.054   4.724  12.716  0.1189 -1.1989 -1.1829
 1951SOL    HW217490   2.153   4.618  12.710  1.3403 -0.4199  1.7773
 1952SOL     OW17491   0.267   3.891   3.840  0.5886 -0.1465 -0.4036
 1952SOL    HW117492   0.293   3.834   3.768  2.3036 -1.0396  0.9245
 1952SOL    HW217493   0.353   3.908   3.880  0.0771  1.8372 -0.1326
 1953SOL     OW17494   4.616   2.110   5.012  0.0369 -0.3925 -0.5830
 1953SOL    HW117495   4.637   2.174   4.944  0.0796  0.6205  0.3887
 1953SOL    HW217496   4.572   2.035   4.971  0.4833 -0.8852 -0.1798
 1954SOL     OW17497   1.738   3.851   7.952 -0.4207 -0.2133 -0.1618
 1954SOL    HW117498   1.789   3.924   7.916 -1.7836 -0.3391 -2.2993
 1954SOL    HW217499   1.696   3.890   8.028 -1.0318  2.8033 -2.0604
 1955SOL     OW17500   4.540   3.128   8.657  0.2016  0.3266  1.0061
 1955SOL    HW117501   4.517   3.036   8.640  1.0881  0.2851  0.0334
 1955SOL    HW217502   4.598   3.107   8.730  0.8252 -0.6401  0.2500
 1956SOL     OW17503   1.155   4.608   7.684  0.6960 -0.2307  0.2989
 1956SOL    HW117504   1.119   4.552   7.752  0.2640  0.1850  0.4165
 1956SOL    HW217505   1.120   4.571   7.603 -0.5973  0.4855  0.5267
 1957SOL     OW17506   2.288   3.463   4.418  0.0274  0.0546  0.3272
 1957SOL    HW117507   2.319   3.554   4.417  1.0709 -0.2933  0.8354
 1957SOL    HW217508   2.304   3.448   4.511 -0.3408 -1.3873  0.1554
 1958SOL     OW17509   0.270   0.717  10.818  0.2879  0.0607 -0.5021
 1958SOL    HW117510   0.284   0.623  10.830  0.2729  0.0917 -0.2498
 1958SOL    HW217511   0.358   0.743  10.789  0.9551 -1.4750  0.1620
 1959SOL     OW17512   1.413   0.705   6.460 -0.8137 -0.6626  0.1480
 1959SOL    HW117513   1.339   0.651   6.489 -0.9833  1.3650  3.4708
 1959SOL    HW217514   1.489   0.649   6.475 -1.3307 -1.8037 -1.4238
 1960SOL     OW17515   1.122   1.858   1.405  0.4244  0.1072  0.2610
 1960SOL    HW117516   1.104   1.792   1.472 -2.0384  1.1971  0.6606
 1960SOL    HW217517   1.077   1.931   1.448 -0.0083  0.2231 -0.3898
 1961SOL     OW17518   3.512   3.498   0.668 -0.5174 -0.5264 -0.1735
 1961SOL    HW117519   3.587   3.507   0.609 -1.1061 -0.8055 -0.9682
 1961SOL    HW217520   3.545   3.554   0.737 -0.8086 -0.0287 -0.4415
 1962SOL     OW17521   3.743   1.798   2.016  0.0685 -0.0114 -0.3685
 1962SOL    HW117522   3.706   1.711   2.004 -0.1993  0.2155 -1.1908
 1962SOL    HW217523   3.708   1.830   2.100  0.3328  1.0616 -0.6605
 1963SOL     OW17524   0.755   3.184  12.391  0.1198  0.5041  0.3337
 1963SOL    HW117525   0.824   3.134  12.347 -0.3415  0.2196 -0.0518
 1963SOL    HW217526   0.787   3.272  12.369  0.5795 -0.2918 -2.0901
 1964SOL     OW17527   3.708   3.191   5.809  0.6123  0.1773 -0.4523
 1964SOL    HW117528   3.712   3.256   5.880  0.1469  0.1654 -0.4108
 1964SOL    HW217529   3.618   3.161   5.825  1.6432 -2.7298 -0.0634
 1965SOL     OW17530   2.334   2.707  10.380 -0.1870  0.0132 -0.1288
 1965SOL    HW117531   2.329   2.645  10.306  0.2685 -1.6595  1.2355
 1965SOL    HW217532   2.264   2.671  10.433 -0.4151  0.3925 -0.1734
 1966SOL     OW17533   3.186   1.288  16.515  0.0001  0.2484  0.1731
 1966SOL    HW117534   3.172   1.195  16.534  3.5607 -0.5944 -1.4043
 1966SOL    HW217535   3.118   1.320  16.574  0.3819  0.6702  0.3805
 1967SOL     OW17536   0.384   4.525   5.887 -0.1274  0.6899  0.7827
 1967SOL    HW117537   0.373   4.476   5.968  1.0953 -1.4507 -0.3132
 1967SOL    HW217538   0.411   4.613   5.914  0.3672  0.9443 -0.5087
 1968SOL     OW17539   4.108   4.437   2.402 -0.3751 -0.7184 -0.2721
 1968SOL    HW117540   4.016   4.457   2.419  0.6450  3.6863 -0.0288
 1968SOL    HW217541   4.136   4.516   2.355 -1.3124 -0.6663 -0.7439
 1969SOL     OW17542   2.721   3.211  10.784  0.0755 -0.6287 -0.1284
 1969SOL    HW117543   2.627   3.201  10.771  0.1946 -0.5045 -1.0492
 1969SOL    HW217544   2.721   3.232  10.878  0.4853  2.6131 -0.8551
 1970SOL     OW17545   0.038   1.304   4.431 -0.6167 -0.4166 -0.3314
 1970SOL    HW117546   4.705   1.328   4.491 -0.9842  0.8311 -1.2506
 1970SOL    HW217547   0.037   1.383   4.377  0.1522  0.1498  0.4852
 1971SOL     OW17548   0.028   3.782   2.368 -0.3045 -0.2467 -0.1111
 1971SOL    HW117549   0.041   3.695   2.405 -0.6107 -0.2088  0.0842
 1971SOL    HW217550   4.671   3.800   2.360 -0.4180 -1.3543 -1.3430
 1972SOL     OW17551   0.255   2.350   5.395  0.5271 -0.4775 -0.0257
 1972SOL    HW117552   0.173   2.303   5.379  0.2366 -0.1193  0.4465
 1972SOL    HW217553   0.267   2.324   5.486  0.4551  3.2162  1.0103
 1973SOL     OW17554   0.183   1.179   0.498 -0.0334 -0.4938  0.7978
 1973SOL    HW117555   0.129   1.257   0.511  0.0366 -0.3569  0.2871
 1973SOL    HW217556   0.232   1.163   0.578  1.0481 -0.3947  0.1520
 1974SOL     OW17557   2.392   3.473   5.074 -0.3723 -0.3961  0.1745
 1974SOL    HW117558   2.481   3.503   5.093 -0.3795 -0.6405  0.5908
 1974SOL    HW217559   2.359   3.552   5.029  2.4613  0.3192 -0.6158
 1975SOL     OW17560   4.642   1.689   4.928 -0.5345 -0.2473  0.2788
 1975SOL    HW117561   4.655   1.608   4.878 -0.6215 -0.7643  1.1108
 1975SOL    HW217562   4.611   1.661   5.013 -1.4338 -1.9789 -0.6306
 1976SOL     OW17563   2.900   3.370   0.608 -0.1142 -0.7459  0.3412
 1976SOL    HW117564   2.845   3.302   0.647 -2.6188 -1.1871 -3.9546
 1976SOL    HW217565   2.837   3.427   0.563  1.5954  2.9811  2.6430
 1977SOL     OW17566   2.693   2.260   9.040  0.2362 -0.6515  0.3801
 1977SOL    HW117567   2.599   2.275   9.043  0.4572  1.4286 -3.1812
 1977SOL    HW217568   2.732   2.340   9.074 -1.0575 -0.1541  0.6991
 1978SOL     OW17569   3.405   1.494   2.685  0.0656 -0.3849 -0.6394
 1978SOL    HW117570   3.393   1.523   2.594  3.0211  1.2997 -0.4904
 1978SOL    HW217571   3.351   1.415   2.687  1.4818 -1.2407  2.6040
 1979SOL     OW17572   4.331   4.464   1.780  0.2891  0.1970 -0.3364
 1979SOL    HW117573   4.239   4.457   1.805  0.2223 -2.0178 -1.1956
 1979SOL    HW217574   4.320   4.463   1.684  2.0417 -2.0747 -0.5073
 1980SOL     OW17575   2.664   2.527   0.727 -0.2308  0.1652 -0.6413
 1980SOL    HW117576   2.657   2.618   0.699 -1.1058  0.3754  0.2788
 1980SOL    HW217577   2.696   2.539   0.817 -1.8043  1.6835 -0.2932
 1981SOL     OW17578   4.045   4.320   3.760 -0.3107 -0.0644  0.0373
 1981SOL    HW117579   4.053   4.232   3.723  1.7214  0.1788 -0.1324
 1981SOL    HW217580   3.956   4.326   3.794 -0.7401  2.1367 -1.4472
 1982SOL     OW17581   1.263   0.536   7.440 -0.3500 -0.4370  0.9922
 1982SOL    HW117582   1.254   0.490   7.357 -1.1004  1.5283 -0.0240
 1982SOL    HW217583   1.357   0.518   7.454  0.5726  2.4896 -1.4982
 1983SOL     OW17584   3.037   0.270   3.193  1.0820 -0.1233  0.0122
 1983SOL    HW117585   3.105   0.221   3.240 -1.5397 -2.5456  1.2652
 1983SOL    HW217586   3.040   0.229   3.106 -0.6587  0.7839 -0.4620
 1984SOL     OW17587   1.996   2.546  13.261 -0.3394 -0.5450  0.0550
 1984SOL    HW117588   1.997   2.548  13.166 -2.2019  2.1511  0.0854
 1984SOL    HW217589   2.090   2.544  13.280 -0.0791 -0.8527 -1.2880
 1985SOL     OW17590   2.378   3.386   0.954  0.4414  0.3769 -0.0483
 1985SOL    HW117591   2.362   3.479   0.968 -1.9493 -0.0992  0.4601
 1985SOL    HW217592   2.374   3.353   1.044 -0.1580 -0.5493 -0.4154
 1986SOL     OW17593   2.562   3.305   4.183  0.5885  0.0561  0.2985
 1986SOL    HW117594   2.622   3.356   4.129  1.3345  0.4607  1.5080
 1986SOL    HW217595   2.582   3.340   4.270  1.2882  0.6401 -0.0975
 1987SOL     OW17596   1.246   2.156   2.800 -0.1956 -0.0540  0.5735
 1987SOL    HW117597   1.269   2.110   2.719  0.2268  2.5161 -0.7851
 1987SOL    HW217598   1.241   2.103   2.879  0.0318 -0.0724  0.5780
 1988SOL     OW17599   2.277   2.022   3.407 -0.1328  0.2443 -0.2118
 1988SOL    HW117600   2.278   2.118   3.409  1.1099  0.2516 -1.3952
 1988SOL    HW217601   2.358   2.011   3.457  1.6334  0.9553 -2.9123
 1989SOL     OW17602   3.271   3.083   3.048  0.7828 -0.2773  0.0764
 1989SOL    HW117603   3.176   3.083   3.047  0.7601 -2.5632  1.7167
 1989SOL    HW217604   3.288   3.135   3.127 -1.0560  0.4484 -0.0094
 1990SOL     OW17605   0.410   2.554   6.984  0.0058 -0.2009 -0.6640
 1990SOL    HW117606   0.419   2.502   6.904 -0.0455 -1.2909  0.0253
 1990SOL    HW217607   0.403   2.483   7.048 -3.9576  0.6434 -0.2037
 1991SOL     OW17608   2.275   1.624  14.598  0.5258  0.3430 -0.2990
 1991SOL    HW117609   2.205   1.681  14.567  0.2710 -0.1503 -0.6446
 1991SOL    HW217610   2.253   1.553  14.538  1.3679 -1.1282  1.1386
 1992SOL     OW17611   4.078   2.679   8.187  0.5788  0.3744  0.6602
 1992SOL    HW117612   4.168   2.654   8.170  0.3566 -1.1215  1.7152
 1992SOL    HW217613   4.097   2.745   8.254  1.8202 -1.4219  2.0711
 1993SOL     OW17614   0.772   0.122  11.422  0.1534 -0.3807 -0.0648
 1993SOL    HW117615   0.684   0.125  11.383  0.3805 -0.8725 -0.6247
 1993SOL    HW217616   0.808   0.069  11.351  2.3400 -2.5624  2.6909
 1994SOL     OW17617   3.036   0.929   4.927 -0.1825 -0.0234 -0.7074
 1994SOL    HW117618   3.079   0.953   4.845 -0.1232  1.3212 -0.2911
 1994SOL    HW217619   3.071   0.840   4.936 -0.5878  0.1436  2.4504
 1995SOL     OW17620   3.868   3.331   3.197  0.3510 -0.7049 -0.2954
 1995SOL    HW117621   3.939   3.315   3.135  1.0530  2.6487 -0.4098
 1995SOL    HW217622   3.790   3.301   3.151 -0.5895  0.4905  0.4851
 1996SOL     OW17623   1.111   2.927   0.619 -0.6016 -0.1142  0.2948
 1996SOL    HW117624   1.097   2.956   0.528  0.4298  0.6220  0.3742
 1996SOL    HW217625   1.206   2.931   0.628 -0.5445  1.0536 -0.7087
 1997SOL     OW17626   1.896   1.854   9.307 -0.0775 -0.4269 -0.0363
 1997SOL    HW117627   1.923   1.944   9.290  0.5551 -0.8255 -1.1871
 1997SOL    HW217628   1.836   1.865   9.380  0.9507  2.8914  0.2874
 1998SOL     OW17629   4.082   2.067   3.773  0.0248  0.2791 -0.2583
 1998SOL    HW117630   3.989   2.079   3.791 -0.0073 -0.9047  0.3268
 1998SOL    HW217631   4.106   1.989   3.823 -0.0798 -0.1920 -0.9500
 1999SOL     OW17632   4.689   2.660   1.190  0.1310 -0.1125  0.2019
 1999SOL    HW117633   0.037   2.636   1.227  1.3545  1.0493 -1.8640
 1999SOL    HW217634   4.663   2.726   1.255  0.1704  1.3113 -1.2317
 2000SOL     OW17635   2.401   1.395   6.830 -0.1446  0.2523 -0.1970
 2000SOL    HW117636   2.411   1.430   6.742 -1.6021 -0.1293 -0.5078
 2000SOL    HW217637   2.493   1.402   6.858 -0.3411 -1.6549  0.9464
 2001SOL     OW17638   0.331   2.932   3.311 -0.1639  0.0594 -0.2371
 2001SOL    HW117639   0.417   2.965   3.283  0.5362 -1.2742  0.3090
 2001SOL    HW217640   0.307   2.867   3.245  0.4090  0.3484 -0.7312
 2002SOL     OW17641   4.313   3.275   8.684 -0.4675 -0.0618 -0.4467
 2002SOL    HW117642   4.318   3.369   8.700  1.7347 -0.3946  0.6715
 2002SOL    HW217643   4.401   3.239   8.693 -0.1142  1.2734  1.4631
 2003SOL     OW17644   3.512   0.058   2.737  0.3341 -0.2328 -0.0161
 2003SOL    HW117645   3.544   0.071   2.826  0.2021  0.8153 -0.1145
 2003SOL    HW217646   3.417   0.065   2.745  0.2715 -0.9743 -0.1219
 2004SOL     OW17647   2.851   3.902   2.312 -0.3543  0.0146  0.6699
 2004SOL    HW117648   2.771   3.878   2.264 -1.0628 -0.4326  2.0925
 2004SOL    HW217649   2.917   3.879   2.246 -2.0333  0.6591 -1.2424
 2005SOL     OW17650   3.282   3.770   8.895 -0.0579 -0.4890 -0.6486
 2005SOL    HW117651   3.350   3.809   8.840  0.3562  1.3161  1.1460
 2005SOL    HW217652   3.292   3.812   8.980  1.6968 -0.0661 -1.0786
 2006SOL     OW17653   4.042   1.047   7.116  0.8405  0.6209  0.3582
 2006SOL    HW117654   4.089   1.009   7.042  0.8489 -1.2659  1.3304
 2006SOL    HW217655   4.032   0.986   7.189 -0.3446  0.1633 -0.1939
 2007SOL     OW17656   3.867   3.761   8.189  0.4986  0.0830  0.7543
 2007SOL    HW117657   3.774   3.773   8.211  0.4352  0.5162  0.2568
 2007SOL    HW217658   3.903   3.750   8.278 -0.4593  0.7244  1.2215
 2008SOL     OW17659   0.135   0.062  16.870  0.1565  0.4792  0.2316
 2008SOL    HW117660   0.045   0.055  16.837  0.4227 -2.4870  0.2086
 2008SOL    HW217661   0.126   0.149  16.909  0.3605  1.0263 -0.9371
 2009SOL     OW17662   3.887   0.102   8.549 -0.7701  0.0206 -0.3125
 2009SOL    HW117663   3.927   0.158   8.616 -2.1363  1.4310 -0.6944
 2009SOL    HW217664   3.959   0.047   8.517 -1.0360  0.2702 -1.3317
 2010SOL     OW17665   2.514   4.697   6.400  0.3135 -0.4312 -0.0203
 2010SOL    HW117666   2.426   4.687   6.363  0.6006 -0.0481 -0.7947
 2010SOL    HW217667   2.508   4.679   6.494  0.1348 -0.0411  0.0441
 2011SOL     OW17668   2.534   3.797   9.059 -0.1783 -0.5352  0.1384
 2011SOL    HW117669   2.542   3.730   9.126  0.2248 -0.8245 -0.1974
 2011SOL    HW217670   2.496   3.740   8.991 -0.5988 -1.0397  0.7990
 2012SOL     OW17671   1.950   0.725   4.151  0.1268 -0.2339 -0.0403
 2012SOL    HW117672   1.872   0.771   4.120  0.2782 -0.5889 -0.9490
 2012SOL    HW217673   1.930   0.631   4.149  2.0178 -0.6101 -0.8218
 2013SOL     OW17674   1.566   4.718   7.238 -0.7479  0.0084  0.2453
 2013SOL    HW117675   1.590   4.679   7.154 -0.8570 -0.7269  0.5604
 2013SOL    HW217676   1.613   0.064   7.226  0.0156 -0.8949 -3.0063
 2014SOL     OW17677   1.235   4.279   0.465 -0.2919 -0.3332  0.2273
 2014SOL    HW117678   1.244   4.365   0.423  3.3115 -0.2678  1.1563
 2014SOL    HW217679   1.276   4.222   0.400 -1.4174 -1.5198  0.5583
 2015SOL     OW17680   2.057   3.366   5.828  0.1486 -0.1588 -0.2652
 2015SOL    HW117681   2.022   3.372   5.917 -1.2826  0.0995 -0.8455
 2015SOL    HW217682   2.039   3.451   5.786 -2.6681  0.3250  1.8662
 2016SOL     OW17683   4.017   2.544   2.205 -1.2295  0.5088 -0.4750
 2016SOL    HW117684   4.040   2.490   2.129  0.0278  1.2794 -0.6463
 2016SOL    HW217685   3.987   2.476   2.266  1.9655 -1.7915 -1.4341
 2017SOL     OW17686   3.193   0.701   8.755 -0.1942  0.1137  0.2703
 2017SOL    HW117687   3.196   0.793   8.728 -2.6237  0.4133  1.0072
 2017SOL    HW217688   3.186   0.656   8.670 -1.4541  0.7329  0.0490
 2018SOL     OW17689   1.840   4.720   4.283 -0.8165  0.4466  0.1246
 2018SOL    HW117690   1.889   4.646   4.318 -0.5553  0.7085  0.3170
 2018SOL    HW217691   1.764   4.706   4.338  0.3679  0.0314  1.6506
 2019SOL     OW17692   1.308   3.429   4.161  0.0660  0.3721 -0.1580
 2019SOL    HW117693   1.367   3.431   4.085  0.1479 -3.6792 -0.1721
 2019SOL    HW217694   1.274   3.519   4.158 -0.5451  0.1829  1.4705
 2020SOL     OW17695   2.559   1.980  11.848 -0.2989 -0.3699 -0.5486
 2020SOL    HW117696   2.609   2.005  11.926 -1.6496  2.2032 -0.5069
 2020SOL    HW217697   2.551   1.885  11.858 -1.1205 -0.3307 -0.8145
 2021SOL     OW17698   0.770   3.359   6.149  0.0479 -0.6167 -0.5432
 2021SOL    HW117699   0.721   3.431   6.190 -0.5441 -1.2128 -0.2004
 2021SOL    HW217700   0.803   3.402   6.070  3.2141 -2.0992  0.0018
 2022SOL     OW17701   4.094   0.068   3.259 -0.0030 -0.1122 -0.4503
 2022SOL    HW117702   4.133   0.102   3.179 -1.5418 -0.4549 -1.3543
 2022SOL    HW217703   4.003   0.093   3.239  0.9216  1.5385 -2.5862
 2023SOL     OW17704   2.938   1.530   8.265  0.1199 -0.3578 -0.2743
 2023SOL    HW117705   2.869   1.484   8.314  0.8745 -0.5323  0.6252
 2023SOL    HW217706   2.939   1.471   8.189 -0.6726 -2.3683  1.2644
 2024SOL     OW17707   4.055   4.175   5.517 -0.0321  0.8040  0.1801
 2024SOL    HW117708   4.047   4.116   5.442 -0.7166  1.5431 -0.3193
 2024SOL    HW217709   4.049   4.125   5.598 -1.7383  0.4054 -0.1962
 2025SOL     OW17710   1.043   0.669  11.266  0.2047  0.0019  0.1880
 2025SOL    HW117711   0.950   0.684  11.280  0.0947 -1.0732  0.5893
 2025SOL    HW217712   1.088   0.751  11.244  0.7952 -0.5210 -0.5623
 2026SOL     OW17713   4.726   3.020   1.396  0.0493  0.2595 -0.7263
 2026SOL    HW117714   4.661   3.060   1.337  0.3886 -0.5711 -1.6587
 2026SOL    HW217715   4.665   2.947   1.406  1.3467 -0.7066 -0.0022
 2027SOL     OW17716   2.700   1.677   6.701  0.4815  0.1655 -0.4401
 2027SOL    HW117717   2.668   1.725   6.625  1.3986  0.5601 -0.5751
 2027SOL    HW217718   2.638   1.710   6.765  1.9295  1.0986  0.4965
 2028SOL     OW17719   2.209   2.825   2.675  0.3889  0.0036  0.0063
 2028SOL    HW117720   2.130   2.814   2.622  0.1321 -0.3721  0.4723
 2028SOL    HW217721   2.169   2.868   2.750  2.1024  0.4461  0.6869
 2029SOL     OW17722   4.528   3.787  16.873  0.1691  0.1222  0.2430
 2029SOL    HW117723   4.447   3.762  16.915  0.5307 -2.6576 -0.7421
 2029SOL    HW217724   4.519   3.742  16.789  3.3167 -0.7575  0.3552
 2030SOL     OW17725   0.449   3.555  12.861  0.0032 -0.3886 -0.1651
 2030SOL    HW117726   0.520   3.590  12.806 -1.3249  2.8442  0.1874
 2030SOL    HW217727   0.442   3.626  12.925 -0.9912 -0.3488 -0.3238
 2031SOL     OW17728   4.031   2.484   5.687 -0.5486 -0.7717  0.2538
 2031SOL    HW117729   3.980   2.541   5.629 -0.7460 -0.8754  0.3242
 2031SOL    HW217730   3.964   2.421   5.714 -0.9186 -0.8497 -0.8321
 2032SOL     OW17731   4.241   3.021   4.638 -0.1917 -0.0686 -0.3334
 2032SOL    HW117732   4.258   3.100   4.689 -0.6559  0.5037 -1.0677
 2032SOL    HW217733   4.289   3.036   4.557 -1.4467 -0.4668 -1.1429
 2033SOL     OW17734   1.106   1.039   4.382  0.4583  0.4312 -0.0632
 2033SOL    HW117735   1.190   1.070   4.349 -0.5564 -0.0267 -3.0117
 2033SOL    HW217736   1.143   0.986   4.453  0.0188  4.1426  2.9221
 2034SOL     OW17737   2.319   4.136   2.952  0.4290  0.2876 -0.4073
 2034SOL    HW117738   2.353   4.047   2.945 -2.6198 -0.9593  0.6042
 2034SOL    HW217739   2.397   4.192   2.950 -0.3530  1.3380 -1.5845
 2035SOL     OW17740   2.759   0.136   8.745 -0.2874 -0.1221 -0.3541
 2035SOL    HW117741   2.664   0.146   8.740 -0.1077  1.3196 -1.0610
 2035SOL    HW217742   2.774   0.210   8.804 -1.7540  0.2782 -0.4738
 2036SOL     OW17743   2.134   0.527   2.025 -0.0615  0.4760 -0.1747
 2036SOL    HW117744   2.172   0.613   2.009 -1.1381  1.0289  0.1920
 2036SOL    HW217745   2.040   0.547   2.019  0.3018  1.8345 -1.1908
 2037SOL     OW17746   2.104   2.487   4.473  0.0182 -0.2309 -0.5676
 2037SOL    HW117747   2.075   2.566   4.518 -0.6343  0.2851 -1.9037
 2037SOL    HW217748   2.119   2.514   4.383  2.7869  0.2136  0.0172
 2038SOL     OW17749   3.901   1.923   8.460 -0.3630 -0.0641  0.4170
 2038SOL    HW117750   3.806   1.913   8.473 -0.5471  2.1751  0.8079
 2038SOL    HW217751   3.912   1.909   8.366 -0.7333 -0.7907  0.4860
 2039SOL     OW17752   2.972   3.949   5.048 -0.2996  0.1106 -0.3972
 2039SOL    HW117753   3.055   3.994   5.031  0.7956 -2.0159 -0.7933
 2039SOL    HW217754   2.902   4.013   5.040 -0.8402 -0.2487  1.3760
 2040SOL     OW17755   3.797   2.271   8.151  0.0206  0.4207 -0.5390
 2040SOL    HW117756   3.820   2.269   8.058 -0.1028 -0.7977 -0.5425
 2040SOL    HW217757   3.888   2.272   8.181 -0.3572  0.4879  0.6083
 2041SOL     OW17758   4.152   1.043   5.129  0.0148 -0.0374  0.4113
 2041SOL    HW117759   4.142   1.012   5.219  0.6511 -1.4381 -0.0002
 2041SOL    HW217760   4.060   1.039   5.104  0.0403  0.9847  0.1429
 2042SOL     OW17761   3.877   0.728   6.242 -0.2960  0.7134  0.5459
 2042SOL    HW117762   3.874   0.772   6.156 -0.6506  0.2220  0.3081
 2042SOL    HW217763   3.845   0.799   6.298  3.1253  2.2045  0.5742
 2043SOL     OW17764   3.834   0.051  15.481  0.5838 -0.0803 -0.0388
 2043SOL    HW117765   3.905   0.096  15.435 -0.0457 -1.0144 -1.9627
 2043SOL    HW217766   3.783   0.028  15.403 -1.1801  0.8872  0.8490
 2044SOL     OW17767   1.280   2.656   7.145  0.3943  0.3716  0.3407
 2044SOL    HW117768   1.293   2.576   7.094 -2.1633 -0.0912  0.4290
 2044SOL    HW217769   1.201   2.641   7.197  0.3182 -0.5693 -0.0357
 2045SOL     OW17770   3.030   0.159  11.634 -0.1554  0.4899  0.6527
 2045SOL    HW117771   3.025   0.071  11.596 -0.3675  1.4401 -1.5492
 2045SOL    HW217772   3.031   0.195  11.545  1.9174  0.5483  0.6905
 2046SOL     OW17773   1.798   3.140   1.537 -0.4314  0.2320 -0.9113
 2046SOL    HW117774   1.778   3.233   1.547  0.1909  0.5610 -2.8031
 2046SOL    HW217775   1.752   3.121   1.455  2.4949 -0.6683 -2.3525
 2047SOL     OW17776   2.789   3.766   2.695  0.6744  0.3946  0.9132
 2047SOL    HW117777   2.837   3.769   2.778  0.8918  0.4951  0.7822
 2047SOL    HW217778   2.838   3.828   2.642  0.6746  0.7141  1.2809
 2048SOL     OW17779   2.527   0.387  11.212 -0.3931 -0.5459 -0.0311
 2048SOL    HW117780   2.546   0.313  11.154 -1.1707 -0.9584  0.2355
 2048SOL    HW217781   2.449   0.352  11.256 -0.5580 -1.9266 -1.3811
 2049SOL     OW17782   2.253   4.160   4.708 -0.2131  0.3820  0.0444
 2049SOL    HW117783   2.312   4.094   4.744 -1.1094 -0.4032  0.0716
 2049SOL    HW217784   2.175   4.112   4.734 -0.4014  0.2373 -0.7762
 2050SOL     OW17785   0.042   4.626   4.958 -0.1947  0.5435 -0.0943
 2050SOL    HW117786   0.134   4.604   4.967 -0.4736 -0.2092  1.0060
 2050SOL    HW217787   0.031   4.674   4.876 -0.2524  1.1145  0.2529
 2051SOL     OW17788   2.821   0.540   1.967 -0.1218  0.4123 -0.3596
 2051SOL    HW117789   2.743   0.547   1.913  1.2690 -0.7086 -2.4986
 2051SOL    HW217790   2.845   0.631   1.986  1.6572 -0.0461 -0.3734
 2052SOL     OW17791   1.409   0.876  10.776 -0.2823  0.0969  0.0220
 2052SOL    HW117792   1.327   0.906  10.815  1.1783  1.0198  2.3201
 2052SOL    HW217793   1.389   0.912  10.689  2.0822  5.2121  1.5977
 2053SOL     OW17794   3.162   2.190  11.701  0.0835 -0.4543  0.2286
 2053SOL    HW117795   3.107   2.173  11.778 -0.7472  0.0247 -0.2520
 2053SOL    HW217796   3.098   2.205  11.631  1.8701 -0.9140 -1.4864
 2054SOL     OW17797   1.207   4.455  17.139 -0.5437  0.0605 -0.1024
 2054SOL    HW117798   1.173   4.376  17.098 -3.4245  1.4311 -0.3048
 2054SOL    HW217799   1.281   4.408  17.179  0.4225  2.3820  0.8436
 2055SOL     OW17800   1.192   1.040   2.254 -0.5504  0.1198 -0.0910
 2055SOL    HW117801   1.194   1.104   2.325 -2.7822 -0.8169  0.8047
 2055SOL    HW217802   1.184   1.089   2.172 -3.1443  1.9985  1.2688
 2056SOL     OW17803   1.816   4.348   4.206 -0.5090 -0.1489  0.1254
 2056SOL    HW117804   1.811   4.413   4.276  1.5729  0.7226 -0.5513
 2056SOL    HW217805   1.739   4.363   4.150  0.8195 -2.1312 -2.2043
 2057SOL     OW17806   3.878   2.815   3.187 -0.2101 -0.4290  0.7878
 2057SOL    HW117807   3.934   2.763   3.129 -0.5194  0.5089 -0.3644
 2057SOL    HW217808   3.824   2.744   3.221 -1.9727  1.6186  2.2724
 2058SOL     OW17809   4.291   0.400   3.419  0.7487  0.6330  0.0262
 2058SOL    HW117810   4.304   0.448   3.501  1.7606 -0.1151  0.3111
 2058SOL    HW217811   4.224   0.336   3.443  1.5731 -0.1268  0.2899
 2059SOL     OW17812   0.606   0.477   4.248  0.2522 -0.1452 -0.7069
 2059SOL    HW117813   0.555   0.436   4.318 -0.1886  0.8470 -0.4518
 2059SOL    HW217814   0.573   0.567   4.254 -0.1771 -0.3913  0.5969
 2060SOL     OW17815   4.070   3.424   1.739  0.5039 -0.8508 -0.2851
 2060SOL    HW117816   4.026   3.456   1.817  0.3403 -1.2873 -0.1946
 2060SOL    HW217817   4.048   3.495   1.679 -2.5744 -0.7571  0.9492
 2061SOL     OW17818   0.412   4.570   3.659  0.4379 -0.6172 -0.0234
 2061SOL    HW117819   0.485   4.514   3.687 -0.4711 -1.0509  1.4869
 2061SOL    HW217820   0.344   4.503   3.654  1.9895 -2.4640  3.1821
 2062SOL     OW17821   4.272   4.276   2.955  0.7122 -0.3807 -0.3839
 2062SOL    HW117822   4.350   4.316   2.916  0.3546  1.2787  0.6200
 2062SOL    HW217823   4.241   4.346   3.012  1.8729  0.7543 -1.1432
 2063SOL     OW17824   2.022   1.061   5.930  0.3247  0.1309 -0.1285
 2063SOL    HW117825   2.113   1.064   5.899 -0.9273  1.0058 -3.6980
 2063SOL    HW217826   1.993   0.974   5.904 -0.3549  0.6975 -1.2519
 2064SOL     OW17827   4.564   4.669  12.441  0.2936 -0.2966 -0.7289
 2064SOL    HW117828   4.481   4.635  12.476  1.2549 -0.2208  1.6382
 2064SOL    HW217829   4.584   4.610  12.369  1.2323 -2.2781  1.1772
 2065SOL     OW17830   2.456   1.994   5.355  0.3138 -0.4436 -0.1792
 2065SOL    HW117831   2.382   2.045   5.387 -0.0138 -1.6234  0.9214
 2065SOL    HW217832   2.465   1.930   5.425  1.2323  0.1671  0.2729
 2066SOL     OW17833   3.489   4.502   5.060  0.3463  0.6716 -0.0734
 2066SOL    HW117834   3.420   4.494   4.994  0.7381  2.4405 -0.6767
 2066SOL    HW217835   3.440   4.492   5.142 -2.8619 -1.3665 -2.2150
 2067SOL     OW17836   4.662   0.310   4.161  0.4236 -0.0372 -0.4236
 2067SOL    HW117837   4.688   0.223   4.192  4.4873  0.9749 -1.0001
 2067SOL    HW217838   4.673   0.362   4.241 -2.7198  0.7718 -0.4878
 2068SOL     OW17839   2.554   3.332   9.105  0.1997 -0.3197 -0.3551
 2068SOL    HW117840   2.618   3.289   9.048 -0.8891 -1.6504 -0.5627
 2068SOL    HW217841   2.515   3.257   9.150  0.5923 -0.6286 -0.5287
 2069SOL     OW17842   0.500   1.790   7.447  0.3846 -0.2727  0.9247
 2069SOL    HW117843   0.567   1.766   7.510  0.8445 -0.7539  0.2607
 2069SOL    HW217844   0.513   1.885   7.445 -0.6663 -0.1595 -0.9796
 2070SOL     OW17845   4.100   0.628  16.670 -0.8394  0.0343  0.0220
 2070SOL    HW117846   4.086   0.545  16.715  0.2795 -0.3457 -0.3113
 2070SOL    HW217847   4.167   0.601  16.607  0.1335  0.8660  0.6764
 2071SOL     OW17848   1.225   3.751   7.033  0.4976 -0.7312  0.0408
 2071SOL    HW117849   1.147   3.800   7.010  0.9519 -0.2672 -0.5061
 2071SOL    HW217850   1.215   3.735   7.127  0.8564 -2.4301 -0.2006
 2072SOL     OW17851   0.463   4.559   6.299  0.5748  0.1885  0.6868
 2072SOL    HW117852   0.402   4.530   6.232  0.3486 -0.9072  1.3698
 2072SOL    HW217853   0.402   4.580   6.370 -2.7341 -1.8284 -1.6167
 2073SOL     OW17854   2.425   1.723   3.549 -0.0586  0.1833 -0.3104
 2073SOL    HW117855   2.341   1.736   3.592  1.0052  0.4828  1.6609
 2073SOL    HW217856   2.461   1.657   3.607 -1.8257  0.6880  1.3459
 2074SOL     OW17857   3.044   3.541  14.778 -0.5469  0.3500 -0.0445
 2074SOL    HW117858   3.066   3.478  14.709  1.3610 -0.4948  1.3329
 2074SOL    HW217859   3.030   3.475  14.847 -2.0104 -0.4180 -1.0688
 2075SOL     OW17860   3.367   3.195  12.029 -0.4443  0.1910  0.3089
 2075SOL    HW117861   3.419   3.243  11.964  0.3210 -0.3985  0.4844
 2075SOL    HW217862   3.338   3.125  11.970 -1.1697  0.9056 -0.1832
 2076SOL     OW17863   1.607   2.048   6.530  0.2158 -0.0469  0.1435
 2076SOL    HW117864   1.525   2.089   6.558 -0.8903 -2.2660  0.1649
 2076SOL    HW217865   1.592   2.017   6.440  1.5811  2.6175 -0.9894
 2077SOL     OW17866   3.034   1.476  13.547 -0.1251  0.1069 -0.0511
 2077SOL    HW117867   3.112   1.520  13.581 -0.5772  0.0879  1.0255
 2077SOL    HW217868   2.968   1.476  13.617  0.1329  0.1059  0.1914
 2078SOL     OW17869   4.308   1.647   2.210 -0.3308 -0.4346 -0.0954
 2078SOL    HW117870   4.401   1.668   2.203 -0.8072  2.4525  2.5320
 2078SOL    HW217871   4.315   1.560   2.248 -0.0589 -0.3686  0.0036
 2079SOL     OW17872   3.923   3.307   4.847  0.0455 -0.3017  0.0509
 2079SOL    HW117873   4.009   3.294   4.886  0.9812 -1.7180 -2.4926
 2079SOL    HW217874   3.912   3.399   4.873 -2.1556 -0.4528 -0.3343
 2080SOL     OW17875   2.580   1.227   3.598  0.0870 -0.2801  0.9053
 2080SOL    HW117876   2.547   1.316   3.603 -0.0486 -0.3398  1.0866
 2080SOL    HW217877   2.643   1.236   3.527  0.5162 -1.3135  1.1528
 2081SOL     OW17878   0.634   1.135   8.410  0.5327 -0.0763  0.4868
 2081SOL    HW117879   0.641   1.104   8.501 -1.3567 -0.3651  0.5413
 2081SOL    HW217880   0.703   1.081   8.372 -0.3129 -0.4777 -0.4868
 2082SOL     OW17881   2.769   1.969   3.845  0.0639  0.0413 -0.0034
 2082SOL    HW117882   2.817   1.917   3.908  0.3882 -0.6064 -0.7881
 2082SOL    HW217883   2.681   1.937   3.867  0.1635 -0.3000 -0.1030
 2083SOL     OW17884   3.412   3.558   2.462  0.0747  0.0603  0.2361
 2083SOL    HW117885   3.448   3.616   2.395  2.6688  0.0123  1.5591
 2083SOL    HW217886   3.328   3.601   2.475 -0.4515 -1.3198  1.4819
 2084SOL     OW17887   4.728   0.006   7.697  0.4397 -0.1006 -0.0556
 2084SOL    HW117888   4.661   0.074   7.702  0.2414 -0.3819  1.2595
 2084SOL    HW217889   0.006   0.003   7.603 -1.3840  1.7206 -0.3914
 2085SOL     OW17890   2.849   2.315  14.523  0.0898  0.0012  0.0904
 2085SOL    HW117891   2.867   2.281  14.435 -1.4287 -1.6169  0.4021
 2085SOL    HW217892   2.756   2.292  14.519  0.8370 -2.7277 -1.8761
 2086SOL     OW17893   4.446   1.731  13.257 -0.2848 -0.1412 -0.2864
 2086SOL    HW117894   4.355   1.743  13.283  0.4114  1.6678  1.3365
 2086SOL    HW217895   4.456   1.639  13.233 -2.1460 -0.2754 -0.5529
 2087SOL     OW17896   0.941   3.640   2.621 -0.7274 -0.4635  0.7263
 2087SOL    HW117897   0.862   3.672   2.577 -0.2296  0.9848  0.8884
 2087SOL    HW217898   0.973   3.566   2.569  1.8464  0.0481  1.5653
 2088SOL     OW17899   2.916   1.806   7.090 -0.7055  0.5807 -1.1351
 2088SOL    HW117900   2.858   1.865   7.137 -0.0489 -1.2796  2.0221
 2088SOL    HW217901   2.889   1.821   7.000  1.4075  0.6062 -1.7794
 2089SOL     OW17902   4.630   2.763  10.003  0.4525 -0.2468  0.4620
 2089SOL    HW117903   4.662   2.853   9.992  0.2932  0.0013  1.9611
 2089SOL    HW217904   4.693   2.713   9.951 -0.8411 -0.8329 -0.5064
 2090SOL     OW17905   4.365   2.809   2.517 -0.0748 -0.1071  0.2498
 2090SOL    HW117906   4.282   2.766   2.496  0.6033 -0.0332 -2.5246
 2090SOL    HW217907   4.405   2.735   2.563  0.8066  0.8399  1.0133
 2091SOL     OW17908   3.021   2.759   6.832 -0.5770  0.2231 -0.0135
 2091SOL    HW117909   2.988   2.707   6.905 -0.6435  0.9541  0.4818
 2091SOL    HW217910   2.940   2.786   6.791 -1.2168 -1.2230  0.2987
 2092SOL     OW17911   2.063   3.754   2.348 -0.1588 -0.2953  0.0136
 2092SOL    HW117912   2.031   3.670   2.315 -0.7682  0.1473 -0.5345
 2092SOL    HW217913   2.070   3.799   2.264  0.1734  0.4717  0.4548
 2093SOL     OW17914   2.544   0.114   5.544 -0.6854  0.2559  0.0413
 2093SOL    HW117915   2.477   0.182   5.545  1.0472  2.0782 -4.1371
 2093SOL    HW217916   2.615   0.159   5.497 -1.0128 -0.7659 -1.4288
 2094SOL     OW17917   1.386   4.308   1.542 -0.0394 -0.3321  0.2332
 2094SOL    HW117918   1.469   4.323   1.587 -1.7735  2.4498  2.4915
 2094SOL    HW217919   1.328   4.276   1.611 -0.9259  1.9087  0.5237
 2095SOL     OW17920   4.096   1.196   5.876 -0.1836 -0.0060  0.5006
 2095SOL    HW117921   4.133   1.120   5.830  0.4294 -0.3993  1.6320
 2095SOL    HW217922   4.161   1.264   5.858 -1.3533  1.2959  1.2394
 2096SOL     OW17923   1.131   4.699   4.402 -0.2320  0.5304  0.2982
 2096SOL    HW117924   1.094   4.622   4.444  2.5075 -2.1926 -2.2131
 2096SOL    HW217925   1.190   4.722   4.473 -0.5573 -1.4806  1.2325
 2097SOL     OW17926   0.922   0.238   7.271 -0.2872  0.7317  0.7211
 2097SOL    HW117927   0.909   0.331   7.294  0.4521  0.7484  1.0717
 2097SOL    HW217928   1.009   0.226   7.309 -0.4418 -2.6796 -0.0239
 2098SOL     OW17929   1.027   1.018   2.528  0.0962  0.3447 -0.5979
 2098SOL    HW117930   0.977   0.972   2.460  1.7630 -1.2189 -0.7437
 2098SOL    HW217931   1.049   0.947   2.588 -1.9884  0.4092  0.2506
 2099SOL     OW17932   1.608   1.961  10.163 -0.1429 -0.1485 -0.2314
 2099SOL    HW117933   1.680   1.930  10.108  0.4646 -0.1938  0.5911
 2099SOL    HW217934   1.591   2.044  10.117 -1.0045  1.5466  3.1242
 2100SOL     OW17935   1.496   2.085   8.901 -0.4672 -0.1263 -0.3658
 2100SOL    HW117936   1.551   2.141   8.956  0.3123 -0.1757 -1.0948
 2100SOL    HW217937   1.530   1.996   8.912  0.2367  0.0228 -1.3344
 2101SOL     OW17938   4.512   0.583   3.375  0.6692  0.1890 -1.1815
 2101SOL    HW117939   4.553   0.527   3.441  0.6286  0.9735 -0.4943
 2101SOL    HW217940   4.436   0.526   3.363  1.0941 -0.5206 -0.5638
 2102SOL     OW17941   3.581   0.613  10.128  0.8689  0.3322  0.6738
 2102SOL    HW117942   3.563   0.540  10.068  0.7756 -0.6221  1.8796
 2102SOL    HW217943   3.626   0.561  10.194  0.2952 -0.0472  0.7645
 2103SOL     OW17944   3.097   0.531   5.374 -0.1660 -0.0828  0.4620
 2103SOL    HW117945   3.175   0.562   5.327 -0.3860  2.0902  1.5381
 2103SOL    HW217946   3.107   0.596   5.444  1.8292  1.8342 -1.5868
 2104SOL     OW17947   1.893   0.405   6.413 -0.5844  0.4354  0.1471
 2104SOL    HW117948   1.927   0.316   6.423  0.6108  0.9941  1.0811
 2104SOL    HW217949   1.969   0.443   6.369 -0.5947  0.1041 -0.1521
 2105SOL     OW17950   0.807   4.277  10.237  0.3150 -0.4811 -0.2471
 2105SOL    HW117951   0.843   4.253  10.151  0.9602 -0.4267  0.0125
 2105SOL    HW217952   0.716   4.272  10.206  0.9236  0.6660 -2.2379
 2106SOL     OW17953   2.525   0.655  16.115  0.3392 -0.4473 -0.1944
 2106SOL    HW117954   2.537   0.739  16.070 -2.4309  0.0107 -0.0421
 2106SOL    HW217955   2.544   0.661  16.209  2.0554 -0.3204 -0.5496
 2107SOL     OW17956   4.434   4.538   5.234 -0.0450  0.4490  0.0472
 2107SOL    HW117957   4.523   4.572   5.236  0.5872 -1.2888  1.1435
 2107SOL    HW217958   4.417   4.564   5.143  0.5202  0.1578 -0.1383
 2108SOL     OW17959   1.542   1.694   6.945 -0.1708  0.3251  0.0194
 2108SOL    HW117960   1.572   1.782   6.923 -0.4513  0.7076  1.1668
 2108SOL    HW217961   1.511   1.662   6.861 -1.4578  0.1312  0.5604
 2109SOL     OW17962   0.777   2.292   1.464 -0.1946 -0.7671 -0.2024
 2109SOL    HW117963   0.707   2.352   1.441  0.1023 -0.7249 -0.9896
 2109SOL    HW217964   0.848   2.346   1.500  0.1644 -1.9825  0.9157
 2110SOL     OW17965   1.189   0.501   4.299 -0.3573 -0.0441  0.4202
 2110SOL    HW117966   1.165   0.550   4.220 -4.2974 -1.4412  0.7622
 2110SOL    HW217967   1.158   0.553   4.373 -1.9101 -0.8449  0.3281
 2111SOL     OW17968   1.099   2.712   5.707 -0.3325  0.7334  0.1526
 2111SOL    HW117969   1.049   2.718   5.626  0.4581 -0.2106 -0.4126
 2111SOL    HW217970   1.050   2.760   5.774 -0.8507  1.3824 -0.6817
 2112SOL     OW17971   2.448   1.856  14.572  0.0645 -0.5822 -0.5202
 2112SOL    HW117972   2.392   1.803  14.515 -2.3836 -1.3424  2.5622
 2112SOL    HW217973   2.428   1.811  14.655 -1.2671 -1.1591 -1.1449
 2113SOL     OW17974   0.988   3.801   4.455  0.5941  0.8107  0.9327
 2113SOL    HW117975   0.978   3.734   4.522  0.0820 -0.0955 -0.0661
 2113SOL    HW217976   0.959   3.760   4.374  0.7978  1.2410  0.6439
 2114SOL     OW17977   4.334   2.588   8.165 -0.4436 -0.2946  0.1335
 2114SOL    HW117978   4.420   2.547   8.155 -1.6978 -2.8635 -0.0066
 2114SOL    HW217979   4.290   2.521   8.216  0.6954 -1.2185 -0.1124
 2115SOL     OW17980   2.905   2.260   2.631 -0.1416  0.0183  0.3617
 2115SOL    HW117981   2.904   2.165   2.624 -0.6568  0.0236  0.3517
 2115SOL    HW217982   2.908   2.288   2.539  0.6517  0.6839  0.5924
 2116SOL     OW17983   2.078   3.646   9.400  0.2359 -0.2599 -0.0593
 2116SOL    HW117984   2.049   3.729   9.437  0.2475 -1.4437  2.5795
 2116SOL    HW217985   2.070   3.667   9.307  1.1208 -2.3665 -0.6223
 2117SOL     OW17986   0.560   1.187   2.162 -0.5159 -0.2667  0.8006
 2117SOL    HW117987   0.634   1.226   2.208 -0.1645 -0.2432  0.2196
 2117SOL    HW217988   0.485   1.247   2.165  0.0525  0.4753  0.1197
 2118SOL     OW17989   1.320   1.603   1.517 -0.0700  0.3827  0.0306
 2118SOL    HW117990   1.360   1.686   1.542  2.6710 -0.7868 -0.5275
 2118SOL    HW217991   1.247   1.598   1.579  1.1672 -0.3878  1.4151
 2119SOL     OW17992   4.436   0.404  11.957  0.6336 -0.0677 -0.6570
 2119SOL    HW117993   4.445   0.477  11.895  0.2697  1.9493  1.6665
 2119SOL    HW217994   4.341   0.416  11.965  0.6679 -0.9108  1.0054
 2120SOL     OW17995   2.858   0.861  10.048 -0.9843  0.0002  0.4111
 2120SOL    HW117996   2.928   0.820  10.098  1.4205  3.2890 -0.2904
 2120SOL    HW217997   2.894   0.940  10.008  2.1146 -1.1824  0.8952
 2121SOL     OW17998   4.170   2.847   6.767 -0.1798  0.0623 -0.5290
 2121SOL    HW117999   4.094   2.905   6.768  0.2294  0.5647  0.6945
 2121SOL    HW218000   4.218   2.872   6.687 -4.2386 -2.5382 -3.7903
 2122SOL     OW18001   4.336   4.172  10.643  0.1104  0.1279  0.8802
 2122SOL    HW118002   4.365   4.234  10.575  0.5728  1.0363  1.9002
 2122SOL    HW218003   4.305   4.097  10.593  2.8148  0.4559 -1.3394
 2123SOL     OW18004   1.789   2.854   9.152 -0.3103  0.2200 -0.5096
 2123SOL    HW118005   1.826   2.942   9.152 -1.6684  0.7820  1.4222
 2123SOL    HW218006   1.698   2.874   9.133 -1.1962 -2.7526  0.6516
 2124SOL     OW18007   0.015   0.582  12.643 -0.4737  0.7793  0.2635
 2124SOL    HW118008   0.078   0.522  12.602 -2.4977 -0.6649 -0.7635
 2124SOL    HW218009   0.028   0.656  12.584  0.1532  0.6532  0.2423
 2125SOL     OW18010   4.019   0.460  11.781  0.3701  0.3950  0.1441
 2125SOL    HW118011   4.058   0.427  11.862  0.0961  2.1709  1.0094
 2125SOL    HW218012   4.075   0.419  11.715 -0.3347  0.0938 -0.2578
 2126SOL     OW18013   3.274   2.720   9.169  0.0748 -0.0595  0.1592
 2126SOL    HW118014   3.232   2.638   9.197  0.1306  0.8907  3.0406
 2126SOL    HW218015   3.299   2.713   9.077 -1.0973  0.8488 -0.2174
 2127SOL     OW18016   4.040   1.857   2.235 -0.2918 -0.5137 -0.0019
 2127SOL    HW118017   4.106   1.910   2.280  1.6329 -3.0030  0.1132
 2127SOL    HW218018   4.027   1.913   2.159  2.4988  1.6147  1.0757
 2128SOL     OW18019   2.524   2.530  13.099 -0.4387  0.2902  0.1238
 2128SOL    HW118020   2.578   2.570  13.167  0.2012  0.0628 -0.2512
 2128SOL    HW218021   2.437   2.515  13.138  0.1071 -3.5557 -0.1652
 2129SOL     OW18022   2.182   1.523  14.029  0.0906 -0.0766 -0.8853
 2129SOL    HW118023   2.136   1.507  14.112  2.3016  0.5277  0.4424
 2129SOL    HW218024   2.116   1.507  13.961 -0.0276 -1.6471 -0.4119
 2130SOL     OW18025   3.807   2.902   3.520 -0.0154  0.3026  0.0829
 2130SOL    HW118026   3.848   2.985   3.541 -1.7866  0.6445  2.1707
 2130SOL    HW218027   3.771   2.924   3.434 -2.1218  2.4125  1.5203
 2131SOL     OW18028   1.743   0.998   7.084 -0.2030  0.2427  0.1450
 2131SOL    HW118029   1.656   1.022   7.115  0.3911 -0.7014  2.5146
 2131SOL    HW218030   1.782   0.996   7.171  1.0910 -2.6265 -0.4969
 2132SOL     OW18031   0.526   4.582  10.480  0.0064  0.5437 -0.0907
 2132SOL    HW118032   0.522   4.506  10.537  0.5673  0.4519 -0.1712
 2132SOL    HW218033   0.599   4.569  10.419  0.6026  0.5162  0.6208
 2133SOL     OW18034   3.150   1.933   8.234  0.3510  0.3566 -0.1678
 2133SOL    HW118035   3.187   1.845   8.226 -0.0539  0.1042  0.7398
 2133SOL    HW218036   3.223   1.993   8.221  0.0672  0.4804 -1.1617
 2134SOL     OW18037   0.769   2.064   8.977  0.2035  0.1064  0.3838
 2134SOL    HW118038   0.844   2.122   8.966  1.4273 -1.5252  0.1879
 2134SOL    HW218039   0.713   2.099   8.908  1.9096  0.3176 -0.8940
 2135SOL     OW18040   4.166   0.782   2.919 -0.0841 -0.1756  0.4095
 2135SOL    HW118041   4.231   0.763   2.987  1.0824  0.4571 -0.5281
 2135SOL    HW218042   4.096   0.833   2.959 -1.1997  0.0617 -1.8772
 2136SOL     OW18043   1.421   0.204   2.586  0.5140 -0.4255  0.0803
 2136SOL    HW118044   1.356   0.264   2.550  0.9966  0.7827  1.1829
 2136SOL    HW218045   1.360   0.149   2.636  0.9895 -0.9941  0.0338
 2137SOL     OW18046   2.557   3.099   7.378  0.8277 -0.0860 -0.2446
 2137SOL    HW118047   2.492   3.104   7.308  0.4603  1.1593  0.1817
 2137SOL    HW218048   2.628   3.157   7.348  0.9477 -0.1035  0.0055
 2138SOL     OW18049   4.490   3.642  16.667  1.1682  0.1214 -0.2827
 2138SOL    HW118050   4.566   3.592  16.635  0.6190 -1.1246  0.3740
 2138SOL    HW218051   4.422   3.610  16.608 -0.5495 -1.7307  2.6691
 2139SOL     OW18052   1.797   1.634  15.595  0.1209  0.3770  0.3792
 2139SOL    HW118053   1.818   1.711  15.542  0.4670 -1.1914 -1.7670
 2139SOL    HW218054   1.783   1.566  15.528  0.0809  2.2432 -1.5257
 2140SOL     OW18055   4.496   4.389   2.857 -0.8928 -0.2627 -0.2699
 2140SOL    HW118056   4.494   4.351   2.769 -0.5821  0.3772 -0.5493
 2140SOL    HW218057   4.587   4.410   2.877 -0.6017  0.3084 -2.2847
 2141SOL     OW18058   1.452   2.757   3.832  0.5806  0.2664 -0.2620
 2141SOL    HW118059   1.413   2.843   3.814  0.3270  0.2581  0.2462
 2141SOL    HW218060   1.527   2.758   3.773 -0.4350  2.4605 -1.5451
 2142SOL     OW18061   4.600   2.889   4.390 -0.3615  0.1938 -0.2752
 2142SOL    HW118062   4.678   2.923   4.346 -1.7106  2.3945 -0.9668
 2142SOL    HW218063   4.562   2.841   4.317  0.0939  2.5537 -2.0795
 2143SOL     OW18064   3.520   2.784   5.127  0.4233  0.3648  0.8567
 2143SOL    HW118065   3.614   2.778   5.111  0.4199 -0.1618  1.0318
 2143SOL    HW218066   3.522   2.814   5.218 -1.1917  1.3952  0.5586
 2144SOL     OW18067   2.444   3.817   7.183  0.2413 -0.2510 -0.1257
 2144SOL    HW118068   2.406   3.870   7.113  1.8732  0.1226 -0.7292
 2144SOL    HW218069   2.424   3.864   7.264 -0.1280  1.3342 -1.1532
 2145SOL     OW18070   1.589   1.698   5.206 -0.0880 -0.8383 -0.4098
 2145SOL    HW118071   1.527   1.638   5.247  0.0378  2.1952  4.2650
 2145SOL    HW218072   1.523   1.754   5.166 -0.6116 -0.9688  0.2716
 2146SOL     OW18073   2.931   1.080   8.257  0.1085 -0.2264  0.3802
 2146SOL    HW118074   2.930   0.988   8.283  1.7230 -0.2127  0.4884
 2146SOL    HW218075   2.966   1.125   8.334 -0.2929 -0.4893  0.7145
 2147SOL     OW18076   2.904   2.410   7.020 -0.6756  0.2489  0.6335
 2147SOL    HW118077   2.809   2.414   7.018 -0.7311 -1.3824 -0.0964
 2147SOL    HW218078   2.927   2.503   7.020 -2.7638  0.7771 -1.2012
 2148SOL     OW18079   2.692   3.772  15.813  0.2911  0.4777  0.2307
 2148SOL    HW118080   2.781   3.765  15.848  0.3173  0.2305  0.1153
 2148SOL    HW218081   2.643   3.722  15.878  2.8451 -1.3421  0.7764
 2149SOL     OW18082   4.166   1.290   6.434 -0.0786  0.2518  0.2276
 2149SOL    HW118083   4.253   1.308   6.472  0.1082 -1.2430  0.5090
 2149SOL    HW218084   4.188   1.321   6.347 -0.7655  1.7542  0.5995
 2150SOL     OW18085   3.686   3.792   2.002  0.1572 -0.3027  0.2576
 2150SOL    HW118086   3.738   3.780   1.923 -0.9385  1.8509 -0.7632
 2150SOL    HW218087   3.645   3.706   2.011 -1.1938  0.0756 -2.3185
 2151SOL     OW18088   1.611   0.454  14.582 -0.3486 -0.1939  0.0349
 2151SOL    HW118089   1.695   0.407  14.586 -0.6518 -0.8986 -1.8591
 2151SOL    HW218090   1.551   0.384  14.556  0.3440 -0.3724 -1.0684
 2152SOL     OW18091   1.496   2.407  15.272  0.1962 -0.8295  0.2159
 2152SOL    HW118092   1.472   2.481  15.328  1.6244  1.3717 -2.0581
 2152SOL    HW218093   1.461   2.440  15.189 -0.9325 -1.1051  0.5839
 2153SOL     OW18094   2.595   1.884   3.036 -0.8016 -0.1543 -0.3185
 2153SOL    HW118095   2.601   1.917   2.947  0.6411  0.0730 -0.1429
 2153SOL    HW218096   2.640   1.799   3.036 -0.0875  0.2298  0.4255
 2154SOL     OW18097   4.063   3.838   1.956  1.0746 -0.0524  0.1890
 2154SOL    HW118098   4.155   3.813   1.962  1.0613 -0.6860 -2.1991
 2154SOL    HW218099   4.015   3.765   1.916 -1.3867  0.2750  2.5214
 2155SOL     OW18100   2.236   0.964   1.739  0.1961 -0.7401 -0.3206
 2155SOL    HW118101   2.316   0.962   1.685  2.1546 -0.6367  2.5953
 2155SOL    HW218102   2.228   0.876   1.777 -1.0382 -1.2288 -1.7351
 2156SOL     OW18103   2.411   3.049   2.732  0.6772  0.0915  0.2152
 2156SOL    HW118104   2.356   3.109   2.782  3.1103  2.4313  0.0495
 2156SOL    HW218105   2.345   2.997   2.686 -1.4877  1.0743  2.2028
 2157SOL     OW18106   0.256   1.025  14.171  0.8290 -0.2906  0.2506
 2157SOL    HW118107   0.280   0.939  14.136 -1.9485 -0.8337 -0.3219
 2157SOL    HW218108   0.165   1.029  14.139  0.7586 -0.4235  0.4328
 2158SOL     OW18109   2.488   3.593  13.497  0.2523 -0.6740 -0.0766
 2158SOL    HW118110   2.408   3.548  13.522 -0.6303  0.5459 -0.6433
 2158SOL    HW218111   2.449   3.669  13.452  0.5077 -1.7763 -2.1757
 2159SOL     OW18112   0.188   1.959   8.717 -0.2736 -0.3854 -0.5244
 2159SOL    HW118113   0.152   1.871   8.730 -1.9385  0.4337  0.3850
 2159SOL    HW218114   0.240   1.979   8.795  0.4230 -0.5035 -0.9598
 2160SOL     OW18115   4.663   3.843   8.315  0.9523 -0.1848  0.6074
 2160SOL    HW118116   4.654   3.751   8.342 -0.9098  0.7234  3.0429
 2160SOL    HW218117   4.625   3.845   8.227  1.8909 -1.5161  0.1732
 2161SOL     OW18118   0.396   0.343  16.282 -0.0448 -0.1752  0.3793
 2161SOL    HW118119   0.461   0.368  16.348  1.2616 -0.3848 -0.8013
 2161SOL    HW218120   0.386   0.422  16.228 -0.1521  1.3434  2.6116
 2162SOL     OW18121   0.809   1.560   2.517  0.1504 -0.3076 -0.3431
 2162SOL    HW118122   0.876   1.569   2.449 -1.6833 -0.2339 -2.1316
 2162SOL    HW218123   0.824   1.643   2.563 -1.4748 -1.3804  2.1019
 2163SOL     OW18124   1.046   3.443   3.524  0.2580 -0.4461 -0.7006
 2163SOL    HW118125   0.998   3.369   3.488 -0.0864 -2.5622  4.1075
 2163SOL    HW218126   1.111   3.457   3.455  1.5809  2.3481  1.1116
 2164SOL     OW18127   2.655   1.772   7.837 -0.1526  0.3860 -0.0019
 2164SOL    HW118128   2.673   1.801   7.927  1.2174 -0.2016 -0.0755
 2164SOL    HW218129   2.585   1.829   7.806 -0.2828 -1.1754 -2.5908
 2165SOL     OW18130   1.927   2.977  15.347 -0.2431 -0.1390 -0.3753
 2165SOL    HW118131   1.891   2.903  15.396  0.6595  1.2130  2.3443
 2165SOL    HW218132   1.876   3.052  15.377 -0.1757  0.1076 -0.8794
 2166SOL     OW18133   0.425   2.177   6.514  0.0699  0.2181  0.2145
 2166SOL    HW118134   0.354   2.114   6.502 -0.1093  0.3552  0.5525
 2166SOL    HW218135   0.365   2.246   6.544 -2.3005 -1.6358 -0.3079
 2167SOL     OW18136   0.938   0.373  15.957 -0.0441 -0.4475 -0.0579
 2167SOL    HW118137   1.028   0.391  15.931 -0.4925 -0.4398 -1.6128
 2167SOL    HW218138   0.949   0.317  16.034 -0.3881 -1.5081 -0.7835
 2168SOL     OW18139   2.848   4.010   1.606  0.0829 -0.2050 -0.3468
 2168SOL    HW118140   2.770   4.061   1.585 -1.6619 -2.1698  1.2721
 2168SOL    HW218141   2.889   4.017   1.520 -1.7025  0.8309 -1.1196
 2169SOL     OW18142   0.247   3.613   3.982  0.2736 -0.0206 -0.0597
 2169SOL    HW118143   0.308   3.584   3.915 -0.1573 -0.7129 -0.1476
 2169SOL    HW218144   0.207   3.531   4.009 -1.4494  0.5016 -1.0848
 2170SOL     OW18145   3.714   4.093   2.675  0.1842 -0.5506  0.2627
 2170SOL    HW118146   3.719   4.117   2.767 -2.6976  0.9739  0.0356
 2170SOL    HW218147   3.663   4.014   2.692 -1.3785  0.2274 -0.7200
 2171SOL     OW18148   3.339   3.246   2.389  0.3700 -0.7747  0.6125
 2171SOL    HW118149   3.378   3.160   2.376 -0.7514 -1.2946  0.6485
 2171SOL    HW218150   3.353   3.269   2.481 -0.7983 -0.1649  0.6403
 2172SOL     OW18151   3.406   2.157   5.670  0.1576  0.1236 -0.1561
 2172SOL    HW118152   3.314   2.132   5.682  0.7051 -1.4592  0.8354
 2172SOL    HW218153   3.415   2.137   5.577 -1.5499  3.2915 -0.9817
 2173SOL     OW18154   1.627   4.590   4.386 -0.2709 -0.2830  0.0538
 2173SOL    HW118155   1.570   4.658   4.348 -0.0189 -1.8418 -3.1638
 2173SOL    HW218156   1.572   4.539   4.445 -0.5022  0.6154  0.6041
 2174SOL     OW18157   0.615   3.089   0.599 -0.1035  0.2393  0.1170
 2174SOL    HW118158   0.542   3.121   0.545 -1.6403 -3.7422 -0.1014
 2174SOL    HW218159   0.630   3.162   0.660  0.8158 -0.8913  1.2453
 2175SOL     OW18160   1.898   2.818   8.614  0.6409  0.1642 -0.1209
 2175SOL    HW118161   1.826   2.763   8.583  0.8377 -0.5247  0.6304
 2175SOL    HW218162   1.973   2.760   8.599 -1.0500 -1.4756 -2.3158
 2176SOL     OW18163   1.592   3.455  12.566  0.4040 -0.0089  0.7859
 2176SOL    HW118164   1.595   3.468  12.472  0.2914  1.2443  0.9568
 2176SOL    HW218165   1.669   3.399  12.579  0.3666  0.0873  1.4254
 2177SOL     OW18166   2.005   0.385   3.682 -0.2022 -0.7435  0.2082
 2177SOL    HW118167   2.100   0.371   3.677 -0.0645 -0.3001  1.4602
 2177SOL    HW218168   1.984   0.347   3.767 -0.4276  0.0278  0.5010
 2178SOL     OW18169   0.678   2.943   9.052 -0.1697  0.2863 -0.3089
 2178SOL    HW118170   0.759   2.937   9.103 -1.4440 -0.7230  1.5765
 2178SOL    HW218171   0.617   2.975   9.117 -1.4261 -3.6687  0.4694
 2179SOL     OW18172   3.092   2.764  17.691  0.1620  0.0896  0.1070
 2179SOL    HW118173   3.011   2.713  17.689  0.9682 -1.1760 -0.5952
 2179SOL    HW218174   3.121   2.742   0.035 -3.6124  4.1112  2.2985
 2180SOL     OW18175   2.969   1.211   7.687 -0.0368 -0.2747  0.3383
 2180SOL    HW118176   2.942   1.206   7.595 -0.5630  0.4443  0.4503
 2180SOL    HW218177   2.987   1.119   7.706 -1.3486 -0.5261  0.3511
 2181SOL     OW18178   3.186   3.081   5.120 -1.1430 -1.0529  0.2404
 2181SOL    HW118179   3.187   3.157   5.062 -1.0511 -0.2448  1.3104
 2181SOL    HW218180   3.092   3.062   5.114 -1.5003  1.0912 -1.2835
 2182SOL     OW18181   3.089   3.268   8.773 -0.1112  0.0325 -0.0516
 2182SOL    HW118182   3.156   3.310   8.718 -0.7766  0.6657 -0.3752
 2182SOL    HW218183   3.044   3.210   8.712 -0.0794  0.0150 -0.0586
 2183SOL     OW18184   2.606   2.073  10.465 -0.4216 -0.4811 -0.3088
 2183SOL    HW118185   2.692   2.092  10.503 -2.3216  2.4436  2.4969
 2183SOL    HW218186   2.599   1.978  10.462  0.5095 -0.5689  0.4987
 2184SOL     OW18187   1.189   0.164   3.917  0.2190  0.4049  0.3598
 2184SOL    HW118188   1.103   0.174   3.958  0.1732  2.1923 -0.1616
 2184SOL    HW218189   1.199   0.247   3.869  0.2890  0.3402  0.2637
 2185SOL     OW18190   1.148   3.090   4.232  0.0601  0.1247  0.3490
 2185SOL    HW118191   1.154   3.028   4.160 -0.3115 -0.7028  1.0214
 2185SOL    HW218192   1.223   3.056   4.281 -0.1579 -0.6502  0.1463
 2186SOL     OW18193   0.711   3.573   7.903 -0.0813 -0.2122  0.1357
 2186SOL    HW118194   0.775   3.532   7.962 -0.0647 -0.9842 -0.4244
 2186SOL    HW218195   0.747   3.661   7.915 -1.3978  0.2976  0.3413
 2187SOL     OW18196   0.144   0.981   6.423 -0.1653 -0.2543  0.1641
 2187SOL    HW118197   0.171   1.044   6.357  0.5544  2.7217  3.3340
 2187SOL    HW218198   0.205   0.907   6.418 -1.2855 -1.1338 -0.4132
 2188SOL     OW18199   2.501   0.385  16.100  0.3696 -0.2768  0.4748
 2188SOL    HW118200   2.515   0.477  16.118 -1.0138 -0.0298  0.2804
 2188SOL    HW218201   2.579   0.343  16.137 -0.2133 -2.1879 -0.4483
 2189SOL     OW18202   2.275   4.601   6.268 -0.4034  0.6582  0.4751
 2189SOL    HW118203   2.309   4.533   6.210  1.1349  0.7746  1.2312
 2189SOL    HW218204   2.207   4.555   6.317 -0.2645 -0.0703 -0.0134
 2190SOL     OW18205   0.030   3.255   8.957  0.4320 -0.7250 -0.1389
 2190SOL    HW118206   0.012   3.162   8.971 -0.8863 -0.2843  1.1088
 2190SOL    HW218207   0.125   3.249   8.953  0.3277 -1.1657 -1.7505
 2191SOL     OW18208   1.665   4.488  16.714  0.0804 -0.3813 -0.0051
 2191SOL    HW118209   1.760   4.473  16.721  0.1683 -1.0577 -2.4995
 2191SOL    HW218210   1.640   4.396  16.712 -2.2214  0.2029  2.4570
 2192SOL     OW18211   3.111   3.239  13.221 -0.0964 -0.3416 -1.0147
 2192SOL    HW118212   3.046   3.309  13.224  1.5912  1.1557  0.1437
 2192SOL    HW218213   3.161   3.263  13.143  0.6197  1.6381  0.0505
 2193SOL     OW18214   1.842   0.622  16.405  0.0918  0.5329 -0.3950
 2193SOL    HW118215   1.757   0.595  16.369 -0.7569 -0.6315  2.4788
 2193SOL    HW218216   1.883   0.536  16.411 -0.8204  0.0449 -1.1335
 2194SOL     OW18217   2.734   3.857  15.478  0.2410 -0.0482  0.1408
 2194SOL    HW118218   2.744   3.761  15.481 -0.3451 -0.1451 -1.0512
 2194SOL    HW218219   2.714   3.863  15.384 -0.8576 -1.3387  0.2716
 2195SOL     OW18220   0.880   3.778  10.684 -0.0044 -0.0598 -0.2924
 2195SOL    HW118221   0.796   3.752  10.646 -0.2925  0.0611  0.2673
 2195SOL    HW218222   0.848   3.861  10.719  1.8570  1.3126 -1.8805
 2196SOL     OW18223   0.493   2.681   9.834  0.1791 -0.1104 -0.3302
 2196SOL    HW118224   0.531   2.714   9.752  0.5735  0.2075 -0.0173
 2196SOL    HW218225   0.566   2.641   9.880 -1.3540 -1.8297  0.5994
 2197SOL     OW18226   4.238   3.902   9.167 -0.3911 -0.3588  0.1012
 2197SOL    HW118227   4.230   3.842   9.241 -2.1757 -0.7823 -0.4385
 2197SOL    HW218228   4.205   3.850   9.094 -1.1665  1.6707 -1.0043
 2198SOL     OW18229   1.129   3.804   2.104 -0.3147 -0.1349 -0.4857
 2198SOL    HW118230   1.048   3.780   2.148 -0.7864  0.9168 -0.7870
 2198SOL    HW218231   1.188   3.737   2.140  0.6432 -0.2425 -2.2393
 2199SOL     OW18232   2.449   0.408  15.807 -0.2355 -0.2878  0.1511
 2199SOL    HW118233   2.446   0.356  15.726 -1.5127 -0.1702  0.1217
 2199SOL    HW218234   2.543   0.418  15.818 -0.2382 -0.4867  0.3457
 2200SOL     OW18235   0.787   2.787   3.678  0.3267 -0.7302  0.2283
 2200SOL    HW118236   0.818   2.870   3.713  0.8743 -1.5671  1.7410
 2200SOL    HW218237   0.696   2.813   3.665  0.2730 -1.1612 -0.2625
 2201SOL     OW18238   2.302   0.610  15.942  0.6609  0.4544 -0.1446
 2201SOL    HW118239   2.374   0.629  16.003  0.2816 -0.8974  0.7183
 2201SOL    HW218240   2.342   0.531  15.905 -0.2804  0.7258 -1.6925
 2202SOL     OW18241   2.560   1.612   9.661 -0.4466  0.3421  0.2263
 2202SOL    HW118242   2.489   1.664   9.623  0.2433  1.0923 -0.0488
 2202SOL    HW218243   2.626   1.601   9.592  0.2875  1.0284  0.8161
 2203SOL     OW18244   4.601   4.043   3.910  0.2025 -0.7765  0.3282
 2203SOL    HW118245   4.624   4.021   4.001  1.5992  0.5741  0.3049
 2203SOL    HW218246   4.542   3.974   3.880  1.4277 -1.9995  0.7298
 2204SOL     OW18247   4.158   2.955   6.301 -0.1397 -0.6559 -0.8029
 2204SOL    HW118248   4.089   2.903   6.342 -1.0014  1.4646  0.3727
 2204SOL    HW218249   4.201   3.003   6.371 -1.9121  1.0770 -0.9316
 2205SOL     OW18250   1.940   2.885   6.656 -0.1573 -0.5342  0.1532
 2205SOL    HW118251   1.851   2.906   6.682 -0.3853 -0.7724 -0.4397
 2205SOL    HW218252   1.989   2.949   6.708  2.0988 -1.6171 -0.6010
 2206SOL     OW18253   3.310   1.126   6.432  0.3286  0.2158  0.1525
 2206SOL    HW118254   3.326   1.192   6.499 -3.6791 -1.5355  2.8024
 2206SOL    HW218255   3.218   1.144   6.413  0.4015 -1.0022 -1.3870
 2207SOL     OW18256   1.571   0.136   6.228  0.1733  0.1997 -0.2878
 2207SOL    HW118257   1.566   0.227   6.259  0.0783 -0.9592  3.0391
 2207SOL    HW218258   1.617   0.140   6.144  0.1853  0.4505 -0.2707
 2208SOL     OW18259   1.468   1.899   7.759 -0.3113 -0.6527 -0.3435
 2208SOL    HW118260   1.557   1.933   7.754 -0.4936  0.3357  3.2546
 2208SOL    HW218261   1.460   1.923   7.666 -1.9577 -1.2651 -0.3753
 2209SOL     OW18262   1.059   0.416   6.911 -0.0298 -0.2229 -0.1944
 2209SOL    HW118263   1.105   0.385   6.989  0.1975 -1.8769 -0.9950
 2209SOL    HW218264   0.991   0.467   6.955 -0.6057  0.9732 -2.4580
 2210SOL     OW18265   0.414   4.464   8.231  0.1520  0.1091 -0.0981
 2210SOL    HW118266   0.479   4.518   8.186  0.2845 -0.4283 -0.5507
 2210SOL    HW218267   0.457   4.393   8.278  0.5592  0.7196  0.4509
 2211SOL     OW18268   1.123   2.111   7.677  0.5340 -0.0490 -0.1709
 2211SOL    HW118269   1.097   2.202   7.662 -2.4070 -0.8129  0.4564
 2211SOL    HW218270   1.042   2.065   7.659  0.2889 -0.3076  1.6442
 2212SOL     OW18271   2.184   4.538  15.052 -0.2165 -0.4872 -0.4395
 2212SOL    HW118272   2.257   4.481  15.026  1.3287  0.7594  1.1545
 2212SOL    HW218273   2.150   4.566  14.967  0.1112 -1.2096 -0.8062
 2213SOL     OW18274   1.684   2.862   7.250  0.2224 -0.0861  0.5387
 2213SOL    HW118275   1.685   2.905   7.164 -1.2513  0.2953  0.7013
 2213SOL    HW218276   1.592   2.835   7.255  0.5002 -1.5057 -2.0969
 2214SOL     OW18277   2.215   2.262   2.533 -0.0807 -0.2096 -0.0872
 2214SOL    HW118278   2.292   2.206   2.525 -0.2211 -0.5356  0.7987
 2214SOL    HW218279   2.145   2.201   2.558 -0.7583  0.7898  0.4334
 2215SOL     OW18280   2.886   1.073   1.948  0.6246  0.0043 -0.0567
 2215SOL    HW118281   2.913   1.156   1.909 -0.1462  0.5190  0.5049
 2215SOL    HW218282   2.814   1.107   2.002  0.5850 -0.8895  0.4546
 2216SOL     OW18283   0.856   3.765   8.836  0.7008 -0.8466  0.0176
 2216SOL    HW118284   0.772   3.741   8.874 -0.1483 -0.0094 -1.3444
 2216SOL    HW218285   0.913   3.778   8.912 -0.9380 -2.6796  1.5631
 2217SOL     OW18286   3.885   0.410   3.477 -0.0894 -0.5195 -0.2272
 2217SOL    HW118287   3.954   0.474   3.494  0.7471 -0.9842 -1.8573
 2217SOL    HW218288   3.936   0.332   3.454 -1.4016 -1.2513 -0.6191
 2218SOL     OW18289   2.851   1.589   6.300 -0.3479  0.3019  0.5939
 2218SOL    HW118290   2.827   1.515   6.244  2.4087 -0.6829  0.7244
 2218SOL    HW218291   2.902   1.541   6.365 -0.7386 -2.9441 -1.5272
 2219SOL     OW18292   0.614   4.697   3.300  0.0230  0.0437  0.5070
 2219SOL    HW118293   0.543   4.718   3.239  0.6654 -0.8325 -0.5404
 2219SOL    HW218294   0.600   0.022   3.372 -0.4076 -0.1921  0.6232
 2220SOL     OW18295   1.714   0.548   5.435  0.3176  0.1698  0.2800
 2220SOL    HW118296   1.648   0.606   5.397  0.0874 -0.6213 -0.5369
 2220SOL    HW218297   1.753   0.505   5.359  1.3724  0.7733  0.4842
 2221SOL     OW18298   1.473   2.688  15.654  0.4087 -0.2520  0.4243
 2221SOL    HW118299   1.499   2.672  15.564 -2.1768 -1.4378 -0.0983
 2221SOL    HW218300   1.417   2.760  15.626  1.4330 -0.0125 -0.9825
 2222SOL     OW18301   0.423   0.699   2.800 -1.4143 -0.2668  0.3646
 2222SOL    HW118302   0.477   0.631   2.840  0.1413  0.1560 -1.0010
 2222SOL    HW218303   0.340   0.691   2.847 -0.9294  0.4555  1.3350
 2223SOL     OW18304   3.609   0.425   8.424 -0.0154  0.1053  0.6097
 2223SOL    HW118305   3.554   0.352   8.454 -0.4742 -0.5002 -1.6735
 2223SOL    HW218306   3.603   0.414   8.329 -2.1624 -0.7965  0.8336
 2224SOL     OW18307   3.372   2.520  10.064 -0.2115 -0.6632  0.3290
 2224SOL    HW118308   3.325   2.445  10.100 -1.9125 -1.0429 -2.6427
 2224SOL    HW218309   3.464   2.495  10.067  0.5798  2.3655  0.9990
 2225SOL     OW18310   2.351   1.216  15.899  0.6997 -0.0705  0.0981
 2225SOL    HW118311   2.347   1.144  15.961 -0.3475  1.8992  2.3011
 2225SOL    HW218312   2.361   1.296  15.951 -0.0292 -0.0477  0.2028
 2226SOL     OW18313   2.308   2.307   4.221 -0.4424 -0.3084 -0.4242
 2226SOL    HW118314   2.272   2.394   4.239  2.2704  0.5244  0.9105
 2226SOL    HW218315   2.398   2.333   4.203 -1.4600  2.6355 -1.1815
 2227SOL     OW18316   1.275   0.492  16.149  0.3518 -0.2674 -0.0073
 2227SOL    HW118317   1.351   0.544  16.124 -1.0165  1.4558 -0.5644
 2227SOL    HW218318   1.217   0.559  16.185 -1.0344 -0.8825 -1.0518
 2228SOL     OW18319   0.033   1.189   0.077  0.5156  0.3768 -0.1931
 2228SOL    HW118320   0.004   1.234  17.743 -2.2245  0.7714  1.0424
 2228SOL    HW218321   0.117   1.229   0.099  0.3214  1.3672 -1.2539
 2229SOL     OW18322   0.791   0.113   7.888 -0.1929  0.2267 -0.3569
 2229SOL    HW118323   0.856   0.098   7.819 -1.7136  1.2662 -2.0274
 2229SOL    HW218324   0.817   0.040   7.944 -1.9154  0.0399  0.2132
 2230SOL     OW18325   1.093   1.655   4.729  0.1593 -0.7034 -0.4898
 2230SOL    HW118326   1.094   1.740   4.774  0.8738  0.7231 -3.1912
 2230SOL    HW218327   1.163   1.606   4.771  2.6086  2.4294 -0.9552
 2231SOL     OW18328   2.129   0.991  11.518  0.3802  0.8116 -0.8212
 2231SOL    HW118329   2.216   1.027  11.501  0.6132  0.2753 -0.7559
 2231SOL    HW218330   2.077   1.065  11.550  0.0590  0.8129 -1.3492
 2232SOL     OW18331   4.206   0.519   5.660 -0.1902  0.1534 -0.0853
 2232SOL    HW118332   4.189   0.578   5.733  0.3630  2.8083 -2.0850
 2232SOL    HW218333   4.150   0.556   5.592 -1.4044 -1.4203  0.0447
 2233SOL     OW18334   3.972   3.802   6.437 -0.8580 -0.0195 -0.2178
 2233SOL    HW118335   3.984   3.717   6.480 -0.3149 -0.2399 -0.8094
 2233SOL    HW218336   4.055   3.845   6.458 -1.5754  1.6879 -0.8855
 2234SOL     OW18337   2.161   1.758   1.846 -0.7584 -0.2525  0.1040
 2234SOL    HW118338   2.165   1.843   1.802  1.0125 -0.1124  0.5074
 2234SOL    HW218339   2.073   1.769   1.882 -0.3242 -1.2179  1.4692
 2235SOL     OW18340   0.861   3.348  11.907  0.2077 -0.3763  0.3115
 2235SOL    HW118341   0.853   3.274  11.967  0.2415 -2.3341 -2.0905
 2235SOL    HW218342   0.896   3.415  11.966  0.1019  0.1758 -0.2631
 2236SOL     OW18343   2.145   0.056   2.062  0.5610 -0.0176 -0.7031
 2236SOL    HW118344   2.172   4.724   2.002 -2.4013  0.5645 -2.7310
 2236SOL    HW218345   2.076   0.014   2.114  1.8701  0.1519  1.1706
 2237SOL     OW18346   0.490   4.390   8.857 -0.0913 -0.0351  0.6534
 2237SOL    HW118347   0.553   4.320   8.839 -1.4469 -0.7957 -1.0886
 2237SOL    HW218348   0.480   4.429   8.770 -0.7514 -0.8291  0.3768
 2238SOL     OW18349   2.281   1.810   6.127  0.4657 -0.2899 -0.2702
 2238SOL    HW118350   2.220   1.792   6.198  1.1025  0.5487  0.4812
 2238SOL    HW218351   2.227   1.856   6.062  1.1552  0.4203 -0.3352
 2239SOL     OW18352   4.379   4.089   7.388 -0.1898 -0.2285  0.1020
 2239SOL    HW118353   4.292   4.095   7.348  0.4235 -2.2715 -1.4976
 2239SOL    HW218354   4.355   4.140   7.465 -1.3399  0.5447 -0.7591
 2240SOL     OW18355   1.511   4.218  12.408  0.0095  0.3830 -0.6511
 2240SOL    HW118356   1.475   4.274  12.476 -0.8569 -1.0398  0.0777
 2240SOL    HW218357   1.486   4.141  12.460  0.5574 -0.3588 -1.4977
 2241SOL     OW18358   3.897   2.770   2.702 -0.0639 -0.6019 -0.0570
 2241SOL    HW118359   3.906   2.865   2.699 -0.2842 -0.5867 -0.2953
 2241SOL    HW218360   3.841   2.761   2.624 -0.1380 -0.9641  0.0347
 2242SOL     OW18361   0.639   2.173   8.762  0.3559  0.5968 -0.5300
 2242SOL    HW118362   0.690   2.252   8.776  0.0115  0.1343  3.4213
 2242SOL    HW218363   0.547   2.201   8.770  0.0351 -1.0435  1.6014
 2243SOL     OW18364   0.437   0.054   9.398  0.4229  0.3944 -0.5830
 2243SOL    HW118365   0.490   0.090   9.469  1.3656  2.6521 -2.4120
 2243SOL    HW218366   0.372   0.123   9.381  2.1800  2.0770 -0.4740
 2244SOL     OW18367   1.909   0.546   1.037  0.1406 -0.1148 -0.2125
 2244SOL    HW118368   1.816   0.560   1.019  0.3037  2.7883  1.2164
 2244SOL    HW218369   1.952   0.631   1.022  1.1519 -1.4099 -4.7445
 2245SOL     OW18370   2.059   2.409   4.922  0.1821  0.1042 -0.9644
 2245SOL    HW118371   2.154   2.406   4.907 -0.0980 -0.4279 -2.5971
 2245SOL    HW218372   2.064   2.444   5.011  0.8844 -3.5081  0.4216
 2246SOL     OW18373   2.079   1.451   1.319  0.4000 -0.7246 -0.6914
 2246SOL    HW118374   1.989   1.472   1.295  0.4360  2.0432  1.6322
 2246SOL    HW218375   2.107   1.512   1.387  0.6395 -0.5185 -0.9723
 2247SOL     OW18376   1.186   4.678  16.245 -0.4433  0.1011  0.3627
 2247SOL    HW118377   1.229   0.022  16.218  0.0530 -0.5642 -0.8649
 2247SOL    HW218378   1.202   4.685  16.339 -2.6043  0.8172  0.6833
 2248SOL     OW18379   3.942   3.316   3.943  0.5833  0.3840  0.6627
 2248SOL    HW118380   3.849   3.295   3.943  0.7843 -0.4745  1.3914
 2248SOL    HW218381   3.948   3.315   3.847 -1.2884 -2.0950  0.5607
 2249SOL     OW18382   3.320   3.640   4.379 -0.2808  0.2602 -0.0698
 2249SOL    HW118383   3.299   3.602   4.464 -0.1568 -1.6626 -0.9061
 2249SOL    HW218384   3.343   3.560   4.331  2.2882  0.5824  0.6180
 2250SOL     OW18385   3.507   0.114   1.484  0.1716 -0.3226  0.4018
 2250SOL    HW118386   3.472   0.037   1.438  3.0422 -1.8096  0.6804
 2250SOL    HW218387   3.571   0.069   1.539 -0.6347 -1.8558  0.0879
 2251SOL     OW18388   1.855   4.399   3.760  0.5043  0.4301 -0.6642
 2251SOL    HW118389   1.933   4.435   3.719  0.9529 -1.3806 -1.4018
 2251SOL    HW218390   1.809   4.477   3.792  0.1945 -0.1255  0.2666
 2252SOL     OW18391   4.207   0.834   8.558 -0.4153 -0.2935 -0.5506
 2252SOL    HW118392   4.262   0.855   8.633 -0.4457 -2.4786  0.0790
 2252SOL    HW218393   4.227   0.896   8.487 -0.4934 -2.0169 -2.0745
 2253SOL     OW18394   3.448   0.511  11.366 -0.6068  0.1097  0.1963
 2253SOL    HW118395   3.427   0.599  11.397  2.0652  0.5205  0.8165
 2253SOL    HW218396   3.370   0.486  11.317 -0.0088  0.9377 -1.1672
 2254SOL     OW18397   0.528   1.717   1.663 -0.6397 -0.1791 -0.3448
 2254SOL    HW118398   0.495   1.806   1.672 -0.5435 -0.0717 -1.0457
 2254SOL    HW218399   0.493   1.692   1.577  1.7268 -2.7084 -0.5756
 2255SOL     OW18400   0.581   3.107  11.329  0.4458 -0.3006 -0.3892
 2255SOL    HW118401   0.510   3.152  11.283 -0.9395 -0.1702  1.8618
 2255SOL    HW218402   0.568   3.022  11.288  1.2797 -0.3196 -0.6008
 2256SOL     OW18403   2.167   1.316  17.065 -0.4995  0.4148 -0.2135
 2256SOL    HW118404   2.191   1.409  17.059  2.2022 -0.2738 -0.0438
 2256SOL    HW218405   2.233   1.281  17.123  0.4509  3.0975  0.3223
 2257SOL     OW18406   1.299   3.116   8.551 -0.2272  1.0724  0.7412
 2257SOL    HW118407   1.263   3.123   8.462  0.7264  1.0584  0.3559
 2257SOL    HW218408   1.378   3.164   8.524  0.8268 -1.2889 -0.4478
 2258SOL     OW18409   1.001   0.523  15.667 -0.5425 -0.5219 -0.6407
 2258SOL    HW118410   1.073   0.504  15.727  0.1635  0.0005 -1.3188
 2258SOL    HW218411   1.017   0.618  15.660 -0.2640 -0.4833  0.5184
 2259SOL     OW18412   4.610   2.379   1.157 -0.0232 -0.1538  0.4535
 2259SOL    HW118413   4.559   2.375   1.237 -0.2233  0.5392  0.3593
 2259SOL    HW218414   4.647   2.464   1.179 -1.4911  0.9806 -1.4720
 2260SOL     OW18415   3.555   2.475   7.203  0.1757  0.4914  0.2783
 2260SOL    HW118416   3.484   2.417   7.174  2.4364 -1.6658 -0.9232
 2260SOL    HW218417   3.531   2.477   7.295  1.0577 -2.3006  0.5810
 2261SOL     OW18418   4.488   1.047   4.629 -0.0782  0.3083  0.1562
 2261SOL    HW118419   4.410   0.991   4.629 -0.0747  0.2987  1.6896
 2261SOL    HW218420   4.522   1.047   4.719  0.2012 -1.4348  0.0512
 2262SOL     OW18421   0.947   4.359   2.499 -0.6438  0.1631 -0.0613
 2262SOL    HW118422   0.949   4.453   2.518 -0.5067  0.4591 -1.5926
 2262SOL    HW218423   0.908   4.355   2.412 -1.3361  0.1566  0.2469
 2263SOL     OW18424   4.673   1.691   6.120  0.1699 -0.1196  0.4424
 2263SOL    HW118425   0.029   1.672   6.105 -0.3344 -1.9108 -0.3889
 2263SOL    HW218426   4.671   1.742   6.039  1.7576 -0.3720  0.2419
 2264SOL     OW18427   1.362   3.914   1.580  0.6319  0.1430 -0.8768
 2264SOL    HW118428   1.373   3.942   1.670  0.5137 -0.8425 -0.5603
 2264SOL    HW218429   1.449   3.936   1.546  0.6954  1.7698  0.3942
 2265SOL     OW18430   1.339   2.299  11.376 -0.2588 -0.0218  0.5143
 2265SOL    HW118431   1.285   2.369  11.339  0.9309 -0.1120 -1.4404
 2265SOL    HW218432   1.364   2.261  11.291  1.9332 -0.7788  1.5017
 2266SOL     OW18433   1.552   0.932   6.866  0.4586  0.1840  0.2078
 2266SOL    HW118434   1.642   0.957   6.888  0.5453 -0.8159  0.9942
 2266SOL    HW218435   1.514   0.982   6.938  2.0795  2.2672 -0.3863
 2267SOL     OW18436   0.281   3.919  10.967  0.4499 -0.7677  0.3522
 2267SOL    HW118437   0.360   3.899  11.018  1.8368  2.0781 -0.6433
 2267SOL    HW218438   0.273   3.838  10.918  1.9919 -0.7335  0.0395
 2268SOL     OW18439   0.937   2.611   8.949  0.4772 -0.1035 -0.3280
 2268SOL    HW118440   0.910   2.651   9.032 -0.3603  0.4063 -0.8502
 2268SOL    HW218441   1.009   2.556   8.980 -0.3376 -0.4210  1.0057
 2269SOL     OW18442   0.036   2.270   5.751  0.6303  0.0409  0.5361
 2269SOL    HW118443   0.072   2.233   5.831  2.5812  0.2961 -0.2156
 2269SOL    HW218444   0.116   2.281   5.700  0.6646 -0.1855  0.5432
 2270SOL     OW18445   1.073   0.451   3.349 -0.1335  0.1748  0.5186
 2270SOL    HW118446   1.034   0.437   3.263  0.0170  2.6707  0.0643
 2270SOL    HW218447   1.029   0.534   3.368 -0.2060 -0.3228  2.5980
 2271SOL     OW18448   3.676   1.599   5.180  0.2456 -0.0216 -0.5167
 2271SOL    HW118449   3.617   1.617   5.253 -0.3240  0.0012 -0.9859
 2271SOL    HW218450   3.698   1.682   5.138 -0.7323 -0.3543 -1.6655
 2272SOL     OW18451   1.416   3.468   3.058 -0.3395 -0.4117  0.0242
 2272SOL    HW118452   1.402   3.470   3.152  2.5042 -0.5009  0.4485
 2272SOL    HW218453   1.383   3.556   3.038 -0.6663 -0.3933  0.6430
 2273SOL     OW18454   1.317   1.270   4.384  0.4130 -0.2184 -0.0739
 2273SOL    HW118455   1.269   1.309   4.457 -0.0275  0.8287 -0.9315
 2273SOL    HW218456   1.404   1.309   4.394 -0.2103  1.0952  0.0973
 2274SOL     OW18457   1.829   0.671  11.725 -0.7233 -0.1669 -0.0033
 2274SOL    HW118458   1.774   0.603  11.763 -1.4771  0.7573  0.5906
 2274SOL    HW218459   1.887   0.698  11.796  1.2616 -2.3829 -0.8081
 2275SOL     OW18460   2.211   0.921   3.766  0.0096  0.3429  0.2486
 2275SOL    HW118461   2.300   0.952   3.749 -1.5443  4.6048 -0.1446
 2275SOL    HW218462   2.185   0.906   3.675  2.5456  1.1470 -0.6086
 2276SOL     OW18463   0.001   3.167  12.981  0.4540 -0.3649  0.3537
 2276SOL    HW118464   4.697   3.083  12.964  0.2677 -0.1596 -0.2372
 2276SOL    HW218465   4.657   3.216  13.000 -0.6918 -1.4240 -1.7477
 2277SOL     OW18466   0.717   2.591   6.595  0.1438  0.2063  0.3919
 2277SOL    HW118467   0.678   2.645   6.663  0.8445  1.7740 -0.4507
 2277SOL    HW218468   0.646   2.571   6.533  1.7595 -2.5358 -0.5928
 2278SOL     OW18469   3.224   1.033  15.348 -0.9207  0.7155 -0.6802
 2278SOL    HW118470   3.236   0.953  15.399  2.5898  1.3902 -0.4482
 2278SOL    HW218471   3.146   0.996  15.306 -0.6633 -1.2356  0.5855
 2279SOL     OW18472   2.375   4.273   8.605 -0.2547 -0.1336  0.3472
 2279SOL    HW118473   2.397   4.224   8.526 -0.1921  0.5812 -0.0767
 2279SOL    HW218474   2.280   4.265   8.602 -0.1439 -2.1517  2.1982
 2280SOL     OW18475   4.019   3.580   1.520  0.0485 -0.0679 -0.1201
 2280SOL    HW118476   4.067   3.663   1.526 -0.1323 -0.0616  1.3347
 2280SOL    HW218477   4.062   3.547   1.441 -1.1243  0.6038 -1.0226
 2281SOL     OW18478   1.233   3.233   9.022 -0.6556  0.3961  0.0252
 2281SOL    HW118479   1.193   3.159   9.066 -0.8527 -0.6903 -1.9885
 2281SOL    HW218480   1.228   3.194   8.934  0.7538 -0.9196  0.5359
 2282SOL     OW18481   1.692   0.647  11.217  0.0954 -0.1002  0.3195
 2282SOL    HW118482   1.774   0.642  11.266  0.6983  2.2491 -0.4106
 2282SOL    HW218483   1.627   0.682  11.279  1.3952  1.1831  0.9729
 2283SOL     OW18484   0.305   0.305   9.372  1.1906 -1.3593 -0.1281
 2283SOL    HW118485   0.389   0.336   9.340  0.9361 -1.2317 -0.6879
 2283SOL    HW218486   0.279   0.372   9.435 -0.3873 -2.4685  0.4217
 2284SOL     OW18487   4.312   2.975  16.877 -0.4526 -0.2857 -0.2960
 2284SOL    HW118488   4.341   2.888  16.907 -0.9406 -0.3449 -0.0022
 2284SOL    HW218489   4.364   2.982  16.796 -3.2349 -0.5183 -2.0833
 2285SOL     OW18490   4.221   2.253  16.298 -0.0590 -0.1414  0.1533
 2285SOL    HW118491   4.247   2.213  16.381  1.1745 -0.0202 -0.1647
 2285SOL    HW218492   4.251   2.343  16.314  0.0685 -0.2634  0.6194
 2286SOL     OW18493   0.678   1.921   0.079 -0.0943 -0.2601  0.8650
 2286SOL    HW118494   0.679   2.016   0.065 -0.4156 -0.7553 -2.4074
 2286SOL    HW218495   0.691   1.914   0.173 -0.3687 -1.2453  0.8230
 2287SOL     OW18496   3.898   0.211  13.431  0.2193 -0.1130 -0.2848
 2287SOL    HW118497   3.944   0.213  13.347  0.7597 -0.7059 -0.0052
 2287SOL    HW218498   3.843   0.289  13.423  0.9113  0.3452 -0.5891
 2288SOL     OW18499   3.022   3.660   3.634  0.7226 -0.0198 -0.0790
 2288SOL    HW118500   3.085   3.727   3.658 -1.7343  1.8024  1.3382
 2288SOL    HW218501   2.959   3.652   3.706 -0.1147  1.4644 -0.6459
 2289SOL     OW18502   1.782   2.228   2.516  0.1366  0.0425  0.0274
 2289SOL    HW118503   1.832   2.309   2.530 -1.2763  0.9857 -0.3669
 2289SOL    HW218504   1.760   2.204   2.606 -2.2423 -1.8351 -1.0527
 2290SOL     OW18505   0.439   0.966   1.138  0.1284 -0.1565  0.3057
 2290SOL    HW118506   0.359   0.914   1.139  0.9804 -1.4573  1.3029
 2290SOL    HW218507   0.416   1.018   1.061  2.1779  2.5813  1.5196
 2291SOL     OW18508   1.321   4.238   6.488 -0.0233  0.3707  0.5070
 2291SOL    HW118509   1.245   4.284   6.522  0.3162  0.6092  0.9317
 2291SOL    HW218510   1.377   4.316   6.494  1.5138 -0.6592 -0.1431
 2292SOL     OW18511   0.020   0.492   5.804  0.4422 -0.9238 -0.3538
 2292SOL    HW118512   0.048   0.452   5.721  0.7661 -2.2748  0.4028
 2292SOL    HW218513   4.688   0.430   5.831 -0.6423 -0.7908 -2.7913
 2293SOL     OW18514   0.482   1.898   8.861  0.3092 -1.2699  0.8357
 2293SOL    HW118515   0.509   1.876   8.772  0.5416  0.9566  0.3459
 2293SOL    HW218516   0.488   1.994   8.860 -1.4502 -1.1714 -0.2887
 2294SOL     OW18517   2.206   0.873   2.284 -0.0260 -0.2048  0.2031
 2294SOL    HW118518   2.295   0.841   2.273 -0.1695  0.2551 -2.2304
 2294SOL    HW218519   2.176   0.799   2.337  1.1311 -1.3548 -0.7664
 2295SOL     OW18520   3.869   1.679   7.183  0.3160 -0.2562  0.6212
 2295SOL    HW118521   3.942   1.670   7.122 -0.0214  0.6005  0.0957
 2295SOL    HW218522   3.885   1.768   7.215 -2.2675  0.7032 -0.8079
 2296SOL     OW18523   0.891   1.291   8.560  0.1050  0.7962 -0.4356
 2296SOL    HW118524   0.982   1.315   8.576  0.3810 -1.3817  1.2876
 2296SOL    HW218525   0.882   1.285   8.465 -0.1707  0.1731 -0.3692
 2297SOL     OW18526   3.617   2.729   3.995 -0.0416 -0.5269  0.3896
 2297SOL    HW118527   3.622   2.733   3.899  1.2229 -0.0433  0.4849
 2297SOL    HW218528   3.679   2.660   4.017  1.3123  0.0167 -1.7262
 2298SOL     OW18529   1.961   3.677   3.329  0.2685  0.2854 -0.1031
 2298SOL    HW118530   1.879   3.696   3.285  0.4789  0.2598 -0.5045
 2298SOL    HW218531   1.973   3.758   3.379 -1.1747 -1.4893  3.1465
 2299SOL     OW18532   0.969   2.616   4.145 -0.3118 -0.0736 -0.7756
 2299SOL    HW118533   0.881   2.651   4.151 -1.2253 -2.7341  0.9934
 2299SOL    HW218534   0.999   2.652   4.062 -0.4123 -0.8055 -1.1286
 2300SOL     OW18535   2.253   0.417  10.942 -0.2433 -0.6071  0.4270
 2300SOL    HW118536   2.261   0.498  10.993 -2.1873  0.8086 -1.4648
 2300SOL    HW218537   2.325   0.432  10.881  1.2345  1.4294  2.6465
 2301SOL     OW18538   1.932   3.089  10.078  0.4226  0.2584 -0.1672
 2301SOL    HW118539   1.993   3.131  10.138  1.2327 -1.2783  0.0860
 2301SOL    HW218540   1.954   2.998  10.095 -0.1460  0.0885 -0.3438
 2302SOL     OW18541   2.930   3.489   3.018  0.0543  0.3316 -0.2356
 2302SOL    HW118542   2.880   3.432   2.960  1.6668 -1.6048  0.3020
 2302SOL    HW218543   2.873   3.504   3.093  0.5339 -1.3778  0.4504
 2303SOL     OW18544   0.584   1.827   2.664 -0.1670  0.8401  0.3734
 2303SOL    HW118545   0.525   1.768   2.711  2.6856 -0.7985  1.8911
 2303SOL    HW218546   0.653   1.826   2.731 -0.4015  0.5952  0.6134
 2304SOL     OW18547   4.368   1.195   5.088 -0.2066 -0.6942 -0.2276
 2304SOL    HW118548   4.290   1.157   5.128 -1.8286  2.3769 -0.4608
 2304SOL    HW218549   4.337   1.278   5.052 -1.4772 -0.4688  1.3638
 2305SOL     OW18550   2.864   1.574   2.412 -0.0824  0.2703 -0.0712
 2305SOL    HW118551   2.902   1.661   2.403  0.1123  0.3181  1.2613
 2305SOL    HW218552   2.902   1.550   2.497  0.4789  0.9871 -0.1251
 2306SOL     OW18553   0.491   2.549   0.250 -0.2072  0.6389  0.3993
 2306SOL    HW118554   0.450   2.540   0.336 -1.4729  1.4897 -0.1131
 2306SOL    HW218555   0.410   2.568   0.202  0.0311 -1.2655 -0.7571
 2307SOL     OW18556   1.941   2.161   4.976 -0.2067  0.9215  0.1227
 2307SOL    HW118557   1.970   2.249   4.952 -1.2139  0.4420 -2.8429
 2307SOL    HW218558   1.905   2.176   5.064  0.2925 -0.9022  0.6361
 2308SOL     OW18559   1.214   0.951  10.945 -0.2409 -0.3773 -0.4434
 2308SOL    HW118560   1.196   0.859  10.964  0.2333 -0.0932  1.3734
 2308SOL    HW218561   1.196   0.999  11.027  0.4275 -0.3037 -0.3431
 2309SOL     OW18562   1.973   4.405  12.773  0.6917 -0.1908  0.0290
 2309SOL    HW118563   2.036   4.354  12.824 -0.4191 -0.4821  1.0965
 2309SOL    HW218564   2.031   4.471  12.734 -0.5012  1.1899  0.5776
 2310SOL     OW18565   0.070   0.852   7.369 -0.6507  0.2026  0.3538
 2310SOL    HW118566   0.072   0.822   7.278  0.1132 -0.7173  0.6761
 2310SOL    HW218567   0.069   0.947   7.365  1.1981  0.1975 -0.0746
 2311SOL     OW18568   4.261   4.259   5.667  0.2430 -0.0274  0.1223
 2311SOL    HW118569   4.335   4.292   5.615  1.8056 -0.6174  1.9960
 2311SOL    HW218570   4.192   4.275   5.602 -0.7499 -0.5608  1.0334
 2312SOL     OW18571   3.709   0.768  11.565 -0.3195  0.3874  0.7106
 2312SOL    HW118572   3.615   0.781  11.570 -0.6428 -1.7830  0.2554
 2312SOL    HW218573   3.726   0.710  11.639  1.4111 -2.0940 -1.6545
 2313SOL     OW18574   0.385   4.115  13.254  0.3989 -0.1641 -0.1960
 2313SOL    HW118575   0.366   4.081  13.342  0.2379 -0.4346 -0.3372
 2313SOL    HW218576   0.336   4.057  13.196  0.3865  2.1847 -2.5672
 2314SOL     OW18577   0.905   0.486   5.496  0.8233  1.0565 -0.2429
 2314SOL    HW118578   0.916   0.505   5.403  0.9722 -1.4919 -0.7410
 2314SOL    HW218579   0.989   0.521   5.529 -0.0009  1.7930  1.0768
 2315SOL     OW18580   3.183   3.939   6.944 -0.6928 -0.3265 -0.1457
 2315SOL    HW118581   3.181   3.913   6.852  1.1065 -1.3623  0.1099
 2315SOL    HW218582   3.155   3.856   6.981 -1.2861  0.0506  0.2532
 2316SOL     OW18583   0.815   1.317   0.975 -0.1200 -0.0414 -0.5052
 2316SOL    HW118584   0.749   1.306   0.907 -0.7716 -1.2857  0.3344
 2316SOL    HW218585   0.818   1.225   1.001  0.9995 -0.7399 -3.0558
 2317SOL     OW18586   1.611   2.375   0.785 -0.4139 -0.5764 -0.0769
 2317SOL    HW118587   1.677   2.305   0.783  0.3948  0.2604 -1.9700
 2317SOL    HW218588   1.549   2.343   0.720 -0.6925  0.9545 -0.5680
 2318SOL     OW18589   3.085   3.578   0.681  0.1760 -0.4081  0.1791
 2318SOL    HW118590   3.006   3.532   0.654  0.6427 -0.6211 -0.8120
 2318SOL    HW218591   3.150   3.531   0.629 -1.4869 -0.4318 -1.8701
 2319SOL     OW18592   2.992   2.309   8.883 -0.2194 -0.7039 -0.0812
 2319SOL    HW118593   3.036   2.358   8.813 -1.7869  1.5137  0.4914
 2319SOL    HW218594   2.930   2.259   8.830  1.4768 -1.2660 -1.5259
 2320SOL     OW18595   2.727   0.524   9.676 -0.0931  0.1156  0.9709
 2320SOL    HW118596   2.716   0.601   9.621 -0.5824 -0.4278  0.3158
 2320SOL    HW218597   2.732   0.557   9.766  0.7310 -0.3819  1.1112
 2321SOL     OW18598   1.498   1.908   4.674  0.1288  0.7668 -0.0041
 2321SOL    HW118599   1.417   1.953   4.648  0.1712 -0.2459 -1.9274
 2321SOL    HW218600   1.541   1.973   4.729 -0.0717  1.4946 -0.7016
 2322SOL     OW18601   0.322   4.315   3.885 -0.0911  0.0006  0.0863
 2322SOL    HW118602   0.289   4.253   3.821  0.0746 -0.5652  0.5547
 2322SOL    HW218603   0.278   4.287   3.965 -1.4330 -0.8444 -0.9617
 2323SOL     OW18604   1.972   1.458   2.942  0.1795 -0.0012  0.1436
 2323SOL    HW118605   2.057   1.418   2.961 -0.4844 -1.5989 -0.2228
 2323SOL    HW218606   1.943   1.396   2.875  1.4343 -1.0082  0.5251
 2324SOL     OW18607   0.794   3.329   3.863 -0.1375  0.1835 -0.1055
 2324SOL    HW118608   0.815   3.319   3.956  0.6113  0.1396 -0.2788
 2324SOL    HW218609   0.882   3.319   3.827 -0.4223  0.4908 -0.8851
 2325SOL     OW18610   2.014   1.704   2.216 -0.2792 -0.3882 -0.7829
 2325SOL    HW118611   2.035   1.797   2.205 -4.0488  0.5043 -0.5065
 2325SOL    HW218612   1.957   1.697   2.140 -1.1043  0.7718 -0.2694
 2326SOL     OW18613   1.650   2.040   5.284 -0.0258 -0.4214  0.0104
 2326SOL    HW118614   1.740   2.044   5.318 -0.9847  1.3357  2.3671
 2326SOL    HW218615   1.617   1.981   5.352 -0.7765  2.6416  2.2892
 2327SOL     OW18616   1.595   0.461  16.363 -0.0070 -0.2462  0.4262
 2327SOL    HW118617   1.542   0.421  16.294  0.9502  0.1366 -0.5116
 2327SOL    HW218618   1.622   0.380  16.407  1.8859  0.0494 -0.2157
 2328SOL     OW18619   4.151   0.075   5.147 -0.2501  0.7993  0.0608
 2328SOL    HW118620   4.247   0.081   5.143 -0.1857 -0.3422 -0.0016
 2328SOL    HW218621   4.148   0.146   5.211  0.1065  1.9175 -1.1526
 2329SOL     OW18622   0.618   1.031  14.934 -0.2973 -0.5274 -0.1658
 2329SOL    HW118623   0.625   1.060  14.843 -1.9349 -2.2390 -0.8374
 2329SOL    HW218624   0.523   1.031  14.945 -0.3599 -1.4618 -0.6089
 2330SOL     OW18625   2.902   0.751   4.682 -0.4841  0.2693  0.2367
 2330SOL    HW118626   2.851   0.803   4.620  0.1917 -0.4265 -0.9025
 2330SOL    HW218627   2.873   0.769   4.772 -1.9939 -1.2090  0.0450
 2331SOL     OW18628   0.363   0.323  12.064  0.4495 -0.2906 -0.7169
 2331SOL    HW118629   0.402   0.404  12.096  0.9390 -0.8493  0.1155
 2331SOL    HW218630   0.431   0.292  12.005  2.3106 -1.0211  1.8165
 2332SOL     OW18631   3.577   0.516   4.124 -0.3689  0.3178  0.2903
 2332SOL    HW118632   3.594   0.442   4.181 -1.0323 -0.6696 -0.7924
 2332SOL    HW218633   3.633   0.588   4.155 -1.6902  1.3031  0.4123
 2333SOL     OW18634   3.570   0.769   4.710  0.7075  0.2608 -0.4133
 2333SOL    HW118635   3.649   0.716   4.701 -0.5804 -2.1671  2.2747
 2333SOL    HW218636   3.592   0.849   4.663  1.3772  0.3998  0.1362
 2334SOL     OW18637   0.269   1.640   7.528 -0.0092 -0.3879  0.3364
 2334SOL    HW118638   0.336   1.702   7.499 -0.0658 -1.3905 -1.9283
 2334SOL    HW218639   0.197   1.703   7.530 -0.3619 -0.7905  0.3022
 2335SOL     OW18640   2.140   4.380   3.044 -0.7483 -0.6254  0.3619
 2335SOL    HW118641   2.053   4.366   3.007 -0.1738 -1.7938 -0.5428
 2335SOL    HW218642   2.184   4.299   3.018 -0.6651 -0.3131 -0.4728
 2336SOL     OW18643   3.170   0.352  12.577 -0.5129 -0.2900  0.4534
 2336SOL    HW118644   3.135   0.439  12.594  0.1965  0.3788 -1.5560
 2336SOL    HW218645   3.247   0.357  12.634 -0.8663 -0.0010  0.9060
 2337SOL     OW18646   3.010   1.289   7.137  0.3400 -0.1312  0.6603
 2337SOL    HW118647   2.945   1.250   7.196  0.6267 -1.7920 -0.1170
 2337SOL    HW218648   3.039   1.215   7.084  1.5219  1.0382 -0.3096
 2338SOL     OW18649   0.150   1.017   7.978  0.3892  0.1341 -0.2535
 2338SOL    HW118650   0.129   0.974   8.061  1.9386  0.4061  0.2582
 2338SOL    HW218651   0.065   1.062   7.971 -0.8864 -2.5612 -2.2230
 2339SOL     OW18652   4.659   3.398   7.962 -0.0550 -0.4365  0.2641
 2339SOL    HW118653   0.004   3.448   7.958 -0.7463  0.9544  3.1044
 2339SOL    HW218654   4.694   3.316   7.997 -1.1434 -2.1531 -2.6683
 2340SOL     OW18655   0.298   3.955  15.239 -0.1450  0.6199  0.6237
 2340SOL    HW118656   0.285   3.986  15.329 -0.8585  0.7014  0.4924
 2340SOL    HW218657   0.351   4.029  15.211 -3.1999  2.3301 -0.5812
 2341SOL     OW18658   3.373   2.166  17.372  0.0630  0.4042 -0.8032
 2341SOL    HW118659   3.459   2.134  17.399 -0.0769 -1.2208 -2.2612
 2341SOL    HW218660   3.390   2.210  17.288  0.0660  3.1851  0.6592
 2342SOL     OW18661   4.384   1.306   7.357 -0.0616  0.3525 -0.0139
 2342SOL    HW118662   4.300   1.262   7.371 -0.2705  0.1194 -2.0513
 2342SOL    HW218663   4.379   1.369   7.429  1.4578 -1.8768  2.0757
 2343SOL     OW18664   2.893   2.033   8.710 -0.3158 -0.4521 -0.2980
 2343SOL    HW118665   2.973   1.993   8.675 -0.2744 -0.9138  0.3108
 2343SOL    HW218666   2.829   2.029   8.639  1.5803 -0.4820 -2.0179
 2344SOL     OW18667   3.428   4.245   2.301 -0.1225  0.5548  0.1092
 2344SOL    HW118668   3.423   4.152   2.322 -0.0879  0.4050 -0.5706
 2344SOL    HW218669   3.448   4.236   2.208 -0.5960  0.5571  0.0078
 2345SOL     OW18670   4.316   1.629   5.526 -0.1128 -0.3564  0.2042
 2345SOL    HW118671   4.272   1.574   5.461  0.6024  1.7679 -2.0591
 2345SOL    HW218672   4.360   1.560   5.576 -0.8361 -0.2380  0.9883
 2346SOL     OW18673   3.811   1.144   2.348 -0.8318 -0.0700 -0.0428
 2346SOL    HW118674   3.752   1.074   2.320 -1.8777  0.9337 -0.3347
 2346SOL    HW218675   3.870   1.153   2.273  1.2230  0.4015  1.6423
 2347SOL     OW18676   3.661   1.074   4.285  0.5205  0.2998 -0.6997
 2347SOL    HW118677   3.598   1.062   4.356 -0.2019  2.3123 -0.9861
 2347SOL    HW218678   3.611   1.057   4.205 -1.0643  2.2295 -0.1208
 2348SOL     OW18679   1.015   0.491  11.472 -0.4558 -0.5441  0.0709
 2348SOL    HW118680   1.020   0.550  11.397 -0.9836  0.8523  1.1266
 2348SOL    HW218681   1.058   0.418  11.427 -0.5526  0.3610 -1.4988
 2349SOL     OW18682   4.680   1.353  10.399  0.4897  0.3384  0.0585
 2349SOL    HW118683   4.661   1.392  10.484  2.7333 -1.2549  1.2770
 2349SOL    HW218684   0.038   1.364  10.403  0.7423 -1.3642 -1.0987
 2350SOL     OW18685   3.967   1.456  14.385  0.2343 -0.6949  0.3552
 2350SOL    HW118686   3.962   1.546  14.418  1.4481 -0.6378  0.4059
 2350SOL    HW218687   3.933   1.411  14.462 -1.1766  0.2126  0.2486
 2351SOL     OW18688   0.232   1.540   3.489  0.4848 -0.2479  0.0323
 2351SOL    HW118689   0.297   1.511   3.425  1.9608  1.4125  0.7876
 2351SOL    HW218690   0.153   1.502   3.450 -1.5785  2.5853  1.4214
 2352SOL     OW18691   1.369   2.962   9.316  0.4524  0.1921 -0.5194
 2352SOL    HW118692   1.285   2.947   9.272  0.4579  1.9399 -1.1366
 2352SOL    HW218693   1.430   2.956   9.242 -0.2942  1.7027 -1.2633
 2353SOL     OW18694   3.635   0.855   7.974  0.1093 -0.2229 -0.3479
 2353SOL    HW118695   3.581   0.809   7.910 -0.5211  1.2106 -0.8454
 2353SOL    HW218696   3.646   0.941   7.933 -1.0744  0.0855 -0.0075
 2354SOL     OW18697   4.261   0.191   2.134  0.4006  0.1769  0.6523
 2354SOL    HW118698   4.230   0.133   2.203 -0.0066 -0.5347 -0.1272
 2354SOL    HW218699   4.185   0.193   2.075  0.4579  3.3632  0.7000
 2355SOL     OW18700   0.560   4.271  10.082  0.2433 -0.3565 -0.3010
 2355SOL    HW118701   0.584   4.178  10.080  0.5631 -0.2662 -0.6595
 2355SOL    HW218702   0.497   4.276  10.010  0.1842 -2.7511 -0.4218
 2356SOL     OW18703   0.210   2.024   3.228  0.3201 -0.1499 -0.2409
 2356SOL    HW118704   0.143   2.000   3.164 -0.5913 -0.4324  0.8090
 2356SOL    HW218705   0.223   1.937   3.266  2.4223  0.0990 -0.4102
 2357SOL     OW18706   2.119   3.750   7.614  0.5627 -0.1019 -0.2715
 2357SOL    HW118707   2.024   3.739   7.619  0.6138 -1.1221 -1.4285
 2357SOL    HW218708   2.131   3.812   7.686 -1.5266  2.3024 -1.9667
 2358SOL     OW18709   0.547   1.296   4.955 -0.2518 -0.1756  0.6573
 2358SOL    HW118710   0.515   1.294   4.864  1.8444  0.4903 -0.0960
 2358SOL    HW218711   0.637   1.322   4.935 -0.4612  0.2488  0.2638
 2359SOL     OW18712   4.240   2.897   9.390 -0.6173  0.4439  0.3756
 2359SOL    HW118713   4.212   2.979   9.349  0.9356 -0.6426 -2.8306
 2359SOL    HW218714   4.168   2.840   9.362 -0.8343  1.2930 -0.8013
 2360SOL     OW18715   1.489   0.739   5.410 -0.1241  0.1678  0.1839
 2360SOL    HW118716   1.471   0.793   5.487 -1.7166  1.5177 -1.1399
 2360SOL    HW218717   1.439   0.662   5.437  0.7962 -0.4194  0.2029
 2361SOL     OW18718   0.395   0.875  11.788  0.0384  0.3601  0.2314
 2361SOL    HW118719   0.472   0.893  11.734 -0.8562 -0.1270 -1.2188
 2361SOL    HW218720   0.353   0.961  11.791 -1.6364 -0.5177  1.3763
 2362SOL     OW18721   1.010   1.844   3.485 -0.5278 -0.4172  0.1846
 2362SOL    HW118722   0.981   1.935   3.485  0.5908 -0.0669 -1.0891
 2362SOL    HW218723   1.020   1.828   3.579 -1.0830  1.6072  0.5727
 2363SOL     OW18724   3.045   1.133   5.540  0.5580 -0.1955 -0.1661
 2363SOL    HW118725   2.950   1.121   5.536  0.3759  1.0734  0.3267
 2363SOL    HW218726   3.056   1.220   5.502  1.7861  0.0241  0.6720
 2364SOL     OW18727   3.915   3.011  12.631  0.1007 -0.1955 -0.5602
 2364SOL    HW118728   3.877   3.098  12.635 -2.0289 -1.2564  2.2586
 2364SOL    HW218729   4.009   3.031  12.622  0.0129  1.1972  1.7200
 2365SOL     OW18730   0.364   3.807  12.645  0.4302 -0.7653  0.0203
 2365SOL    HW118731   0.446   3.772  12.680  1.7023  2.6833  0.4873
 2365SOL    HW218732   0.382   3.815  12.551  1.2882 -2.1433  0.0685
 2366SOL     OW18733   3.766   4.553   4.901  0.2211 -0.3285  0.1536
 2366SOL    HW118734   3.786   4.467   4.936 -2.4918  0.0681  2.6648
 2366SOL    HW218735   3.820   4.613   4.952  0.8576 -1.2046  0.4947
 2367SOL     OW18736   2.382   2.704   6.079 -0.2138 -0.2897  0.3460
 2367SOL    HW118737   2.432   2.786   6.081 -0.9194  0.1507  0.3573
 2367SOL    HW218738   2.290   2.728   6.091 -0.2708 -1.8303  2.9085
 2368SOL     OW18739   3.413   2.528   8.699 -0.5720 -0.0881  0.0584
 2368SOL    HW118740   3.417   2.558   8.608 -0.1525 -0.8436 -0.1817
 2368SOL    HW218741   3.496   2.479   8.694  0.1670  1.1543  0.1684
 2369SOL     OW18742   2.683   1.724   1.155 -0.2782 -0.0706  0.4479
 2369SOL    HW118743   2.593   1.743   1.183 -1.1551 -2.6853 -0.5744
 2369SOL    HW218744   2.678   1.767   1.069  2.2294  1.3570  1.0024
 2370SOL     OW18745   1.179   0.372   2.628 -0.5582  0.1905  0.5261
 2370SOL    HW118746   1.149   0.329   2.707  0.8494 -0.2306  0.8328
 2370SOL    HW218747   1.092   0.380   2.588 -1.1802  1.4640  2.1374
 2371SOL     OW18748   1.910   0.367   9.102  0.0088  0.0881  0.8254
 2371SOL    HW118749   1.976   0.423   9.143 -0.7786  1.3632  0.3248
 2371SOL    HW218750   1.851   0.363   9.178 -0.3261 -0.5650  0.5351
 2372SOL     OW18751   4.444   3.998   8.377 -0.3577 -0.1387  0.5079
 2372SOL    HW118752   4.440   3.935   8.449 -1.1510 -2.2096 -1.3721
 2372SOL    HW218753   4.530   3.959   8.361 -1.2426 -2.1579  0.7255
 2373SOL     OW18754   0.134   3.737   7.352 -0.3007  0.7267 -0.5189
 2373SOL    HW118755   0.168   3.649   7.333 -1.0149  0.6616 -1.4841
 2373SOL    HW218756   0.198   3.769   7.416  0.9977 -0.6909 -1.1057
 2374SOL     OW18757   3.646   2.621  12.354 -0.1293  0.8059  0.3433
 2374SOL    HW118758   3.596   2.693  12.394 -2.7208 -0.1835 -1.1473
 2374SOL    HW218759   3.678   2.655  12.270 -2.0162 -1.9985 -1.5019
 2375SOL     OW18760   3.544   4.349  11.833 -0.6078 -0.1229  0.0282
 2375SOL    HW118761   3.504   4.435  11.823 -0.6617 -0.0906  0.5108
 2375SOL    HW218762   3.491   4.314  11.904 -0.9012  0.3511  0.0450
 2376SOL     OW18763   0.938   3.706   3.602 -0.0256 -0.8909  0.0679
 2376SOL    HW118764   0.987   3.626   3.584 -1.1581 -1.9318  1.6600
 2376SOL    HW218765   0.852   3.678   3.570 -0.2135 -1.5129  1.1141
 2377SOL     OW18766   2.476   3.384   7.956 -0.7060 -0.3019  0.2725
 2377SOL    HW118767   2.568   3.377   7.982 -0.5362 -0.4738 -0.3856
 2377SOL    HW218768   2.442   3.322   8.020 -1.8793  0.6374  0.5640
 2378SOL     OW18769   1.754   3.067  17.577  0.6134 -0.0577  0.2355
 2378SOL    HW118770   1.819   3.034  17.515  0.4371 -1.4375  0.7812
 2378SOL    HW218771   1.803   3.058  17.659  1.0161  0.3018  0.0308
 2379SOL     OW18772   2.063   3.372   9.419 -0.8114  0.3332 -0.8792
 2379SOL    HW118773   1.976   3.349   9.385 -1.1473  0.9388 -0.4388
 2379SOL    HW218774   2.077   3.459   9.381 -2.4218  0.0982 -1.9978
 2380SOL     OW18775   2.074   4.513   2.720  0.5649 -0.0775  0.6870
 2380SOL    HW118776   2.115   4.426   2.726 -0.3944 -0.4814  1.3811
 2380SOL    HW218777   2.031   4.508   2.805  0.2405 -0.2201  0.5132
 2381SOL     OW18778   1.899   1.362   6.733 -0.3122  0.0571  0.8727
 2381SOL    HW118779   1.823   1.321   6.692 -1.2863  0.9529  1.7578
 2381SOL    HW218780   1.923   1.305   6.806 -0.1577  1.3981  1.8858
 2382SOL     OW18781   2.981   0.644   7.523  0.2575 -0.1806 -0.3430
 2382SOL    HW118782   3.054   0.704   7.536 -2.7263  3.7986 -1.7390
 2382SOL    HW218783   3.041   0.570   7.512 -0.6857 -1.0970  0.6190
 2383SOL     OW18784   3.053   1.203   8.479  0.3287  0.2151 -0.1739
 2383SOL    HW118785   3.036   1.291   8.510  1.3704 -0.3860  2.0879
 2383SOL    HW218786   3.148   1.204   8.466  0.1351 -1.8054 -1.9479
 2384SOL     OW18787   0.818   3.288   4.160 -0.3427 -0.6585  0.9240
 2384SOL    HW118788   0.907   3.325   4.160  0.4070 -2.4727 -1.7358
 2384SOL    HW218789   0.778   3.334   4.233 -1.4431 -2.6704  1.5697
 2385SOL     OW18790   2.593   2.959   3.294 -0.1177 -0.3468 -0.1801
 2385SOL    HW118791   2.570   3.034   3.239 -1.1727  1.8086  3.2162
 2385SOL    HW218792   2.547   2.975   3.376  1.0870  1.0848  0.2210
 2386SOL     OW18793   2.086   0.222   2.874 -0.3790 -0.7874 -0.0731
 2386SOL    HW118794   2.051   0.189   2.791 -0.6451 -0.9915  0.1222
 2386SOL    HW218795   2.008   0.260   2.913  1.4463  3.2837 -0.3816
 2387SOL     OW18796   0.735   1.826   2.908 -0.6464  0.3055  0.6863
 2387SOL    HW118797   0.719   1.734   2.929  1.2401 -0.4408 -1.1718
 2387SOL    HW218798   0.728   1.852   3.000  0.2132  2.7220  0.0526
 2388SOL     OW18799   4.469   3.746   4.910 -0.2072  0.0323 -1.0384
 2388SOL    HW118800   4.441   3.674   4.853 -1.0360 -0.7431  0.3434
 2388SOL    HW218801   4.420   3.820   4.875  2.3441  2.1703 -0.0603
 2389SOL     OW18802   2.334   0.605   5.924  0.1870 -0.8587 -0.5025
 2389SOL    HW118803   2.290   0.654   5.994  0.4529  0.5107 -1.2926
 2389SOL    HW218804   2.301   0.519   5.951  1.5174 -0.4748  2.3717
 2390SOL     OW18805   0.128   1.145   7.464  0.5948 -0.0544 -0.0905
 2390SOL    HW118806   0.207   1.131   7.515  0.9795  1.0780 -0.3860
 2390SOL    HW218807   0.076   1.201   7.521 -0.6383 -0.1247 -1.1377
 2391SOL     OW18808   3.306   2.476   8.243 -0.1541  0.4020  0.0005
 2391SOL    HW118809   3.385   2.454   8.194  0.3678 -1.2862  1.5968
 2391SOL    HW218810   3.240   2.447   8.181 -1.8863 -0.2826  2.1424
 2392SOL     OW18811   1.231   4.466   7.353 -0.0821 -0.0664  0.0929
 2392SOL    HW118812   1.307   4.522   7.372  0.3795 -0.2665 -1.1814
 2392SOL    HW218813   1.260   4.436   7.267 -2.6519  1.7457 -1.3893
 2393SOL     OW18814   4.702   2.902   6.146  0.3130 -0.2782 -0.4717
 2393SOL    HW118815   4.690   2.931   6.236 -1.9753  1.8668 -1.4628
 2393SOL    HW218816   0.052   2.861   6.147  0.7779  0.6977 -0.1403
 2394SOL     OW18817   2.715   0.360   4.139 -0.2539 -0.3593 -0.4049
 2394SOL    HW118818   2.680   0.287   4.087  1.1392 -0.9677 -0.5030
 2394SOL    HW218819   2.640   0.414   4.117 -0.1273 -0.5737 -1.3848
 2395SOL     OW18820   0.235   1.933   3.629 -0.3032 -0.2655 -0.1521
 2395SOL    HW118821   0.291   1.855   3.624 -0.6071 -0.5707  1.3539
 2395SOL    HW218822   0.297   2.005   3.640 -0.0513 -0.6509  0.8987
 2396SOL     OW18823   1.630   3.999   7.272  0.3255 -0.1789 -0.2911
 2396SOL    HW118824   1.663   3.980   7.184 -1.8168 -0.2508 -1.0780
 2396SOL    HW218825   1.544   4.040   7.261  0.3501  0.4166  1.8925
 2397SOL     OW18826   4.362   2.437  15.684  0.7303 -0.2899 -0.4610
 2397SOL    HW118827   4.345   2.345  15.703  2.4507  0.2318  3.6345
 2397SOL    HW218828   4.289   2.470  15.738  2.2217 -0.2867  1.5545
 2398SOL     OW18829   0.352   1.410   5.602  0.2685  0.1808  0.0383
 2398SOL    HW118830   0.268   1.457   5.602  0.5607  0.6942  2.2126
 2398SOL    HW218831   0.409   1.471   5.555 -0.9713  3.0605  2.2513
 2399SOL     OW18832   0.566   3.662   1.831 -0.0147  0.1475 -0.6158
 2399SOL    HW118833   0.611   3.732   1.784  1.9658  0.5773  1.9345
 2399SOL    HW218834   0.492   3.717   1.854 -0.0685 -0.4762  0.6870
 2400SOL     OW18835   4.654   3.799   0.909 -0.4608  0.5306 -0.1184
 2400SOL    HW118836   4.667   3.859   0.835 -1.4893  0.9835  0.0776
 2400SOL    HW218837   4.619   3.866   0.967 -2.2324 -1.0613  0.6585
 2401SOL     OW18838   2.109   1.490   9.503  0.3348 -0.1317 -0.2644
 2401SOL    HW118839   2.143   1.556   9.563  0.3731 -2.0957  1.8514
 2401SOL    HW218840   2.027   1.535   9.483  0.9951  0.5785 -1.3706
 2402SOL     OW18841   2.382   2.958  17.128 -0.7183  0.2989 -0.0247
 2402SOL    HW118842   2.465   2.970  17.080 -0.1235 -1.9500  0.4344
 2402SOL    HW218843   2.395   2.868  17.156 -0.9261  0.2376 -0.1277
 2403SOL     OW18844   4.136   4.161   2.746  0.1924  0.3411  0.2163
 2403SOL    HW118845   4.172   4.190   2.830  3.1558 -4.6549  0.7111
 2403SOL    HW218846   4.052   4.125   2.775  1.0571 -1.9196 -0.0329
 2404SOL     OW18847   1.167   2.822   2.495  0.0888  0.1105 -0.4856
 2404SOL    HW118848   1.086   2.793   2.453 -0.4281 -0.7283  1.0844
 2404SOL    HW218849   1.185   2.754   2.560 -0.1749  0.5395  0.0427
 2405SOL     OW18850   2.791   2.204   6.743 -0.6591 -0.5168 -0.5915
 2405SOL    HW118851   2.740   2.145   6.687 -2.8418  1.4898 -0.7124
 2405SOL    HW218852   2.862   2.229   6.684  2.7012 -2.8192  2.5321
 2406SOL     OW18853   2.759   3.663   8.284  0.0706 -0.1148 -0.4587
 2406SOL    HW118854   2.843   3.679   8.241  0.1706 -0.9377 -0.5673
 2406SOL    HW218855   2.777   3.694   8.373 -0.2111 -0.6878 -0.2006
 2407SOL     OW18856   1.239   3.326  15.282 -0.0437  0.1920  0.2698
 2407SOL    HW118857   1.230   3.327  15.186 -1.8436 -3.9926  0.3985
 2407SOL    HW218858   1.331   3.305  15.294  0.0237  0.1150 -0.3908
 2408SOL     OW18859   1.712   4.001   8.437  0.0488 -0.2526 -0.1966
 2408SOL    HW118860   1.791   3.958   8.468 -1.7006 -2.9941  0.4586
 2408SOL    HW218861   1.719   4.079   8.492  1.1452  0.4294 -1.3071
 2409SOL     OW18862   0.010   4.599   6.520  0.0762  0.4468 -0.3152
 2409SOL    HW118863   0.001   4.599   6.425 -0.3077 -0.7555 -0.2762
 2409SOL    HW218864   0.003   4.505   6.535 -0.5677  0.2274 -2.0548
 2410SOL     OW18865   2.841   1.852   4.082  0.1433  0.4409  0.3136
 2410SOL    HW118866   2.816   1.854   4.174 -0.2294  0.3940  0.2136
 2410SOL    HW218867   2.912   1.788   4.077  1.1711  1.6333 -0.3611
 2411SOL     OW18868   1.948   2.723  13.462 -0.9781 -0.0533  0.4509
 2411SOL    HW118869   1.941   2.672  13.382 -2.5223  1.6558 -0.5011
 2411SOL    HW218870   1.985   2.659  13.523  0.4712 -1.3326 -1.7742
 2412SOL     OW18871   1.028   4.377   1.755 -0.0892 -0.1598  0.1048
 2412SOL    HW118872   1.107   4.324   1.766 -0.1541  0.1229  2.0076
 2412SOL    HW218873   1.034   4.399   1.662 -1.4751  1.0353  0.3003
 2413SOL     OW18874   3.294   3.369   5.656 -0.0715  0.6104  0.0526
 2413SOL    HW118875   3.335   3.409   5.580  4.8836 -0.1803  2.2673
 2413SOL    HW218876   3.228   3.429   5.691 -0.8247  0.5743 -1.3446
 2414SOL     OW18877   0.849   4.281   1.969 -0.2388 -0.0856 -0.3973
 2414SOL    HW118878   0.769   4.322   1.935 -0.0215  0.7102  0.0430
 2414SOL    HW218879   0.914   4.323   1.913  1.5500  0.0884  1.7978
 2415SOL     OW18880   2.157   0.488   7.195 -0.3976  0.2374  0.6039
 2415SOL    HW118881   2.149   0.475   7.289  0.8601 -0.6805  0.5799
 2415SOL    HW218882   2.113   0.572   7.181 -0.6077 -0.4226 -2.7037
 2416SOL     OW18883   4.543   2.187  16.194 -0.2438  0.0082  0.2471
 2416SOL    HW118884   4.462   2.234  16.215  0.0047  0.7560 -0.4885
 2416SOL    HW218885   4.586   2.259  16.149  2.5932 -1.9147 -0.0694
 2417SOL     OW18886   2.986   2.284  13.183 -0.3388  0.6396 -0.0280
 2417SOL    HW118887   3.032   2.354  13.230 -0.2430  0.6393 -0.1224
 2417SOL    HW218888   2.931   2.266  13.260  0.1865  1.5243  0.5629
 2418SOL     OW18889   0.624   2.089  17.304 -0.0305  0.2016  0.8020
 2418SOL    HW118890   0.670   2.102  17.221  0.7119 -3.7036  0.5809
 2418SOL    HW218891   0.556   2.155  17.294 -0.5831 -0.9679 -2.9786
 2419SOL     OW18892   2.158   2.613   1.461  0.0642  0.0666 -0.1995
 2419SOL    HW118893   2.087   2.553   1.436 -0.4028  0.4059  0.3180
 2419SOL    HW218894   2.113   2.680   1.512  0.7559  0.8523 -0.6269
 2420SOL     OW18895   3.009   0.037   3.553  0.0564  0.2953  0.8325
 2420SOL    HW118896   2.963   0.059   3.634 -2.2079 -2.8664  0.4551
 2420SOL    HW218897   3.102   0.036   3.575 -0.4686 -1.4075  2.9972
 2421SOL     OW18898   4.059   0.244   8.713  0.0200 -0.2443 -0.8734
 2421SOL    HW118899   4.040   0.250   8.807  1.4387 -1.1805 -0.5340
 2421SOL    HW218900   4.058   0.334   8.681 -1.1835 -0.0925 -0.4368
 2422SOL     OW18901   1.309   2.407   1.861 -0.7760 -0.3439 -0.0045
 2422SOL    HW118902   1.245   2.478   1.871 -1.2112 -0.6488 -0.5853
 2422SOL    HW218903   1.304   2.380   1.953 -0.0774 -1.6526 -0.3489
 2423SOL     OW18904   2.154   3.025   1.251  0.2728  0.2364  0.4757
 2423SOL    HW118905   2.158   3.086   1.177  0.5590 -1.2425 -0.7293
 2423SOL    HW218906   2.068   2.986   1.239  0.9786 -0.8496 -1.0075
 2424SOL     OW18907   0.552   0.108   6.979  0.3272 -0.3479  0.1745
 2424SOL    HW118908   0.610   0.166   6.930 -0.6457 -1.0479 -1.8214
 2424SOL    HW218909   0.562   0.139   7.069  1.2907 -0.4156  0.0895
 2425SOL     OW18910   0.314   4.481   3.323 -0.0949  0.5804 -0.1214
 2425SOL    HW118911   0.239   4.463   3.266 -0.2875 -3.9943  1.5270
 2425SOL    HW218912   0.389   4.445   3.276 -1.1561 -0.7154 -0.8441
 2426SOL     OW18913   0.395   3.604  17.642  0.0979 -0.0402 -0.0455
 2426SOL    HW118914   0.343   3.537  17.599 -0.0333 -1.4227  2.2525
 2426SOL    HW218915   0.321   3.639  17.692  1.6607  0.4339  1.9257
 2427SOL     OW18916   0.123   3.504   6.654  0.5830 -0.1346 -0.4253
 2427SOL    HW118917   0.056   3.547   6.601 -0.5753 -3.0063 -1.3224
 2427SOL    HW218918   0.149   3.572   6.717 -0.1254 -1.2298  1.0692
 2428SOL     OW18919   1.871   3.591   7.315  0.1494 -0.2972 -0.1422
 2428SOL    HW118920   1.800   3.544   7.358 -0.2115  0.5591  0.1995
 2428SOL    HW218921   1.824   3.629   7.241  0.9545  3.0436  1.0407
 2429SOL     OW18922   1.953   1.166   6.911 -0.5613  0.4442  0.1073
 2429SOL    HW118923   1.914   1.147   6.996 -0.7497 -0.2043 -0.1301
 2429SOL    HW218924   2.035   1.117   6.915  0.1698  1.7951  1.6662
 2430SOL     OW18925   0.368   2.435   3.491 -0.0349  0.2445  0.2408
 2430SOL    HW118926   0.381   2.458   3.583 -1.9090  2.4530 -0.0285
 2430SOL    HW218927   0.273   2.444   3.481 -0.1275 -0.6694  0.3857
 2431SOL     OW18928   1.629   0.829   2.528 -0.8031 -0.7224  0.4620
 2431SOL    HW118929   1.652   0.855   2.438  0.6364 -1.7356  0.5383
 2431SOL    HW218930   1.555   0.883   2.557  0.5491  2.0749 -1.1804
 2432SOL     OW18931   3.306   2.789   8.831  0.0085 -0.1409  0.3199
 2432SOL    HW118932   3.334   2.875   8.802  0.4231  0.2870  1.9772
 2432SOL    HW218933   3.355   2.729   8.775 -0.1087 -0.0845  0.1556
 2433SOL     OW18934   1.967   4.334  14.014 -0.8000  0.1229  0.1331
 2433SOL    HW118935   2.020   4.292  14.082 -0.2413  0.3242 -0.1792
 2433SOL    HW218936   2.003   4.301  13.932 -2.0445  1.0347 -0.7742
 2434SOL     OW18937   0.930   0.646   2.576 -0.2324 -0.3168  0.7231
 2434SOL    HW118938   0.974   0.701   2.641 -1.0582 -0.5533  1.4763
 2434SOL    HW218939   0.892   0.700   2.507  1.3996  0.3966  0.3796
 2435SOL     OW18940   0.962   3.177   5.646 -0.4603 -0.4250 -0.0455
 2435SOL    HW118941   0.947   3.125   5.567 -0.3112 -1.6848  0.7340
 2435SOL    HW218942   0.933   3.116   5.715  0.2796  0.2580  0.8604
 2436SOL     OW18943   2.069   0.971   4.788  0.4274 -0.2788 -0.5284
 2436SOL    HW118944   2.018   0.890   4.790  0.0686 -0.0667 -0.8596
 2436SOL    HW218945   2.103   0.968   4.698  0.8969  0.3514 -0.3775
 2437SOL     OW18946   3.286   0.947   9.175  0.0560 -0.0781  0.0542
 2437SOL    HW118947   3.361   0.889   9.187 -0.1458 -0.0245  1.5915
 2437SOL    HW218948   3.238   0.920   9.097  1.9164 -1.1933 -0.6972
 2438SOL     OW18949   4.396   0.370   5.517 -0.1006 -0.3407  0.4268
 2438SOL    HW118950   4.408   0.429   5.442  0.7835 -1.1625 -0.0723
 2438SOL    HW218951   4.347   0.407   5.591  1.7508  0.0485  1.4514
 2439SOL     OW18952   0.885   0.863   7.768 -0.8983 -0.1597  0.1106
 2439SOL    HW118953   0.812   0.876   7.708 -1.5073 -0.8568  0.7001
 2439SOL    HW218954   0.840   0.885   7.850  0.2552 -1.2617  1.0470
 2440SOL     OW18955   3.591   3.568  17.498  0.1211  0.1818 -0.0350
 2440SOL    HW118956   3.610   3.485  17.454  0.8821 -0.7193  1.9742
 2440SOL    HW218957   3.647   3.555  17.575  0.1335 -1.7777 -0.3663
 2441SOL     OW18958   3.067   4.568   8.123 -0.5393 -0.0541  0.2725
 2441SOL    HW118959   3.060   4.615   8.206  1.0411  1.0981 -0.2503
 2441SOL    HW218960   3.080   4.639   8.060  0.5969 -1.0716 -0.6281
 2442SOL     OW18961   4.482   3.996   7.734 -0.2403  0.2848  0.3041
 2442SOL    HW118962   4.397   3.957   7.716  0.7087 -1.6245 -0.0805
 2442SOL    HW218963   4.476   4.090   7.718 -1.6436  0.1504  0.0594
 2443SOL     OW18964   0.477   0.393  11.492 -0.5799 -0.0070 -0.6180
 2443SOL    HW118965   0.484   0.349  11.577 -1.0624 -0.3233 -0.7425
 2443SOL    HW218966   0.567   0.394  11.459  0.1447  0.9853  1.3575
 2444SOL     OW18967   3.040   1.408   5.403 -0.7107  0.1012 -0.2893
 2444SOL    HW118968   3.120   1.420   5.352  0.0835  0.3607  1.0011
 2444SOL    HW218969   3.021   1.502   5.410  0.5266  0.4146 -1.2666
 2445SOL     OW18970   0.174   1.570   4.637 -0.0363  0.0130 -0.3915
 2445SOL    HW118971   0.129   1.643   4.594 -0.2278  0.2464  0.2071
 2445SOL    HW218972   0.094   1.543   4.681 -0.5500  0.9258 -0.7755
 2446SOL     OW18973   0.035   2.208   2.919 -0.3087 -0.2856  0.0689
 2446SOL    HW118974   0.016   2.302   2.909 -2.2492 -0.5565  1.2639
 2446SOL    HW218975   0.040   2.215   3.014  1.5028 -1.0981  0.0461
 2447SOL     OW18976   1.146   1.111   6.465  0.9444 -0.1375  0.3105
 2447SOL    HW118977   1.229   1.063   6.473  0.9450  0.0926  1.6605
 2447SOL    HW218978   1.176   1.202   6.457 -0.0456  0.1868  0.3704
 2448SOL     OW18979   2.562   0.445   7.860 -0.8522  0.2228  1.0374
 2448SOL    HW118980   2.468   0.452   7.874 -0.7657 -0.4093  1.8839
 2448SOL    HW218981   2.588   0.356   7.882 -0.6212  0.6416  2.4369
 2449SOL     OW18982   1.072   0.312   3.095  0.4274  0.0870 -0.7741
 2449SOL    HW118983   1.081   0.276   3.007  1.4647 -2.8059  0.5068
 2449SOL    HW218984   0.998   0.261   3.128  1.2554 -1.3743 -1.2168
 2450SOL     OW18985   4.046   0.896   0.883  0.1594 -1.0135  0.1016
 2450SOL    HW118986   4.112   0.881   0.951 -2.1096 -0.1783  2.4967
 2450SOL    HW218987   3.987   0.944   0.941  1.6654  3.2672 -1.9823
 2451SOL     OW18988   3.923   3.159   7.957 -0.3730  0.4024 -0.5984
 2451SOL    HW118989   3.969   3.121   8.033 -3.0988  3.0867  2.4095
 2451SOL    HW218990   3.832   3.134   7.975  0.6994 -1.0189  2.8312
 2452SOL     OW18991   0.098   3.390   4.049 -0.0523 -0.1546  0.0216
 2452SOL    HW118992   0.112   3.296   4.040 -1.6618 -0.4797  0.8628
 2452SOL    HW218993   0.002   3.396   4.047 -0.0684 -0.6749 -0.7483
 2453SOL     OW18994   0.586   0.656   5.081  0.5193 -1.2300  0.3740
 2453SOL    HW118995   0.677   0.678   5.061  0.1957 -1.1949 -1.0925
 2453SOL    HW218996   0.592   0.598   5.157  0.7087 -0.3621  1.0100
 2454SOL     OW18997   1.012   2.392   1.583 -0.6825 -0.1628  0.3680
 2454SOL    HW118998   0.971   2.375   1.668  1.1337 -1.3673  0.9859
 2454SOL    HW218999   1.046   2.480   1.597  0.3776 -0.6351  0.7755
 2455SOL     OW19000   1.416   1.952   9.559 -0.2926 -0.0502 -0.3802
 2455SOL    HW119001   1.338   1.948   9.504 -0.5647  0.7630 -0.0472
 2455SOL    HW219002   1.371   1.948   9.644  1.0261  1.8391  0.3909
 2456SOL     OW19003   1.930   3.575   2.594  0.4196  0.4876 -0.0918
 2456SOL    HW119004   2.019   3.548   2.616 -0.3630 -0.7568  1.5650
 2456SOL    HW219005   1.891   3.566   2.680 -0.9627 -0.6144 -0.8273
 2457SOL     OW19006   1.633   0.325   5.584  0.5412  0.7008 -0.2218
 2457SOL    HW119007   1.632   0.410   5.539 -2.4682  0.7365 -0.1053
 2457SOL    HW219008   1.651   0.264   5.513 -4.7554 -1.7014  0.5505
 2458SOL     OW19009   0.433   3.075   7.756  0.6026 -0.5743  0.4686
 2458SOL    HW119010   0.380   3.155   7.754  1.0502 -0.2147  3.4761
 2458SOL    HW219011   0.406   3.028   7.677  0.9244 -1.7580  1.0589
 2459SOL     OW19012   2.695   3.878   2.040  0.0977  0.1291  0.4324
 2459SOL    HW119013   2.707   3.965   2.004 -0.1603 -0.2186 -0.4984
 2459SOL    HW219014   2.681   3.830   1.959  1.3883  0.3101  0.1101
 2460SOL     OW19015   0.096   2.677   2.864 -0.1032  0.2494 -0.3768
 2460SOL    HW119016   0.086   2.761   2.819  1.9745  0.1793 -0.9504
 2460SOL    HW219017   0.189   2.678   2.884 -0.1070 -0.1364 -0.3451
 2461SOL     OW19018   0.102   3.194   6.812  0.5761  0.2761 -0.0888
 2461SOL    HW119019   0.071   3.132   6.746 -0.3327  1.7534 -1.0675
 2461SOL    HW219020   0.192   3.211   6.784  0.8726 -2.8131 -0.9283
 2462SOL     OW19021   1.236   3.271   6.203 -0.0543 -1.0256 -0.0585
 2462SOL    HW119022   1.189   3.192   6.176 -0.4482 -0.2421 -1.6633
 2462SOL    HW219023   1.227   3.336   6.133  0.8867 -0.9601 -0.1257
 2463SOL     OW19024   3.130   3.769   4.661 -0.3290  0.0360  0.6022
 2463SOL    HW119025   3.101   3.823   4.587 -1.0881 -0.4243  0.5567
 2463SOL    HW219026   3.221   3.794   4.677  0.1918 -1.3538 -0.2239
 2464SOL     OW19027   3.020   2.866   9.845 -0.0150  0.0921 -0.1399
 2464SOL    HW119028   2.943   2.860   9.788 -1.0642 -3.0706  1.6030
 2464SOL    HW219029   3.072   2.917   9.783 -0.0444  1.1583  0.7068
 2465SOL     OW19030   3.538   3.308   8.890 -0.1445  0.0460  0.1464
 2465SOL    HW119031   3.476   3.381   8.881  1.1794  1.1208 -0.2126
 2465SOL    HW219032   3.606   3.354   8.939 -2.3802  2.1050  1.3771
 2466SOL     OW19033   4.726   2.575   1.729 -0.3114  0.5360  0.2027
 2466SOL    HW119034   0.072   2.618   1.707  0.3299 -0.4443  0.7221
 2466SOL    HW219035   0.009   2.490   1.768 -0.7251  0.5908  0.5330
 2467SOL     OW19036   0.551   1.269   6.781  0.0956  0.0739  0.3345
 2467SOL    HW119037   0.509   1.355   6.768 -1.3205 -0.5399  0.8868
 2467SOL    HW219038   0.477   1.217   6.813  0.3366 -1.0343 -0.9388
 2468SOL     OW19039   3.496   2.162   9.687 -0.0765 -0.3088  0.2700
 2468SOL    HW119040   3.491   2.252   9.655  0.2974 -1.0248 -1.8391
 2468SOL    HW219041   3.550   2.173   9.765 -0.7409 -0.1195  0.7015
 2469SOL     OW19042   2.734   2.867   1.669 -0.2722  0.0121  0.2729
 2469SOL    HW119043   2.657   2.885   1.615  0.6364  0.3299 -0.8956
 2469SOL    HW219044   2.723   2.779   1.705  0.3786 -0.3153 -0.3236
 2470SOL     OW19045   0.492   3.335   3.060  0.4314  0.3682 -0.6175
 2470SOL    HW119046   0.564   3.391   3.088  0.0169  2.5578 -3.9326
 2470SOL    HW219047   0.517   3.311   2.971  1.5552  3.3590 -1.1016
 2471SOL     OW19048   2.501   1.484   3.713  0.2673 -0.3109 -0.3110
 2471SOL    HW119049   2.560   1.518   3.780 -0.3413  0.5906 -0.2229
 2471SOL    HW219050   2.422   1.489   3.767 -0.6098 -2.0508 -1.4241
 2472SOL     OW19051   1.538   1.542   0.154 -0.6219  0.1231 -0.2855
 2472SOL    HW119052   1.457   1.545   0.102 -0.5380 -0.1206 -0.4323
 2472SOL    HW219053   1.583   1.614   0.109 -1.4318  0.6826 -0.1963
 2473SOL     OW19054   2.958   2.980   7.973  0.2394 -0.0401 -0.0347
 2473SOL    HW119055   2.883   2.949   7.922  1.3259  0.2992 -1.8650
 2473SOL    HW219056   2.929   3.067   8.001 -1.4244 -0.8169  0.6172
 2474SOL     OW19057   3.491   2.162   7.148 -0.5439  0.2990 -0.3426
 2474SOL    HW119058   3.441   2.172   7.228 -2.1231  1.1294 -1.4407
 2474SOL    HW219059   3.491   2.066   7.153 -0.4390  0.4794  3.1055
 2475SOL     OW19060   0.709   4.496   6.111 -0.3658 -0.1570  0.2967
 2475SOL    HW119061   0.623   4.455   6.122 -0.8772  1.1249  1.0090
 2475SOL    HW219062   0.750   4.460   6.032 -0.6780 -1.1207  0.5776
 2476SOL     OW19063   0.724   3.820   2.850  0.0209 -0.3739  0.1119
 2476SOL    HW119064   0.722   3.890   2.785  1.7666 -0.6016 -0.1944
 2476SOL    HW219065   0.749   3.862   2.932  1.3708  3.1427 -2.1312
 2477SOL     OW19066   4.491   1.622   7.818  0.7365 -0.2566  0.2259
 2477SOL    HW119067   4.432   1.650   7.748 -0.7056  0.8946  1.9401
 2477SOL    HW219068   4.536   1.551   7.772 -1.2766 -0.1194 -1.9605
 2478SOL     OW19069   4.736   3.064   7.869  0.3951 -0.1464 -0.6292
 2478SOL    HW119070   4.734   2.970   7.848 -1.3141 -0.2704  0.1943
 2478SOL    HW219071   4.645   3.092   7.868 -0.0646 -1.6136  0.4213
 2479SOL     OW19072   3.215   3.518   6.146  0.0619  0.0573 -0.2262
 2479SOL    HW119073   3.213   3.601   6.097  2.2116  0.9867  1.2565
 2479SOL    HW219074   3.302   3.516   6.185 -1.0251  1.9725  2.3442
 2480SOL     OW19075   2.032   3.621   4.751 -0.0881  0.2086 -1.0465
 2480SOL    HW119076   1.976   3.655   4.681 -0.1669  0.8707 -0.6725
 2480SOL    HW219077   1.980   3.561   4.804  0.4690  0.9795  0.3765
 2481SOL     OW19078   3.616   3.703   8.341 -0.4726  0.1667  0.5485
 2481SOL    HW119079   3.547   3.638   8.336 -0.2101 -0.2224  1.9337
 2481SOL    HW219080   3.630   3.715   8.435 -3.8077  2.7143  0.7232
 2482SOL     OW19081   3.769   2.725   6.627 -0.2226  0.1117  0.3538
 2482SOL    HW119082   3.734   2.795   6.682 -1.8686  0.2799 -0.9150
 2482SOL    HW219083   3.766   2.639   6.668 -0.9154 -0.0918 -0.1167
 2483SOL     OW19084   0.600   3.245   6.882  0.1322 -0.4213  0.0699
 2483SOL    HW119085   0.588   3.174   6.818 -0.6832 -0.7791  0.6081
 2483SOL    HW219086   0.694   3.258   6.869  0.0954 -1.1452 -0.9986
 2484SOL     OW19087   3.835   2.142   9.482 -0.9648 -0.2700  0.4252
 2484SOL    HW119088   3.813   2.153   9.574  1.8837 -1.3069  1.2261
 2484SOL    HW219089   3.869   2.053   9.471  1.0113  0.5925 -0.5267
 2485SOL     OW19090   2.143   2.801   2.160 -0.0859 -0.1868 -0.3223
 2485SOL    HW119091   2.203   2.803   2.085  0.1777 -2.0205 -0.1416
 2485SOL    HW219092   2.144   2.710   2.187  0.3942  0.6664  2.5855
 2486SOL     OW19093   0.269   3.752   4.246 -0.5908  0.0727  0.3891
 2486SOL    HW119094   0.199   3.816   4.233 -0.8602 -0.0481  1.1893
 2486SOL    HW219095   0.285   3.731   4.155  2.5466  1.0330  0.7104
 2487SOL     OW19096   3.748   0.207   5.183 -0.0352 -0.1823  0.5701
 2487SOL    HW119097   3.809   0.176   5.251 -2.5262 -0.5794  2.6159
 2487SOL    HW219098   3.672   0.151   5.196  0.6531 -1.5698 -1.4691
 2488SOL     OW19099   0.868   4.581   7.079 -1.1469  0.0873  0.1731
 2488SOL    HW119100   0.821   4.632   7.145 -2.1942 -0.4389 -0.1814
 2488SOL    HW219101   0.798   4.560   7.017  0.1967 -0.7380 -1.0598
 2489SOL     OW19102   2.003   4.192   2.441 -0.6327 -0.5957  0.7191
 2489SOL    HW119103   2.051   4.129   2.388 -1.7901 -0.2507 -0.7172
 2489SOL    HW219104   1.925   4.138   2.454 -1.6817  0.6941 -0.2907
 2490SOL     OW19105   1.441   4.151   5.868  0.5594 -0.3320 -0.5183
 2490SOL    HW119106   1.467   4.073   5.818 -0.8731 -1.0488 -0.1314
 2490SOL    HW219107   1.459   4.123   5.957 -0.6369  2.3716  0.5829
 2491SOL     OW19108   1.157   2.917   4.014  0.2141 -0.1399 -0.0097
 2491SOL    HW119109   1.201   2.935   3.931 -0.9899  0.8961 -0.4129
 2491SOL    HW219110   1.108   2.839   3.991 -0.9711  0.2829  1.0856
 2492SOL     OW19111   0.816   4.512   2.850  0.0477 -0.0769  0.3315
 2492SOL    HW119112   0.754   4.509   2.777 -1.0479  0.6781  1.2266
 2492SOL    HW219113   0.873   4.585   2.827 -0.2417  0.7690  2.2954
 2493SOL     OW19114   4.207   0.335  10.202 -0.4335  0.6057 -0.4950
 2493SOL    HW119115   4.234   0.249  10.235  0.3323  1.2085  0.4197
 2493SOL    HW219116   4.230   0.325  10.110  0.2961  2.5813 -0.5119
 2494SOL     OW19117   0.869   4.118   5.708  0.2953 -0.4949  0.1306
 2494SOL    HW119118   0.827   4.040   5.744  0.0389  0.7435  2.5123
 2494SOL    HW219119   0.930   4.073   5.650 -0.1065  1.7202 -1.9884
 2495SOL     OW19120   4.127   1.362   4.458 -0.0679  0.2635 -0.7662
 2495SOL    HW119121   4.069   1.300   4.414  1.6240 -0.2092 -2.3425
 2495SOL    HW219122   4.136   1.305   4.534 -1.9146  1.2376  0.1817
 2496SOL     OW19123   2.314   4.516   7.673  0.8254  0.1291 -0.5846
 2496SOL    HW119124   2.329   4.423   7.691 -0.0757  0.2709  0.9123
 2496SOL    HW219125   2.225   4.507   7.639  0.7097  2.0485 -0.7974
 2497SOL     OW19126   1.893   4.428   2.927 -0.1766 -0.5842 -0.4707
 2497SOL    HW119127   1.843   4.484   2.985  2.6352 -0.3716  1.7784
 2497SOL    HW219128   1.838   4.409   2.851  0.4798 -0.7404 -0.9121
 2498SOL     OW19129   4.423   1.538  11.754  0.1779 -0.2992  0.2052
 2498SOL    HW119130   4.458   1.597  11.687 -0.5531  0.6912  0.6888
 2498SOL    HW219131   4.497   1.512  11.809  0.2636 -0.0861  0.1882
 2499SOL     OW19132   2.130   4.645   9.440 -0.4213  1.2072  0.4406
 2499SOL    HW119133   2.101   4.577   9.500 -2.5580 -0.3450 -2.3568
 2499SOL    HW219134   2.132   4.721   9.499  4.0766  0.3166  1.4559
 2500SOL     OW19135   1.225   3.477  16.011  0.0957  0.3713 -0.0417
 2500SOL    HW119136   1.306   3.426  16.021 -1.5415 -1.8276  1.8116
 2500SOL    HW219137   1.248   3.541  16.078 -0.4915  0.7048 -0.1641
 2501SOL     OW19138   1.050   2.137   8.047  0.0032 -0.2203  1.0782
 2501SOL    HW119139   1.056   2.232   8.033  0.8012 -0.0824  2.3347
 2501SOL    HW219140   1.110   2.105   7.981 -0.9887  0.5749 -0.1998
 2502SOL     OW19141   1.717   3.140   6.487  0.0307 -0.4135 -0.0279
 2502SOL    HW119142   1.669   3.217   6.457  1.3390 -0.9718 -3.5135
 2502SOL    HW219143   1.760   3.175   6.565 -0.9370  0.9809 -0.1207
 2503SOL     OW19144   3.804   1.420  13.776  0.1093 -0.0286 -0.7026
 2503SOL    HW119145   3.881   1.459  13.735 -0.7159  0.8649 -1.4224
 2503SOL    HW219146   3.780   1.487  13.841 -1.5069 -1.7389  0.4514
 2504SOL     OW19147   4.642   2.779   1.922  0.0040  0.3653  0.3228
 2504SOL    HW119148   4.669   2.852   1.867 -0.2979  0.3620  0.1708
 2504SOL    HW219149   4.703   2.721   1.877 -0.2052  2.0311 -2.0945
 2505SOL     OW19150   3.535   1.528   3.721 -0.4059  0.0977  0.1900
 2505SOL    HW119151   3.625   1.533   3.753 -0.8397  0.5935  1.3347
 2505SOL    HW219152   3.491   1.499   3.801  1.1725  1.9540  1.7455
 2506SOL     OW19153   1.476   3.674   2.658  0.3180 -0.0880 -0.1552
 2506SOL    HW119154   1.537   3.697   2.588  1.5025  1.5103  1.4084
 2506SOL    HW219155   1.503   3.728   2.732 -2.4753 -1.3286  1.7761
 2507SOL     OW19156   0.381   0.181  15.993  0.4951  0.2451 -0.3180
 2507SOL    HW119157   0.386   0.130  15.912 -0.5059 -1.5730  0.7720
 2507SOL    HW219158   0.466   0.225  15.987  0.7401 -0.3036 -0.8245
 2508SOL     OW19159   2.821   3.584   9.800  0.7299  0.0602 -0.7791
 2508SOL    HW119160   2.892   3.609   9.860 -0.2954 -2.5384  1.5249
 2508SOL    HW219161   2.822   3.489   9.814  1.7784  0.8198  4.4917
 2509SOL     OW19162   2.147   0.601  15.202 -0.1080 -0.2256  0.3840
 2509SOL    HW119163   2.091   0.546  15.147  0.0954 -0.0231 -0.0262
 2509SOL    HW219164   2.213   0.643  15.147 -1.6632  0.4017 -1.0154
 2510SOL     OW19165   0.131   4.429  15.129  0.0779 -0.0529 -0.1772
 2510SOL    HW119166   0.106   4.392  15.044 -1.2001  0.9922 -0.2538
 2510SOL    HW219167   0.046   4.416  15.170  1.2263 -2.2799  1.5537
 2511SOL     OW19168   3.222   3.949   9.333 -0.0247 -0.2810 -0.9746
 2511SOL    HW119169   3.137   3.920   9.299 -0.3941 -1.4805  1.0238
 2511SOL    HW219170   3.233   3.875   9.391 -0.8259 -0.3690 -0.9367
 2512SOL     OW19171   0.826   2.735  10.315 -0.0419 -1.2355 -0.7186
 2512SOL    HW119172   0.763   2.691  10.372  0.2306  1.0180  1.3407
 2512SOL    HW219173   0.827   2.679  10.237 -3.0185 -0.8469 -1.0376
 2513SOL     OW19174   4.284   1.660   8.529  0.3888 -0.4356  0.7409
 2513SOL    HW119175   4.294   1.607   8.450 -1.3423 -0.0992  0.2795
 2513SOL    HW219176   4.313   1.609   8.604 -0.4303 -1.2684  0.4988
 2514SOL     OW19177   2.626   2.198  15.852 -0.1114 -0.6923 -0.3514
 2514SOL    HW119178   2.574   2.187  15.773  0.2956  1.8554 -0.9460
 2514SOL    HW219179   2.709   2.156  15.827  0.7602  1.0173 -0.2946
 2515SOL     OW19180   4.530   4.605  14.121  0.4492 -0.0297 -0.5415
 2515SOL    HW119181   4.446   4.579  14.159  0.1350  2.3578  0.4121
 2515SOL    HW219182   4.582   4.562  14.188 -1.6363 -1.8080 -0.0741
 2516SOL     OW19183   2.791   1.280   5.205  0.9291 -0.0771 -0.8383
 2516SOL    HW119184   2.829   1.367   5.214 -1.1848  0.5876  1.4887
 2516SOL    HW219185   2.856   1.244   5.145  0.7404 -2.0332  0.1094
 2517SOL     OW19186   2.918   2.223  15.351  0.0850  0.2880 -0.2192
 2517SOL    HW119187   2.834   2.204  15.393  0.3583 -0.1470  0.1353
 2517SOL    HW219188   2.903   2.210  15.257 -0.7859  1.4301 -0.2406
 2518SOL     OW19189   1.284   2.142   4.016  0.1765  0.1835  0.8395
 2518SOL    HW119190   1.252   2.182   4.097 -2.2152  1.0204 -0.5279
 2518SOL    HW219191   1.318   2.224   3.978  1.1758 -0.9384 -0.6786
 2519SOL     OW19192   4.099   3.280   3.062 -0.1710 -0.1740 -0.1663
 2519SOL    HW119193   4.147   3.340   3.005  1.2608  1.4099  2.6960
 2519SOL    HW219194   4.164   3.258   3.129 -0.0514 -2.9123 -1.1720
 2520SOL     OW19195   1.368   2.097   3.084 -0.5343  0.1198 -0.1986
 2520SOL    HW119196   1.280   2.119   3.053  0.3197  0.9909 -1.9805
 2520SOL    HW219197   1.353   2.051   3.167 -2.4658 -0.8287 -1.0750
 2521SOL     OW19198   3.318   3.675   3.531  0.2840 -0.9811  0.4879
 2521SOL    HW119199   3.223   3.663   3.529  0.2706 -0.8395  0.1988
 2521SOL    HW219200   3.334   3.634   3.446 -0.6574 -0.3294 -0.0086
 2522SOL     OW19201   1.543   3.108   2.585 -0.0027  0.4798 -0.1652
 2522SOL    HW119202   1.524   3.018   2.558 -0.0714  0.6818 -0.7806
 2522SOL    HW219203   1.507   3.159   2.513 -1.1500  0.3948  0.3380
 2523SOL     OW19204   0.330   2.826   3.569  0.4434  0.5954  0.6839
 2523SOL    HW119205   0.348   2.830   3.475 -0.6128  0.2484  0.4735
 2523SOL    HW219206   0.364   2.739   3.592 -3.3638 -1.1138 -0.1477
 2524SOL     OW19207   2.001   3.236  14.399  0.1254  0.2684 -1.0218
 2524SOL    HW119208   2.036   3.258  14.486 -1.6476 -0.4896 -0.1244
 2524SOL    HW219209   1.991   3.316  14.347 -0.1748  0.7838 -0.1906
 2525SOL     OW19210   1.227   2.653  13.141 -0.1377  0.1923  0.6415
 2525SOL    HW119211   1.295   2.715  13.169  0.5561 -0.2691 -0.0122
 2525SOL    HW219212   1.148   2.690  13.179  0.3004  1.8292 -0.0739
 2526SOL     OW19213   1.744   0.178  14.317 -0.5769  0.1594  0.3848
 2526SOL    HW119214   1.665   0.128  14.334 -1.5917  1.2955 -1.0332
 2526SOL    HW219215   1.750   0.254  14.375 -0.4929  0.6186 -0.2276
 2527SOL     OW19216   1.861   2.296   2.081 -0.3795 -0.3859 -0.0456
 2527SOL    HW119217   1.792   2.230   2.094 -1.1019 -0.0138 -2.0075
 2527SOL    HW219218   1.818   2.375   2.050  1.9897  0.6874 -0.6012
 2528SOL     OW19219   1.881   4.348   5.084 -0.0679 -0.2544 -0.5277
 2528SOL    HW119220   1.871   4.266   5.133 -1.7447 -1.0964 -2.2791
 2528SOL    HW219221   1.939   4.403   5.136 -2.8402  1.0318  1.2111
 2529SOL     OW19222   1.263   4.244   1.798  0.4661  0.2089  0.2110
 2529SOL    HW119223   1.336   4.288   1.841  0.5809  3.9934 -3.8451
 2529SOL    HW219224   1.274   4.154   1.829  1.0670  0.3838  0.5118
 2530SOL     OW19225   1.018   0.081   7.031  0.7225 -0.1356  0.2378
 2530SOL    HW119226   1.009   4.726   7.056  1.3169 -0.5149 -0.9610
 2530SOL    HW219227   0.951   0.128   7.081 -1.2168 -1.5435 -1.0631
 2531SOL     OW19228   1.698   3.477  10.627 -0.0348  0.2339  0.4531
 2531SOL    HW119229   1.756   3.483  10.551 -0.3235 -0.5596  0.1602
 2531SOL    HW219230   1.684   3.568  10.651 -1.3680 -0.3835  2.0120
 2532SOL     OW19231   0.760   3.928  14.515 -0.6138 -0.8858 -0.2864
 2532SOL    HW119232   0.807   4.010  14.530  0.4359 -1.3781 -0.8850
 2532SOL    HW219233   0.721   3.952  14.431 -2.7098  2.1268  1.5260
 2533SOL     OW19234   2.963   2.177  11.012  0.2747  0.0100  0.3517
 2533SOL    HW119235   2.912   2.113  11.063 -1.4535 -0.0428 -1.4554
 2533SOL    HW219236   2.961   2.254  11.069 -1.3260 -0.1296  0.4836
 2534SOL     OW19237   4.417   3.077   4.441 -0.5095  0.1411 -0.7268
 2534SOL    HW119238   4.466   3.147   4.396  1.5464  0.9071  2.7196
 2534SOL    HW219239   4.479   3.005   4.435  1.1774  1.6600 -1.7235
 2535SOL     OW19240   3.687   0.098   3.783  0.0247  0.1612 -0.2334
 2535SOL    HW119241   3.666   0.148   3.704  1.7605  1.0413 -0.1347
 2535SOL    HW219242   3.617   0.033   3.777 -1.7477  1.9061  1.4388
 2536SOL     OW19243   2.477   0.959   6.009 -0.3745 -0.2519 -0.4835
 2536SOL    HW119244   2.461   0.865   6.018 -0.9269 -0.0318  0.8193
 2536SOL    HW219245   2.571   0.964   6.021 -0.6636  2.3718  0.7889
 2537SOL     OW19246   4.065   0.319  15.789  0.1485 -0.1170  0.2731
 2537SOL    HW119247   4.047   0.385  15.856  0.2474 -0.6875  0.8735
 2537SOL    HW219248   4.004   0.332  15.717 -0.9089  0.3682  1.2630
 2538SOL     OW19249   2.330   0.987   8.966 -0.0083  0.4276  0.6626
 2538SOL    HW119250   2.282   0.905   8.981  0.7430 -0.2386 -0.5409
 2538SOL    HW219251   2.342   0.997   8.871 -3.9451 -1.4678 -0.0279
 2539SOL     OW19252   2.817   3.481  15.893  0.9307  0.2974  0.2663
 2539SOL    HW119253   2.847   3.556  15.945  1.9161  0.6035 -0.7428
 2539SOL    HW219254   2.723   3.493  15.907  1.2431  1.8121  1.1148
 2540SOL     OW19255   0.678   1.107   1.292  0.5362 -0.0894  0.1015
 2540SOL    HW119256   0.716   1.193   1.308 -0.4960  0.6546 -1.5050
 2540SOL    HW219257   0.639   1.116   1.205  2.0216 -1.4356 -0.7285
 2541SOL     OW19258   4.259   3.413   0.815 -0.1720 -0.4030 -0.3471
 2541SOL    HW119259   4.197   3.452   0.876  1.1065 -4.3694  3.4413
 2541SOL    HW219260   4.338   3.463   0.836 -1.6860  1.7078  0.3811
 2542SOL     OW19261   2.022   0.801   5.912  0.2242 -0.1101  0.7478
 2542SOL    HW119262   2.096   0.782   5.971  0.8268  0.1385  0.0733
 2542SOL    HW219263   1.950   0.743   5.938  1.3982 -1.0360  1.9628
 2543SOL     OW19264   2.126   1.163  10.387  0.2849 -0.0985 -1.0884
 2543SOL    HW119265   2.219   1.174  10.370  0.1076  2.2412 -0.4948
 2543SOL    HW219266   2.120   1.072  10.417 -0.1340  0.6622  1.1072
 2544SOL     OW19267   1.475   4.526   0.443  0.2337  0.0766 -0.3826
 2544SOL    HW119268   1.394   4.523   0.391  0.3591  1.2930 -0.6436
 2544SOL    HW219269   1.493   4.620   0.436 -0.2017  0.2414  0.7275
 2545SOL     OW19270   0.208   0.177  16.180 -0.5694 -0.1483  0.3187
 2545SOL    HW119271   0.268   0.182  16.106 -2.1559 -1.7789 -1.0537
 2545SOL    HW219272   0.260   0.239  16.233 -0.1046 -0.2178 -0.0562
 2546SOL     OW19273   2.675   0.481   6.759  0.3714  0.1676  0.0649
 2546SOL    HW119274   2.708   0.428   6.832  0.6368  2.3401  1.4983
 2546SOL    HW219275   2.581   0.481   6.779  0.5896 -0.2548  1.0982
 2547SOL     OW19276   2.390   3.211   1.192 -0.0839 -0.2321  0.4732
 2547SOL    HW119277   2.430   3.256   1.267 -1.6076  0.4945  0.8384
 2547SOL    HW219278   2.372   3.125   1.230 -1.2757  0.0050  0.4327
 2548SOL     OW19279   0.109   0.418   6.425 -0.0214 -0.0287 -0.3486
 2548SOL    HW119280   0.130   0.326   6.441 -2.6159 -0.3928  1.0614
 2548SOL    HW219281   0.138   0.421   6.334  1.7621 -0.5777  0.2084
 2549SOL     OW19282   4.393   2.152   6.155  0.1626  0.3545  0.2466
 2549SOL    HW119283   4.335   2.103   6.214 -1.0252  1.6794  0.1984
 2549SOL    HW219284   4.333   2.223   6.129  0.1435  0.5022  0.6918
 2550SOL     OW19285   0.737   2.102   4.049  0.0564  0.0866 -0.1323
 2550SOL    HW119286   0.795   2.154   3.993  1.8952  0.6831  2.2993
 2550SOL    HW219287   0.692   2.069   3.972 -1.7182  1.6148  0.2293
 2551SOL     OW19288   1.108   4.537   4.908 -0.0510 -0.2817 -0.3094
 2551SOL    HW119289   1.184   4.479   4.899 -0.2013 -0.8709  2.0522
 2551SOL    HW219290   1.065   4.496   4.984 -1.7314  0.5929 -0.7909
 2552SOL     OW19291   1.544   4.494  16.311 -0.4327 -0.5917  0.4759
 2552SOL    HW119292   1.457   4.453  16.316 -0.0555 -1.3998  0.4382
 2552SOL    HW219293   1.582   4.432  16.248  1.1275  0.5850  0.2614
 2553SOL     OW19294   4.057   1.388   1.049  0.0134 -0.4394  0.1421
 2553SOL    HW119295   3.983   1.407   0.992 -1.4191 -0.5929  1.9756
 2553SOL    HW219296   4.025   1.327   1.114  0.2339 -1.0505 -0.3172
 2554SOL     OW19297   3.554   3.046   6.384  0.0944  0.6958 -0.3014
 2554SOL    HW119298   3.555   2.951   6.385 -1.0350  0.7231  3.3167
 2554SOL    HW219299   3.604   3.056   6.465 -2.6573 -1.8944  1.6997
 2555SOL     OW19300   1.045   1.826   3.801 -0.2397  0.5731 -0.5961
 2555SOL    HW119301   0.981   1.764   3.766 -1.7033  1.7347  0.0135
 2555SOL    HW219302   1.066   1.792   3.887 -0.3207  0.9921 -0.4102
 2556SOL     OW19303   3.277   2.007   2.133  0.1936  0.3224 -0.0817
 2556SOL    HW119304   3.315   2.055   2.059  0.3324  1.4611  0.7216
 2556SOL    HW219305   3.204   1.968   2.086 -0.3567  0.4703  0.6528
 2557SOL     OW19306   4.509   3.943   6.224  0.2439 -0.3018 -0.0162
 2557SOL    HW119307   4.598   3.939   6.260  0.4726  0.5966 -0.4738
 2557SOL    HW219308   4.518   3.986   6.139 -2.4472  3.3733  1.5757
 2558SOL     OW19309   3.734   1.751  14.652  0.5652  0.1569  0.1627
 2558SOL    HW119310   3.793   1.825  14.668 -0.6696  0.8289  1.5619
 2558SOL    HW219311   3.760   1.701  14.729  4.5768  2.0708  0.0796
 2559SOL     OW19312   3.405   3.841   1.361  0.0025 -0.0800  0.0661
 2559SOL    HW119313   3.399   3.934   1.384  1.2590  0.1517 -0.5398
 2559SOL    HW219314   3.346   3.802   1.425 -0.0805 -0.3357 -0.1690
 2560SOL     OW19315   0.456   4.655  11.841  0.4504 -0.1431  0.1146
 2560SOL    HW119316   0.463   0.012  11.859 -1.3742  0.0835 -0.4326
 2560SOL    HW219317   0.363   4.640  11.827  0.7710 -0.4071 -1.8157
 2561SOL     OW19318   1.157   4.692  11.483 -0.2016  0.1688 -0.7398
 2561SOL    HW119319   1.154   4.645  11.400 -0.2629  0.5786 -0.9714
 2561SOL    HW219320   1.224   4.640  11.526  0.1611  0.5386 -0.8579
 2562SOL     OW19321   1.611   3.950   4.289  0.4913  0.0921 -0.0031
 2562SOL    HW119322   1.556   3.924   4.364 -0.2177 -1.3239 -1.0202
 2562SOL    HW219323   1.576   4.038   4.275 -1.0523 -0.5073  0.0356
 2563SOL     OW19324   1.436   1.466   2.840 -0.2600  0.3954  0.8155
 2563SOL    HW119325   1.465   1.515   2.764 -1.3883 -0.8310 -0.4194
 2563SOL    HW219326   1.391   1.390   2.802 -1.1007  1.0736  0.4670
 2564SOL     OW19327   2.255   1.374   7.098  0.1739 -0.3066 -0.1991
 2564SOL    HW119328   2.296   1.455   7.130 -1.3980  0.4897 -0.1945
 2564SOL    HW219329   2.263   1.395   7.005 -0.9841 -1.6788 -0.5973
 2565SOL     OW19330   0.335   0.565   0.298 -0.3542  0.3149  0.0231
 2565SOL    HW119331   0.408   0.547   0.240 -0.5641  1.5072 -0.6195
 2565SOL    HW219332   0.350   0.535   0.388 -0.4725 -0.9421 -0.3792
 2566SOL     OW19333   1.983   2.427   7.226  0.5232 -0.6568  0.4171
 2566SOL    HW119334   2.068   2.453   7.263  0.8838 -2.2684  0.7341
 2566SOL    HW219335   1.931   2.497   7.265  0.3855 -0.0711 -0.7897
 2567SOL     OW19336   3.107   0.905   6.308  0.2449 -0.1225  0.5296
 2567SOL    HW119337   3.061   0.852   6.373  2.4301 -1.2227  1.1764
 2567SOL    HW219338   3.115   0.838   6.240  0.4079  0.2579  0.1779
 2568SOL     OW19339   2.988   4.494   7.550  0.4024 -0.5320 -0.1413
 2568SOL    HW119340   3.049   4.484   7.623  1.8187  0.1160 -1.2211
 2568SOL    HW219341   3.043   4.525   7.478  1.4815  0.2438  1.0057
 2569SOL     OW19342   0.104   0.131   6.997 -0.5264 -0.6122 -0.5437
 2569SOL    HW119343   0.036   0.135   6.929 -0.6784 -1.0119 -0.4122
 2569SOL    HW219344   0.144   0.218   6.990 -3.3709  0.7822  0.3744
 2570SOL     OW19345   0.990   1.130   7.794 -0.0124 -0.2104  0.3559
 2570SOL    HW119346   0.982   1.035   7.804 -0.1151 -0.2288  0.0829
 2570SOL    HW219347   1.075   1.139   7.837  1.2578 -0.5070 -2.0882
 2571SOL     OW19348   4.430   3.512   7.829  0.3550  0.0561  0.6114
 2571SOL    HW119349   4.513   3.509   7.876  0.9910 -1.8763 -0.5810
 2571SOL    HW219350   4.447   3.463   7.748  2.9000 -0.7465  1.6307
 2572SOL     OW19351   0.846   3.000   5.831 -0.6147  0.1839  0.2500
 2572SOL    HW119352   0.853   2.909   5.860  1.6301  0.3738  0.2583
 2572SOL    HW219353   0.866   3.037   5.917 -0.3689 -1.6648  0.9669
 2573SOL     OW19354   3.504   0.790  10.452 -0.5730  0.4371 -0.6990
 2573SOL    HW119355   3.508   0.720  10.517  1.8521  1.6424  0.4569
 2573SOL    HW219356   3.425   0.834  10.483 -1.0885 -0.4216 -0.8043
 2574SOL     OW19357   4.182   2.430  13.082  0.3758 -0.3710 -0.2015
 2574SOL    HW119358   4.266   2.415  13.038  0.0993 -1.0868 -0.4811
 2574SOL    HW219359   4.213   2.387  13.161  0.2212 -2.4422 -1.2701
 2575SOL     OW19360   2.289   1.529  16.973  0.3845  0.2543 -0.0534
 2575SOL    HW119361   2.374   1.560  16.942 -0.1362  0.5748 -1.1546
 2575SOL    HW219362   2.259   1.599  17.031  1.0332 -0.3276  0.9957
 2576SOL     OW19363   4.453   1.041  10.491  0.0134  0.7079 -0.1080
 2576SOL    HW119364   4.386   0.978  10.516 -0.0644  1.6250  1.9434
 2576SOL    HW219365   4.498   1.049  10.575  0.5267  2.6406 -0.5836
 2577SOL     OW19366   2.861   2.860   5.542 -0.0742 -0.6109 -0.3429
 2577SOL    HW119367   2.845   2.863   5.636  0.3678 -0.9604 -0.2591
 2577SOL    HW219368   2.775   2.836   5.507 -0.0656  1.2718 -1.6881
 2578SOL     OW19369   0.075   1.859   5.925  0.3148 -0.1496 -0.1814
 2578SOL    HW119370   0.086   1.882   5.833  3.0515  1.0405  0.4403
 2578SOL    HW219371   0.105   1.943   5.961 -0.8389 -0.0461  0.5494
 2579SOL     OW19372   3.536   3.722   9.869  0.7471  0.0946  0.3520
 2579SOL    HW119373   3.526   3.780   9.793 -0.0504  1.8009  1.7615
 2579SOL    HW219374   3.475   3.653   9.841  1.1251  0.2793 -0.9297
 2580SOL     OW19375   0.055   2.890   7.165  0.1447  0.0960  0.1901
 2580SOL    HW119376   0.081   2.862   7.078  1.5221 -1.1693  1.0094
 2580SOL    HW219377   0.079   2.983   7.159 -1.2372  0.3990 -0.6074
 2581SOL     OW19378   4.653   2.564  12.626  0.5949 -0.3899 -0.7750
 2581SOL    HW119379   4.670   2.505  12.552 -0.6215 -1.6918  0.0004
 2581SOL    HW219380   4.735   2.612  12.640 -0.0372  0.6020 -0.4934
 2582SOL     OW19381   4.145   3.165   9.013  0.2278 -0.2820  0.0037
 2582SOL    HW119382   4.069   3.186   8.959  0.2877  2.4538  1.0277
 2582SOL    HW219383   4.214   3.154   8.947 -2.0939 -1.6603 -2.2333
 2583SOL     OW19384   0.750   2.359  17.041 -0.0399 -0.4005 -0.1118
 2583SOL    HW119385   0.770   2.267  17.020 -1.7674 -0.4919 -1.4030
 2583SOL    HW219386   0.813   2.412  16.991 -0.2765 -2.7307 -2.9318
 2584SOL     OW19387   2.953   2.315   2.363 -0.2195  0.7601 -0.0261
 2584SOL    HW119388   3.046   2.291   2.371  0.1210  2.0397 -0.2226
 2584SOL    HW219389   2.976   2.397   2.320 -0.8072  0.7766 -0.3096
 2585SOL     OW19390   4.705   3.185   7.629  0.2030 -0.1874 -0.4271
 2585SOL    HW119391   4.653   3.107   7.613  0.5475 -0.6456  0.6975
 2585SOL    HW219392   0.006   3.168   7.715 -2.4810  1.1686  0.9896
 2586SOL     OW19393   0.905   3.036   3.782  0.3315  0.2944 -0.0409
 2586SOL    HW119394   0.962   3.027   3.858 -0.9449  1.1718  1.0249
 2586SOL    HW219395   0.962   3.063   3.710  0.3710 -1.8541 -0.8008
 2587SOL     OW19396   3.201   1.940   5.483 -0.3336  0.5391  0.8603
 2587SOL    HW119397   3.266   1.997   5.441  1.6483 -2.6087 -0.3615
 2587SOL    HW219398   3.161   2.003   5.543  2.3095  1.8977  1.1655
 2588SOL     OW19399   4.212   2.138   6.539 -0.0393 -0.4484 -0.1005
 2588SOL    HW119400   4.237   2.071   6.603  0.4306  1.5924  1.8257
 2588SOL    HW219401   4.199   2.082   6.462 -0.3306 -0.1089 -0.2968
 2589SOL     OW19402   3.901   0.904   2.966 -0.0078  0.8035 -0.6416
 2589SOL    HW119403   3.899   0.955   3.047  1.8832 -0.0384 -0.0643
 2589SOL    HW219404   3.819   0.856   2.979  1.7272 -2.2617 -1.1053
 2590SOL     OW19405   0.762   3.907   1.841  0.3583  0.5786  0.4040
 2590SOL    HW119406   0.845   3.860   1.840 -0.3035 -0.5742  0.3211
 2590SOL    HW219407   0.770   3.974   1.772  0.3450  0.0616 -0.0966
 2591SOL     OW19408   1.046   3.339   3.775 -0.4627  0.4410  0.2523
 2591SOL    HW119409   1.033   3.368   3.685  0.9854 -2.3780 -0.8641
 2591SOL    HW219410   1.130   3.295   3.780 -0.3776  0.6011  0.2308
 2592SOL     OW19411   0.410   3.406   4.896 -0.3826 -0.0406  0.0785
 2592SOL    HW119412   0.441   3.493   4.870 -0.1295  0.1629  1.0727
 2592SOL    HW219413   0.348   3.432   4.964 -1.0043 -1.3198 -0.0136
 2593SOL     OW19414   0.812   1.805   0.806  0.9812 -0.3915  0.3050
 2593SOL    HW119415   0.798   1.898   0.819  1.2616 -0.1381 -1.2645
 2593SOL    HW219416   0.861   1.795   0.888 -1.0750 -1.9120  1.3437
 2594SOL     OW19417   1.734   0.051   8.710  0.4674 -0.2707 -0.1517
 2594SOL    HW119418   1.800   0.032   8.778  0.3531 -0.5281 -0.1130
 2594SOL    HW219419   1.731   0.146   8.719 -0.4283 -0.3086 -0.0358
 2595SOL     OW19420   4.508   0.772   7.264  0.0955 -0.0961 -0.3997
 2595SOL    HW119421   4.603   0.767   7.255  0.3239 -1.1713  2.7222
 2595SOL    HW219422   4.482   0.855   7.303  1.2680 -0.0149  0.2191
 2596SOL     OW19423   1.087   1.605   1.663  0.3062  0.4421  0.2383
 2596SOL    HW119424   1.000   1.579   1.631  1.5813 -1.8572 -1.3438
 2596SOL    HW219425   1.064   1.686   1.708  2.6216  0.7605  0.8425
 2597SOL     OW19426   3.755   4.313   3.474 -0.0332 -0.4809  0.0500
 2597SOL    HW119427   3.778   4.345   3.387  0.3363 -1.7808 -0.3346
 2597SOL    HW219428   3.829   4.269   3.516  0.6334  0.1644 -0.4593
 2598SOL     OW19429   2.216   3.080   7.451  0.5057 -0.1105  0.0268
 2598SOL    HW119430   2.192   3.156   7.399 -0.4321 -0.3216  0.1549
 2598SOL    HW219431   2.279   3.121   7.511  0.0114 -1.1977  1.2939
 2599SOL     OW19432   1.657   0.602  17.108 -0.0324 -0.2904 -0.1486
 2599SOL    HW119433   1.620   0.690  17.100 -0.8805 -0.6541 -0.1809
 2599SOL    HW219434   1.585   0.542  17.124 -0.4980  0.5371  0.8612
 2600SOL     OW19435   4.567   3.275   3.673 -0.2218  0.1272  0.1128
 2600SOL    HW119436   4.604   3.195   3.634  0.8893 -0.6977  2.8312
 2600SOL    HW219437   4.475   3.255   3.658  0.0686  0.3850 -1.9428
 2601SOL     OW19438   0.795   3.527  11.692 -0.3729  0.4894  0.3967
 2601SOL    HW119439   0.809   3.451  11.748 -1.4463 -0.4732 -0.6644
 2601SOL    HW219440   0.862   3.511  11.625  0.2728 -1.0721  1.4102
 2602SOL     OW19441   3.434   1.383   9.904 -0.6403  0.0715  0.3733
 2602SOL    HW119442   3.446   1.289   9.914  0.8745  0.4005  1.7471
 2602SOL    HW219443   3.449   1.377   9.810  1.7228 -0.9329  0.8153
 2603SOL     OW19444   0.737   0.473   1.585 -0.1537  0.0673 -0.2907
 2603SOL    HW119445   0.747   0.551   1.530  2.0235 -0.1653 -0.1983
 2603SOL    HW219446   0.687   0.507   1.659 -1.0334 -1.0226 -0.3763
 2604SOL     OW19447   3.908   2.490   3.787 -0.4560  0.0232 -0.0258
 2604SOL    HW119448   3.925   2.566   3.732 -0.6652 -0.2202 -0.4245
 2604SOL    HW219449   3.937   2.425   3.723  0.3892 -0.5408  0.9285
 2605SOL     OW19450   0.115   3.544  13.695  0.4992  0.4267 -0.1462
 2605SOL    HW119451   0.130   3.582  13.782 -0.2862  2.8991 -1.1008
 2605SOL    HW219452   0.080   3.457  13.715 -2.0536  1.1743 -1.3959
 2606SOL     OW19453   1.468   0.084   9.584 -0.2918  0.2655  0.3598
 2606SOL    HW119454   1.528   0.023   9.628 -0.9676  1.1549  2.5286
 2606SOL    HW219455   1.527   0.109   9.513 -1.8328  2.8757  0.0283
 2607SOL     OW19456   4.198   0.422  12.921  0.1677 -0.4452 -0.0875
 2607SOL    HW119457   4.194   0.330  12.894 -0.3524 -1.1932  2.4784
 2607SOL    HW219458   4.262   0.423  12.993 -0.3875  0.3642  0.3864
 2608SOL     OW19459   1.428   1.032   2.621  0.3034 -0.0265  0.3685
 2608SOL    HW119460   1.445   1.009   2.712  1.3769  1.9317  0.6659
 2608SOL    HW219461   1.378   0.955   2.594 -0.9967  1.0519 -0.2885
 2609SOL     OW19462   4.183   1.193   3.657  0.0220  0.1445 -0.5016
 2609SOL    HW119463   4.256   1.168   3.713 -0.6165 -0.6878 -0.0549
 2609SOL    HW219464   4.114   1.131   3.681  1.6965 -1.3167  0.4905
 2610SOL     OW19465   2.141   0.677   4.973 -0.3287 -0.3101  0.4590
 2610SOL    HW119466   2.216   0.670   4.914 -1.3467  0.8275 -0.9973
 2610SOL    HW219467   2.087   0.727   4.911  0.7517 -1.2607 -1.2548
 2611SOL     OW19468   2.662   3.080   7.983  0.0397 -0.5028 -0.4984
 2611SOL    HW119469   2.716   3.152   7.952 -0.7318  0.0601 -0.5285
 2611SOL    HW219470   2.685   3.007   7.926 -1.8216 -1.7679  0.3795
 2612SOL     OW19471   2.180   4.565   1.929 -0.2343  0.0839  0.5234
 2612SOL    HW119472   2.204   4.519   2.010  2.5879  0.0560 -0.3440
 2612SOL    HW219473   2.117   4.506   1.887 -0.1886  0.7873 -0.5045
 2613SOL     OW19474   1.380   3.988   2.308  0.3870 -0.2383 -0.5900
 2613SOL    HW119475   1.387   3.974   2.402 -1.7676 -0.3731 -0.4405
 2613SOL    HW219476   1.394   3.898   2.277 -1.4045 -0.6484 -0.1958
 2614SOL     OW19477   2.763   3.223   3.637 -0.7188 -0.2015  0.1097
 2614SOL    HW119478   2.781   3.230   3.543 -0.2562  1.6389  0.3427
 2614SOL    HW219479   2.842   3.183   3.673  1.1595 -0.0957 -3.8767
 2615SOL     OW19480   2.246   0.109   3.916 -0.0026  0.1284  0.4926
 2615SOL    HW119481   2.297   0.160   3.979  0.5738  0.5193 -0.3042
 2615SOL    HW219482   2.309   0.082   3.850 -0.2290 -0.3165  0.4519
 2616SOL     OW19483   2.289   2.823   7.393  0.1251  0.1703 -0.0891
 2616SOL    HW119484   2.242   2.897   7.432 -1.7542 -1.5665  0.9442
 2616SOL    HW219485   2.349   2.795   7.462  1.9458 -1.2174 -2.2647
 2617SOL     OW19486   0.320   4.479  16.641 -0.4512  0.7293 -0.8961
 2617SOL    HW119487   0.383   4.409  16.627 -1.7921 -0.3729 -1.3957
 2617SOL    HW219488   0.341   4.546  16.577  0.9298  3.5583  2.5094
 2618SOL     OW19489   4.680   2.164  14.816  0.2591 -1.1880 -0.1802
 2618SOL    HW119490   0.023   2.196  14.774 -0.3771  0.2523 -0.3069
 2618SOL    HW219491   4.670   2.092  14.754 -3.6396 -1.0787  0.3150
 2619SOL     OW19492   3.551   4.419   7.008 -0.2604  0.2123  0.2350
 2619SOL    HW119493   3.489   4.435   6.937  0.7738 -0.1757 -0.7536
 2619SOL    HW219494   3.627   4.448   6.957  1.5478 -4.2700  0.3966
 2620SOL     OW19495   1.925   1.169  17.048  0.1483  0.6283 -0.4370
 2620SOL    HW119496   1.918   1.122  17.131  1.8802  2.0454  0.5231
 2620SOL    HW219497   2.010   1.210  17.065  0.4860 -1.0560  2.0057
 2621SOL     OW19498   2.500   3.406   8.736 -0.2227 -0.0499 -0.2208
 2621SOL    HW119499   2.568   3.402   8.668 -0.5408  0.1218 -0.5481
 2621SOL    HW219500   2.485   3.499   8.753 -0.7208 -0.0871 -0.4647
 2622SOL     OW19501   2.116   4.291  17.488 -0.0124 -0.0763 -0.0624
 2622SOL    HW119502   2.169   4.323  17.415  3.1203  3.0466  3.5887
 2622SOL    HW219503   2.144   4.200  17.498  2.8929  0.6502 -1.4695
 2623SOL     OW19504   3.068   2.942   5.399 -0.1906 -0.1949 -0.3828
 2623SOL    HW119505   3.110   2.993   5.467 -0.0051 -0.3506 -0.3804
 2623SOL    HW219506   2.984   2.923   5.441 -0.0048 -1.0355 -0.3732
 2624SOL     OW19507   4.289   2.377   7.066 -0.1100 -0.3620 -0.0803
 2624SOL    HW119508   4.280   2.469   7.040 -0.2965 -0.0027  1.2417
 2624SOL    HW219509   4.366   2.378   7.124 -2.0388 -1.6957  2.4814
 2625SOL     OW19510   2.754   2.319   0.594  0.2338  0.3646 -0.1599
 2625SOL    HW119511   2.824   2.286   0.650 -0.7989 -0.9604  0.3522
 2625SOL    HW219512   2.714   2.383   0.652  1.0313  0.9594 -0.2772
 2626SOL     OW19513   1.411   2.380  15.613 -0.6542 -0.1454  0.2912
 2626SOL    HW119514   1.411   2.473  15.592  0.9057 -0.0961  0.5684
 2626SOL    HW219515   1.337   2.384  15.674 -0.0373 -0.4579  1.0537
 2627SOL     OW19516   0.515   2.391   1.395 -0.3026 -0.4057 -0.8094
 2627SOL    HW119517   0.473   2.473   1.422  0.8261  0.1924 -0.9040
 2627SOL    HW219518   0.452   2.337   1.444  1.2126 -1.0566  0.4092
 2628SOL     OW19519   0.961   3.004  11.876  0.2026  0.2281 -0.1437
 2628SOL    HW119520   0.984   3.049  11.795  0.3777 -0.7483 -0.6287
 2628SOL    HW219521   1.012   2.924  11.865  1.0491  0.6584  0.5282
 2629SOL     OW19522   1.165   1.980  12.476 -0.2680  0.1092  0.4489
 2629SOL    HW119523   1.237   2.035  12.507  1.9042 -1.3168 -2.0771
 2629SOL    HW219524   1.109   1.987  12.554 -0.0929 -0.5807  0.6348
 2630SOL     OW19525   3.504   3.811   1.085 -0.3702 -0.1800 -0.0782
 2630SOL    HW119526   3.436   3.876   1.067 -0.0407  1.2329  3.8835
 2630SOL    HW219527   3.488   3.786   1.176 -1.5610  0.4537 -0.1138
 2631SOL     OW19528   2.337   1.460   2.089  0.6063  0.2037  0.4790
 2631SOL    HW119529   2.361   1.500   2.005  2.6913  1.5835  1.7348
 2631SOL    HW219530   2.392   1.382   2.076 -0.1730 -0.5158  1.5549
 2632SOL     OW19531   3.406   1.426   5.747  0.0685  0.1304 -0.0485
 2632SOL    HW119532   3.317   1.413   5.713  0.7009 -0.4866 -1.4560
 2632SOL    HW219533   3.391   1.417   5.841 -0.2066  2.2089  0.1091
 2633SOL     OW19534   0.890   1.456   4.189 -0.3444  0.2362  0.3563
 2633SOL    HW119535   0.888   1.360   4.195  1.4996  0.2309  0.8414
 2633SOL    HW219536   0.983   1.476   4.197 -0.2297  0.3617 -1.2813
 2634SOL     OW19537   0.922   4.723  11.259 -0.0888  0.3346 -0.2145
 2634SOL    HW119538   1.011   0.013  11.236  0.0100  0.0508 -0.1579
 2634SOL    HW219539   0.929   4.631  11.232  0.0874  0.0648  0.7543
 2635SOL     OW19540   4.171   4.584   7.625 -0.2496 -0.1385 -0.1841
 2635SOL    HW119541   4.240   4.578   7.559  0.0106  0.2575  0.0503
 2635SOL    HW219542   4.198   4.643   7.696 -1.5279  1.8594 -1.3469
 2636SOL     OW19543   1.827   3.756  11.438 -0.4706 -0.2531 -0.2219
 2636SOL    HW119544   1.832   3.679  11.380  0.1143  1.5901 -2.6181
 2636SOL    HW219545   1.811   3.818  11.367  3.2024  1.3289  0.3355
 2637SOL     OW19546   0.960   1.374  15.807 -0.0582 -0.0997 -0.2264
 2637SOL    HW119547   0.867   1.371  15.784  0.1444  1.2697 -1.2459
 2637SOL    HW219548   0.972   1.466  15.783  0.3864  0.2340  1.2434
 2638SOL     OW19549   3.386   3.876   9.131 -0.0036 -0.5088 -0.6982
 2638SOL    HW119550   3.455   3.831   9.180 -0.4274  1.7383  1.9627
 2638SOL    HW219551   3.331   3.899   9.206  0.2304  0.7801 -0.9183
 2639SOL     OW19552   0.522   3.483   2.496  0.4397 -0.1574 -0.0164
 2639SOL    HW119553   0.485   3.401   2.527 -1.3440  0.6631  0.0496
 2639SOL    HW219554   0.461   3.502   2.424  0.2519  1.1703  0.4793
 2640SOL     OW19555   1.366   1.014   1.886  0.5104  0.1988  0.6891
 2640SOL    HW119556   1.447   0.963   1.898 -0.4183 -1.6734 -1.1859
 2640SOL    HW219557   1.308   0.939   1.874  0.5347  0.0903  1.2275
 2641SOL     OW19558   3.001   4.228   4.958 -0.1269 -0.3275  0.4496
 2641SOL    HW119559   3.090   4.229   4.993  0.5020 -0.7299 -1.1407
 2641SOL    HW219560   2.987   4.309   4.910  0.6238  0.7958  2.0983
 2642SOL     OW19561   4.549   2.800   6.766 -0.1745 -0.2014 -0.0556
 2642SOL    HW119562   4.625   2.747   6.742 -1.9811 -2.6582 -0.4447
 2642SOL    HW219563   4.485   2.729   6.775 -1.9851  1.3973 -0.3656
 2643SOL     OW19564   2.837   0.393   6.025  0.2081  0.1714  0.1914
 2643SOL    HW119565   2.882   0.407   5.942 -0.4204  0.2672 -0.1308
 2643SOL    HW219566   2.749   0.426   6.007 -0.5917 -1.1874  1.5861
 2644SOL     OW19567   3.841   4.327   7.899 -0.4188 -0.0279  0.4929
 2644SOL    HW119568   3.851   4.270   7.975 -4.4919 -0.6652  0.5559
 2644SOL    HW219569   3.770   4.285   7.851 -0.8156  0.2361  0.8468
 2645SOL     OW19570   2.605   0.823  11.886  0.3495  0.3622  0.4258
 2645SOL    HW119571   2.635   0.894  11.944 -0.4215  0.0486  1.2050
 2645SOL    HW219572   2.619   0.747  11.942  1.8799 -0.4529 -1.0507
 2646SOL     OW19573   1.063   2.661   4.913 -0.4346 -0.0487 -0.2926
 2646SOL    HW119574   0.970   2.664   4.893 -0.4026 -0.5134 -0.5153
 2646SOL    HW219575   1.089   2.590   4.854 -2.7530 -0.6788 -0.5528
 2647SOL     OW19576   0.386   2.348   9.491 -0.3121  0.1242  0.0040
 2647SOL    HW119577   0.408   2.276   9.549 -0.8674  0.4923  0.6817
 2647SOL    HW219578   0.435   2.322   9.413 -1.3719  1.1942 -1.0209
 2648SOL     OW19579   1.732   2.321  14.753  0.1902 -0.4955  0.7667
 2648SOL    HW119580   1.742   2.386  14.684 -1.2304 -0.6699  0.4000
 2648SOL    HW219581   1.711   2.246  14.697 -0.1616 -0.4206  0.7986
 2649SOL     OW19582   4.379   0.707  12.051 -0.0451  0.7329  0.0591
 2649SOL    HW119583   4.429   0.666  11.981  0.8464  0.0300  1.0904
 2649SOL    HW219584   4.290   0.719  12.017 -0.2944 -0.1741  0.3784
 2650SOL     OW19585   0.298   3.287   2.327  0.2286 -0.0253  0.1700
 2650SOL    HW119586   0.366   3.285   2.260  0.4431  2.2661  0.3183
 2650SOL    HW219587   0.239   3.215   2.303 -0.9239  0.6121  1.1224
 2651SOL     OW19588   4.400   1.424   2.874 -0.5307 -0.2358  0.1775
 2651SOL    HW119589   4.335   1.470   2.821  0.2573 -1.8283 -2.1452
 2651SOL    HW219590   4.363   1.438   2.962  1.8739  0.8350  1.0173
 2652SOL     OW19591   0.651   4.723   7.594  0.3636  0.2430 -0.5413
 2652SOL    HW119592   0.669   4.683   7.679  0.0206  0.2057 -0.4884
 2652SOL    HW219593   0.628   4.649   7.537 -1.0310  1.3779 -1.4334
 2653SOL     OW19594   1.347   3.276   7.694  0.1369 -0.2285  0.3230
 2653SOL    HW119595   1.289   3.203   7.672 -0.6160  0.2324  0.8093
 2653SOL    HW219596   1.402   3.229   7.757  2.8189  1.2317 -0.9456
 2654SOL     OW19597   3.396   1.071   3.599 -0.0861  0.4651  0.3873
 2654SOL    HW119598   3.331   1.131   3.564  0.4584  1.3031  0.8246
 2654SOL    HW219599   3.365   0.998   3.545 -0.0263  0.3014  0.5759
 2655SOL     OW19600   4.227   1.922  14.438  0.4489 -0.1855  0.3370
 2655SOL    HW119601   4.229   2.017  14.449  2.1831 -0.1042 -0.8143
 2655SOL    HW219602   4.143   1.916  14.392 -1.0544  1.3932  2.8501
 2656SOL     OW19603   0.479   0.394   7.047  0.3705  0.2927 -0.6200
 2656SOL    HW119604   0.389   0.372   7.025  1.4219 -0.9752 -3.7016
 2656SOL    HW219605   0.493   0.329   7.116  1.7596 -0.2245 -1.3936
 2657SOL     OW19606   0.535   0.836   5.560  0.1900 -0.5159 -0.3132
 2657SOL    HW119607   0.578   0.901   5.615 -1.9590  0.4193  0.2688
 2657SOL    HW219608   0.585   0.759   5.588  1.1233  0.4697  0.6834
 2658SOL     OW19609   3.714   4.049   7.462 -0.3679  0.2518  0.0409
 2658SOL    HW119610   3.647   3.993   7.422  0.6703 -1.8663  1.2477
 2658SOL    HW219611   3.786   4.025   7.403 -0.6749 -0.2900 -0.1123
 2659SOL     OW19612   1.428   0.334   6.564  0.8475 -0.3595 -0.5977
 2659SOL    HW119613   1.343   0.327   6.609  1.6233 -1.5638  0.6827
 2659SOL    HW219614   1.396   0.369   6.481 -1.9032  0.7849  0.9389
 2660SOL     OW19615   2.020   0.372   5.837 -0.1519  0.4540  0.1347
 2660SOL    HW119616   2.068   0.314   5.777 -0.3277 -1.0226  1.4016
 2660SOL    HW219617   1.932   0.338   5.820 -0.7127  2.9639 -1.9703
 2661SOL     OW19618   3.121   0.812   3.692 -0.3677 -0.4738 -0.8117
 2661SOL    HW119619   3.100   0.891   3.741 -0.3290 -0.8962 -0.1127
 2661SOL    HW219620   3.114   0.847   3.603 -1.4295  0.1426 -0.4777
 2662SOL     OW19621   0.146   3.269   5.364  0.2350  0.2680  0.8836
 2662SOL    HW119622   0.119   3.360   5.360 -1.5983 -0.3643 -1.5521
 2662SOL    HW219623   0.065   3.226   5.335  0.7154  0.3505 -0.6179
 2663SOL     OW19624   0.351   2.922   7.050  0.1158  0.0561  0.0803
 2663SOL    HW119625   0.296   2.860   7.001  0.3330  0.2489 -0.4061
 2663SOL    HW219626   0.440   2.897   7.025 -0.4040 -1.6391 -0.1259
 2664SOL     OW19627   3.859   2.050  11.021 -0.6716 -0.2408 -0.0824
 2664SOL    HW119628   3.879   2.003  10.939  1.6176 -0.8007  0.7901
 2664SOL    HW219629   3.937   2.024  11.070 -0.6259 -0.1946 -0.1313
 2665SOL     OW19630   0.799   2.530  14.761 -0.3974 -0.5227 -0.0538
 2665SOL    HW119631   0.709   2.517  14.731  0.1234 -1.5604 -1.1825
 2665SOL    HW219632   0.841   2.478  14.693  1.2793  0.8806 -0.1022
 2666SOL     OW19633   3.198   3.924   0.156 -0.1710 -0.0635  0.9091
 2666SOL    HW119634   3.290   3.950   0.166 -0.0368 -0.0034 -0.5005
 2666SOL    HW219635   3.179   3.931   0.250  0.3605  3.8360  0.7243
 2667SOL     OW19636   1.156   1.518   6.090  0.6942 -0.2071 -0.0227
 2667SOL    HW119637   1.117   1.570   6.161 -1.8349 -1.8064 -0.2358
 2667SOL    HW219638   1.078   1.502   6.037  0.1159  0.2816  0.6754
 2668SOL     OW19639   0.908   3.523   8.723 -0.0913 -0.4516  0.6140
 2668SOL    HW119640   0.919   3.608   8.765 -2.3950  0.9738 -1.6760
 2668SOL    HW219641   0.814   3.506   8.719  0.2544 -1.5800 -3.0090
 2669SOL     OW19642   1.270   3.968   6.257  0.1758  0.1790 -0.0925
 2669SOL    HW119643   1.266   3.876   6.230 -1.4241  0.1243  0.3358
 2669SOL    HW219644   1.316   3.967   6.341 -2.1114 -0.1491  1.1505
 2670SOL     OW19645   1.540   1.687   3.048 -0.0872 -0.2324  0.1450
 2670SOL    HW119646   1.551   1.615   2.986  1.5340  0.2863 -0.1859
 2670SOL    HW219647   1.572   1.756   2.990 -0.8326 -0.1388 -0.1613
 2671SOL     OW19648   4.006   0.141  15.247 -0.5662  0.0898  0.1682
 2671SOL    HW119649   4.096   0.140  15.212 -0.6221 -2.2134  0.1261
 2671SOL    HW219650   3.982   0.172  15.160  1.4484  1.4245  0.0914
 2672SOL     OW19651   4.575   2.668   3.501 -0.5620  0.0245 -0.0509
 2672SOL    HW119652   4.513   2.738   3.523 -1.2200 -0.9883  1.2517
 2672SOL    HW219653   4.641   2.715   3.450 -0.0374  0.6475  1.2031
 2673SOL     OW19654   4.076   1.816  11.185 -0.0885  0.5309 -0.9775
 2673SOL    HW119655   4.020   1.761  11.239 -1.8639  2.1824 -1.1459
 2673SOL    HW219656   4.074   1.903  11.225 -5.5132  0.7962 -1.8273
 2674SOL     OW19657   2.075   1.594   4.770  0.5684  0.1335 -0.0814
 2674SOL    HW119658   1.987   1.573   4.800  0.5197 -1.6114 -1.4712
 2674SOL    HW219659   2.077   1.688   4.787  1.2527 -0.1772  1.6037
 2675SOL     OW19660   4.398   2.791   1.077  0.3861 -0.2149 -0.4447
 2675SOL    HW119661   4.492   2.785   1.059  0.7853  3.3011  0.4681
 2675SOL    HW219662   4.385   2.709   1.125 -0.4912 -0.3187 -0.8507
 2676SOL     OW19663   4.264   3.750  11.493 -0.4977 -0.3074  0.2074
 2676SOL    HW119664   4.348   3.755  11.447 -0.8281  0.5383 -0.3085
 2676SOL    HW219665   4.200   3.777  11.427  2.5246  2.9018 -1.4803
 2677SOL     OW19666   1.367   0.925   8.633 -0.1300  0.2806 -0.3000
 2677SOL    HW119667   1.438   0.987   8.648  1.1742 -1.7953  2.1375
 2677SOL    HW219668   1.404   0.839   8.656 -0.1655  0.8357  1.8387
 2678SOL     OW19669   3.538   3.707   2.262  0.0315 -0.1141  0.3230
 2678SOL    HW119670   3.566   3.638   2.202 -0.5973  0.1576 -0.2773
 2678SOL    HW219671   3.502   3.773   2.204  2.8425  0.4916 -0.7606
 2679SOL     OW19672   0.583   1.414   9.514 -0.0240 -0.3271  0.0278
 2679SOL    HW119673   0.553   1.339   9.567 -0.4193 -0.5108 -0.4522
 2679SOL    HW219674   0.552   1.386   9.428 -1.4021 -1.1650  0.7810
 2680SOL     OW19675   1.605   2.488   3.540 -0.2789  0.4613 -0.7753
 2680SOL    HW119676   1.514   2.461   3.550 -0.2430  1.1480  1.5210
 2680SOL    HW219677   1.647   2.419   3.592  0.3827  3.2236  2.3718
 2681SOL     OW19678   2.074   2.005   4.241  0.1623  0.0005  0.1153
 2681SOL    HW119679   2.019   2.057   4.299 -2.4329 -0.2498 -2.1182
 2681SOL    HW219680   2.072   2.065   4.166  1.7256 -0.8539 -0.6109
 2682SOL     OW19681   4.008   2.555   3.162 -0.2046 -0.0727  0.1743
 2682SOL    HW119682   4.084   2.581   3.214 -1.2209  2.2332  0.4616
 2682SOL    HW219683   4.023   2.460   3.156  0.3694  0.1023 -1.3070
 2683SOL     OW19684   3.330   3.533   2.883  0.2186 -0.0587 -0.3469
 2683SOL    HW119685   3.411   3.570   2.848 -0.1207  1.3726  0.3980
 2683SOL    HW219686   3.352   3.440   2.893 -1.6280 -0.4243  0.4778
 2684SOL     OW19687   3.146   0.761   5.534  0.0210 -0.1261  0.1131
 2684SOL    HW119688   3.234   0.777   5.500  0.6116  0.0668  1.7472
 2684SOL    HW219689   3.104   0.828   5.479 -0.7607  0.9047  1.9857
 2685SOL     OW19690   0.465   2.875   4.123 -0.7734 -0.8118  0.1658
 2685SOL    HW119691   0.483   2.969   4.128  1.5728 -1.3623  2.1005
 2685SOL    HW219692   0.375   2.860   4.153 -1.1962  1.3310 -0.0109
 2686SOL     OW19693   1.389   1.002   5.557  0.6975 -0.3142 -0.0628
 2686SOL    HW119694   1.304   1.039   5.580  0.3285 -1.0357 -0.2503
 2686SOL    HW219695   1.415   1.065   5.491 -0.0438  0.3182  0.2479
 2687SOL     OW19696   1.870   3.343   1.120 -0.4860 -0.3165  0.1470
 2687SOL    HW119697   1.898   3.378   1.204 -1.3648  0.9642 -0.0960
 2687SOL    HW219698   1.782   3.311   1.140 -1.2568  1.4716 -0.3928
 2688SOL     OW19699   1.716   3.099   8.558 -0.3388  0.1021 -0.1847
 2688SOL    HW119700   1.646   3.072   8.498  0.3120 -0.7228 -0.5813
 2688SOL    HW219701   1.682   3.052   8.634  0.1938 -0.8340 -0.5229
 2689SOL     OW19702   3.840   3.019   8.385  1.2073 -0.0067 -0.5195
 2689SOL    HW119703   3.829   3.114   8.386  0.3059 -0.1021 -1.2277
 2689SOL    HW219704   3.753   2.982   8.403  2.1466 -1.7050  0.6140
 2690SOL     OW19705   2.559   0.764  15.534  0.8004 -0.1171 -0.3568
 2690SOL    HW119706   2.598   0.749  15.620 -1.3885  0.9626  0.8086
 2690SOL    HW219707   2.469   0.791  15.549  0.7993  0.0809 -0.7142
 2691SOL     OW19708   2.387   3.673   5.532  0.3908 -0.0115 -0.7048
 2691SOL    HW119709   2.456   3.615   5.500  0.2756  0.1775 -1.3009
 2691SOL    HW219710   2.428   3.705   5.612  0.3854  0.6696 -0.9717
 2692SOL     OW19711   2.151   0.714   5.612 -0.4289 -0.1868 -0.5069
 2692SOL    HW119712   2.137   0.680   5.700  0.6967 -0.8205 -0.5752
 2692SOL    HW219713   2.173   0.633   5.566 -0.6728  0.0752 -1.0861
 2693SOL     OW19714   3.169   3.827   2.579  0.6144 -0.2835 -0.1293
 2693SOL    HW119715   3.095   3.888   2.577  1.6530  1.0307  1.3228
 2693SOL    HW219716   3.223   3.869   2.646  2.2949 -0.6163 -1.2547
 2694SOL     OW19717   1.921   0.450  15.105  0.2195 -0.2782  0.1906
 2694SOL    HW119718   1.874   0.380  15.151  1.6866 -2.1910 -1.1807
 2694SOL    HW219719   1.850   0.490  15.055 -1.1221 -0.5518  1.8830
 2695SOL     OW19720   0.184   1.852   7.194  0.1624 -0.8666 -0.7082
 2695SOL    HW119721   0.274   1.821   7.201  0.7189  1.0983  0.8322
 2695SOL    HW219722   0.179   1.868   7.099  0.0322  1.4105 -0.3154
 2696SOL     OW19723   0.473   0.242   1.916  0.4662 -0.0519  0.0291
 2696SOL    HW119724   0.491   0.279   1.830 -1.9206 -2.7565 -1.6144
 2696SOL    HW219725   0.389   0.201   1.894  0.7813  0.3891 -1.9989
 2697SOL     OW19726   2.170   3.029   9.169  0.2739 -0.5263  0.2876
 2697SOL    HW119727   2.097   3.081   9.135  0.4408 -1.8225 -2.0615
 2697SOL    HW219728   2.135   2.941   9.180  0.3885 -0.8250 -1.6726
 2698SOL     OW19729   0.626   3.026   9.754  0.0741 -0.7973  0.1922
 2698SOL    HW119730   0.671   3.110   9.744 -0.2675 -0.7034 -0.4976
 2698SOL    HW219731   0.562   3.040   9.824 -1.1819 -1.0199 -0.9124
 2699SOL     OW19732   0.643   4.116   3.209  0.3248  0.7579 -0.0804
 2699SOL    HW119733   0.597   4.121   3.292  0.0252 -2.7591 -0.0328
 2699SOL    HW219734   0.640   4.207   3.179 -2.3798  1.0520  1.1019
 2700SOL     OW19735   2.690   3.115  16.087  0.6875  0.4519 -0.0365
 2700SOL    HW119736   2.754   3.137  16.018  1.1156  1.5688  0.7053
 2700SOL    HW219737   2.619   3.176  16.066 -0.6017 -0.4492  1.7309
 2701SOL     OW19738   1.373   2.432   9.265  0.3465  0.1362  0.2937
 2701SOL    HW119739   1.468   2.426   9.270  0.4049  1.0039  0.1681
 2701SOL    HW219740   1.353   2.368   9.333 -1.8817  0.8612  0.3257
 2702SOL     OW19741   4.640   0.864   3.537 -0.3319  0.3883 -0.4099
 2702SOL    HW119742   4.655   0.897   3.448 -0.5917 -0.3006 -0.7099
 2702SOL    HW219743   4.606   0.777   3.515  0.6927 -0.0033 -0.4227
 2703SOL     OW19744   2.800   2.235   3.804  0.1688  0.1761 -0.3580
 2703SOL    HW119745   2.844   2.210   3.722  0.2791 -0.3579 -0.1402
 2703SOL    HW219746   2.792   2.147   3.842 -1.3968 -0.0867 -1.3187
 2704SOL     OW19747   2.052   1.435   2.014  0.6304  0.3783  0.3871
 2704SOL    HW119748   2.139   1.416   2.047  1.1231  0.6783 -0.7465
 2704SOL    HW219749   2.067   1.391   1.930 -4.2841 -1.0114  0.2118
 2705SOL     OW19750   4.680   2.821   8.660  0.0680  0.3258  0.4800
 2705SOL    HW119751   4.698   2.728   8.652 -7.4386 -0.7795 -3.6528
 2705SOL    HW219752   0.031   2.858   8.672 -1.6257  4.8359 -0.7999
 2706SOL     OW19753   0.760   2.570   0.248  0.0278 -0.3720  0.2723
 2706SOL    HW119754   0.666   2.584   0.236  0.2892  0.4517 -0.7809
 2706SOL    HW219755   0.777   2.572   0.154 -2.7838  2.3945 -0.1875
 2707SOL     OW19756   2.951   2.383  11.198 -0.3490 -0.3401  0.1698
 2707SOL    HW119757   2.875   2.413  11.147 -0.1217  1.8892  1.1282
 2707SOL    HW219758   2.954   2.433  11.280 -3.3841  0.4796 -0.2148
 2708SOL     OW19759   1.337   3.168   0.538 -0.0135 -0.1866  0.0868
 2708SOL    HW119760   1.281   3.159   0.461 -1.0928 -1.2977  0.9966
 2708SOL    HW219761   1.401   3.098   0.524 -0.3601  0.0869 -2.7711
 2709SOL     OW19762   2.651   0.593   7.648 -0.2763  0.3854 -0.2038
 2709SOL    HW119763   2.702   0.513   7.660 -1.3965 -0.3755 -0.5158
 2709SOL    HW219764   2.591   0.573   7.721 -0.0842  0.0356 -0.1414
 2710SOL     OW19765   2.761   3.136   0.700  0.0317 -0.6662 -0.3865
 2710SOL    HW119766   2.769   3.083   0.621  0.5153 -0.8814 -0.1909
 2710SOL    HW219767   2.802   3.074   0.760 -0.1098  1.0942  1.5338
 2711SOL     OW19768   2.145   3.819   0.176  0.0863 -0.1728 -0.0043
 2711SOL    HW119769   2.154   3.836   0.270 -1.6495 -1.9726  0.4829
 2711SOL    HW219770   2.075   3.754   0.172 -1.9657  2.0683 -0.6572
 2712SOL     OW19771   0.388   0.588  11.737 -0.4401 -0.3698 -0.3208
 2712SOL    HW119772   0.401   0.678  11.767  0.4700  0.4560 -3.1836
 2712SOL    HW219773   0.334   0.609  11.661  0.9263 -0.7773 -1.4137
 2713SOL     OW19774   1.476   0.641   7.068  0.0281 -0.4276 -0.1522
 2713SOL    HW119775   1.508   0.715   7.119 -0.4482 -1.0613  1.0783
 2713SOL    HW219776   1.526   0.645   6.986  1.5020  1.3261  0.8343
 2714SOL     OW19777   3.930   3.976   7.322  0.0516  0.5615  0.6060
 2714SOL    HW119778   4.005   4.000   7.377  3.0751 -0.4645 -3.1026
 2714SOL    HW219779   3.976   3.987   7.239  0.4922  0.5090  0.8376
 2715SOL     OW19780   0.671   1.821  10.544  0.5402 -0.2494 -0.0908
 2715SOL    HW119781   0.632   1.884  10.483 -2.4797 -0.9459  1.1059
 2715SOL    HW219782   0.599   1.757  10.546 -0.7981  1.2423 -0.5334
 2716SOL     OW19783   1.892   1.366   0.733 -0.2414  0.5333  0.5094
 2716SOL    HW119784   1.849   1.291   0.774  0.8613  2.0077  4.4275
 2716SOL    HW219785   1.984   1.342   0.744 -0.4332  0.2784  1.5747
 2717SOL     OW19786   1.158   1.753   5.892  1.0990 -0.1326  0.2951
 2717SOL    HW119787   1.160   1.698   5.970 -1.4892 -0.2015  0.3059
 2717SOL    HW219788   1.097   1.823   5.916  0.0674 -1.0833  0.4350
 2718SOL     OW19789   0.948   4.333   0.468 -0.1146 -0.3914 -0.2766
 2718SOL    HW119790   0.919   4.303   0.554 -3.5207 -0.7051 -1.5451
 2718SOL    HW219791   1.011   4.266   0.438  0.6134 -0.5625  1.6294
 2719SOL     OW19792   0.043   2.565   8.695 -0.5726 -0.2592 -0.6152
 2719SOL    HW119793   0.022   2.568   8.789 -0.0766  1.0721 -0.5541
 2719SOL    HW219794   4.716   2.494   8.681 -1.8567  0.8316 -0.3459
 2720SOL     OW19795   3.187   3.274  13.583  0.3344  0.3605 -0.6753
 2720SOL    HW119796   3.110   3.290  13.639  1.2250  2.5376 -0.1002
 2720SOL    HW219797   3.199   3.359  13.541  1.2197  0.5100 -0.1122
 2721SOL     OW19798   0.916   1.143   0.489 -0.1066  0.3167  0.0004
 2721SOL    HW119799   0.990   1.127   0.547 -0.2223  2.1139  0.6440
 2721SOL    HW219800   0.899   1.236   0.502 -0.1549  0.5917 -1.9855
 2722SOL     OW19801   2.107   4.238  16.998 -0.0101  0.1574  0.2373
 2722SOL    HW119802   2.129   4.328  16.973 -2.3730  0.2260 -1.6750
 2722SOL    HW219803   2.014   4.238  17.021  0.0947 -0.1655  0.6532
 2723SOL     OW19804   3.842   1.025   4.821  0.3330 -0.0797  0.2685
 2723SOL    HW119805   3.857   0.931   4.826  0.2496  0.0552  2.7828
 2723SOL    HW219806   3.855   1.047   4.913 -0.2659 -0.3045  0.4037
 2724SOL     OW19807   2.711   2.376  14.012 -0.1223 -0.2822  0.4005
 2724SOL    HW119808   2.699   2.296  13.962 -3.1268 -1.2634  2.6866
 2724SOL    HW219809   2.753   2.427  13.942 -2.0707  1.9772  0.9028
 2725SOL     OW19810   4.493   3.538   5.775 -0.4589  0.4458 -0.6313
 2725SOL    HW119811   4.486   3.456   5.824 -0.3015  2.8700  3.4878
 2725SOL    HW219812   4.432   3.595   5.822  0.0076  1.0162 -0.7143
 2726SOL     OW19813   0.170   4.481   5.677  0.0127  0.0825 -0.8159
 2726SOL    HW119814   0.248   4.459   5.728  0.3925  0.6078 -1.1796
 2726SOL    HW219815   0.204   4.559   5.634  3.0599  0.2723  2.0030
 2727SOL     OW19816   2.550   4.236   7.909 -0.2862 -0.0390 -0.5824
 2727SOL    HW119817   2.636   4.277   7.916 -1.0321  1.1708  1.3577
 2727SOL    HW219818   2.577   4.144   7.918  2.8290  1.0186  0.9020
 2728SOL     OW19819   0.617   0.206   2.292  0.0691 -0.0886 -0.0287
 2728SOL    HW119820   0.631   0.143   2.222  2.3040 -0.9372  1.2118
 2728SOL    HW219821   0.538   0.257   2.270  0.6930  0.9423  0.1159
 2729SOL     OW19822   1.083   2.624   7.341 -0.0350 -0.1402  0.1678
 2729SOL    HW119823   1.010   2.666   7.386 -1.2030 -1.6547 -0.3033
 2729SOL    HW219824   1.057   2.533   7.356 -0.7812 -0.0987 -0.9114
 2730SOL     OW19825   4.179   0.028   7.828 -0.0344 -0.3118  0.0205
 2730SOL    HW119826   4.132   4.698   7.878 -1.9150 -0.3826 -1.7801
 2730SOL    HW219827   4.143   0.113   7.854 -1.6083 -0.6959 -0.8537
 2731SOL     OW19828   4.048   4.112   4.015 -0.6232 -0.1217 -0.0054
 2731SOL    HW119829   4.080   4.028   4.049 -1.1721 -0.1913  0.3390
 2731SOL    HW219830   3.988   4.080   3.948  0.0885 -0.3248 -0.5457
 2732SOL     OW19831   3.055   2.036  12.586 -0.2083  0.4870 -0.3366
 2732SOL    HW119832   3.069   1.951  12.545  3.3413  1.5142 -1.1823
 2732SOL    HW219833   3.103   2.087  12.521  0.3675  0.9292  0.4386
 2733SOL     OW19834   3.905   1.949   7.004 -0.1179 -0.3726  0.0676
 2733SOL    HW119835   3.927   1.968   7.095  0.6454  3.4196 -0.8941
 2733SOL    HW219836   3.883   2.037   6.972  2.1669 -0.3091 -1.3384
 2734SOL     OW19837   2.270   2.197   4.969  0.2490  0.0798 -0.3148
 2734SOL    HW119838   2.296   2.122   5.021 -2.0994 -0.0623  0.6873
 2734SOL    HW219839   2.259   2.164   4.880  1.1888 -1.6942  0.2280
 2735SOL     OW19840   3.979   0.855   6.515  0.3053  0.4622 -0.8395
 2735SOL    HW119841   3.893   0.846   6.556  0.8018  0.5701  0.2410
 2735SOL    HW219842   3.994   0.948   6.534 -0.0614  1.0107 -3.3412
 2736SOL     OW19843   4.593   4.398   3.411  0.0675  1.1234 -0.3197
 2736SOL    HW119844   4.567   4.366   3.324 -0.4313  1.2501 -0.2144
 2736SOL    HW219845   4.678   4.437   3.388  0.8586  0.3482  1.3044
 2737SOL     OW19846   4.589   2.408   3.990  0.0325 -0.1543  0.0975
 2737SOL    HW119847   4.591   2.469   3.917  2.0059  1.8745  1.8715
 2737SOL    HW219848   4.496   2.393   4.006 -0.2717  0.3031 -1.2386
 2738SOL     OW19849   4.235   2.666   5.802  0.3186 -0.1165 -0.6222
 2738SOL    HW119850   4.288   2.609   5.858 -0.2824  2.0220  2.0970
 2738SOL    HW219851   4.165   2.607   5.774  0.1367  0.4026 -1.2585
 2739SOL     OW19852   0.624   3.166   8.713  0.6157 -0.1789 -0.3703
 2739SOL    HW119853   0.585   3.105   8.775 -1.1287  1.7639  0.4675
 2739SOL    HW219854   0.677   3.103   8.665 -0.1488 -1.5656  0.6215
 2740SOL     OW19855   2.034   1.454  11.508  0.6523 -0.0742  0.2438
 2740SOL    HW119856   2.066   1.535  11.470  1.4858 -0.9440 -0.9018
 2740SOL    HW219857   2.032   1.482  11.599 -0.2396  2.0661 -0.4407
 2741SOL     OW19858   2.217   3.812   8.774  0.1590 -0.5010 -0.2906
 2741SOL    HW119859   2.161   3.749   8.729 -1.0410  0.3825 -0.0428
 2741SOL    HW219860   2.252   3.859   8.699 -0.4393 -2.7634 -1.9774
 2742SOL     OW19861   3.459   1.632  16.805 -0.0363  0.3246 -0.0241
 2742SOL    HW119862   3.485   1.676  16.724 -1.1950 -0.7659 -0.9920
 2742SOL    HW219863   3.441   1.541  16.780 -1.0323  0.7102 -0.7209
 2743SOL     OW19864   4.407   4.455   7.040  0.1105 -0.6443 -0.2424
 2743SOL    HW119865   4.463   4.497   6.975 -1.1838  1.7593  0.1796
 2743SOL    HW219866   4.392   4.525   7.104 -1.8891 -0.3535 -1.0267
 2744SOL     OW19867   0.408   1.679  12.641 -0.8543  0.2261  0.7257
 2744SOL    HW119868   0.370   1.723  12.565 -1.5044  1.7687  1.9293
 2744SOL    HW219869   0.333   1.626  12.667 -0.4994 -1.2588 -1.3179
 2745SOL     OW19870   1.699   1.712   7.284 -0.2286 -0.0418  0.0778
 2745SOL    HW119871   1.666   1.736   7.371 -2.4147 -2.0278 -0.2016
 2745SOL    HW219872   1.637   1.759   7.230 -0.7094 -0.5301  0.2058
 2746SOL     OW19873   0.618   2.946   7.006  0.2238 -0.3659 -0.0535
 2746SOL    HW119874   0.676   3.010   7.047  1.2807 -0.5664 -1.2642
 2746SOL    HW219875   0.651   2.869   7.054 -0.5994 -0.5173  0.2840
 2747SOL     OW19876   3.263   0.976   2.832  0.0624 -0.4003 -0.4670
 2747SOL    HW119877   3.328   0.907   2.845  0.0668  0.0320  1.9554
 2747SOL    HW219878   3.220   0.985   2.917  0.1480 -2.2094 -0.2438
 2748SOL     OW19879   3.952   2.669   7.448  0.3294 -0.1350  0.6089
 2748SOL    HW119880   3.919   2.633   7.366 -1.1573  1.0124  0.7129
 2748SOL    HW219881   4.005   2.745   7.423 -1.1939  1.0603  1.0373
 2749SOL     OW19882   1.278   0.195   9.737 -0.5571  0.0244  0.0471
 2749SOL    HW119883   1.357   0.171   9.689 -0.1152  1.0791  0.2478
 2749SOL    HW219884   1.321   0.251   9.803  1.3575 -0.1119 -1.0810
 2750SOL     OW19885   3.180   3.571  13.536 -0.2254  0.3805 -0.2017
 2750SOL    HW119886   3.199   3.650  13.486 -0.1032 -0.2937 -1.2248
 2750SOL    HW219887   3.253   3.569  13.598 -1.6830  2.9955  1.5672
 2751SOL     OW19888   3.464   0.469   3.549  0.3371  1.1334  0.4020
 2751SOL    HW119889   3.372   0.463   3.575 -0.6414  0.5047 -3.3169
 2751SOL    HW219890   3.450   0.491   3.457  1.3498  0.7148  0.1470
 2752SOL     OW19891   1.378   3.119   6.976 -0.5915  0.0727 -0.0279
 2752SOL    HW119892   1.313   3.187   6.958 -1.9175 -1.1767 -0.0188
 2752SOL    HW219893   1.388   3.134   7.070 -0.4941  0.7975 -0.1548
 2753SOL     OW19894   3.702   2.759   5.943  0.2251 -0.2790  0.1480
 2753SOL    HW119895   3.787   2.738   5.905  0.7057  1.2328  0.3631
 2753SOL    HW219896   3.726   2.846   5.975 -0.6416  0.0329 -0.0546
 2754SOL     OW19897   2.651   4.541   1.013  0.1251 -0.5038 -0.1100
 2754SOL    HW119898   2.615   4.547   0.924  1.4419 -0.1404 -0.6217
 2754SOL    HW219899   2.737   4.508   0.988  2.1787  1.6457  4.1272
 2755SOL     OW19900   1.227   3.296  10.417  0.4845 -0.7853  0.3283
 2755SOL    HW119901   1.253   3.276  10.506 -1.7152  2.2955  1.6603
 2755SOL    HW219902   1.310   3.309  10.371  0.4069 -2.1701 -0.2028
 2756SOL     OW19903   0.452   0.520   1.170 -0.1277  0.1900 -0.4143
 2756SOL    HW119904   0.418   0.455   1.233  3.4080  0.9662  2.3058
 2756SOL    HW219905   0.473   0.593   1.228 -0.2551 -0.3017  0.2523
 2757SOL     OW19906   2.284   0.998  16.318  0.1131 -0.1438  0.2575
 2757SOL    HW119907   2.250   0.912  16.342 -0.1134 -1.0131 -3.2157
 2757SOL    HW219908   2.345   1.016  16.390  0.0878  1.1068 -0.0462
 2758SOL     OW19909   0.047   2.987   5.279 -0.0003  0.2470 -0.1938
 2758SOL    HW119910   0.056   2.988   5.184 -2.2988 -1.3457 -0.4272
 2758SOL    HW219911   0.084   2.899   5.288  0.0777 -0.0772 -3.5236
 2759SOL     OW19912   1.035   1.033   3.382 -0.5323  0.3744  0.0120
 2759SOL    HW119913   1.088   1.113   3.386 -0.8943  0.6480 -0.5897
 2759SOL    HW219914   0.950   1.065   3.413 -0.6601 -0.6847  0.7375
 2760SOL     OW19915   0.393   2.599  10.203  0.8409 -0.2131  0.7039
 2760SOL    HW119916   0.411   2.642  10.120 -2.3903  0.9558  0.5997
 2760SOL    HW219917   0.327   2.535  10.177 -2.7304  3.7615 -0.0839
 2761SOL     OW19918   0.314   1.558  13.569 -0.0777  0.1077 -0.0649
 2761SOL    HW119919   0.326   1.638  13.620  0.5921  0.7148 -1.1874
 2761SOL    HW219920   0.239   1.529  13.622  1.4656  1.5677  2.9181
 2762SOL     OW19921   0.510   1.501  16.613  0.3461  0.0818 -0.2607
 2762SOL    HW119922   0.565   1.440  16.662  1.4746  1.0338 -0.3586
 2762SOL    HW219923   0.429   1.451  16.603 -1.0434  2.0998  0.9332
 2763SOL     OW19924   1.855   1.753   5.314 -0.5304  0.0083  0.2249
 2763SOL    HW119925   1.806   1.784   5.390 -0.2530  0.3588  0.2574
 2763SOL    HW219926   1.776   1.746   5.259 -0.3287  2.8465 -0.3915
 2764SOL     OW19927   0.413   0.012   3.125 -0.3106  0.1708  0.4321
 2764SOL    HW119928   0.406   0.097   3.082 -1.3719  0.0815  0.4339
 2764SOL    HW219929   0.365   4.693   3.063  0.4619 -0.4072  0.3443
 2765SOL     OW19930   4.204   0.778  16.070  0.2443 -0.1756  0.0352
 2765SOL    HW119931   4.289   0.753  16.033 -0.3474  0.1295 -1.4948
 2765SOL    HW219932   4.190   0.853  16.013 -1.1423  0.3069  1.0171
 2766SOL     OW19933   1.512   0.382   5.982 -0.4740  0.1858 -0.1029
 2766SOL    HW119934   1.555   0.434   5.914  0.9746  0.2994  0.8808
 2766SOL    HW219935   1.485   0.447   6.047  1.9831  1.1470 -0.0364
 2767SOL     OW19936   4.694   0.277  11.375  0.4427  0.3778 -0.1621
 2767SOL    HW119937   0.036   0.331  11.381  1.2311 -0.5102 -2.6223
 2767SOL    HW219938   4.665   0.291  11.285  0.0512  1.2779  0.1025
 2768SOL     OW19939   1.268   3.558   1.738  0.4837 -0.2439  0.1265
 2768SOL    HW119940   1.240   3.485   1.682  0.0506 -2.8015  3.6899
 2768SOL    HW219941   1.197   3.552   1.802  0.0341 -0.8931 -0.4303
 2769SOL     OW19942   2.571   2.489   2.657  0.1282  0.9540  0.3494
 2769SOL    HW119943   2.596   2.572   2.615 -0.4965  0.9514 -0.0279
 2769SOL    HW219944   2.487   2.515   2.695 -1.1902 -2.5711 -0.1693
 2770SOL     OW19945   3.700   2.004   4.114  0.1841  0.0505  0.1531
 2770SOL    HW119946   3.737   1.934   4.167  1.6352  1.0052  0.4114
 2770SOL    HW219947   3.607   1.985   4.108  0.0649  0.3825  0.9197
 2771SOL     OW19948   0.438   4.266   6.467  0.5984  0.8772 -0.1681
 2771SOL    HW119949   0.530   4.245   6.450  1.0249  1.0669  1.9445
 2771SOL    HW219950   0.448   4.347   6.518  2.5077  1.4227 -1.3976
 2772SOL     OW19951   4.071   2.336   9.700  0.6245  0.4804 -0.2973
 2772SOL    HW119952   3.992   2.352   9.753 -0.1958  1.0025 -1.6808
 2772SOL    HW219953   4.134   2.333   9.772  2.8260 -0.3042 -2.2540
 2773SOL     OW19954   4.673   3.327   5.132 -0.0077  0.2443 -0.0313
 2773SOL    HW119955   4.620   3.374   5.196  1.2216  0.8274  0.5518
 2773SOL    HW219956   4.624   3.245   5.127  0.1926 -0.0324  2.8609
 2774SOL     OW19957   2.462   1.999   4.656  0.3433  0.6996 -0.2499
 2774SOL    HW119958   2.405   1.946   4.600  1.8872 -0.5434 -0.6470
 2774SOL    HW219959   2.458   1.955   4.740  1.4326 -1.0962 -1.1476
 2775SOL     OW19960   4.706   2.978   8.932 -0.3157 -0.0657  0.1334
 2775SOL    HW119961   4.690   2.908   8.868  1.3593  0.8766 -1.3355
 2775SOL    HW219962   0.062   2.967   8.955 -0.3658 -0.6951  0.0400
 2776SOL     OW19963   1.333   4.303   2.867  0.6754  0.5367  0.1442
 2776SOL    HW119964   1.425   4.278   2.868  0.1024 -1.6271 -1.5690
 2776SOL    HW219965   1.302   4.239   2.804 -1.1306  1.6075 -0.0451
 2777SOL     OW19966   3.459   2.475   3.925 -0.6143  0.2480 -0.2083
 2777SOL    HW119967   3.519   2.540   3.963  0.0611  0.1728 -1.1428
 2777SOL    HW219968   3.372   2.509   3.943 -0.3385  0.3638  0.9444
 2778SOL     OW19969   1.958   4.547  15.183 -0.3039  0.1548  0.3155
 2778SOL    HW119970   1.996   4.505  15.260  0.7271  0.1172 -0.2097
 2778SOL    HW219971   2.035   4.562  15.128 -0.1681 -0.1363  0.4302
 2779SOL     OW19972   0.384   3.854   7.205  0.0047  0.3901  0.2794
 2779SOL    HW119973   0.454   3.882   7.265  0.5565 -1.6430  0.6118
 2779SOL    HW219974   0.308   3.888   7.252 -0.5700  0.1785 -0.4952
 2780SOL     OW19975   2.079   1.095   1.338 -0.1368 -0.4586  0.1676
 2780SOL    HW119976   2.013   1.162   1.354 -1.0707 -1.5210  0.7385
 2780SOL    HW219977   2.141   1.121   1.406 -0.0865 -1.4181  0.4916
 2781SOL     OW19978   2.289   3.050   4.026 -0.0333  0.2314  0.3425
 2781SOL    HW119979   2.350   3.098   3.970  0.8098  0.9932  1.9185
 2781SOL    HW219980   2.275   3.105   4.103 -1.3033 -1.3867  1.2604
 2782SOL     OW19981   0.959   2.268   1.875  0.0601  0.4475  0.9403
 2782SOL    HW119982   0.877   2.230   1.844 -0.3039 -0.2146  2.7072
 2782SOL    HW219983   1.025   2.200   1.882  0.2281  0.5535  0.3039
 2783SOL     OW19984   1.317   1.972   6.095  0.1127 -0.1792  0.2775
 2783SOL    HW119985   1.390   1.988   6.035 -0.1638 -0.2476 -0.0801
 2783SOL    HW219986   1.362   1.906   6.147  0.7073  0.5933  0.7552
 2784SOL     OW19987   3.788   0.547   0.522 -0.5714  0.5023  0.0386
 2784SOL    HW119988   3.776   0.615   0.588 -1.7998  2.2333 -1.9787
 2784SOL    HW219989   3.715   0.487   0.540  0.2214 -1.1587 -2.2694
 2785SOL     OW19990   2.897   2.829   7.462 -0.5450 -0.2032 -0.3321
 2785SOL    HW119991   2.949   2.833   7.382 -2.0677 -1.4579 -1.3867
 2785SOL    HW219992   2.961   2.870   7.521  0.6191  0.2607 -1.9301
 2786SOL     OW19993   1.270   3.488  14.377  0.1624 -0.0279  0.4264
 2786SOL    HW119994   1.263   3.409  14.431  0.6776 -0.2397  0.1851
 2786SOL    HW219995   1.216   3.458  14.304 -0.4074 -1.5382  1.4661
 2787SOL     OW19996   4.186   2.546   4.984  0.0288  0.0316  0.6155
 2787SOL    HW119997   4.259   2.575   4.930  0.1054 -1.7046 -0.2170
 2787SOL    HW219998   4.195   2.453   5.008 -1.4799 -0.8217 -2.0670
 2788SOL     OW19999   1.797   4.622  15.871 -0.4381 -0.6011 -0.7699
 2788SOL    HW120000   1.768   4.569  15.945  1.5562 -1.2161 -0.4500
 2788SOL    HW220001   1.858   4.561  15.831  2.0577  0.6685  1.1212
 2789SOL     OW20002   1.724   2.482   3.979 -0.1670  0.4941 -0.0694
 2789SOL    HW120003   1.793   2.425   4.014 -1.3836 -1.4678 -0.8777
 2789SOL    HW220004   1.753   2.484   3.888 -1.4354  0.8953 -0.4574
 2790SOL     OW20005   1.355   0.450  15.548 -0.2710 -1.1472 -0.0534
 2790SOL    HW120006   1.429   0.417  15.497 -2.3091 -2.9495 -1.7915
 2790SOL    HW220007   1.398   0.528  15.585  0.8211 -1.9057  0.2710
 2791SOL     OW20008   2.429   4.164  14.436  0.1963 -0.1139  0.1242
 2791SOL    HW120009   2.444   4.205  14.350  1.4852 -0.1143  0.3446
 2791SOL    HW220010   2.452   4.235  14.496  0.0382 -0.0892  0.1551
 2792SOL     OW20011   0.546   0.617   3.875 -0.2701 -0.7533 -0.3353
 2792SOL    HW120012   0.580   0.533   3.907 -1.2277 -0.3293  1.8274
 2792SOL    HW220013   0.548   0.665   3.958  0.0505  1.0427 -1.3794
 2793SOL     OW20014   0.179   1.899   3.934  0.5130  0.2565  0.4275
 2793SOL    HW120015   0.251   1.865   3.880 -0.3127 -1.2595  0.2732
 2793SOL    HW220016   0.143   1.818   3.972  0.2454  0.1959  0.0409
 2794SOL     OW20017   1.264   4.672  16.511  0.1914 -0.6036 -0.4137
 2794SOL    HW120018   1.327   4.601  16.506 -2.2646 -2.7924 -0.3087
 2794SOL    HW220019   1.214   4.632  16.583  4.2379 -0.9733  2.1888
 2795SOL     OW20020   2.462   4.316  14.221  0.4705 -0.3127 -0.0609
 2795SOL    HW120021   2.456   4.254  14.148  1.3154  1.0044 -1.2523
 2795SOL    HW220022   2.502   4.393  14.181  1.9734 -0.8760  0.3847
 2796SOL     OW20023   4.566   1.586   2.119 -0.3889 -0.4107  0.1492
 2796SOL    HW120024   4.655   1.563   2.093  0.6993  2.8213  0.9420
 2796SOL    HW220025   4.515   1.566   2.041  0.3417 -0.1310 -0.3868
 2797SOL     OW20026   0.397   1.068   6.587  0.1569 -0.1657  0.2344
 2797SOL    HW120027   0.414   1.011   6.512  0.0038  0.3576 -0.2014
 2797SOL    HW220028   0.479   1.082   6.635 -0.2060 -1.1967  1.1656
 2798SOL     OW20029   2.918   0.721  15.478 -0.0198  0.1147  0.3293
 2798SOL    HW120030   2.848   0.720  15.412 -0.6155 -3.6948  1.0142
 2798SOL    HW220031   2.886   0.797  15.526 -0.6337  0.2356 -0.2581
 2799SOL     OW20032   4.212   0.309   6.482  0.1668 -0.0331 -0.6268
 2799SOL    HW120033   4.130   0.356   6.496 -0.5873 -1.7803  0.9175
 2799SOL    HW220034   4.255   0.350   6.407  0.4145  1.8274  0.5277
 2800SOL     OW20035   1.147   2.874   8.189 -0.2754 -0.5846  0.0244
 2800SOL    HW120036   1.144   2.847   8.098  0.9972  0.9653 -0.4743
 2800SOL    HW220037   1.241   2.868   8.205 -0.4993 -0.1880  1.4972
 2801SOL     OW20038   2.509   1.666  16.885  0.1690 -0.9287 -0.5617
 2801SOL    HW120039   2.596   1.691  16.854 -0.3932  0.4739 -1.0164
 2801SOL    HW220040   2.455   1.682  16.808  0.7191  0.7802 -0.5960
 2802SOL     OW20041   0.778   3.426   4.839 -0.0711  0.3017 -0.1749
 2802SOL    HW120042   0.697   3.383   4.813  0.3304 -0.3921 -0.2765
 2802SOL    HW220043   0.806   3.473   4.760  0.4218  0.5365  0.1414
 2803SOL     OW20044   3.652   3.638   7.763  0.0859 -0.1058  0.3065
 2803SOL    HW120045   3.701   3.669   7.687 -0.0268  0.2203  0.3625
 2803SOL    HW220046   3.715   3.647   7.835  1.2657 -0.1984 -0.7364
 2804SOL     OW20047   3.501   0.365   3.909  0.0737  0.2548  0.1113
 2804SOL    HW120048   3.519   0.415   3.989 -3.3062  1.9831 -0.2013
 2804SOL    HW220049   3.529   0.430   3.844 -2.6283  1.4416  0.1519
 2805SOL     OW20050   0.823   3.482   9.083 -0.3605 -0.1692  0.5390
 2805SOL    HW120051   0.822   3.413   9.017  0.1444  0.6991 -0.3915
 2805SOL    HW220052   0.732   3.505   9.103 -0.4199 -1.2136  1.4538
 2806SOL     OW20053   4.684   0.269   3.898  0.2699 -0.2909  0.3816
 2806SOL    HW120054   4.689   0.265   3.993  2.5367  1.3033  0.3297
 2806SOL    HW220055   0.014   0.205   3.875  0.3456 -0.7928  1.9805
 2807SOL     OW20056   2.637   0.774   9.615  0.1947  0.0742  0.6781
 2807SOL    HW120057   2.610   0.798   9.526 -1.8638  0.9125  1.5274
 2807SOL    HW220058   2.709   0.836   9.628 -0.9960  2.8151 -5.3748
 2808SOL     OW20059   3.788   0.172   6.916  0.2354  0.2539  0.0543
 2808SOL    HW120060   3.810   0.170   6.823 -0.1333  3.6890 -0.1335
 2808SOL    HW220061   3.697   0.141   6.917  0.7636 -1.2521 -0.2968
 2809SOL     OW20062   3.944   0.984  12.418  0.1740  0.2561 -0.3282
 2809SOL    HW120063   3.857   0.942  12.416  0.5770 -0.5443 -1.3025
 2809SOL    HW220064   3.925   1.075  12.438 -2.1171 -0.3321  0.2422
 2810SOL     OW20065   4.335   3.300   5.365 -0.3900  0.0119 -0.0516
 2810SOL    HW120066   4.353   3.225   5.420 -0.1397 -1.3913 -2.0268
 2810SOL    HW220067   4.421   3.337   5.348 -0.5422  0.4221  0.0532
 2811SOL     OW20068   1.991   3.043  17.443  0.2343 -0.5496 -1.0414
 2811SOL    HW120069   2.042   3.114  17.482 -1.0172  0.0784 -0.5145
 2811SOL    HW220070   1.960   3.088  17.364 -2.1460  0.4733  0.4756
 2812SOL     OW20071   3.620   4.539   4.683  0.7178  0.3926 -0.0723
 2812SOL    HW120072   3.682   4.566   4.751  1.2641 -1.4521  0.1681
 2812SOL    HW220073   3.665   4.555   4.600  2.2220 -1.2706  0.4299
 2813SOL     OW20074   2.245   0.340  16.060 -1.0504  0.6079  0.2103
 2813SOL    HW120075   2.324   0.340  16.114 -0.6561  1.9243 -0.3781
 2813SOL    HW220076   2.285   0.381  15.983  1.6512 -2.3742  0.0020
 2814SOL     OW20077   1.881   3.503  10.449 -0.3344  0.2159  0.5617
 2814SOL    HW120078   1.972   3.474  10.452 -0.3002  0.1324 -1.2931
 2814SOL    HW220079   1.860   3.543  10.364  1.9651 -2.8070 -1.4053
 2815SOL     OW20080   1.217   2.813   2.944 -0.4037  0.4752 -0.3067
 2815SOL    HW120081   1.130   2.813   2.905 -0.6654 -2.0932  0.2869
 2815SOL    HW220082   1.192   2.768   3.025 -2.3501  1.8189 -0.1550
 2816SOL     OW20083   3.226   1.508  17.592  0.8595 -0.3043 -0.3322
 2816SOL    HW120084   3.322   1.508  17.595  0.8915  2.8016 -1.3128
 2816SOL    HW220085   3.205   1.598  17.618 -0.4590 -0.8538  0.5082
 2817SOL     OW20086   1.998   1.518   3.941  0.2776  0.1647 -0.0799
 2817SOL    HW120087   1.925   1.456   3.948  1.6173 -1.5229 -1.1897
 2817SOL    HW220088   2.025   1.514   4.032  1.1491  2.3395 -0.2329
 2818SOL     OW20089   1.029   4.380   7.807  0.2093 -0.1029  0.1376
 2818SOL    HW120090   0.952   4.350   7.855 -0.1991  1.4359  0.4431
 2818SOL    HW220091   1.096   4.391   7.875  0.2911 -1.1804  0.2332
 2819SOL     OW20092   0.741   4.112   6.437 -0.2969  0.1577 -0.4418
 2819SOL    HW120093   0.808   4.179   6.455  0.2056 -0.4795  0.0549
 2819SOL    HW220094   0.709   4.099   6.527 -0.8267 -1.2926 -0.8372
 2820SOL     OW20095   3.519   0.017   4.914  0.0152 -0.3647  0.4368
 2820SOL    HW120096   3.575   4.676   4.922  0.4179  0.1049  2.2727
 2820SOL    HW220097   3.553   0.075   4.846 -2.7526 -1.1701 -1.5972
 2821SOL     OW20098   4.595   4.628   9.066 -0.2928 -0.5652 -0.4784
 2821SOL    HW120099   4.544   4.662   9.140  1.3989 -1.6136  1.1724
 2821SOL    HW220100   4.670   4.611   9.122 -0.2042  1.7928  0.1180
 2822SOL     OW20101   3.675   1.218   8.189 -0.0101 -0.0678 -0.1535
 2822SOL    HW120102   3.616   1.172   8.249 -2.1205  1.6746 -0.9121
 2822SOL    HW220103   3.753   1.171   8.216 -1.8172 -1.1016  3.3174
 2823SOL     OW20104   3.661   1.936   3.646  0.1367  0.2521  0.0677
 2823SOL    HW120105   3.635   2.012   3.594  0.4371  1.2504  1.3543
 2823SOL    HW220106   3.675   1.980   3.730  2.9484 -0.2962 -0.1024
 2824SOL     OW20107   4.272   0.000  14.344  0.5089  0.4317 -0.6986
 2824SOL    HW120108   4.324   0.001  14.424 -2.2522 -1.8602  1.1280
 2824SOL    HW220109   4.298   4.654  14.304  1.5873  1.0219 -1.1988
 2825SOL     OW20110   4.299   1.659   9.360 -0.3134 -0.4952 -0.1618
 2825SOL    HW120111   4.245   1.694   9.289  1.1765 -2.7932 -2.4406
 2825SOL    HW220112   4.238   1.662   9.434 -0.1618 -0.9916 -0.0137
 2826SOL     OW20113   3.768   4.444   5.233  0.2461  0.3927  0.3247
 2826SOL    HW120114   3.844   4.494   5.204 -0.2471  1.6296  1.1478
 2826SOL    HW220115   3.800   4.355   5.248 -1.6971 -0.3439  0.1646
 2827SOL     OW20116   2.336   2.347   8.428  0.4020  0.2797 -0.0593
 2827SOL    HW120117   2.246   2.331   8.455  0.4164 -0.4229 -0.4235
 2827SOL    HW220118   2.330   2.436   8.392  1.6905  0.1594 -0.5873
 2828SOL     OW20119   0.246   4.133   7.309 -0.2506 -0.2538  0.7131
 2828SOL    HW120120   0.222   4.115   7.400  0.7722  2.0599  1.4471
 2828SOL    HW220121   0.322   4.187   7.332  0.3045 -0.9316  0.5030
 2829SOL     OW20122   0.665   3.292  16.735  0.6880  0.3469  0.2112
 2829SOL    HW120123   0.657   3.350  16.660  0.2828 -1.0478 -0.8195
 2829SOL    HW220124   0.650   3.358  16.803 -0.5797 -0.4485  0.6928
 2830SOL     OW20125   3.021   3.318   3.237  0.8738  0.1103 -0.1049
 2830SOL    HW120126   3.110   3.283   3.244 -0.4093 -2.9586  0.9042
 2830SOL    HW220127   3.007   3.339   3.145  3.7003 -1.4634 -0.8922
 2831SOL     OW20128   2.210   3.994   6.591 -0.6381 -1.0170  0.1937
 2831SOL    HW120129   2.148   4.044   6.538  0.1326 -0.8570 -0.5389
 2831SOL    HW220130   2.237   3.942   6.515  1.2353 -0.6622  0.6155
 2832SOL     OW20131   0.350   3.658  10.913 -0.0541 -0.6120 -0.2314
 2832SOL    HW120132   0.426   3.701  10.952 -1.3043  1.7257 -0.3671
 2832SOL    HW220133   0.368   3.569  10.943 -0.9936 -1.2807 -1.6665
 2833SOL     OW20134   4.733   1.502  12.910  0.4052 -0.4232 -0.3712
 2833SOL    HW120135   4.692   1.588  12.902  2.8732  0.5405 -2.7870
 2833SOL    HW220136   4.646   1.467  12.927  0.0908  0.8574  0.6362
 2834SOL     OW20137   4.243   2.415   8.588 -0.1547 -0.3237  0.1674
 2834SOL    HW120138   4.280   2.375   8.667  0.2324  2.9896  1.6853
 2834SOL    HW220139   4.199   2.488   8.632  0.9185 -0.3221  1.2299
 2835SOL     OW20140   1.124   1.553   7.400 -0.0709  0.4901  0.7851
 2835SOL    HW120141   1.142   1.630   7.454  0.7355  2.0914 -1.7447
 2835SOL    HW220142   1.050   1.515   7.448 -0.9013 -1.4409 -2.0130
 2836SOL     OW20143   0.346   2.021  16.062 -0.5676 -0.0138  0.7189
 2836SOL    HW120144   0.425   2.018  16.008 -0.3001 -2.4426  1.2458
 2836SOL    HW220145   0.359   1.938  16.107  1.1113  0.0025  0.2679
 2837SOL     OW20146   1.008   1.934   2.074 -0.1600 -0.2856 -0.7634
 2837SOL    HW120147   0.985   1.892   1.990 -1.5014 -0.2027 -0.4438
 2837SOL    HW220148   1.103   1.929   2.079 -0.2749 -0.2301  1.4561
 2838SOL     OW20149   2.172   2.826  14.318 -0.2645 -0.1858 -0.6824
 2838SOL    HW120150   2.239   2.861  14.259 -0.0514 -0.2790 -0.4952
 2838SOL    HW220151   2.098   2.810  14.259 -0.5782  0.2058 -0.3927
 2839SOL     OW20152   0.814   3.821   8.007  0.0646  0.1570  0.2542
 2839SOL    HW120153   0.781   3.838   8.095  1.5630 -1.3297  1.0993
 2839SOL    HW220154   0.761   3.882   7.955  1.4767  0.6495 -0.6109
 2840SOL     OW20155   2.565   4.134   7.507  0.9297  0.3732  0.4999
 2840SOL    HW120156   2.581   4.052   7.554 -0.4497 -0.4019 -0.3837
 2840SOL    HW220157   2.471   4.142   7.521  0.8156 -2.9225  1.5949
 2841SOL     OW20158   0.474   0.865   1.866 -0.8379  0.2379  0.3958
 2841SOL    HW120159   0.468   0.906   1.953 -3.8716 -1.4581  0.9716
 2841SOL    HW220160   0.413   0.911   1.809  2.0309  2.5679 -0.7799
 2842SOL     OW20161   0.241   0.748   3.372  0.3510 -0.5261 -0.5703
 2842SOL    HW120162   0.179   0.691   3.417 -1.2666  2.0405  0.4978
 2842SOL    HW220163   0.325   0.702   3.379  0.6522  0.2910  1.4422
 2843SOL     OW20164   0.957   2.029  17.715 -0.1091 -0.4145  0.3507
 2843SOL    HW120165   0.986   2.074   0.049  1.3925  0.0647 -0.4638
 2843SOL    HW220166   0.862   2.032  17.727 -0.1679 -0.1043 -0.2001
 2844SOL     OW20167   0.239   1.924  12.876 -0.3260  0.3730 -0.2538
 2844SOL    HW120168   0.286   1.841  12.879  0.3100  0.7187 -0.6924
 2844SOL    HW220169   0.154   1.885  12.854  1.3154 -1.6664 -3.0606
 2845SOL     OW20170   4.075   1.684  15.278 -0.2853  0.3537  0.0859
 2845SOL    HW120171   4.104   1.635  15.355 -0.9641  2.9392  1.9781
 2845SOL    HW220172   4.147   1.686  15.214 -0.1282  0.5880  0.2701
 2846SOL     OW20173   1.128   0.194   3.358 -0.4966  0.0519 -0.8305
 2846SOL    HW120174   1.155   0.208   3.267 -1.3213 -2.1999 -1.4208
 2846SOL    HW220175   1.115   0.285   3.384 -1.1647  0.1849 -1.6086
 2847SOL     OW20176   0.511   2.606   8.179 -0.0804 -0.1531  0.0526
 2847SOL    HW120177   0.574   2.542   8.147 -0.3993 -0.7060  0.5339
 2847SOL    HW220178   0.454   2.544   8.224 -1.2707  0.6089 -0.4106
 2848SOL     OW20179   2.930   0.554   7.837  0.1573  0.3093  0.2601
 2848SOL    HW120180   3.007   0.506   7.866 -0.3146 -0.6087 -0.0275
 2848SOL    HW220181   2.976   0.630   7.800 -1.0187  0.5146 -0.7665
 2849SOL     OW20182   1.087   0.310  15.468 -0.2317  0.7462  0.0796
 2849SOL    HW120183   1.182   0.323  15.464 -0.4073  0.6050 -4.1596
 2849SOL    HW220184   1.061   0.387  15.519  0.6871  1.0831  0.0540
 2850SOL     OW20185   2.575   3.434   0.217 -0.3341 -0.1675  0.2666
 2850SOL    HW120186   2.506   3.378   0.181  2.3939 -2.5367 -1.2937
 2850SOL    HW220187   2.580   3.505   0.153  2.3673  0.6173  1.3291
 2851SOL     OW20188   4.241   3.023   8.604 -0.8116  0.4820  0.7763
 2851SOL    HW120189   4.281   3.107   8.625 -1.1048  1.4491 -2.5421
 2851SOL    HW220190   4.225   3.049   8.513 -3.0812 -0.1139  1.0087
 2852SOL     OW20191   1.087   0.819   2.738 -0.1403  0.9668  0.2833
 2852SOL    HW120192   1.150   0.868   2.791  1.1365  0.0881 -0.4025
 2852SOL    HW220193   1.097   0.739   2.790  0.5060  1.1074  0.3815
 2853SOL     OW20194   1.285   3.667  16.175 -0.1364 -0.2179  0.0873
 2853SOL    HW120195   1.232   3.689  16.252 -0.5022  0.3556 -0.3261
 2853SOL    HW220196   1.377   3.683  16.198  0.1632 -0.1987 -1.1534
 2854SOL     OW20197   4.094   1.605   1.204 -0.0456  0.0302 -0.7671
 2854SOL    HW120198   4.009   1.620   1.163  0.3600 -1.5042 -2.1291
 2854SOL    HW220199   4.111   1.525   1.155 -1.4381 -0.9579  0.3458
 2855SOL     OW20200   2.828   0.164   5.815  0.3804  0.0704  0.2062
 2855SOL    HW120201   2.811   0.257   5.799  1.5211  0.2386 -0.0475
 2855SOL    HW220202   2.905   0.158   5.758  2.6620 -0.2325  3.3153
 2856SOL     OW20203   1.413   3.052   6.629  0.0468 -0.4040 -0.0974
 2856SOL    HW120204   1.382   3.065   6.539 -1.3106 -0.7733  0.3135
 2856SOL    HW220205   1.438   3.141   6.655  0.4281 -0.1072 -1.4675
 2857SOL     OW20206   2.769   4.034   2.990 -0.2114 -0.5384  0.0970
 2857SOL    HW120207   2.823   3.956   2.977 -1.0228 -0.6692 -2.4996
 2857SOL    HW220208   2.791   4.057   3.081  1.0474 -0.6569 -0.1829
 2858SOL     OW20209   4.355   2.236   7.801 -0.1728 -0.4415 -0.3222
 2858SOL    HW120210   4.362   2.151   7.844 -1.4249 -0.2462  0.2670
 2858SOL    HW220211   4.266   2.264   7.822 -0.9438 -1.8528 -1.7013
 2859SOL     OW20212   2.453   1.384   9.788  0.1291  0.2075 -0.1010
 2859SOL    HW120213   2.358   1.392   9.798  0.0871  0.2413 -0.5169
 2859SOL    HW220214   2.478   1.454   9.728  0.0635 -0.7240 -1.2097
 2860SOL     OW20215   2.798   2.621  17.534  0.3324  0.9652 -0.1286
 2860SOL    HW120216   2.765   2.591  17.619  0.5249 -0.6114 -0.6039
 2860SOL    HW220217   2.770   2.712  17.531  0.0341  0.9713  2.3509
 2861SOL     OW20218   2.038   2.447   7.839  0.7124 -0.2356  0.1072
 2861SOL    HW120219   2.065   2.453   7.748  3.0995  1.2439  0.9179
 2861SOL    HW220220   2.084   2.367   7.865  1.7994  0.6323  0.8653
 2862SOL     OW20221   2.271   2.670   6.422 -0.5964  0.0236 -0.0512
 2862SOL    HW120222   2.291   2.611   6.349 -1.4537  0.4853 -0.6625
 2862SOL    HW220223   2.330   2.631   6.488 -0.1833 -0.1055 -0.4939
 2863SOL     OW20224   0.966   4.618  10.515 -0.1810  0.2361  0.0099
 2863SOL    HW120225   0.928   4.703  10.536  1.4170  0.4791  1.9161
 2863SOL    HW220226   0.997   4.582  10.598  0.9306  1.1033 -0.0344
 2864SOL     OW20227   4.576   2.620   9.142 -0.2476  0.1416  0.3052
 2864SOL    HW120228   4.617   2.602   9.058  0.8587  0.1795  0.8411
 2864SOL    HW220229   4.641   2.569   9.190 -0.3112 -1.5683 -1.4076
 2865SOL     OW20230   3.808   1.986  15.247  0.7058  0.6230  0.0801
 2865SOL    HW120231   3.822   1.899  15.209 -3.1424  0.3754 -0.7966
 2865SOL    HW220232   3.900   2.013  15.248  0.9399 -0.1397 -0.9985
 2866SOL     OW20233   3.701   4.711  13.191 -0.4533  0.1996  0.1069
 2866SOL    HW120234   3.779   4.673  13.232  1.1846  0.7354 -2.4753
 2866SOL    HW220235   3.645   4.636  13.171 -0.9888  0.5004  0.4842
 2867SOL     OW20236   4.489   0.936  10.089  0.2710  0.4097 -0.5343
 2867SOL    HW120237   4.558   0.880  10.123  1.8952  2.0018 -1.2059
 2867SOL    HW220238   4.503   1.015  10.141 -1.0736 -0.3619  0.9973
 2868SOL     OW20239   1.036   1.230   6.208 -0.0247  0.0050  0.0934
 2868SOL    HW120240   1.044   1.142   6.244 -0.7870  1.0006  2.7148
 2868SOL    HW220241   1.131   1.242   6.201 -0.2942  2.5217  0.4442
 2869SOL     OW20242   0.137   0.711   2.627  0.1274  0.1266  0.2425
 2869SOL    HW120243   0.070   0.774   2.655  1.7681  0.3790  3.6284
 2869SOL    HW220244   0.097   0.625   2.634  0.5482  0.0405  1.5346
 2870SOL     OW20245   3.508   3.059   2.270  0.1068 -0.2019  0.0919
 2870SOL    HW120246   3.544   3.069   2.182  1.2446  1.4998  0.7358
 2870SOL    HW220247   3.421   3.024   2.253 -0.0477  0.6586 -0.8801
 2871SOL     OW20248   1.528   3.065  10.669 -0.0251  0.1602  0.7652
 2871SOL    HW120249   1.535   3.132  10.600 -0.8601 -0.0746  0.4567
 2871SOL    HW220250   1.434   3.059  10.681 -0.0239  1.1041  1.2479
 2872SOL     OW20251   3.856   0.349   3.858  0.1248 -0.5291 -0.3801
 2872SOL    HW120252   3.803   0.313   3.787  0.0671  1.7901 -1.5090
 2872SOL    HW220253   3.803   0.425   3.880  0.1257 -0.7002  0.2127
 2873SOL     OW20254   4.239   2.080   4.862 -0.2856 -0.3624 -0.0238
 2873SOL    HW120255   4.316   2.030   4.888  0.7287  1.4708  0.4831
 2873SOL    HW220256   4.206   2.009   4.807  1.0326  0.6523 -2.1058
 2874SOL     OW20257   2.895   3.219   7.448  0.2323 -0.5984  0.1267
 2874SOL    HW120258   2.842   3.207   7.369 -0.6764  0.5787  0.5621
 2874SOL    HW220259   2.941   3.299   7.423  0.3563 -0.8847 -0.5596
 2875SOL     OW20260   3.760   2.830   0.968  0.6404 -0.1349  0.6625
 2875SOL    HW120261   3.667   2.838   0.944  0.4886 -1.6584  0.7097
 2875SOL    HW220262   3.786   2.787   0.886 -1.4048  0.1160 -0.1274
 2876SOL     OW20263   1.600   1.722  10.463 -0.1103 -0.0831  0.2450
 2876SOL    HW120264   1.581   1.761  10.549 -3.0670 -0.7343 -0.1130
 2876SOL    HW220265   1.670   1.778  10.429  2.3307 -2.4733  1.3933
 2877SOL     OW20266   4.200   2.705   3.675 -0.0354  0.3447 -0.2041
 2877SOL    HW120267   4.116   2.670   3.646 -1.1545  1.5540  1.5132
 2877SOL    HW220268   4.251   2.626   3.657 -0.5025  0.3530 -1.5591
 2878SOL     OW20269   0.964   3.923   7.092  0.3184  0.2301  0.1873
 2878SOL    HW120270   0.927   4.002   7.053 -0.2605 -0.5414 -0.8178
 2878SOL    HW220271   0.885   3.867   7.096  0.5963 -0.0285  1.9661
 2879SOL     OW20272   2.515   4.638   4.170 -0.4705  0.0550 -0.2437
 2879SOL    HW120273   2.587   4.601   4.222  0.5097  1.8571 -0.3411
 2879SOL    HW220274   2.441   4.577   4.180 -1.7539  1.9716  2.1802
 2880SOL     OW20275   0.039   3.228   1.587 -0.3394  0.0681 -0.4476
 2880SOL    HW120276   0.104   3.272   1.532 -1.5925 -0.0947 -2.0420
 2880SOL    HW220277   0.018   3.157   1.527 -1.6347  1.0454 -1.1323
 2881SOL     OW20278   4.665   4.218  11.807 -0.5931 -0.3437 -0.2555
 2881SOL    HW120279   4.723   4.183  11.740  1.0261  0.6825  0.6100
 2881SOL    HW220280   4.588   4.229  11.751 -0.1469  0.9723 -0.6021
 2882SOL     OW20281   0.679   0.883   6.110 -0.1327  0.4628 -0.0730
 2882SOL    HW120282   0.690   0.845   6.197 -2.2555  0.5802  0.2494
 2882SOL    HW220283   0.662   0.976   6.122  0.0050  0.4883 -0.0763
 2883SOL     OW20284   1.050   1.268   2.925  0.2041  0.6862 -0.4504
 2883SOL    HW120285   0.978   1.207   2.912  1.5988 -1.6592  2.8056
 2883SOL    HW220286   1.039   1.329   2.852 -1.1346  0.4003 -0.4859
 2884SOL     OW20287   2.812   2.727   4.854 -0.2523  0.9038  0.6983
 2884SOL    HW120288   2.905   2.747   4.866  0.3224  0.0888 -2.2522
 2884SOL    HW220289   2.813   2.706   4.761 -0.9553  0.9514  0.6809
 2885SOL     OW20290   3.474   3.380   4.348  0.1656  0.1587  0.2468
 2885SOL    HW120291   3.488   3.317   4.419  1.0996  1.4331  1.1901
 2885SOL    HW220292   3.565   3.403   4.331  0.2787  1.8600  3.1316
 2886SOL     OW20293   1.306   4.658   5.737 -0.7737 -0.1940 -0.5147
 2886SOL    HW120294   1.321   0.005   5.779  0.6741 -0.9372  0.4389
 2886SOL    HW220295   1.368   4.662   5.664 -0.4135 -0.4845 -0.2215
 2887SOL     OW20296   3.511   3.316  17.027 -0.2928  0.0372 -0.3764
 2887SOL    HW120297   3.510   3.344  17.118 -2.6587 -1.7962  0.1460
 2887SOL    HW220298   3.501   3.403  16.988 -0.0173  0.5588  0.7286
 2888SOL     OW20299   0.933   3.468  11.465 -0.0219 -0.7147 -0.2554
 2888SOL    HW120300   0.911   3.500  11.377 -1.0868 -2.0724 -0.4861
 2888SOL    HW220301   1.028   3.462  11.460 -0.1347 -3.0527  0.3902
 2889SOL     OW20302   0.247   0.406   5.204 -0.4605  0.0635  0.5555
 2889SOL    HW120303   0.182   0.385   5.136 -0.9277  0.3882  0.8990
 2889SOL    HW220304   0.267   0.493   5.170  1.3567 -0.8977 -0.8018
 2890SOL     OW20305   2.387   4.396  12.852  0.2341 -0.2290 -0.0557
 2890SOL    HW120306   2.441   4.466  12.816  0.9806 -0.6548  0.2330
 2890SOL    HW220307   2.357   4.357  12.770 -1.9024 -0.1187  0.6626
 2891SOL     OW20308   2.079   1.070   1.997  0.1453  0.3214  0.6132
 2891SOL    HW120309   2.106   1.098   2.084  1.6190 -2.9343  1.2283
 2891SOL    HW220310   2.169   1.070   1.962 -0.4617 -1.7209 -0.9814
 2892SOL     OW20311   4.027   2.993   8.211 -0.3915 -0.4758  0.4078
 2892SOL    HW120312   3.935   2.970   8.216 -0.2280 -0.8698  1.7238
 2892SOL    HW220313   4.052   2.971   8.301 -1.8012 -0.9390  0.6886
 2893SOL     OW20314   3.722   1.769   6.445  0.0496 -0.3832 -0.0106
 2893SOL    HW120315   3.809   1.756   6.484  0.9824 -1.0888 -2.3083
 2893SOL    HW220316   3.694   1.845   6.497 -1.0773 -1.1311  0.4835
 2894SOL     OW20317   3.672   2.047   8.279  0.4168  0.2045 -0.5939
 2894SOL    HW120318   3.731   1.986   8.235  0.5725  1.4014 -2.0426
 2894SOL    HW220319   3.702   2.133   8.249 -1.3971  1.3147  0.7856
 2895SOL     OW20320   4.608   2.366   8.685 -0.5005 -0.2124 -0.5955
 2895SOL    HW120321   4.520   2.335   8.706 -0.2621 -0.0518  0.6372
 2895SOL    HW220322   4.656   2.284   8.673 -0.3129 -0.5302  2.2900
 2896SOL     OW20323   3.242   3.788   6.432 -0.3824  0.0721  0.2707
 2896SOL    HW120324   3.267   3.849   6.362  1.6937 -2.5003 -1.2124
 2896SOL    HW220325   3.302   3.717   6.414  0.4817  0.9614 -0.3752
 2897SOL     OW20326   2.108   0.375   5.122 -0.6384  0.1700  0.6900
 2897SOL    HW120327   2.091   0.461   5.083  0.4449 -0.2760 -0.7458
 2897SOL    HW220328   2.034   0.363   5.183 -0.1535 -1.1095  1.0068
 2898SOL     OW20329   1.262   3.734   3.531 -0.3207  0.7001 -0.3664
 2898SOL    HW120330   1.218   3.708   3.450 -0.6383  1.0530 -0.3097
 2898SOL    HW220331   1.253   3.829   3.535  0.2516  0.6996  1.0443
 2899SOL     OW20332   3.598   3.636   9.004 -0.8224  0.1426 -0.6688
 2899SOL    HW120333   3.650   3.713   9.025 -0.8389  0.2279 -0.9360
 2899SOL    HW220334   3.537   3.630   9.077  0.7620  1.6276  0.7600
 2900SOL     OW20335   1.226   2.230   4.276  0.5572 -0.2258 -0.0497
 2900SOL    HW120336   1.244   2.318   4.309 -1.5478  1.3045 -2.9854
 2900SOL    HW220337   1.151   2.217   4.334  2.2819  0.5507  2.3696
 2901SOL     OW20338   3.801   4.132   4.208 -0.2937 -0.1100 -0.2619
 2901SOL    HW120339   3.878   4.135   4.150 -1.1678 -0.8922 -1.4608
 2901SOL    HW220340   3.778   4.224   4.223 -0.3188 -0.2404  0.4879
 2902SOL     OW20341   0.464   1.837   5.729  0.2249 -0.3281 -0.1633
 2902SOL    HW120342   0.372   1.856   5.748  0.1492 -1.9138  1.0040
 2902SOL    HW220343   0.492   1.918   5.685  0.1968 -0.7037 -0.8705
 2903SOL     OW20344   3.572   4.437   8.515 -0.6130 -0.4037  0.0564
 2903SOL    HW120345   3.660   4.426   8.479  0.0988 -0.3952  1.7908
 2903SOL    HW220346   3.523   4.361   8.484 -2.1789  1.1082 -1.1712
 2904SOL     OW20347   0.142   2.281   3.166  0.3386 -0.0485  0.4171
 2904SOL    HW120348   0.234   2.306   3.157 -0.3312  1.3280 -2.8461
 2904SOL    HW220349   0.156   2.203   3.218  2.0543  0.5970  0.9148
 2905SOL     OW20350   3.925   3.221  17.249 -0.4971 -0.1586 -0.1477
 2905SOL    HW120351   3.880   3.226  17.333  0.2194 -1.5461  0.3123
 2905SOL    HW220352   4.015   3.227  17.281  0.0437  1.5111 -1.9500
 2906SOL     OW20353   1.897   1.916   3.249 -0.1266  0.1618 -0.3312
 2906SOL    HW120354   1.930   1.842   3.197 -2.5235 -1.5781  0.6360
 2906SOL    HW220355   1.938   1.898   3.333 -0.3865  0.6998 -0.0897
 2907SOL     OW20356   1.466   2.106   1.914 -0.0843  0.3694  0.2848
 2907SOL    HW120357   1.543   2.125   1.860 -0.5048 -1.5532 -0.9770
 2907SOL    HW220358   1.477   2.174   1.980 -0.2879  1.7662 -1.1137
 2908SOL     OW20359   3.295   4.298   2.572  0.2229  0.1560 -0.0984
 2908SOL    HW120360   3.229   4.329   2.510 -1.2373 -1.5271  0.6249
 2908SOL    HW220361   3.347   4.249   2.508  1.1605 -0.6660  1.3081
 2909SOL     OW20362   1.540   3.117   3.403  0.2820 -0.0210  0.9330
 2909SOL    HW120363   1.625   3.151   3.431  1.7067 -0.8306 -2.3719
 2909SOL    HW220364   1.551   3.135   3.309 -2.6958 -2.1921  0.1627
 2910SOL     OW20365   0.454   2.426   5.995  0.1388  0.0001 -0.0171
 2910SOL    HW120366   0.399   2.471   5.931  0.6879  0.9435  0.1692
 2910SOL    HW220367   0.456   2.331   5.985 -0.2773 -0.2471  2.2667
 2911SOL     OW20368   2.143   3.985   1.185  0.2764 -0.1057 -0.0104
 2911SOL    HW120369   2.093   3.973   1.266 -0.5091 -1.3183 -0.6865
 2911SOL    HW220370   2.065   4.000   1.132  0.3013  1.5731  0.4217
 2912SOL     OW20371   0.657   1.675   9.564  0.0137  0.6978  0.3930
 2912SOL    HW120372   0.620   1.587   9.559 -1.3517  1.4470 -2.4475
 2912SOL    HW220373   0.579   1.719   9.597 -0.0018  1.0954 -0.1698
 2913SOL     OW20374   2.735   4.113   3.800 -0.3390 -0.3948  0.1593
 2913SOL    HW120375   2.697   4.197   3.775  2.3869  0.5901 -0.6149
 2913SOL    HW220376   2.674   4.049   3.763 -0.9825  0.7748 -0.8138
 2914SOL     OW20377   2.730   1.691   5.966 -0.4092  0.1666 -0.2569
 2914SOL    HW120378   2.641   1.716   5.943 -0.9433 -0.1696  1.4505
 2914SOL    HW220379   2.733   1.718   6.057  0.9253 -0.5167 -0.0911
 2915SOL     OW20380   0.192   2.371  17.328 -0.2313 -0.5680  0.2481
 2915SOL    HW120381   0.143   2.317  17.391 -0.2350 -0.9211 -0.0519
 2915SOL    HW220382   0.134   2.363  17.252  0.3240  1.7457 -0.3931
 2916SOL     OW20383   4.732   1.554   3.233 -0.0335 -0.0929  0.6985
 2916SOL    HW120384   0.057   1.506   3.178 -1.2690  1.6602 -2.2205
 2916SOL    HW220385   4.655   1.549   3.177  1.4748 -0.8328 -1.3008
 2917SOL     OW20386   4.134   3.503   8.711 -0.4417 -1.0817  0.2347
 2917SOL    HW120387   4.136   3.459   8.796  1.4552 -3.7027 -1.1535
 2917SOL    HW220388   4.069   3.442   8.675 -0.7200 -0.1909 -0.7794
 2918SOL     OW20389   4.139   1.649  14.277 -0.2960  0.0465 -0.2372
 2918SOL    HW120390   4.098   1.569  14.310 -2.9525  1.2651 -0.6330
 2918SOL    HW220391   4.088   1.662  14.197 -2.9564 -0.4699  1.4010
 2919SOL     OW20392   1.550   3.814  12.673 -0.1419  0.0356  0.8338
 2919SOL    HW120393   1.576   3.759  12.747 -0.8407 -1.7366 -0.2094
 2919SOL    HW220394   1.633   3.857  12.652  0.5868 -1.0427  1.4846
 2920SOL     OW20395   4.385   2.253   9.795  0.4980  0.2805  0.2676
 2920SOL    HW120396   4.449   2.197   9.751  0.6748  1.1472 -0.5715
 2920SOL    HW220397   4.352   2.187   9.855 -1.9126 -0.1973 -1.6018
 2921SOL     OW20398   1.503   1.496   5.668 -0.1247 -0.5542  0.0746
 2921SOL    HW120399   1.495   1.588   5.690 -0.6904  0.0715 -2.8174
 2921SOL    HW220400   1.419   1.469   5.705  0.1724  1.7009  2.3469
 2922SOL     OW20401   1.118   0.733  16.212  0.3337 -0.3842  0.1901
 2922SOL    HW120402   1.105   0.814  16.262  0.1920 -0.3079  0.0295
 2922SOL    HW220403   1.053   0.683  16.261  0.3153 -0.1692  0.3848
 2923SOL     OW20404   3.328   1.834   3.379 -0.3501  0.5763  0.5530
 2923SOL    HW120405   3.370   1.811   3.461  3.7006 -1.6697 -2.1727
 2923SOL    HW220406   3.277   1.910   3.408  0.6683  0.9308  1.4338
 2924SOL     OW20407   0.563   0.938  14.498 -0.2138 -0.4331  0.2037
 2924SOL    HW120408   0.579   0.991  14.420  1.7663  0.2909  1.0931
 2924SOL    HW220409   0.601   0.992  14.567  1.2981  0.6402 -1.4542
 2925SOL     OW20410   2.436   4.066   9.401  0.1252 -0.0746 -0.1096
 2925SOL    HW120411   2.374   4.136   9.378  1.3866  1.4594  1.1795
 2925SOL    HW220412   2.378   3.997   9.434 -0.7245 -0.2959 -2.0279
 2926SOL     OW20413   4.690   4.107   8.112 -0.2083  0.4363  1.1577
 2926SOL    HW120414   4.662   4.147   8.030  0.4277  0.4199  0.9296
 2926SOL    HW220415   4.655   4.170   8.175 -1.2650 -0.9633  1.9768
 2927SOL     OW20416   1.953   1.254   4.785 -0.3608  0.0301 -0.2514
 2927SOL    HW120417   2.003   1.329   4.753  0.7070 -0.3768  0.4775
 2927SOL    HW220418   2.012   1.181   4.800 -1.0277  0.5634  4.8427
 2928SOL     OW20419   0.033   3.544   4.828 -0.5079  0.6551 -0.1265
 2928SOL    HW120420   0.069   3.539   4.740 -1.1058 -1.6773 -0.2323
 2928SOL    HW220421   0.029   3.639   4.837  1.2254  0.6582  0.5576
 2929SOL     OW20422   2.612   2.633   9.500 -0.3178  0.4734 -0.0979
 2929SOL    HW120423   2.592   2.575   9.574  1.0689 -2.3523 -1.9493
 2929SOL    HW220424   2.679   2.585   9.450 -1.6385 -1.7786  0.2763
 2930SOL     OW20425   2.984   0.555   7.226 -0.3186  0.8317 -0.7468
 2930SOL    HW120426   2.909   0.518   7.274  0.2933  0.1436 -0.3311
 2930SOL    HW220427   3.064   0.528   7.271 -1.4018  0.6049  1.0721
 2931SOL     OW20428   0.209   3.460   8.065 -0.0011  0.3869 -0.2958
 2931SOL    HW120429   0.228   3.367   8.055  0.1948  0.2455  1.3301
 2931SOL    HW220430   0.210   3.483   7.973  2.9209  1.6987  0.0542
 2932SOL     OW20431   0.773   3.916   5.508 -0.6597 -0.2009 -1.0644
 2932SOL    HW120432   0.713   3.964   5.565 -0.9177 -1.0038 -0.6553
 2932SOL    HW220433   0.780   3.847   5.574 -0.8079  0.2502 -0.5777
 2933SOL     OW20434   4.674   2.225   6.231  0.4022  0.6783  0.3741
 2933SOL    HW120435   4.679   2.220   6.326 -1.1166  0.5691  0.4472
 2933SOL    HW220436   4.579   2.209   6.228  0.2194  1.7061  0.7589
 2934SOL     OW20437   3.796   2.938   9.492 -0.0878  0.2593  0.4966
 2934SOL    HW120438   3.806   2.907   9.402 -0.1370 -0.9409  0.9019
 2934SOL    HW220439   3.864   2.885   9.534 -0.4727 -0.0299  0.7483
 2935SOL     OW20440   0.213   2.428   7.188 -0.2024 -0.9153  0.1964
 2935SOL    HW120441   0.171   2.465   7.265 -0.2377 -1.6725  0.5442
 2935SOL    HW220442   0.135   2.395   7.144 -0.0274  1.8339 -2.1509
 2936SOL     OW20443   2.533   1.761   7.346  0.1066 -0.0000  0.0689
 2936SOL    HW120444   2.619   1.802   7.343 -0.2571  0.8122  0.5850
 2936SOL    HW220445   2.547   1.694   7.414  0.0780  1.9082  1.9690
 2937SOL     OW20446   2.981   0.959  12.905 -0.3633 -0.1538 -0.3369
 2937SOL    HW120447   2.923   0.961  12.829 -1.1568 -1.3135  0.2433
 2937SOL    HW220448   2.944   0.882  12.947 -0.5725 -0.0317 -0.2953
 2938SOL     OW20449   4.704   0.166  13.820  0.0593 -0.3711  0.2974
 2938SOL    HW120450   4.712   0.072  13.805  0.6238  0.0098 -1.9477
 2938SOL    HW220451   4.653   0.195  13.744  0.0662 -0.8988  0.0957
 2939SOL     OW20452   4.684   3.050   3.604 -0.0656  0.2330 -0.3525
 2939SOL    HW120453   0.010   3.053   3.532 -0.6885  0.0972 -0.8951
 2939SOL    HW220454   4.736   2.992   3.659 -2.1948 -1.4071 -0.0779
 2940SOL     OW20455   1.465   3.063  10.942  0.0881 -0.3252 -0.1545
 2940SOL    HW120456   1.439   3.153  10.922  2.2220  0.4020  0.2306
 2940SOL    HW220457   1.518   3.036  10.867 -0.4124 -0.8834 -0.3001
 2941SOL     OW20458   4.601   4.388   7.430  0.3279 -0.3417 -0.5045
 2941SOL    HW120459   4.532   4.337   7.472  0.7295 -0.6437 -0.2174
 2941SOL    HW220460   4.644   4.333   7.364 -0.5012 -0.9496 -0.5369
 2942SOL     OW20461   0.056   4.447   3.195 -0.0902  0.2356  0.5483
 2942SOL    HW120462   0.019   4.380   3.138 -0.4288  0.0421  0.9933
 2942SOL    HW220463   0.055   4.527   3.144  0.1255 -1.2087 -1.6989
 2943SOL     OW20464   1.122   4.539   6.808  0.3145 -0.2666 -0.3678
 2943SOL    HW120465   1.080   4.473   6.864 -0.4411  0.7823  0.2830
 2943SOL    HW220466   1.126   4.490   6.725 -1.6119 -0.0288 -0.6016
 2944SOL     OW20467   2.462   4.165   8.865  0.1280 -0.0605 -0.3530
 2944SOL    HW120468   2.448   4.194   8.775 -0.8331  1.6378  0.3396
 2944SOL    HW220469   2.541   4.114   8.854  0.3216  0.0517  0.5182
 2945SOL     OW20470   0.536   3.153   4.529 -0.6147 -0.8083  0.1430
 2945SOL    HW120471   0.455   3.107   4.551 -1.7139  1.1746  0.2893
 2945SOL    HW220472   0.517   3.161   4.435  0.6881  2.6022  0.1810
 2946SOL     OW20473   0.250   1.533   7.100 -0.4313 -0.8359 -0.0796
 2946SOL    HW120474   0.307   1.610   7.108 -0.1970 -0.9871 -0.2735
 2946SOL    HW220475   0.258   1.497   7.012 -2.1212 -2.2442  0.3319
 2947SOL     OW20476   1.632   2.738   4.163  0.0428 -0.0521  0.2356
 2947SOL    HW120477   1.709   2.687   4.189  0.6239  0.7868  0.1963
 2947SOL    HW220478   1.597   2.678   4.097  0.0003  2.7626 -2.3186
 2948SOL     OW20479   3.407   2.537   2.610  0.2467  0.1672  0.5722
 2948SOL    HW120480   3.352   2.532   2.688  0.0893  0.8166  0.4956
 2948SOL    HW220481   3.420   2.443   2.597  0.5626  0.5727 -1.9841
 2949SOL     OW20482   2.767   0.545   7.408  0.3792  0.0802 -0.2076
 2949SOL    HW120483   2.700   0.515   7.469  0.0064 -0.6282 -0.9715
 2949SOL    HW220484   2.825   0.579   7.476  1.6725  0.3349 -1.4235
 2950SOL     OW20485   0.446   1.317   8.409  0.0920  0.1197 -0.1781
 2950SOL    HW120486   0.427   1.281   8.495 -2.7303  0.1841 -0.7817
 2950SOL    HW220487   0.526   1.266   8.396  1.2836  1.8512  0.3799
 2951SOL     OW20488   1.336   3.882  14.100  0.1961 -0.2459  0.1879
 2951SOL    HW120489   1.271   3.903  14.167 -1.1440  2.1897 -1.9094
 2951SOL    HW220490   1.374   3.807  14.147 -1.7129 -2.0858 -1.1951
 2952SOL     OW20491   0.832   0.262   9.520 -0.2376 -0.0421 -0.1345
 2952SOL    HW120492   0.875   0.334   9.472  1.4517 -0.1976  1.1390
 2952SOL    HW220493   0.906   0.210   9.551  0.0634  0.1826 -0.4741
 2953SOL     OW20494   0.294   1.713   4.263 -0.0791  0.4458 -0.1044
 2953SOL    HW120495   0.334   1.791   4.224 -1.3824  0.5027 -1.3152
 2953SOL    HW220496   0.365   1.665   4.305 -0.4455 -2.0928 -2.4547
 2954SOL     OW20497   3.201   4.002   4.048  0.4238 -0.2657  0.0292
 2954SOL    HW120498   3.138   4.011   4.119 -1.1801  1.3509 -1.5760
 2954SOL    HW220499   3.184   4.076   3.989  0.6503  0.4229  0.8268
 2955SOL     OW20500   1.715   2.444   6.456  0.5081 -0.7481 -0.5041
 2955SOL    HW120501   1.697   2.533   6.489  2.0709 -0.7307  0.2831
 2955SOL    HW220502   1.648   2.439   6.387 -0.7915  2.8130  0.4561
 2956SOL     OW20503   4.026   0.554   8.596  0.5428  0.0952  0.4045
 2956SOL    HW120504   4.093   0.568   8.529 -0.3851  0.4874 -0.4583
 2956SOL    HW220505   3.951   0.572   8.539  0.3011 -0.0564  0.6777
 2957SOL     OW20506   2.160   0.189  10.817 -0.0297 -0.0840 -0.1094
 2957SOL    HW120507   2.196   0.270  10.853  1.3859 -1.0582  0.6478
 2957SOL    HW220508   2.079   0.184  10.868  0.8092  1.0487  1.3317
 2958SOL     OW20509   0.415   3.275  12.672  0.3854 -0.1201 -0.4486
 2958SOL    HW120510   0.416   3.368  12.694  1.2561 -0.1648 -0.2936
 2958SOL    HW220511   0.380   3.241  12.755 -0.9033 -1.0089 -1.3525
 2959SOL     OW20512   4.168   0.543   4.769  0.0908 -0.3266  0.4096
 2959SOL    HW120513   4.176   0.465   4.714 -1.5830 -0.1267 -0.1171
 2959SOL    HW220514   4.201   0.597   4.697  0.1217 -0.4783  0.3115
 2960SOL     OW20515   1.548   2.698   4.898  0.1828 -0.6366 -0.7480
 2960SOL    HW120516   1.491   2.667   4.969 -1.3739  0.5431 -1.4824
 2960SOL    HW220517   1.621   2.637   4.905 -0.7458 -1.5786  0.8072
 2961SOL     OW20518   2.382   1.998  10.068 -0.1921  0.9670  0.1271
 2961SOL    HW120519   2.385   1.951  10.151  1.3900  1.9177  0.6059
 2961SOL    HW220520   2.452   1.958  10.017  0.3407 -0.6917  2.1755
 2962SOL     OW20521   2.065   0.003   7.122  0.0865 -0.2322 -0.4479
 2962SOL    HW120522   2.060   0.093   7.154  1.6720  0.1451 -1.2693
 2962SOL    HW220523   2.133   4.707   7.182  1.5003  1.5241 -1.0798
 2963SOL     OW20524   0.340   4.092   2.791  0.0802  0.1406 -0.5133
 2963SOL    HW120525   0.403   4.075   2.720  0.2324 -0.7511 -0.1657
 2963SOL    HW220526   0.259   4.058   2.752 -0.2849  0.0635  0.3226
 2964SOL     OW20527   0.338   4.289   8.551 -0.1808 -0.2056 -0.2302
 2964SOL    HW120528   0.388   4.369   8.568  2.8265 -1.7327 -1.8938
 2964SOL    HW220529   0.248   4.318   8.563 -0.5396 -0.9525 -1.1642
 2965SOL     OW20530   4.140   2.900  12.246  0.2241 -0.3543  0.8137
 2965SOL    HW120531   4.209   2.869  12.304  1.0559 -0.2131 -0.1084
 2965SOL    HW220532   4.145   2.994  12.262  0.4149 -0.5358  1.8159
 2966SOL     OW20533   4.006   2.279   1.338  0.3433  0.0199  0.0667
 2966SOL    HW120534   4.091   2.286   1.379 -0.8123  1.2304  2.2403
 2966SOL    HW220535   4.033   2.317   1.254  1.2175 -0.3461  0.1880
 2967SOL     OW20536   2.474   3.452   7.423  0.0613 -0.4148 -0.0752
 2967SOL    HW120537   2.399   3.492   7.466  0.2117 -1.5510  1.2428
 2967SOL    HW220538   2.449   3.474   7.333  0.6148  0.8378  0.0825
 2968SOL     OW20539   4.538   2.352  15.295  0.2050 -0.1994 -0.5669
 2968SOL    HW120540   4.586   2.347  15.213 -1.4061 -2.4433 -1.3608
 2968SOL    HW220541   4.598   2.317  15.361  0.2656 -1.7057 -1.4216
 2969SOL     OW20542   3.220   1.254  11.935 -0.0797  1.0188 -0.3061
 2969SOL    HW120543   3.286   1.266  11.867 -1.2296 -1.3653 -1.8728
 2969SOL    HW220544   3.278   1.253  12.011 -0.0829 -0.6539 -0.3161
 2970SOL     OW20545   1.238   3.709   1.444 -0.5091 -0.0402 -0.0675
 2970SOL    HW120546   1.211   3.655   1.518  1.1061  1.9872  2.0116
 2970SOL    HW220547   1.280   3.785   1.485  3.5460 -2.6435  0.6058
 2971SOL     OW20548   0.068   1.283   1.004 -0.4151  0.4292  0.1015
 2971SOL    HW120549   4.713   1.304   1.016 -1.1658 -1.0954 -2.8848
 2971SOL    HW220550   0.083   1.307   0.912  0.6654  0.7771  0.3653
 2972SOL     OW20551   3.811   0.885   7.644 -0.1016  0.5193  0.1449
 2972SOL    HW120552   3.790   0.824   7.573 -0.4529  0.9743 -0.1456
 2972SOL    HW220553   3.830   0.826   7.716 -0.6086 -0.5306 -0.5864
 2973SOL     OW20554   4.333   3.248   4.775 -0.1592 -0.0949  0.0687
 2973SOL    HW120555   4.304   3.240   4.866  1.5153  3.1667  0.9028
 2973SOL    HW220556   4.428   3.247   4.787 -0.3907  0.6830  2.0780
 2974SOL     OW20557   2.569   2.754   8.898  0.3345  0.0262 -0.2230
 2974SOL    HW120558   2.599   2.733   8.987  0.6223  0.0554 -0.3126
 2974SOL    HW220559   2.510   2.826   8.921 -1.8691 -1.2336 -1.8824
 2975SOL     OW20560   0.828   0.137   3.959  0.4908  0.5241  0.0034
 2975SOL    HW120561   0.842   0.115   4.052 -1.0202  1.3533  0.4185
 2975SOL    HW220562   0.751   0.087   3.934 -0.5689  1.4426  1.4336
 2976SOL     OW20563   3.429   1.763   5.266 -0.5027 -0.0243  0.1525
 2976SOL    HW120564   3.408   1.834   5.204  1.6995 -0.5069 -1.1549
 2976SOL    HW220565   3.395   1.793   5.350  1.6560 -0.0439  1.0316
 2977SOL     OW20566   0.240   3.754  10.400  0.2852  0.3067 -0.1751
 2977SOL    HW120567   0.269   3.737  10.490  1.5266 -0.5218 -0.7305
 2977SOL    HW220568   0.300   3.825  10.377  0.9302 -0.6832 -1.5782
 2978SOL     OW20569   4.581   1.447   8.413  0.0299  0.5170 -0.4094
 2978SOL    HW120570   4.574   1.519   8.351 -1.2555 -0.3285 -1.2608
 2978SOL    HW220571   4.549   1.487   8.494  0.3795 -0.0302  0.0059
 2979SOL     OW20572   3.964   1.980  14.400  0.3974 -0.3823 -0.1825
 2979SOL    HW120573   3.922   2.044  14.343 -0.4738  0.1333  1.0448
 2979SOL    HW220574   3.918   1.997  14.482  2.8263  3.9915  0.2572
 2980SOL     OW20575   4.504   2.486   1.610 -0.4395 -0.0088 -0.7772
 2980SOL    HW120576   4.588   2.509   1.649 -0.1248  0.0130 -1.4825
 2980SOL    HW220577   4.446   2.560   1.630  0.5810  1.2737 -2.6195
 2981SOL     OW20578   4.585   2.652  14.773 -0.7379 -0.4835 -0.0292
 2981SOL    HW120579   4.491   2.644  14.791 -0.1416 -2.2664  2.3115
 2981SOL    HW220580   4.625   2.674  14.857 -1.1009  1.6563 -0.4146
 2982SOL     OW20581   1.569   1.085   4.285  0.5198  0.1525  0.4953
 2982SOL    HW120582   1.532   1.161   4.329 -2.8151 -0.2785 -1.5725
 2982SOL    HW220583   1.646   1.132   4.251  0.3458  1.0398  1.3509
 2983SOL     OW20584   0.063   4.156   8.634  0.0725  0.2157  0.2381
 2983SOL    HW120585   4.714   4.114   8.635 -0.3527  1.0511 -0.9461
 2983SOL    HW220586   0.080   4.167   8.540 -1.5757  1.6944  0.0984
 2984SOL     OW20587   2.129   0.143   6.129 -0.0056  0.5671 -0.0237
 2984SOL    HW120588   2.052   0.126   6.075  1.0744 -0.1218 -1.3348
 2984SOL    HW220589   2.154   0.051   6.137  2.2212  1.0977 -0.9023
 2985SOL     OW20590   3.410   3.738   1.830  0.5314  0.6475  0.4486
 2985SOL    HW120591   3.476   3.676   1.860 -0.4180 -0.5411  0.0813
 2985SOL    HW220592   3.338   3.702   1.882  0.9776  1.5240  1.6700
 2986SOL     OW20593   4.486   2.915  16.645  0.1614 -0.3885  0.4567
 2986SOL    HW120594   4.410   2.857  16.644 -0.4412  0.4010 -0.0710
 2986SOL    HW220595   4.540   2.865  16.585 -1.6216  0.3303 -1.7687
 2987SOL     OW20596   2.659   0.429   4.423 -0.2907  0.0331  0.4000
 2987SOL    HW120597   2.625   0.348   4.385  1.8456 -0.4248 -0.5606
 2987SOL    HW220598   2.708   0.399   4.500  1.6917 -0.3526 -1.0300
 2988SOL     OW20599   2.714   0.925  13.632  0.4981 -0.1144 -0.1662
 2988SOL    HW120600   2.773   0.971  13.572  1.1091 -1.9477 -0.9522
 2988SOL    HW220601   2.738   0.836  13.609  0.6321  0.3827 -1.9382
 2989SOL     OW20602   0.882   4.235   8.250 -0.2005  0.8818  0.1416
 2989SOL    HW120603   0.943   4.224   8.177 -1.2039 -2.9234 -0.1077
 2989SOL    HW220604   0.854   4.144   8.253 -0.6175  1.0312  0.8213
 2990SOL     OW20605   3.563   1.725   8.845 -0.2255 -0.5563 -0.0790
 2990SOL    HW120606   3.485   1.778   8.859  0.6674  0.5471  0.7323
 2990SOL    HW220607   3.630   1.790   8.825 -0.2740 -0.0496  1.4036
 2991SOL     OW20608   3.554   0.374   5.097  0.2817  0.1086 -0.0494
 2991SOL    HW120609   3.493   0.313   5.055 -1.2177  0.7339  1.2411
 2991SOL    HW220610   3.624   0.321   5.135  0.8416  0.5410 -0.4711
 2992SOL     OW20611   0.959   3.047   5.381  0.3697  0.0176 -0.0194
 2992SOL    HW120612   1.013   3.079   5.308  0.0936 -0.0970 -0.2749
 2992SOL    HW220613   0.878   3.035   5.331  0.6689 -1.7967 -0.0702
 2993SOL     OW20614   1.783   0.126  16.197 -0.2088  0.3633  0.2608
 2993SOL    HW120615   1.817   0.089  16.116  2.0573  1.9659  0.4725
 2993SOL    HW220616   1.839   0.085  16.263 -0.8073 -0.1754  0.4284
 2994SOL     OW20617   0.024   1.510   6.708  0.7622 -0.0627 -0.4558
 2994SOL    HW120618   0.105   1.461   6.694  0.3024 -1.0361  0.2964
 2994SOL    HW220619   4.732   1.479   6.794  0.1459 -2.1496 -1.4065
 2995SOL     OW20620   3.182   2.772  15.878 -0.3490  0.6052 -0.4564
 2995SOL    HW120621   3.115   2.751  15.942  0.7074 -1.3149  0.0294
 2995SOL    HW220622   3.262   2.749  15.926 -1.1988  0.7178  1.0064
 2996SOL     OW20623   2.200   4.383   3.801 -0.7928  0.4376  0.1944
 2996SOL    HW120624   2.183   4.424   3.886 -2.4393  0.3194 -0.0881
 2996SOL    HW220625   2.150   4.447   3.751 -0.4219  2.4326  2.3589
 2997SOL     OW20626   0.108   1.214   2.559  0.6547  0.5888  0.6580
 2997SOL    HW120627   0.112   1.138   2.617  0.1594 -0.2912 -0.4560
 2997SOL    HW220628   0.198   1.248   2.561  0.9993 -0.2750 -0.1327
 2998SOL     OW20629   3.407   4.208  13.296 -0.5807 -0.5148 -0.1111
 2998SOL    HW120630   3.469   4.201  13.224 -1.5751  1.5438 -1.1678
 2998SOL    HW220631   3.332   4.238  13.246 -0.3921  0.5843  0.2727
 2999SOL     OW20632   1.011   4.511   3.653 -1.3779  0.6708 -0.4845
 2999SOL    HW120633   0.978   4.497   3.741 -3.6011 -1.0137 -1.5969
 2999SOL    HW220634   1.021   4.606   3.644  0.2587  0.2297 -3.3335
 3000SOL     OW20635   0.433   2.258  12.260  0.2669  0.0418  0.3521
 3000SOL    HW120636   0.522   2.227  12.275  1.0257  1.1452 -1.7642
 3000SOL    HW220637   0.420   2.256  12.165  1.2126  0.5841  0.2033
 3001SOL     OW20638   3.121   3.860   0.683 -0.2053 -0.0649 -0.3043
 3001SOL    HW120639   3.215   3.854   0.697 -0.1797  1.2797  0.1814
 3001SOL    HW220640   3.106   3.766   0.680 -0.3824 -0.0739  0.9821
 3002SOL     OW20641   4.650   0.888  16.353  0.1934 -0.2998  0.1862
 3002SOL    HW120642   4.557   0.879  16.373 -0.1444  1.0076 -0.8242
 3002SOL    HW220643   4.666   0.825  16.283 -1.1937  1.0118 -1.2999
 3003SOL     OW20644   4.074   4.010   5.738 -0.2247  0.0680  0.0542
 3003SOL    HW120645   4.049   3.919   5.723 -1.8656  0.6766 -0.9560
 3003SOL    HW220646   4.168   4.009   5.755 -0.1700  2.5955 -0.0139
 3004SOL     OW20647   2.184   0.901   7.326 -0.4250 -0.5379 -0.1706
 3004SOL    HW120648   2.190   0.983   7.276 -0.0596 -0.0308  0.7020
 3004SOL    HW220649   2.277   0.881   7.333 -0.7794 -1.9503  0.5543
 3005SOL     OW20650   2.225   1.060   4.994  0.4045 -0.5801  0.1352
 3005SOL    HW120651   2.155   1.015   4.946 -0.6045  0.9114  0.1923
 3005SOL    HW220652   2.278   1.088   4.919  1.1690  0.0732  0.9262
 3006SOL     OW20653   1.312   4.390   4.971  0.3809  0.5613 -0.1020
 3006SOL    HW120654   1.323   4.347   4.886  0.0591 -2.3432  1.3162
 3006SOL    HW220655   1.356   4.334   5.035 -0.3879 -0.6335 -0.6082
 3007SOL     OW20656   4.309   1.460   7.579 -0.9259  0.3442 -0.1982
 3007SOL    HW120657   4.242   1.465   7.646  1.0839 -0.5348  1.8830
 3007SOL    HW220658   4.323   1.554   7.568 -0.6709  0.6049  2.5132
 3008SOL     OW20659   3.710   1.663   5.549  0.4869  0.1350 -0.2456
 3008SOL    HW120660   3.783   1.695   5.496  0.6808 -1.2711 -0.8255
 3008SOL    HW220661   3.719   1.726   5.621  0.0401  0.9788 -0.9353
 3009SOL     OW20662   3.862   0.217   3.194  0.1112 -0.3462 -0.4127
 3009SOL    HW120663   3.772   0.246   3.207 -0.2728 -1.5847 -0.2710
 3009SOL    HW220664   3.857   0.171   3.110 -2.3301 -1.1125  0.1636
 3010SOL     OW20665   4.152   3.011   5.749  0.0929  0.2410 -0.0953
 3010SOL    HW120666   4.135   3.008   5.843  0.4235  0.2323 -0.0351
 3010SOL    HW220667   4.065   3.025   5.712 -0.2932 -0.0262  0.7312
 3011SOL     OW20668   3.305   1.312   6.015  0.3491  0.7035 -0.5434
 3011SOL    HW120669   3.314   1.374   6.088  2.4767 -1.6179  1.2077
 3011SOL    HW220670   3.226   1.266   6.044 -0.0087  1.4663 -0.2992
 3012SOL     OW20671   2.048   1.893   5.187  0.4027  0.1249 -0.2079
 3012SOL    HW120672   1.991   1.931   5.120 -0.5373 -0.6386  0.1620
 3012SOL    HW220673   1.987   1.827   5.219  2.5970 -1.4642  0.6810
 3013SOL     OW20674   3.701   0.917   5.393 -0.1314 -0.0878 -0.2593
 3013SOL    HW120675   3.714   0.836   5.443 -0.0854 -1.9447 -3.2959
 3013SOL    HW220676   3.751   0.983   5.440  0.0228  0.0504 -0.6164
 3014SOL     OW20677   0.358   4.675   7.076  0.1286  0.0237 -0.2428
 3014SOL    HW120678   0.276   4.699   7.032  1.9346  2.0505 -2.4742
 3014SOL    HW220679   0.415   4.735   7.028 -0.1161  0.5038  0.0548
 3015SOL     OW20680   4.178   1.299   7.104 -0.3347  0.2869 -0.5802
 3015SOL    HW120681   4.135   1.216   7.125 -0.8931  1.1243  1.5693
 3015SOL    HW220682   4.158   1.337   7.189  0.0352 -2.1606  0.6087
 3016SOL     OW20683   2.339   1.947   4.253  0.1883 -0.2958  0.0595
 3016SOL    HW120684   2.340   1.917   4.344  0.6189 -1.2007 -0.2429
 3016SOL    HW220685   2.249   1.977   4.239  0.5472  0.3571 -0.9005
 3017SOL     OW20686   0.049   0.645   7.975 -0.2962 -0.7118  0.1268
 3017SOL    HW120687   0.022   0.724   8.022 -0.0483  0.5487 -1.8167
 3017SOL    HW220688   0.110   0.680   7.909 -0.1948  1.0810  1.1556
 3018SOL     OW20689   3.284   1.077   1.503 -0.1055 -0.1071 -0.9230
 3018SOL    HW120690   3.355   1.028   1.462  0.8119  0.6955 -0.3011
 3018SOL    HW220691   3.294   1.156   1.450  0.4412  0.5291  0.1258
 3019SOL     OW20692   2.929   3.879   3.932  0.0609  0.0850  0.3527
 3019SOL    HW120693   2.863   3.929   3.884 -0.9430 -1.1096  0.4778
 3019SOL    HW220694   2.930   3.930   4.013  0.7125  0.4399  0.1124
 3020SOL     OW20695   0.680   3.675   5.677 -0.1058  0.0705  0.0085
 3020SOL    HW120696   0.602   3.722   5.709  0.4028 -0.1459  1.5607
 3020SOL    HW220697   0.646   3.632   5.598 -1.8362  1.2542  0.1093
 3021SOL     OW20698   4.053   2.704   9.337 -0.3791 -0.0216  0.0515
 3021SOL    HW120699   4.010   2.641   9.394 -1.3242 -0.7503 -1.4486
 3021SOL    HW220700   4.101   2.642   9.282 -2.5722 -1.3315 -0.3759
 3022SOL     OW20701   3.096   3.354   6.475  0.2238 -0.3364  0.3527
 3022SOL    HW120702   3.129   3.366   6.564  2.5299  0.9329 -0.6632
 3022SOL    HW220703   3.172   3.309   6.438  1.5920  0.2927  2.4364
 3023SOL     OW20704   2.069   4.725   6.659  0.1852 -0.0821  0.0995
 3023SOL    HW120705   2.152   0.003   6.705  1.5115 -0.3563 -2.2059
 3023SOL    HW220706   2.004   4.733   6.729 -0.7355 -0.2716 -0.7399
 3024SOL     OW20707   3.800   4.098   4.594 -0.0943 -0.6419 -0.2766
 3024SOL    HW120708   3.801   4.032   4.525 -0.0178 -0.0582 -0.8326
 3024SOL    HW220709   3.708   4.125   4.590  0.0698  0.4384  2.8150
 3025SOL     OW20710   0.456   2.505  12.900 -0.4301  1.1136 -0.6453
 3025SOL    HW120711   0.460   2.413  12.927 -0.7150  1.2296 -0.2145
 3025SOL    HW220712   0.421   2.549  12.977 -0.6407  2.8298 -1.7323
 3026SOL     OW20713   0.131   4.150   9.142 -0.4831 -0.6166  0.1867
 3026SOL    HW120714   0.156   4.214   9.208 -1.0558 -0.2800  0.0766
 3026SOL    HW220715   0.168   4.182   9.060 -1.2477 -0.5517 -0.1324
 3027SOL     OW20716   1.780   2.253  16.958 -0.0117 -0.0335  0.0477
 3027SOL    HW120717   1.695   2.289  16.931 -0.3802  0.8438  2.3498
 3027SOL    HW220718   1.843   2.300  16.903 -0.2064 -0.0613 -0.2024
 3028SOL     OW20719   3.294   3.943   2.801  0.5301 -0.2116  0.2180
 3028SOL    HW120720   3.301   4.014   2.865  1.7439  0.5825 -0.7902
 3028SOL    HW220721   3.256   3.876   2.856  0.2939 -1.2198 -1.1635
 3029SOL     OW20722   0.486   0.619   2.131 -0.1163 -0.0713 -0.6220
 3029SOL    HW120723   0.544   0.585   2.200 -2.2805  1.5209  1.9888
 3029SOL    HW220724   0.508   0.712   2.132 -1.3421  0.2024  0.3798
 3030SOL     OW20725   0.238   1.644   9.833  0.3027  0.2000 -0.2087
 3030SOL    HW120726   0.211   1.552   9.831  2.5793 -0.4332 -1.5159
 3030SOL    HW220727   0.168   1.666   9.894  2.0537  2.6348  0.9312
 3031SOL     OW20728   3.977   1.013   3.415  0.4811 -0.1821 -0.4397
 3031SOL    HW120729   3.941   1.093   3.453 -0.2779 -0.6982 -0.0804
 3031SOL    HW220730   4.069   1.040   3.422  0.7473 -1.0889 -0.3357
 3032SOL     OW20731   2.005   2.717  16.479 -0.1145  0.4627 -0.0652
 3032SOL    HW120732   2.070   2.648  16.490 -1.4074 -0.9122 -1.0004
 3032SOL    HW220733   2.058   2.786  16.518 -0.0040  0.7980 -0.7981
 3033SOL     OW20734   1.655   3.418   2.549 -0.5029 -0.2805  0.2227
 3033SOL    HW120735   1.655   3.388   2.640  1.6619 -0.7605  0.0723
 3033SOL    HW220736   1.746   3.447   2.537 -1.5717  1.7702 -3.0021
 3034SOL     OW20737   2.109   3.416  10.350  0.3270 -0.0599 -0.3205
 3034SOL    HW120738   2.105   3.331  10.305  2.0641 -0.8837  1.0671
 3034SOL    HW220739   2.130   3.472  10.276  0.3624 -0.3936 -0.5651
 3035SOL     OW20740   1.062   1.134  14.383  0.0787  1.0030 -0.0165
 3035SOL    HW120741   1.135   1.170  14.433  0.3982  1.9671 -1.1771
 3035SOL    HW220742   1.114   1.077  14.327 -1.9325  0.0269 -0.9140
 3036SOL     OW20743   2.281   0.528   3.767 -0.1272  0.2058 -0.0367
 3036SOL    HW120744   2.292   0.446   3.718  0.8390  0.0617  0.4236
 3036SOL    HW220745   2.241   0.583   3.699  1.3556  1.6389  0.2615
 3037SOL     OW20746   1.949   4.674  13.932  0.1036  0.0582 -0.7357
 3037SOL    HW120747   1.855   4.688  13.922  0.1637  1.1302  0.1423
 3037SOL    HW220748   1.961   4.673  14.027  0.3845 -0.7513 -0.7814
 3038SOL     OW20749   4.573   1.527  16.770 -0.2245  0.2488  0.2464
 3038SOL    HW120750   4.552   1.580  16.693  1.4044 -0.5587 -0.7526
 3038SOL    HW220751   4.657   1.492  16.741 -0.0778 -1.3606  2.6450
 3039SOL     OW20752   1.731   4.683  14.519  0.4224 -0.1509 -0.0946
 3039SOL    HW120753   1.697   0.002  14.450  1.3501  0.8097  0.2099
 3039SOL    HW220754   1.652   4.634  14.540  0.8558 -0.7631  0.1268
 3040SOL     OW20755   1.465   3.781   7.578 -0.2752  0.1617 -0.3459
 3040SOL    HW120756   1.465   3.726   7.499 -2.4601  0.5013 -0.5926
 3040SOL    HW220757   1.446   3.725   7.653  0.6976 -0.7325 -0.7777
 3041SOL     OW20758   0.232   2.659  13.042 -0.4797  1.0278 -0.2959
 3041SOL    HW120759   0.177   2.581  13.034 -0.0892  0.5739  1.2633
 3041SOL    HW220760   0.260   2.653  13.134 -0.8523  1.2093 -0.1712
 3042SOL     OW20761   1.066   0.321  13.913 -0.3910 -0.0762 -0.3678
 3042SOL    HW120762   1.075   0.352  13.823 -1.5267  0.3971 -0.3115
 3042SOL    HW220763   0.996   0.378  13.943 -1.9668 -1.1126 -2.0507
 3043SOL     OW20764   2.617   2.858   2.844 -0.2937  0.3883 -0.0922
 3043SOL    HW120765   2.550   2.925   2.831 -1.3084 -0.9238 -1.6118
 3043SOL    HW220766   2.602   2.790   2.778 -1.8846 -0.5264  1.2265
 3044SOL     OW20767   3.244   3.001   2.183  0.3552  0.2079 -0.0370
 3044SOL    HW120768   3.215   2.949   2.108 -0.5645 -0.7959  1.0058
 3044SOL    HW220769   3.233   3.093   2.161 -4.2567 -0.4315 -0.4400
 3045SOL     OW20770   2.323   4.260   6.321  0.5615 -0.3170  0.1839
 3045SOL    HW120771   2.418   4.271   6.324  0.0132  3.9544  2.6976
 3045SOL    HW220772   2.294   4.333   6.375  1.9294  0.7686 -0.5452
 3046SOL     OW20773   3.884   4.528   6.643  0.3142 -0.3556 -0.4218
 3046SOL    HW120774   3.889   4.618   6.674  2.1935 -0.6556  0.1208
 3046SOL    HW220775   3.869   4.534   6.549 -1.6950 -0.9482 -0.1544
 3047SOL     OW20776   0.707   4.658   4.834  0.4900 -0.1953  1.0197
 3047SOL    HW120777   0.707   4.601   4.758  1.4703 -1.4761  1.9945
 3047SOL    HW220778   0.665   4.609   4.905 -0.0608 -0.7732  0.2934
 3048SOL     OW20779   2.476   2.715   3.342  0.3800  0.3360  0.3349
 3048SOL    HW120780   2.479   2.643   3.280  0.3710  0.3676  0.2982
 3048SOL    HW220781   2.524   2.780   3.291 -0.0368 -0.1520 -0.6807
 3049SOL     OW20782   4.295   4.353   2.595 -0.2416  0.3813  0.2158
 3049SOL    HW120783   4.255   4.274   2.632  1.2482 -0.9704 -1.1114
 3049SOL    HW220784   4.244   4.355   2.514 -0.4216  1.9541  0.3668
 3050SOL     OW20785   1.907   4.258   4.818  0.1153  0.4071  0.1884
 3050SOL    HW120786   1.921   4.308   4.899  0.0244  0.3479  0.2405
 3050SOL    HW220787   1.867   4.327   4.765 -2.0537 -0.3968  0.7556
 3051SOL     OW20788   2.027   2.089   5.887  0.4113 -0.1271 -0.3733
 3051SOL    HW120789   2.032   2.070   5.980  2.1776 -0.0816 -0.4630
 3051SOL    HW220790   2.019   2.002   5.849 -0.2426  0.6581 -2.0601
 3052SOL     OW20791   3.334   1.110   3.874 -0.5348  0.2197 -0.0779
 3052SOL    HW120792   3.254   1.059   3.891 -0.6639  0.5005  0.1517
 3052SOL    HW220793   3.349   1.087   3.782 -2.5609  0.1115 -0.3801
 3053SOL     OW20794   1.855   4.617  10.241 -0.3883  0.0078 -0.4579
 3053SOL    HW120795   1.942   4.606  10.202  0.8363 -1.4443  2.6645
 3053SOL    HW220796   1.867   4.552  10.311  2.0370 -1.4261 -2.2230
 3054SOL     OW20797   0.477   4.300   2.521  0.1120 -0.4586  0.6003
 3054SOL    HW120798   0.539   4.261   2.460 -0.6422 -0.2068 -0.3234
 3054SOL    HW220799   0.540   4.353   2.570  1.8539 -0.5341 -1.5290
 3055SOL     OW20800   0.160   0.723   4.004  0.3144 -0.0084  0.1679
 3055SOL    HW120801   0.151   0.796   3.942 -0.0726 -0.2239 -0.0229
 3055SOL    HW220802   0.185   0.773   4.082 -0.0926 -0.7018  0.7385
 3056SOL     OW20803   3.191   1.514   9.165 -0.4357 -0.1974 -0.9920
 3056SOL    HW120804   3.191   1.525   9.070 -1.4573 -0.8124 -1.0512
 3056SOL    HW220805   3.169   1.421   9.170  0.5437 -0.3343  0.7350
 3057SOL     OW20806   2.547   4.204  15.591  0.7734  0.5493  0.1318
 3057SOL    HW120807   2.504   4.169  15.513 -0.1834 -2.5122  2.0218
 3057SOL    HW220808   2.493   4.279  15.616 -1.2669 -1.3762  1.5418
 3058SOL     OW20809   1.485   2.752   8.854 -0.1363 -0.4107 -0.0697
 3058SOL    HW120810   1.522   2.665   8.870 -0.6416 -0.5437  0.3903
 3058SOL    HW220811   1.392   2.734   8.867 -0.5380  1.1121 -0.8122
 3059SOL     OW20812   3.595   1.102   8.421  0.1514 -0.3806 -0.5666
 3059SOL    HW120813   3.629   1.017   8.448 -0.5701 -1.2520 -2.3511
 3059SOL    HW220814   3.646   1.169   8.466 -2.0355  1.0138 -0.1877
 3060SOL     OW20815   2.538   2.641   4.991  0.4977  0.1901  0.1587
 3060SOL    HW120816   2.616   2.586   4.998  0.3953 -0.4396 -3.2663
 3060SOL    HW220817   2.573   2.729   4.979  2.0755  0.1346  4.2889
 3061SOL     OW20818   4.522   0.071   7.018 -0.0838 -0.4121 -0.1934
 3061SOL    HW120819   4.571   0.118   6.951  1.7016  1.4469  2.3669
 3061SOL    HW220820   4.439   0.052   6.976  0.1547 -3.1751  0.6170
 3062SOL     OW20821   4.453   2.059   4.671 -0.8336 -0.0521  0.0260
 3062SOL    HW120822   4.538   2.069   4.629  0.0853 -0.4122  1.7912
 3062SOL    HW220823   4.473   1.974   4.709  0.8379 -0.2415 -1.3162
 3063SOL     OW20824   2.335   4.691   3.692  0.6216  0.0328 -0.1149
 3063SOL    HW120825   2.349   4.680   3.597 -2.2223  1.4586 -0.6940
 3063SOL    HW220826   2.247   4.654   3.697  0.8518 -0.4223  0.6545
 3064SOL     OW20827   3.245   3.286   6.867  0.0784 -0.3133 -0.4640
 3064SOL    HW120828   3.194   3.291   6.948 -0.2472  0.8348 -0.7356
 3064SOL    HW220829   3.170   3.271   6.810 -1.0896  2.1896  0.4062
 3065SOL     OW20830   2.839   0.527   5.415  1.2291 -0.0760 -0.1452
 3065SOL    HW120831   2.925   0.515   5.375  1.4659 -0.7135  0.5516
 3065SOL    HW220832   2.826   0.620   5.395 -0.7394 -0.0044  1.4265
 3066SOL     OW20833   2.029   1.290   7.194 -0.0070 -0.1141  0.1772
 3066SOL    HW120834   2.119   1.309   7.165  0.0781  1.4129  1.4101
 3066SOL    HW220835   2.000   1.381   7.183 -0.8771 -0.4467 -0.2443
 3067SOL     OW20836   4.410   1.862   3.814  0.4554  0.2776 -0.0902
 3067SOL    HW120837   4.476   1.928   3.791  0.0112  0.8397  0.2421
 3067SOL    HW220838   4.463   1.807   3.871  0.5234  0.2261 -0.2035
 3068SOL     OW20839   0.406   4.584   7.889 -0.3171  0.0491  0.6550
 3068SOL    HW120840   0.332   4.641   7.871  1.3882  1.7222 -1.0920
 3068SOL    HW220841   0.447   4.639   7.955  0.8741 -0.5058  0.3851
 3069SOL     OW20842   1.335   0.164   2.217  0.0157 -0.1715  0.1074
 3069SOL    HW120843   1.330   0.157   2.122 -1.2117  1.1831  0.0748
 3069SOL    HW220844   1.322   0.073   2.246  0.8475 -1.1119 -2.4576
 3070SOL     OW20845   2.380   3.998   0.573  0.2631  0.6117  0.0168
 3070SOL    HW120846   2.300   3.991   0.520  1.0462 -2.1828 -0.8039
 3070SOL    HW220847   2.452   4.019   0.514  1.2650  2.3028  1.8605
 3071SOL     OW20848   2.509   1.750   6.532  0.2766  0.0777  0.3142
 3071SOL    HW120849   2.434   1.691   6.536  2.1693 -2.5598 -2.4361
 3071SOL    HW220850   2.545   1.730   6.445  1.6053  2.4819  0.3084
 3072SOL     OW20851   1.988   3.756  14.437 -0.1232  0.1044 -0.3528
 3072SOL    HW120852   1.895   3.763  14.458 -0.5504 -0.7569 -1.9777
 3072SOL    HW220853   1.985   3.685  14.373 -1.5175 -1.2536  1.2094
 3073SOL     OW20854   3.993   1.539   6.932  0.3661  0.4884  0.6610
 3073SOL    HW120855   3.900   1.555   6.915  0.0925 -3.0218 -1.3571
 3073SOL    HW220856   3.987   1.457   6.982 -0.0599  0.4671  0.5764
 3074SOL     OW20857   3.353   2.687   2.041 -0.2639 -0.3670  0.2722
 3074SOL    HW120858   3.419   2.738   1.993 -0.1684  0.2820  1.0905
 3074SOL    HW220859   3.280   2.669   1.983 -0.9750 -4.1216  2.3909
 3075SOL     OW20860   3.508   4.410  15.732  0.1427  0.7602 -0.9643
 3075SOL    HW120861   3.559   4.335  15.764  0.6856  1.0583 -1.1215
 3075SOL    HW220862   3.510   4.398  15.637  2.2825 -1.9982 -0.5858
 3076SOL     OW20863   0.943   1.695   1.031  0.5008 -0.2283  0.4007
 3076SOL    HW120864   0.892   1.622   1.065  2.0071 -3.0585 -3.5061
 3076SOL    HW220865   1.023   1.687   1.084  0.9293  2.9024  0.2298
 3077SOL     OW20866   4.384   0.912   8.746  0.0997 -0.1285  0.5652
 3077SOL    HW120867   4.441   0.835   8.753 -3.2566 -2.6428 -0.0642
 3077SOL    HW220868   4.430   0.983   8.791  0.0514  1.2032 -1.4850
 3078SOL     OW20869   1.907   4.168   1.035 -0.3602  0.4265  0.0056
 3078SOL    HW120870   1.933   4.094   0.981  2.2793  1.8968 -0.7345
 3078SOL    HW220871   1.861   4.126   1.108 -0.7972  1.5673  0.3831
 3079SOL     OW20872   1.010   3.787  13.445 -0.1061  0.0512  0.1161
 3079SOL    HW120873   0.941   3.837  13.488 -0.3638  0.1563 -0.4250
 3079SOL    HW220874   0.989   3.792  13.352 -3.0504  0.3310  0.8263
 3080SOL     OW20875   2.184   0.526   6.379  0.5086  0.3834  0.4033
 3080SOL    HW120876   2.277   0.509   6.366  0.9641  3.1319 -0.0048
 3080SOL    HW220877   2.188   0.561   6.468 -0.9096 -0.0893  0.6473
 3081SOL     OW20878   3.626   2.558  15.045 -1.0622  0.3786 -0.1506
 3081SOL    HW120879   3.546   2.601  15.016  0.0075  2.2682 -0.3307
 3081SOL    HW220880   3.598   2.516  15.126  1.7194  0.6613  0.9685
 3082SOL     OW20881   4.631   4.014  11.526  0.3966  0.2349  0.2478
 3082SOL    HW120882   4.626   4.035  11.433  1.5168  0.6290  0.2727
 3082SOL    HW220883   4.678   3.931  11.514 -1.8616 -1.0128  0.0820
 3083SOL     OW20884   1.242   4.032   1.960 -0.2461  0.2732  0.2549
 3083SOL    HW120885   1.198   3.987   2.033  0.3435  1.0457  1.0892
 3083SOL    HW220886   1.295   3.967   1.915 -1.1323  1.2195 -2.1208
 3084SOL     OW20887   3.491   3.627   0.147 -0.2267 -0.1319 -0.6078
 3084SOL    HW120888   3.442   3.678   0.083  0.0119  0.2859 -0.4539
 3084SOL    HW220889   3.558   3.686   0.181 -0.3113 -0.1576 -0.3994
 3085SOL     OW20890   1.639   0.557   1.486  0.0224 -0.0239 -0.0776
 3085SOL    HW120891   1.652   0.499   1.410  1.3683 -1.0493  0.9461
 3085SOL    HW220892   1.727   0.593   1.491 -0.5357  1.1267  1.4366
 3086SOL     OW20893   0.181   1.087   5.574 -0.2888  0.2423 -0.1387
 3086SOL    HW120894   0.130   1.008   5.551 -0.6634  0.4784 -0.1156
 3086SOL    HW220895   0.116   1.135   5.625 -0.0834  0.2672  0.0971
 3087SOL     OW20896   3.939   1.481   2.274  0.5190  0.4973  0.6465
 3087SOL    HW120897   3.894   1.462   2.191  1.6767  0.4498  0.0289
 3087SOL    HW220898   4.024   1.441   2.259 -0.1086 -0.5302 -0.1827
 3088SOL     OW20899   1.526   0.513   7.518 -0.2475 -0.5317  0.1368
 3088SOL    HW120900   1.555   0.601   7.540 -0.4877 -0.7443  1.3244
 3088SOL    HW220901   1.506   0.473   7.602  1.7623  0.4260  1.0677
 3089SOL     OW20902   2.891   4.057   8.097 -0.0182 -0.3749  0.2211
 3089SOL    HW120903   2.869   4.128   8.037 -0.4169  0.1134  0.9437
 3089SOL    HW220904   2.859   4.091   8.181 -0.3624  2.8275 -1.2326
 3090SOL     OW20905   2.658   4.323   3.638  0.5861 -0.1558 -0.5166
 3090SOL    HW120906   2.590   4.257   3.622  1.4452 -1.0450 -0.4880
 3090SOL    HW220907   2.642   4.366   3.554 -1.6289 -0.0239 -0.0258
 3091SOL     OW20908   1.308   2.595  11.945 -0.5948  0.3433  0.1890
 3091SOL    HW120909   1.399   2.606  11.918 -0.8046  0.2033 -0.5767
 3091SOL    HW220910   1.314   2.509  11.987 -1.2904  0.6492  0.9112
 3092SOL     OW20911   3.075   4.125  14.857  0.2625 -0.1680  0.2860
 3092SOL    HW120912   2.994   4.075  14.860 -0.1109  0.4462  0.6629
 3092SOL    HW220913   3.113   4.109  14.771 -2.6783 -0.3282 -0.9897
 3093SOL     OW20914   1.722   3.991  12.555 -0.0219  0.4435 -0.0867
 3093SOL    HW120915   1.775   4.065  12.583  2.3584 -1.9952  1.7207
 3093SOL    HW220916   1.763   3.973  12.470  0.8381  2.6508 -0.1475
 3094SOL     OW20917   4.478   0.134   4.501 -0.1769  0.0510  0.0651
 3094SOL    HW120918   4.514   0.049   4.474  1.3635 -0.0095  2.2095
 3094SOL    HW220919   4.388   0.102   4.502  0.2776 -1.2942 -0.9655
 3095SOL     OW20920   2.875   3.418   6.767 -0.1453  0.5638 -0.3129
 3095SOL    HW120921   2.949   3.450   6.716  0.3423 -1.3028 -0.7711
 3095SOL    HW220922   2.805   3.473   6.731 -1.5827  0.7254  2.6539
 3096SOL     OW20923   1.644   4.595   7.576 -0.0276  0.0114 -0.0422
 3096SOL    HW120924   1.640   4.501   7.595  0.2979  0.3771  1.8481
 3096SOL    HW220925   1.654   4.625   7.666  2.6121 -1.3338  0.1111
 3097SOL     OW20926   1.399   1.107  12.773 -0.0257 -0.0821 -0.7374
 3097SOL    HW120927   1.472   1.146  12.822 -0.2345 -2.2976  1.3449
 3097SOL    HW220928   1.323   1.121  12.829  0.6517  1.1398 -0.1060
 3098SOL     OW20929   3.025   4.612  14.831  0.3483  0.9093  0.0505
 3098SOL    HW120930   2.949   4.636  14.778  0.2036 -0.1042 -0.2019
 3098SOL    HW220931   2.994   4.544  14.891  2.8670  0.3997  0.7742
 3099SOL     OW20932   2.243   0.487   8.564  0.6197  0.4025  0.3660
 3099SOL    HW120933   2.284   0.449   8.486 -1.1983 -0.1743 -0.3090
 3099SOL    HW220934   2.179   0.417   8.578  0.8665  0.2830  0.8916
 3100SOL     OW20935   4.550   0.285   5.861  0.0412 -0.7185  0.1177
 3100SOL    HW120936   4.576   0.199   5.828  0.4458 -1.0685  1.3805
 3100SOL    HW220937   4.576   0.276   5.952 -0.1446  1.2042  0.3583
 3101SOL     OW20938   2.337   2.620   5.798 -0.3237 -0.6066 -0.0428
 3101SOL    HW120939   2.259   2.669   5.772  0.1758 -0.6017 -1.5190
 3101SOL    HW220940   2.357   2.653   5.885  0.4662  1.0809 -0.8695
 3102SOL     OW20941   4.525   1.179  10.241 -0.5793  0.9155  0.3093
 3102SOL    HW120942   4.565   1.221  10.316  2.0950  0.6178 -0.9487
 3102SOL    HW220943   4.451   1.136  10.283 -0.0187  0.6036  0.9792
 3103SOL     OW20944   2.900   0.221   7.955 -0.0589 -0.1514  0.0555
 3103SOL    HW120945   2.971   0.284   7.970 -0.6097  0.7124 -0.9958
 3103SOL    HW220946   2.888   0.181   8.042  1.3719  1.0034  0.7949
 3104SOL     OW20947   1.497   0.480   8.237  0.3229  0.0719  0.2059
 3104SOL    HW120948   1.501   0.531   8.156 -1.0298 -2.2590 -1.3104
 3104SOL    HW220949   1.475   0.393   8.205 -0.5510  0.5453 -0.4796
 3105SOL     OW20950   4.398   0.622   4.109  0.0047 -0.3874 -0.6877
 3105SOL    HW120951   4.442   0.624   4.194  3.3220  1.2418 -2.4759
 3105SOL    HW220952   4.456   0.569   4.055 -1.3217 -2.2756 -0.2695
 3106SOL     OW20953   1.176   3.801   9.873 -0.7139  0.6180 -0.1007
 3106SOL    HW120954   1.152   3.734   9.808  1.1176 -1.3534  1.2787
 3106SOL    HW220955   1.256   3.760   9.905  0.0360  0.4419 -2.1589
 3107SOL     OW20956   0.535   4.717   8.105  0.0141  0.2285 -0.7144
 3107SOL    HW120957   0.528   0.056   8.164 -0.9324 -0.6136  0.2584
 3107SOL    HW220958   0.627   4.719   8.080  0.4561 -2.8262  0.6634
 3108SOL     OW20959   0.826   4.055   7.562  0.1188  0.1511 -0.1620
 3108SOL    HW120960   0.892   4.121   7.541  0.9876 -0.6289  0.1711
 3108SOL    HW220961   0.829   4.011   7.477  1.4448  0.8202 -0.4488
 3109SOL     OW20962   0.629   4.604   9.788 -0.0350  0.0509  0.4885
 3109SOL    HW120963   0.553   4.643   9.833 -0.3381  2.4206 -2.1033
 3109SOL    HW220964   0.696   4.670   9.804 -0.6500  0.0207  3.2145
 3110SOL     OW20965   0.877   2.789   9.604  0.5648  0.1622 -0.0697
 3110SOL    HW120966   0.918   2.703   9.595 -1.5963 -0.9128  0.3220
 3110SOL    HW220967   0.909   2.810   9.692 -0.0933 -0.5663  0.3431
 3111SOL     OW20968   0.490   1.639   6.199 -0.3373  0.4118  0.0220
 3111SOL    HW120969   0.449   1.689   6.270  1.1920  0.9152  0.5425
 3111SOL    HW220970   0.497   1.548   6.228 -4.8454 -0.4059 -1.4435
 3112SOL     OW20971   1.689   0.240   7.260 -0.4413  0.3812 -0.3090
 3112SOL    HW120972   1.664   0.275   7.175 -0.2279  2.1731  0.3685
 3112SOL    HW220973   1.782   0.266   7.260  0.0515 -1.3726  0.2932
 3113SOL     OW20974   4.170   2.144   8.408  0.1380  0.0727  0.0415
 3113SOL    HW120975   4.160   2.232   8.446  0.5934 -0.3142  1.0369
 3113SOL    HW220976   4.153   2.083   8.479 -2.0063  0.1269 -0.3965
 3114SOL     OW20977   2.150   4.226  13.549  0.1728 -0.1963  0.0913
 3114SOL    HW120978   2.203   4.230  13.469 -3.5296 -1.0232 -2.3926
 3114SOL    HW220979   2.196   4.287  13.607  1.2042 -1.0156  0.1297
 3115SOL     OW20980   1.835   1.600  16.117 -0.2388  0.5995 -0.4301
 3115SOL    HW120981   1.773   1.667  16.148 -0.3555  0.6288 -0.7348
 3115SOL    HW220982   1.817   1.593  16.024 -1.4653  0.0346 -0.1452
 3116SOL     OW20983   4.022   2.711   7.181 -0.3104  0.8173 -0.2043
 3116SOL    HW120984   3.986   2.622   7.176  0.2839  0.5412  0.4051
 3116SOL    HW220985   4.100   2.702   7.126  0.0104 -1.8143  0.6546
 3117SOL     OW20986   4.338   2.589   4.775 -0.2715 -0.4919  0.1793
 3117SOL    HW120987   4.417   2.634   4.805  0.4911 -1.4935 -0.3357
 3117SOL    HW220988   4.368   2.498   4.778 -2.2817 -1.0590  2.2715
 3118SOL     OW20989   2.276   1.492   1.636  0.4235  0.3677  0.0060
 3118SOL    HW120990   2.278   1.502   1.732  0.3967 -0.9677  0.1436
 3118SOL    HW220991   2.197   1.536   1.606  0.0911 -0.1936  0.0490
 3119SOL     OW20992   0.173   4.167   6.443  0.6379  0.0889 -0.7467
 3119SOL    HW120993   0.252   4.220   6.433 -0.8186  2.6782  1.4124
 3119SOL    HW220994   0.119   4.220   6.501  2.6404 -1.6436  2.6588
 3120SOL     OW20995   2.022   0.032   4.702  0.4314 -0.2899 -0.0309
 3120SOL    HW120996   2.065   0.074   4.628  1.6385 -0.0049  0.8310
 3120SOL    HW220997   2.101   0.001   4.747  0.5825  0.0572 -0.0561
 3121SOL     OW20998   4.006   1.957  10.195 -0.0749 -0.0250  0.2021
 3121SOL    HW120999   3.934   2.011  10.162 -0.1858  0.5803  1.4531
 3121SOL    HW221000   4.018   2.028  10.258 -1.3234 -1.6591  2.2649
 3122SOL     OW21001   3.420   2.141  13.423  0.3495  0.3438 -0.1129
 3122SOL    HW121002   3.348   2.081  13.401  0.4263  0.0662  0.4090
 3122SOL    HW221003   3.461   2.153  13.337  1.6565 -1.6761  0.2228
 3123SOL     OW21004   2.726   1.441   8.408  0.0827  0.6254  0.2368
 3123SOL    HW121005   2.673   1.398   8.475  1.2801 -0.0918  0.7293
 3123SOL    HW221006   2.674   1.520   8.416 -0.0052  0.7804 -1.8832
 3124SOL     OW21007   2.287   3.545   1.966  0.4796  0.4130  0.4994
 3124SOL    HW121008   2.352   3.613   1.982  1.0700 -0.0770  0.2231
 3124SOL    HW221009   2.210   3.592   1.936  1.5803  1.6211 -0.4418
 3125SOL     OW21010   3.367   1.048  13.533  0.3527 -0.4885  0.8117
 3125SOL    HW121011   3.437   1.091  13.484 -0.6779  1.4134  1.0183
 3125SOL    HW221012   3.298   1.047  13.466  1.9562 -0.2026 -0.8649
 3126SOL     OW21013   2.629   2.004  16.726  0.3491  0.2357  0.1728
 3126SOL    HW121014   2.602   2.091  16.754  0.5628  0.0050  1.0769
 3126SOL    HW221015   2.589   1.950  16.794  0.9550 -1.5259 -0.8434
 3127SOL     OW21016   2.332   0.364   4.010  0.2560  0.4532 -0.8815
 3127SOL    HW121017   2.411   0.414   4.030  1.1934 -0.2507 -2.8364
 3127SOL    HW221018   2.312   0.401   3.923  1.8062  1.2046 -0.9091
 3128SOL     OW21019   3.642   1.283   2.504  0.0120 -0.4807  0.8065
 3128SOL    HW121020   3.702   1.241   2.443 -0.5272 -0.9480  0.6018
 3128SOL    HW221021   3.669   1.374   2.509 -0.5796 -0.2511 -0.3269
 3129SOL     OW21022   0.502   4.252  15.476  0.3111 -0.1829 -0.3930
 3129SOL    HW121023   0.569   4.316  15.502 -1.8263 -0.0416  4.8069
 3129SOL    HW221024   0.449   4.308  15.420 -0.0371  0.5312  0.6449
 3130SOL     OW21025   2.853   2.920   8.396 -0.5263 -0.0767  0.2756
 3130SOL    HW121026   2.838   2.833   8.358 -1.8145 -0.8165  2.3930
 3130SOL    HW221027   2.790   2.976   8.351 -0.3096 -0.2581 -0.2541
 3131SOL     OW21028   2.019   2.120   9.294  0.2998  0.3528 -0.1287
 3131SOL    HW121029   2.104   2.105   9.252  0.2428  0.5409 -0.3118
 3131SOL    HW221030   2.019   2.214   9.310  0.8415 -0.0157  2.0460
 3132SOL     OW21031   3.747   2.307   9.289  0.5630  0.2175 -0.6315
 3132SOL    HW121032   3.665   2.261   9.276 -0.0753  1.8974 -2.6128
 3132SOL    HW221033   3.773   2.257   9.367 -0.6143 -0.9309 -0.9840
 3133SOL     OW21034   2.253   0.638   4.479 -0.3059 -0.0965  0.4377
 3133SOL    HW121035   2.347   0.649   4.464 -0.4977  0.4742 -0.3645
 3133SOL    HW221036   2.227   0.623   4.388 -1.8015 -1.1028  1.0370
 3134SOL     OW21037   3.461   0.014   6.150 -0.3265 -0.4371 -0.1094
 3134SOL    HW121038   3.457   4.733   6.056  0.3228 -0.9267 -0.0440
 3134SOL    HW221039   3.519   0.090   6.147 -3.1636  1.7293 -0.7014
 3135SOL     OW21040   2.597   4.059   4.301 -0.2447  0.3169  0.4472
 3135SOL    HW121041   2.670   4.001   4.323  2.1368  3.5228  0.9902
 3135SOL    HW221042   2.531   4.029   4.364  1.6702  1.2325  2.8713
 3136SOL     OW21043   2.927   3.234   8.075  0.2472 -0.8037 -0.3225
 3136SOL    HW121044   2.893   3.264   8.159 -0.5617 -3.8549  0.4478
 3136SOL    HW221045   2.865   3.273   8.013  0.2747  0.7396  0.6259
 3137SOL     OW21046   0.736   2.047   4.535 -0.2936  0.4867  0.3155
 3137SOL    HW121047   0.668   2.018   4.474  0.6284  0.0670 -0.5351
 3137SOL    HW221048   0.679   2.111   4.576 -1.6872 -0.9624  0.6416
 3138SOL     OW21049   2.633   4.665  14.902 -0.4138 -0.1837  0.1810
 3138SOL    HW121050   2.628   4.711  14.986  1.5829 -0.9869  0.7380
 3138SOL    HW221051   2.558   4.702  14.855  0.0282 -1.4978 -1.5739
 3139SOL     OW21052   1.141   3.716  11.245 -0.6204 -0.2630  0.3903
 3139SOL    HW121053   1.126   3.635  11.295  1.4136 -0.5401  0.5628
 3139SOL    HW221054   1.075   3.770  11.288  0.4774  0.7299  0.8130
 3140SOL     OW21055   3.004   3.053   7.070 -0.0874  0.1927 -0.3735
 3140SOL    HW121056   3.060   3.130   7.077 -2.3828  1.8126  0.1726
 3140SOL    HW221057   2.990   3.055   6.975 -3.5728 -0.2787  0.1207
 3141SOL     OW21058   4.507   2.799   0.305 -0.0758 -0.0548  0.1967
 3141SOL    HW121059   4.595   2.770   0.329  0.2672  1.1728  0.4372
 3141SOL    HW221060   4.457   2.778   0.384  0.1601  1.8445  0.8499
 3142SOL     OW21061   3.449   3.366   3.751  0.3039  0.7290  0.9758
 3142SOL    HW121062   3.400   3.429   3.804 -0.2443  1.4177 -0.3571
 3142SOL    HW221063   3.462   3.407   3.666 -1.2127  1.2766  1.0105
 3143SOL     OW21064   2.307   3.648   3.422 -0.0710 -0.0614  0.1339
 3143SOL    HW121065   2.215   3.653   3.450 -0.1362 -0.0788 -0.0779
 3143SOL    HW221066   2.325   3.555   3.436 -0.1812 -0.3146 -1.3819
 3144SOL     OW21067   3.011   2.337   8.107  0.3678 -0.0122 -0.5859
 3144SOL    HW121068   2.953   2.413   8.101 -2.5983 -2.1724  0.5460
 3144SOL    HW221069   3.019   2.328   8.202 -3.5839 -3.2222 -0.5720
 3145SOL     OW21070   0.284   0.617   0.951 -0.1728 -0.2890  0.4761
 3145SOL    HW121071   0.345   0.601   0.879  0.7376  1.1786  0.9306
 3145SOL    HW221072   0.331   0.575   1.022  3.1961  0.7087 -1.1419
 3146SOL     OW21073   1.720   1.961   7.698 -0.3586 -0.0985 -0.3702
 3146SOL    HW121074   1.706   1.966   7.603  2.4446  0.0476 -0.7851
 3146SOL    HW221075   1.725   1.867   7.716 -0.1485 -0.0975 -0.4253
 3147SOL     OW21076   0.605   1.541  13.457  0.3062  0.2561  0.4577
 3147SOL    HW121077   0.560   1.510  13.378  2.0959 -1.3578  0.0656
 3147SOL    HW221078   0.523   1.569  13.498  1.2429  3.0960  0.4482
 3148SOL     OW21079   4.033   0.108   4.227 -0.1143 -0.2142  0.3034
 3148SOL    HW121080   3.952   0.120   4.177  1.4348  0.0519 -2.1729
 3148SOL    HW221081   4.093   0.173   4.190 -0.6142  0.9522  1.5702
 3149SOL     OW21082   0.643   1.117   7.956  0.1300 -0.2016 -0.6626
 3149SOL    HW121083   0.694   1.198   7.956 -1.3495  0.7313 -0.6055
 3149SOL    HW221084   0.550   1.138   7.964  0.1054  0.0490 -1.6415
 3150SOL     OW21085   4.073   4.071   7.093  0.1300 -0.3085 -0.5090
 3150SOL    HW121086   4.037   4.087   7.006 -0.2346  1.0890 -0.0925
 3150SOL    HW221087   4.162   4.105   7.092  1.1420 -3.0116 -1.7217
 3151SOL     OW21088   0.144   2.669  17.157 -0.2990 -0.4511 -0.2613
 3151SOL    HW121089   0.118   2.626  17.076 -0.7277  0.0485 -0.3863
 3151SOL    HW221090   0.181   2.594  17.204  0.3695  0.6706  0.9842
 3152SOL     OW21091   1.025   0.012   6.231  0.5784  0.2744 -0.1336
 3152SOL    HW121092   1.109   0.052   6.212  0.1259  1.3709  0.1351
 3152SOL    HW221093   1.056   4.674   6.283 -2.0874 -0.1219  0.9084
 3153SOL     OW21094   0.151   4.305   0.664 -0.1472  0.0703 -0.4898
 3153SOL    HW121095   0.151   4.249   0.586 -2.1397 -0.3478 -0.1829
 3153SOL    HW221096   0.235   4.350   0.664  1.2649 -2.5252  0.1995
 3154SOL     OW21097   2.501   1.061   8.535 -0.2039  0.1686  0.5573
 3154SOL    HW121098   2.445   1.003   8.587  1.4473 -3.1730 -1.4752
 3154SOL    HW221099   2.470   1.048   8.446 -2.8018  0.9147  1.3391
 3155SOL     OW21100   2.444   1.939   7.629  0.1152  0.3747 -0.5029
 3155SOL    HW121101   2.452   1.876   7.557  0.1626 -0.5360  0.2966
 3155SOL    HW221102   2.376   1.896   7.681  0.5880 -0.8337 -0.8984
 3156SOL     OW21103   4.475   0.903   7.791 -0.5340 -0.0553  0.2534
 3156SOL    HW121104   4.562   0.943   7.784 -0.5695  0.2338  1.4496
 3156SOL    HW221105   4.442   0.933   7.876  0.4732 -1.4572  1.1594
 3157SOL     OW21106   4.148   2.837   4.160 -0.4061 -0.1132 -0.1053
 3157SOL    HW121107   4.226   2.879   4.125 -1.0432 -0.2368 -1.6898
 3157SOL    HW221108   4.097   2.914   4.185 -0.2360  0.7364 -2.3738
 3158SOL     OW21109   3.638   2.260   6.725  0.2584  0.0291  0.0448
 3158SOL    HW121110   3.555   2.266   6.773 -0.2942 -1.9329 -0.6649
 3158SOL    HW221111   3.604   2.273   6.636 -2.0621 -0.5949  0.8489
 3159SOL     OW21112   3.403   4.120   8.199 -0.0576  0.1244 -0.5287
 3159SOL    HW121113   3.404   4.145   8.291  1.4004 -1.2437 -0.1863
 3159SOL    HW221114   3.469   4.051   8.194  1.0002  1.1231 -0.3449
 3160SOL     OW21115   2.791   1.271   5.586 -0.2930  0.1090 -0.0209
 3160SOL    HW121116   2.867   1.327   5.572 -1.0800  1.1828 -0.0402
 3160SOL    HW221117   2.736   1.323   5.645 -0.5508 -1.6748  1.3178
 3161SOL     OW21118   3.007   2.273   6.171  0.2506  0.0698 -0.1625
 3161SOL    HW121119   2.920   2.313   6.166 -0.2022 -1.2430 -2.7567
 3161SOL    HW221120   2.990   2.194   6.221  0.1672 -0.7580 -1.5073
 3162SOL     OW21121   2.102   4.323   7.982  0.0085 -0.6753  0.1650
 3162SOL    HW121122   2.060   4.268   7.916  3.7518 -1.5306 -1.5015
 3162SOL    HW221123   2.096   4.274   8.064  0.3322 -0.3933  0.3585
 3163SOL     OW21124   2.471   1.514   6.304 -0.5584 -0.1407  0.0554
 3163SOL    HW121125   2.450   1.445   6.241  1.0895 -2.2534  1.8453
 3163SOL    HW221126   2.565   1.514   6.321 -0.8102 -0.3840  1.4438
 3164SOL     OW21127   0.167   3.249  16.031  0.2404 -0.2124 -0.2795
 3164SOL    HW121128   0.231   3.269  15.962  3.0087  0.2549  2.4313
 3164SOL    HW221129   0.121   3.332  16.042 -0.8040 -1.0448  1.5815
 3165SOL     OW21130   3.606   2.779  14.713 -0.6031 -0.8749 -0.2799
 3165SOL    HW121131   3.518   2.802  14.743 -0.1498  0.7257 -0.2170
 3165SOL    HW221132   3.601   2.799  14.619 -0.4678 -1.4670 -0.4189
 3166SOL     OW21133   4.516   0.322   6.357 -0.8288  0.1569 -0.3632
 3166SOL    HW121134   4.529   0.401   6.410  1.1519 -0.8830  0.7055
 3166SOL    HW221135   4.433   0.346   6.315 -0.7900 -0.5503 -0.8344
 3167SOL     OW21136   0.081   0.860  14.699  0.2831  0.2574  0.8420
 3167SOL    HW121137   0.055   0.868  14.791  2.2866 -1.5984  1.5704
 3167SOL    HW221138   0.101   0.953  14.701  1.0119  0.0831  1.5405
 3168SOL     OW21139   3.340   2.714  10.953  0.2111 -0.5001  0.0865
 3168SOL    HW121140   3.391   2.731  11.033  1.7088 -1.4940 -0.6468
 3168SOL    HW221141   3.290   2.646  10.999  2.0257 -1.2002  1.0436
 3169SOL     OW21142   2.867   4.256  12.327  0.1551 -0.6055 -0.2613
 3169SOL    HW121143   2.951   4.297  12.345  0.6826 -1.6032 -0.4445
 3169SOL    HW221144   2.857   4.274  12.234 -0.2112  0.7540  0.0351
 3170SOL     OW21145   0.145   3.397  13.103 -0.1232  0.8087  0.1634
 3170SOL    HW121146   0.090   3.359  13.035  0.4163  0.0898  0.1272
 3170SOL    HW221147   0.099   3.371  13.183  0.9208 -5.2472 -1.2438
 3171SOL     OW21148   0.748   3.937  13.438  0.6132 -0.2699  1.0222
 3171SOL    HW121149   0.761   3.959  13.530 -0.5407  0.5337  0.9899
 3171SOL    HW221150   0.671   3.880  13.436  2.4782 -2.7815  0.1099
 3172SOL     OW21151   2.377   1.465  10.422  0.0614  0.2314  0.0719
 3172SOL    HW121152   2.314   1.422  10.364 -1.8583 -1.7940  3.6581
 3172SOL    HW221153   2.451   1.406  10.403  0.4841  0.2170  1.7614
 3173SOL     OW21154   2.291   0.839  15.660  0.0587 -0.3560  0.3472
 3173SOL    HW121155   2.221   0.882  15.611 -0.1165 -0.9419  0.0887
 3173SOL    HW221156   2.236   0.786  15.718 -0.7670  0.5990  0.4366
 3174SOL     OW21157   3.124   1.690   7.220 -0.5531 -0.5519 -0.0401
 3174SOL    HW121158   3.048   1.737   7.187 -0.6952 -1.4382 -0.9750
 3174SOL    HW221159   3.189   1.755   7.247  0.2813 -1.0505 -0.8705
 3175SOL     OW21160   0.747   2.470   3.262 -0.3993  0.2189 -0.1471
 3175SOL    HW121161   0.726   2.489   3.354 -1.1781  1.6307 -0.6268
 3175SOL    HW221162   0.822   2.528   3.252 -0.2290 -0.0185 -0.2553
 3176SOL     OW21163   1.884   1.674   1.970 -0.1458  0.1588 -0.0281
 3176SOL    HW121164   1.942   1.598   1.974  1.2575  1.3205  1.5732
 3176SOL    HW221165   1.864   1.682   1.877  3.4539  3.1356 -0.5691
 3177SOL     OW21166   1.059   4.663  14.545  0.4085 -0.1149  0.2032
 3177SOL    HW121167   1.026   4.656  14.456  1.2043 -1.1592 -0.0088
 3177SOL    HW221168   1.002   4.598  14.585  2.3008 -2.5995 -1.1863
 3178SOL     OW21169   1.164   0.652   6.632 -0.1632  0.1042 -0.7599
 3178SOL    HW121170   1.172   0.607   6.716 -2.4326  0.1680 -0.5283
 3178SOL    HW221171   1.232   0.718   6.646 -0.8853  0.7715 -0.3929
 3179SOL     OW21172   4.433   1.106   6.112 -0.2919  0.3243 -0.2320
 3179SOL    HW121173   4.466   1.016   6.113  1.2419  0.8734 -0.7359
 3179SOL    HW221174   4.440   1.125   6.206 -0.0935  0.8276 -0.3489
 3180SOL     OW21175   1.168   2.524   4.318 -0.0767  0.2600 -0.3049
 3180SOL    HW121176   1.250   2.566   4.292  0.0119 -0.3933 -1.0786
 3180SOL    HW221177   1.100   2.563   4.263  0.2379  1.1940 -0.0198
 3181SOL     OW21178   0.925   2.542   8.509  0.7059 -0.0291 -0.5668
 3181SOL    HW121179   0.915   2.616   8.449  1.4095  0.1048 -0.5095
 3181SOL    HW221180   0.852   2.488   8.478  0.1688  1.1686 -1.3784
 3182SOL     OW21181   4.014   3.042   3.284  0.0904  0.5673 -0.3100
 3182SOL    HW121182   3.936   3.084   3.249 -0.5091 -0.4531 -0.1813
 3182SOL    HW221183   3.997   2.951   3.261 -0.7162  0.5087  0.5410
 3183SOL     OW21184   2.550   4.614   3.884  0.0349  0.3765  0.2469
 3183SOL    HW121185   2.488   4.642   3.817  0.5233 -0.8630 -0.7346
 3183SOL    HW221186   2.492   4.573   3.947  0.5946  0.8606  1.0708
 3184SOL     OW21187   3.571   4.645   3.597 -0.2935  0.2511  0.2558
 3184SOL    HW121188   3.660   4.668   3.569  0.4654 -1.4019  1.3271
 3184SOL    HW221189   3.552   4.577   3.533  0.1905  2.0375 -1.7617
 3185SOL     OW21190   2.137   3.238   6.517  0.4836 -0.2716 -0.8466
 3185SOL    HW121191   2.216   3.217   6.566  1.1494  0.1603 -1.7472
 3185SOL    HW221192   2.152   3.214   6.426 -1.0617 -0.9991 -0.9015
 3186SOL     OW21193   3.169   4.627  12.290 -0.3400  0.1263 -0.0408
 3186SOL    HW121194   3.129   4.700  12.337 -1.8168 -0.0138 -1.0463
 3186SOL    HW221195   3.147   4.665  12.205  2.8749  0.1791 -0.8472
 3187SOL     OW21196   2.763   0.960  15.257 -0.1593 -0.1010 -0.3959
 3187SOL    HW121197   2.779   1.029  15.321 -0.7694 -0.4213  0.0995
 3187SOL    HW221198   2.851   0.929  15.237 -0.6093 -0.0060 -2.4977
 3188SOL     OW21199   0.475   1.384   5.199 -0.1016  0.8743 -0.1789
 3188SOL    HW121200   0.496   1.334   5.120  0.4188  0.9977 -0.1218
 3188SOL    HW221201   0.390   1.349   5.227 -0.8898  2.9433  0.0316
 3189SOL     OW21202   1.566   4.284  15.849  0.4465  0.3880 -0.3438
 3189SOL    HW121203   1.544   4.219  15.782 -0.8442  0.7063 -0.2238
 3189SOL    HW221204   1.535   4.363  15.804  0.8678  1.8465  1.9673
 3190SOL     OW21205   2.304   3.780   9.508 -0.4903  0.3392 -0.8011
 3190SOL    HW121206   2.233   3.826   9.553 -0.7334 -0.4261 -0.3955
 3190SOL    HW221207   2.256   3.749   9.432  0.2046 -0.0684 -1.0646
 3191SOL     OW21208   1.421   4.114  15.632 -0.3207  0.5570  0.3346
 3191SOL    HW121209   1.339   4.072  15.659  0.7328  0.8290  4.0089
 3191SOL    HW221210   1.394   4.182  15.570  1.2528 -1.0147 -2.0211
 3192SOL     OW21211   2.651   2.651   7.710  0.3423 -0.0964 -0.5096
 3192SOL    HW121212   2.583   2.713   7.683 -0.1544 -0.4537 -0.0843
 3192SOL    HW221213   2.641   2.582   7.644  1.0553  0.9258 -1.6927
 3193SOL     OW21214   1.790   0.966   8.321 -0.4335 -0.8084  0.4276
 3193SOL    HW121215   1.706   0.925   8.342 -1.1445 -0.1397 -1.0645
 3193SOL    HW221216   1.763   1.054   8.345 -2.4299 -0.9376 -1.3575
 3194SOL     OW21217   2.457   1.513  14.130  0.2896  0.5115  0.4649
 3194SOL    HW121218   2.382   1.498  14.072 -0.3127  5.5895 -0.0870
 3194SOL    HW221219   2.469   1.427  14.170  1.1065  1.6196  2.6189
 3195SOL     OW21220   0.226   2.464   2.021  0.4273 -0.1327  0.3884
 3195SOL    HW121221   0.203   2.538   2.077 -0.2788  0.3900 -0.5857
 3195SOL    HW221222   0.143   2.425   1.991  0.2340 -1.8380  3.1949
 3196SOL     OW21223   2.977   3.339  14.970  0.0323  0.0675 -0.2545
 3196SOL    HW121224   2.914   3.267  14.964  0.3928 -0.3032  0.3994
 3196SOL    HW221225   2.939   3.394  15.039  0.3435 -0.1359  0.0749
 3197SOL     OW21226   2.928   4.429   6.236 -0.2927 -0.4303 -0.5852
 3197SOL    HW121227   2.899   4.357   6.180 -1.9822  0.1445 -0.4529
 3197SOL    HW221228   2.847   4.432   6.288 -1.3594 -2.1911 -2.1143
 3198SOL     OW21229   4.385   0.557   0.491  0.4646 -0.2977  0.3324
 3198SOL    HW121230   4.300   0.557   0.534 -0.5799  0.1387 -1.7211
 3198SOL    HW221231   4.377   0.466   0.463  1.6347 -0.4203  0.4060
 3199SOL     OW21232   2.534   1.441   2.734 -0.0905  0.1260 -0.1797
 3199SOL    HW121233   2.527   1.367   2.674 -2.0587 -0.5205  0.8284
 3199SOL    HW221234   2.552   1.510   2.670  0.5073 -1.6492 -1.9130
 3200SOL     OW21235   2.356   3.789   0.850 -0.3919  0.2004 -0.1859
 3200SOL    HW121236   2.356   3.785   0.754  1.4465 -0.6151 -0.1652
 3200SOL    HW221237   2.375   3.879   0.874 -1.1861  0.4835 -0.6194
 3201SOL     OW21238   3.557   0.192  13.430 -0.2753 -0.0974  0.5098
 3201SOL    HW121239   3.489   0.235  13.482 -0.6381  0.4939 -0.4435
 3201SOL    HW221240   3.606   0.273  13.413 -0.2466 -0.0771  0.6864
 3202SOL     OW21241   0.403   3.951   5.096 -0.3594 -0.1044  0.3021
 3202SOL    HW121242   0.352   3.951   5.178 -0.0046 -0.6995  0.5223
 3202SOL    HW221243   0.486   3.950   5.142  1.3246  1.4668 -2.6871
 3203SOL     OW21244   0.255   4.725   5.640  0.7442  0.4438 -1.1627
 3203SOL    HW121245   0.345   0.012   5.660  0.9801 -0.7156 -0.8375
 3203SOL    HW221246   0.215   0.053   5.581  2.2730  0.8952 -1.6912
 3204SOL     OW21247   1.856   2.124   7.836  0.2363 -0.2815 -0.3756
 3204SOL    HW121248   1.785   2.176   7.874  2.2976  0.6122  2.2734
 3204SOL    HW221249   1.801   2.059   7.794 -0.7939  0.1335  0.3116
 3205SOL     OW21250   0.628   1.945   6.006  0.0205  0.3973  0.0550
 3205SOL    HW121251   0.549   1.941   6.059  1.5242  1.8843  2.3908
 3205SOL    HW221252   0.696   1.896   6.054  0.0259  0.0199 -0.3328
 3206SOL     OW21253   4.070   2.075  11.210  0.0829  0.1670 -0.0942
 3206SOL    HW121254   4.159   2.094  11.179  0.6220 -0.8023  0.8769
 3206SOL    HW221255   4.044   2.146  11.269 -0.7323  1.0690 -1.5274
 3207SOL     OW21256   4.246   0.737   2.177 -0.1109  1.0062 -0.2965
 3207SOL    HW121257   4.216   0.752   2.087 -2.8322 -0.9407  0.2791
 3207SOL    HW221258   4.330   0.696   2.157 -0.8441 -0.5245 -0.2399
 3208SOL     OW21259   0.286   1.424   8.936 -0.0452 -0.1805 -0.3273
 3208SOL    HW121260   0.196   1.395   8.923  0.3604 -0.2365 -2.9648
 3208SOL    HW221261   0.329   1.339   8.928  2.0384  0.9977 -1.8168
 3209SOL     OW21262   4.049   3.155   6.643 -0.1398 -0.0818  0.9037
 3209SOL    HW121263   4.139   3.158   6.676  0.2011  0.5942 -0.1068
 3209SOL    HW221264   4.054   3.231   6.585  2.1206  0.3078  1.5920
 3210SOL     OW21265   4.543   4.376  12.208  0.3164 -0.2762  0.3893
 3210SOL    HW121266   4.563   4.295  12.162  1.7092 -0.8525  2.0104
 3210SOL    HW221267   4.530   4.450  12.148 -0.7504 -0.2780  0.6154
 3211SOL     OW21268   2.466   0.890   3.296  0.6850  0.1134 -0.3977
 3211SOL    HW121269   2.422   0.972   3.317  2.0290  1.2560 -2.1080
 3211SOL    HW221270   2.423   0.870   3.213 -1.2235  1.5170  0.2515
 3212SOL     OW21271   3.067   1.891   8.591 -0.1234  0.6054  0.0862
 3212SOL    HW121272   3.082   1.893   8.497 -1.0619  1.2993 -0.0480
 3212SOL    HW221273   2.998   1.826   8.603  0.5135 -0.3017 -1.3074
 3213SOL     OW21274   0.776   1.787   2.280  0.2391  0.2629 -0.1106
 3213SOL    HW121275   0.775   1.843   2.358 -0.1054  0.1280 -0.0140
 3213SOL    HW221276   0.849   1.816   2.226  0.8526 -1.6437 -0.3263
 3214SOL     OW21277   1.619   3.656   8.246  0.3926  0.0730  0.1186
 3214SOL    HW121278   1.588   3.740   8.214  0.0809 -1.1049 -2.6688
 3214SOL    HW221279   1.712   3.659   8.226 -0.0373  4.4320 -1.1695
 3215SOL     OW21280   4.611   4.129   7.004 -0.3991 -0.0737  0.1694
 3215SOL    HW121281   4.651   4.043   7.014  2.7192  1.1339 -1.8451
 3215SOL    HW221282   4.654   4.178   7.075  0.0377  0.3965 -0.4184
 3216SOL     OW21283   4.583   4.655   6.742  0.4442  0.7098  0.2442
 3216SOL    HW121284   4.612   4.595   6.811  1.3753  1.3166  0.3776
 3216SOL    HW221285   4.649   4.628   6.678 -0.3605  0.5484 -0.5154
 3217SOL     OW21286   3.156   0.498  11.287  0.2642  0.6284 -0.0685
 3217SOL    HW121287   3.163   0.591  11.310 -0.8044  0.7345 -0.1881
 3217SOL    HW221288   3.061   0.494  11.276  0.5194  0.1522 -2.1851
 3218SOL     OW21289   2.919   3.809   6.428 -0.3488 -0.6766  0.4111
 3218SOL    HW121290   2.907   3.814   6.333  0.7273 -1.9405  0.2146
 3218SOL    HW221291   3.015   3.806   6.430 -0.3483 -0.5962  0.5159
 3219SOL     OW21292   3.307   1.489   6.216  0.1970 -0.5896 -0.1479
 3219SOL    HW121293   3.342   1.494   6.305 -0.7883 -0.2671  0.2262
 3219SOL    HW221294   3.344   1.576   6.200  0.0650 -0.7523 -1.3247
 3220SOL     OW21295   2.570   0.118   2.642  0.3232 -0.2874 -0.5890
 3220SOL    HW121296   2.489   0.074   2.666  1.0008 -1.8096 -1.1095
 3220SOL    HW221297   2.567   0.184   2.711 -1.2952 -0.1739 -0.7864
 3221SOL     OW21298   0.349   3.488   0.537  0.0594 -0.5190 -0.7730
 3221SOL    HW121299   0.425   3.504   0.593 -0.1780 -1.1132 -0.2687
 3221SOL    HW221300   0.364   3.528   0.452  0.3733 -0.3680 -0.6440
 3222SOL     OW21301   0.654   4.182  12.248  0.1008 -0.0331 -0.7764
 3222SOL    HW121302   0.646   4.153  12.339  0.9863  0.2226 -0.6177
 3222SOL    HW221303   0.567   4.219  12.238 -0.0801  0.0249  0.9158
 3223SOL     OW21304   1.912   2.072   8.311 -0.4028  0.2672 -0.3939
 3223SOL    HW121305   1.890   2.153   8.265 -0.3345  0.6807  0.3122
 3223SOL    HW221306   1.841   2.072   8.375  0.6098  1.1951  0.7010
 3224SOL     OW21307   2.829   2.337  12.954  0.1503 -0.1584  0.0079
 3224SOL    HW121308   2.867   2.287  13.027  0.0697 -0.4291 -0.1374
 3224SOL    HW221309   2.891   2.326  12.882 -0.7654  1.9995 -1.1114
 3225SOL     OW21310   0.750   2.578   9.934 -0.1419  0.3889  0.1257
 3225SOL    HW121311   0.777   2.489   9.953  1.0442  0.7092 -0.0854
 3225SOL    HW221312   0.833   2.625   9.940  0.3473 -0.4694  0.0778
 3226SOL     OW21313   1.205   3.046   5.763 -0.0791 -0.2372 -0.4873
 3226SOL    HW121314   1.152   3.114   5.721  0.0380 -0.2693 -0.6907
 3226SOL    HW221315   1.280   3.046   5.703 -0.7484 -0.3059 -1.3332
 3227SOL     OW21316   0.466   4.002   2.556  0.1121  0.4030  0.1647
 3227SOL    HW121317   0.551   3.969   2.585  0.8643  1.9758 -0.2672
 3227SOL    HW221318   0.456   3.943   2.481 -1.8368 -0.6749  1.2486
 3228SOL     OW21319   4.611   3.540  15.963 -0.4272 -0.1023  0.0862
 3228SOL    HW121320   4.531   3.578  16.000  0.0334  1.3592 -0.4096
 3228SOL    HW221321   4.582   3.497  15.883 -2.2277  1.5594 -0.1441
 3229SOL     OW21322   4.439   0.050   3.879 -0.3097 -0.0135 -0.1439
 3229SOL    HW121323   4.522   0.005   3.887  0.2506  0.6325 -2.2655
 3229SOL    HW221324   4.422   0.062   3.972 -0.8362 -0.7808 -0.1423
 3230SOL     OW21325   4.051   3.855   4.105 -0.4584 -0.2129  0.4707
 3230SOL    HW121326   4.023   3.766   4.121  2.3334 -1.3428 -0.9007
 3230SOL    HW221327   4.055   3.888   4.195  2.3493  1.5180 -0.2614
 3231SOL     OW21328   3.343   1.406  16.221  0.6251 -0.1653  0.0911
 3231SOL    HW121329   3.406   1.475  16.238  0.4463  0.1693 -0.5891
 3231SOL    HW221330   3.289   1.440  16.150  3.1412  1.3366 -1.1009
 3232SOL     OW21331   3.357   1.215   2.673  0.5791  0.0564  0.5016
 3232SOL    HW121332   3.353   1.145   2.737 -2.7686 -0.6653 -0.5137
 3232SOL    HW221333   3.449   1.215   2.645  1.1577 -0.8048  2.4356
 3233SOL     OW21334   1.443   0.590  14.749  0.0614  0.3049  0.5414
 3233SOL    HW121335   1.508   0.571  14.682 -0.5355  1.9266 -0.4686
 3233SOL    HW221336   1.365   0.569  14.699  0.5148 -2.6563  1.0636
 3234SOL     OW21337   1.180   2.874   3.408 -0.0298  0.4472 -0.3527
 3234SOL    HW121338   1.241   2.891   3.480  1.6815 -2.7974 -1.0361
 3234SOL    HW221339   1.232   2.897   3.332 -0.0229  0.1598 -0.4355
 3235SOL     OW21340   4.637   2.617   6.449 -0.4214  0.0422  0.3407
 3235SOL    HW121341   4.548   2.583   6.434 -0.8965  0.9846  1.0256
 3235SOL    HW221342   4.680   2.592   6.367 -0.2543  1.6832 -0.0655
 3236SOL     OW21343   2.334   0.682   3.007 -0.4884 -0.4047  0.7930
 3236SOL    HW121344   2.241   0.695   3.025 -0.8056 -0.2875 -0.9174
 3236SOL    HW221345   2.365   0.773   3.015 -0.0120 -0.4055 -1.1753
 3237SOL     OW21346   2.971   0.776   4.347 -0.1198  0.0531  0.8447
 3237SOL    HW121347   2.889   0.825   4.339  0.5378  1.0647  0.2473
 3237SOL    HW221348   2.943   0.689   4.318  1.7022  0.2606 -1.5269
 3238SOL     OW21349   0.793   0.199   4.580  0.4116 -0.3583  0.0829
 3238SOL    HW121350   0.840   0.267   4.533 -3.1325 -0.0861 -3.0620
 3238SOL    HW221351   0.710   0.198   4.533  0.8417 -1.3044 -0.6532
 3239SOL     OW21352   1.731   4.510   8.593 -0.1373  0.0174 -0.1033
 3239SOL    HW121353   1.727   4.580   8.658 -2.0830  1.2456 -1.5548
 3239SOL    HW221354   1.783   4.561   8.531  2.7994 -1.1166  1.4307
 3240SOL     OW21355   3.389   0.541   4.741 -0.5195  0.0833  0.0639
 3240SOL    HW121356   3.306   0.578   4.773 -0.4406  0.2218  0.1075
 3240SOL    HW221357   3.442   0.618   4.723 -0.4560  0.1448  0.5072
 3241SOL     OW21358   3.015   3.876   1.417  0.6097 -0.3792  0.5745
 3241SOL    HW121359   2.967   3.794   1.401 -1.3321  1.1378 -1.3932
 3241SOL    HW221360   3.040   3.893   1.326 -2.2807 -0.3698 -0.2288
 3242SOL     OW21361   2.779   4.491   5.165 -0.3719 -0.2146  0.5572
 3242SOL    HW121362   2.751   4.406   5.131 -1.0938  0.9625 -1.8064
 3242SOL    HW221363   2.762   4.544   5.087 -3.1497  0.9074  1.9243
 3243SOL     OW21364   4.065   3.275   2.192 -0.0344  0.2400  0.3395
 3243SOL    HW121365   4.011   3.292   2.269 -2.3719  2.0228 -1.7021
 3243SOL    HW221366   3.997   3.237   2.137  0.6564  0.9330 -0.9926
 3244SOL     OW21367   4.082   3.041   2.951 -0.1472  0.7077  0.2947
 3244SOL    HW121368   4.068   3.125   2.996 -1.9989  0.4001  0.3003
 3244SOL    HW221369   3.993   3.013   2.931 -0.5318  2.5968 -0.6342
 3245SOL     OW21370   0.530   3.963   8.453  0.0168 -0.5052  0.6835
 3245SOL    HW121371   0.561   3.944   8.542 -0.8361  1.0383  1.3287
 3245SOL    HW221372   0.446   3.916   8.456 -1.4068  2.0974  2.5041
 3246SOL     OW21373   4.472   0.772  14.928  0.5910 -0.2256  0.0692
 3246SOL    HW121374   4.479   0.838  14.997  2.9973 -1.6765  1.1901
 3246SOL    HW221375   4.426   0.716  14.990 -1.4495  0.8996 -0.4297
 3247SOL     OW21376   3.837   4.012   6.721 -0.3451 -0.3395 -0.5980
 3247SOL    HW121377   3.893   4.044   6.650  2.4018  0.1496  1.7820
 3247SOL    HW221378   3.808   4.100   6.745  0.6019  0.0443 -0.8650
 3248SOL     OW21379   2.172   4.024  14.498 -0.2779  0.1859  0.6658
 3248SOL    HW121380   2.263   4.042  14.472 -0.5769  0.9473  0.1447
 3248SOL    HW221381   2.140   3.985  14.416 -0.2326 -1.9260  1.6594
 3249SOL     OW21382   3.783   0.544   6.665 -0.0123  0.4032  0.7925
 3249SOL    HW121383   3.687   0.546   6.667 -0.0369  0.7388 -0.4481
 3249SOL    HW221384   3.800   0.638   6.673  2.4000  0.2034 -1.8774
 3250SOL     OW21385   1.234   1.787   2.416  0.0081 -0.0926  0.1288
 3250SOL    HW121386   1.272   1.866   2.380 -1.3390  0.6678  0.3828
 3250SOL    HW221387   1.267   1.725   2.351  0.8967 -0.4533  0.9145
 3251SOL     OW21388   0.607   0.077  15.199  0.2066 -0.0220  0.1571
 3251SOL    HW121389   0.520   0.039  15.209 -0.5202  0.5412 -4.0143
 3251SOL    HW221390   0.619   0.135  15.274 -2.6651  2.1269 -1.0353
 3252SOL     OW21391   2.114   2.101  12.548  0.4434 -0.4001  0.0591
 3252SOL    HW121392   2.073   2.087  12.463 -0.0300  2.1578 -0.1423
 3252SOL    HW221393   2.069   2.183  12.568  0.3714 -0.1989 -0.9069
 3253SOL     OW21394   0.931   3.223   2.183  0.0515 -0.2484  0.1664
 3253SOL    HW121395   0.957   3.198   2.271  0.3428 -1.6451 -0.3190
 3253SOL    HW221396   0.866   3.292   2.198 -0.4287 -0.8809  0.9532
 3254SOL     OW21397   1.830   2.791   0.645  0.3170  0.6397 -0.2579
 3254SOL    HW121398   1.873   2.775   0.730 -2.2108  1.7854  1.2216
 3254SOL    HW221399   1.770   2.717   0.637  0.4034  0.4468  0.8212
 3255SOL     OW21400   3.747   0.642   3.402 -0.3714 -0.4140  0.0013
 3255SOL    HW121401   3.763   0.708   3.470  2.5607  1.8093 -2.8998
 3255SOL    HW221402   3.781   0.563   3.445  2.7543  2.4012  2.6922
 3256SOL     OW21403   1.475   0.966  15.871 -0.0841 -0.4639 -0.1407
 3256SOL    HW121404   1.480   1.034  15.804 -0.0550  0.9303  1.2633
 3256SOL    HW221405   1.385   0.980  15.903  0.3803  1.0674  0.5086
 3257SOL     OW21406   4.404   3.096   1.854  0.2621  0.1097 -0.2132
 3257SOL    HW121407   4.417   3.108   1.759 -1.8586  0.0350 -0.5078
 3257SOL    HW221408   4.362   3.010   1.856 -0.5035  0.5040  0.7016
 3258SOL     OW21409   3.868   3.452   6.807 -0.1805  0.0172  0.1018
 3258SOL    HW121410   3.866   3.537   6.851  0.0414 -0.1548  0.4448
 3258SOL    HW221411   3.963   3.446   6.818 -0.0566  1.3310 -0.3044
 3259SOL     OW21412   1.813   0.921  16.979  0.3094 -0.2360  0.0917
 3259SOL    HW121413   1.726   0.922  16.941 -0.0508 -0.0931  0.9104
 3259SOL    HW221414   1.818   1.011  17.011  1.5689 -0.2438 -0.0605
 3260SOL     OW21415   3.150   0.595  14.656  0.3302 -0.1105 -0.1243
 3260SOL    HW121416   3.173   0.505  14.634  0.7692  0.2055 -0.9681
 3260SOL    HW221417   3.179   0.632  14.573  0.9181 -1.0506 -0.3351
 3261SOL     OW21418   3.066   1.409   4.422 -0.3468  0.5769  0.0603
 3261SOL    HW121419   3.135   1.445   4.478  0.4020 -0.0344 -0.4824
 3261SOL    HW221420   3.083   1.315   4.419 -0.4092  0.6036 -1.0297
 3262SOL     OW21421   0.659   0.186   9.977  0.2285  0.1248 -0.6850
 3262SOL    HW121422   0.705   0.105   9.956 -1.2478 -0.9428  0.1648
 3262SOL    HW221423   0.583   0.157  10.027  1.4611 -1.6280  0.1599
 3263SOL     OW21424   0.753   3.608   7.394 -0.0333  0.7160  0.8995
 3263SOL    HW121425   0.739   3.557   7.474 -1.0493 -1.8339 -0.8760
 3263SOL    HW221426   0.661   3.610   7.365  0.2902 -0.8606 -0.2402
 3264SOL     OW21427   4.654   3.838   5.171 -0.0689  0.0786  0.0960
 3264SOL    HW121428   4.581   3.804   5.119  0.1220 -0.0224 -0.1001
 3264SOL    HW221429   4.630   3.929   5.193  3.0506  1.4889 -2.4131
 3265SOL     OW21430   2.872   3.788   8.906 -0.5957 -0.4660  0.2654
 3265SOL    HW121431   2.913   3.716   8.954  0.9476  1.5154  1.9249
 3265SOL    HW221432   2.927   3.865   8.920  1.6139 -1.8290 -0.9118
 3266SOL     OW21433   3.394   3.951  11.886  0.5099 -0.0757  0.1005
 3266SOL    HW121434   3.333   3.995  11.946  1.7724 -0.5528  1.7261
 3266SOL    HW221435   3.325   3.900  11.843 -1.9114  2.7163  0.6514
 3267SOL     OW21436   0.836   2.963   6.429 -0.1686 -0.1646  0.2383
 3267SOL    HW121437   0.851   2.889   6.370  0.0833  0.1449 -0.0845
 3267SOL    HW221438   0.781   3.023   6.379  0.3258 -0.8485 -1.1091
 3268SOL     OW21439   0.139   2.688   5.338  0.2482 -0.2212 -0.8555
 3268SOL    HW121440   0.119   2.656   5.426  1.1572 -1.6811 -1.1855
 3268SOL    HW221441   0.073   2.640   5.289 -3.1524  3.2735  0.2717
 3269SOL     OW21442   1.898   2.343  11.400  0.3526  0.3614 -0.6371
 3269SOL    HW121443   1.977   2.369  11.354 -0.9017  1.4876 -2.1726
 3269SOL    HW221444   1.902   2.396  11.480 -0.2138 -1.3838  0.5713
 3270SOL     OW21445   3.683   2.219   5.959  0.0013  0.5584  0.0707
 3270SOL    HW121446   3.764   2.196   6.003  0.3657 -0.8114 -1.2819
 3270SOL    HW221447   3.660   2.139   5.911 -0.2305  1.4209 -1.2549
 3271SOL     OW21448   4.443   1.898   5.786 -0.2318  0.3016  0.0180
 3271SOL    HW121449   4.381   1.846   5.837 -0.5896  0.7934  0.0882
 3271SOL    HW221450   4.486   1.826   5.739 -1.4578  0.2047 -0.9590
 3272SOL     OW21451   3.083   4.444   5.306 -0.0043 -0.1817  0.1312
 3272SOL    HW121452   2.993   4.426   5.281 -1.3569  2.6333  2.9599
 3272SOL    HW221453   3.079   4.534   5.339 -1.4522 -1.0206  2.2704
 3273SOL     OW21454   2.220   3.714   5.199  0.3280  0.2225  0.0927
 3273SOL    HW121455   2.276   3.649   5.242  0.4764 -0.6678 -1.4408
 3273SOL    HW221456   2.140   3.663   5.188  0.4429 -0.3549  1.9627
 3274SOL     OW21457   4.651   2.046  13.025 -0.1500 -0.2496 -0.0368
 3274SOL    HW121458   4.730   1.994  13.037  0.5514  0.6028 -0.9403
 3274SOL    HW221459   4.596   2.007  12.957 -0.0400 -1.3176  0.4868
 3275SOL     OW21460   0.029   3.956   6.311 -0.3266  0.0444 -0.5885
 3275SOL    HW121461   0.044   4.031   6.368  1.5758 -2.8285  2.7018
 3275SOL    HW221462   0.092   3.965   6.240  1.2147  0.9426  0.8890
 3276SOL     OW21463   2.388   1.057   2.785  0.3836  0.6490  0.0854
 3276SOL    HW121464   2.309   1.102   2.754  0.5637  1.4253  0.7490
 3276SOL    HW221465   2.429   1.024   2.705  0.2868  1.9925 -0.5151
 3277SOL     OW21466   3.452   3.020   9.550 -0.5903 -0.0888  0.5745
 3277SOL    HW121467   3.434   2.948   9.489 -1.8412  0.7622 -0.0534
 3277SOL    HW221468   3.511   2.969   9.606 -0.6940 -0.4530  0.3533
 3278SOL     OW21469   3.472   2.318   0.569 -0.5527  0.2426  0.3119
 3278SOL    HW121470   3.418   2.246   0.603  1.0726 -0.3899  1.5300
 3278SOL    HW221471   3.549   2.278   0.530 -0.0826 -0.1430  1.6308
 3279SOL     OW21472   3.236   0.230   3.419  0.1411 -0.3370 -0.0019
 3279SOL    HW121473   3.280   0.161   3.469  0.5480 -0.2269 -0.2074
 3279SOL    HW221474   3.205   0.280   3.494  0.2257  0.9317 -0.8044
 3280SOL     OW21475   2.211   0.705   6.136 -0.3004 -0.1319 -0.8634
 3280SOL    HW121476   2.250   0.723   6.222  0.9763 -1.2550 -1.2153
 3280SOL    HW221477   2.149   0.639   6.168 -0.9999  0.7973 -0.2576
 3281SOL     OW21478   0.254   2.456  12.376 -0.3819 -0.4218  0.5333
 3281SOL    HW121479   0.314   2.403  12.324 -0.5997 -1.0299  0.8996
 3281SOL    HW221480   0.302   2.530  12.414 -0.2887 -0.2174  0.0149
 3282SOL     OW21481   0.476   2.979   7.437 -0.9543 -0.1356 -0.2964
 3282SOL    HW121482   0.413   3.045   7.406  1.8801  3.0969  0.8171
 3282SOL    HW221483   0.554   3.019   7.398 -0.3681  0.0107  1.0268
 3283SOL     OW21484   1.825   1.169   3.776 -0.4480 -0.3961  0.5241
 3283SOL    HW121485   1.837   1.245   3.833 -0.7432 -0.5233  0.7536
 3283SOL    HW221486   1.730   1.167   3.764 -0.4482  0.4216  0.3616
 3284SOL     OW21487   3.085   4.379   4.280  0.1283 -0.2240 -0.0660
 3284SOL    HW121488   3.113   4.312   4.343  0.3818 -0.6134 -0.6007
 3284SOL    HW221489   3.017   4.425   4.330  0.7146  1.9042 -1.2416
 3285SOL     OW21490   4.527   1.283   9.120  0.0461  0.4490  0.2854
 3285SOL    HW121491   4.612   1.258   9.155  0.1491  0.9782  0.4239
 3285SOL    HW221492   4.502   1.349   9.185  1.7215  0.9970  0.3722
 3286SOL     OW21493   1.087   1.297   5.814  0.6185  0.1746 -0.3003
 3286SOL    HW121494   1.154   1.257   5.871 -0.3776 -0.5854  0.3337
 3286SOL    HW221495   1.130   1.381   5.801 -0.3193  0.4672 -1.4888
 3287SOL     OW21496   4.723   0.662   2.316 -0.0341 -0.3799 -0.6910
 3287SOL    HW121497   0.074   0.691   2.343  0.3540 -0.8724 -1.4281
 3287SOL    HW221498   0.007   0.659   2.223  0.2374 -1.5720 -0.5852
 3288SOL     OW21499   0.591   1.985   3.561  0.2353  0.3726  0.1865
 3288SOL    HW121500   0.531   2.042   3.513 -2.5967 -1.8109  1.1908
 3288SOL    HW221501   0.597   1.906   3.507 -0.1035 -1.3596  2.6968
 3289SOL     OW21502   3.570   2.980   3.003 -0.5932  0.0763  0.1788
 3289SOL    HW121503   3.477   2.996   2.987 -0.3736 -0.4003 -1.5644
 3289SOL    HW221504   3.577   2.888   2.978  1.1835  0.5450 -1.0540
 3290SOL     OW21505   1.008   1.275  11.225 -0.0279 -0.0297  0.0403
 3290SOL    HW121506   1.080   1.331  11.255  0.3910 -1.4941  1.7687
 3290SOL    HW221507   0.937   1.290  11.288  0.4208  1.5262  0.1702
 3291SOL     OW21508   1.739   0.405  10.134 -0.7959 -0.0092  0.1663
 3291SOL    HW121509   1.828   0.380  10.107 -2.6443 -1.5228 -4.4141
 3291SOL    HW221510   1.721   0.341  10.203 -2.2166  0.0516 -0.1581
 3292SOL     OW21511   2.905   2.830   2.384 -0.0256  0.1638  0.2271
 3292SOL    HW121512   2.997   2.844   2.409  0.7099 -1.6966 -1.4043
 3292SOL    HW221513   2.893   2.912   2.336  0.3069 -0.0551 -0.2371
 3293SOL     OW21514   4.607   2.628   5.274  0.1501  0.3249 -0.2826
 3293SOL    HW121515   4.576   2.711   5.309 -0.4818 -0.5605  1.2440
 3293SOL    HW221516   4.614   2.566   5.347 -0.4793 -0.5297 -0.9451
 3294SOL     OW21517   0.050   4.334   1.769  0.2659 -0.0763 -0.1150
 3294SOL    HW121518   0.006   4.372   1.844 -0.8586 -0.7811 -0.4188
 3294SOL    HW221519   4.710   4.301   1.722 -1.0568  1.5686  0.9067
 3295SOL     OW21520   0.835   2.303   5.421 -0.5335 -0.1722  0.1555
 3295SOL    HW121521   0.909   2.274   5.476 -2.1584 -2.3388  1.1857
 3295SOL    HW221522   0.858   2.395   5.410  0.6472 -0.4718  0.1202
 3296SOL     OW21523   0.191   2.198   8.331 -0.1088 -0.4736 -0.4248
 3296SOL    HW121524   0.149   2.169   8.412  0.4476 -2.3291 -0.8090
 3296SOL    HW221525   0.215   2.110   8.301  2.4696  0.4263 -0.9846
 3297SOL     OW21526   0.304   1.732   6.427  0.1758  0.4011 -0.0692
 3297SOL    HW121527   0.355   1.764   6.501 -0.6936  0.3668  0.5546
 3297SOL    HW221528   0.217   1.748   6.465 -0.7352  0.5914 -2.2647
 3298SOL     OW21529   0.403   0.661  15.061 -0.2038  0.1226 -0.1567
 3298SOL    HW121530   0.382   0.743  15.016 -0.4767  0.3725  0.4391
 3298SOL    HW221531   0.355   0.596  15.008 -0.0366  1.1331 -1.5631
 3299SOL     OW21532   1.077   1.377   7.920 -0.0169  0.6289 -0.2113
 3299SOL    HW121533   1.164   1.337   7.922 -0.3244 -0.1703 -2.6856
 3299SOL    HW221534   1.031   1.319   7.860  1.0809 -0.0414 -0.3929
 3300SOL     OW21535   2.913   1.672  10.747 -0.0839 -0.3301  0.0430
 3300SOL    HW121536   2.984   1.608  10.754 -0.1250 -0.7335 -2.8968
 3300SOL    HW221537   2.841   1.617  10.780 -0.0929  0.0060  0.5803
 3301SOL     OW21538   1.718   1.502   8.946 -0.2435  0.3461  0.0834
 3301SOL    HW121539   1.744   1.589   8.914 -1.9799  0.9974  0.4344
 3301SOL    HW221540   1.794   1.446   8.928 -0.5590 -0.1167  0.1970
 3302SOL     OW21541   2.977   4.732  10.720 -0.2192 -0.1609  0.1163
 3302SOL    HW121542   3.071   4.733  10.739 -0.2984  0.4777  0.4839
 3302SOL    HW221543   2.970   0.051  10.642 -0.2169 -1.5060 -0.8444
 3303SOL     OW21544   0.799   0.163  11.984  0.1285 -0.2179  0.4229
 3303SOL    HW121545   0.841   0.123  11.908  1.3991  0.0490  0.9851
 3303SOL    HW221546   0.840   0.249  11.972  1.1619 -0.8849 -0.8121
 3304SOL     OW21547   0.313   0.553   7.635  0.3387  1.0128  0.6764
 3304SOL    HW121548   0.250   0.625   7.639 -1.2240 -0.2827 -0.9648
 3304SOL    HW221549   0.257   0.489   7.678  2.6893 -1.9834 -0.7011
 3305SOL     OW21550   2.193   4.035  17.437 -0.7362  0.0756 -0.1069
 3305SOL    HW121551   2.123   3.983  17.396 -2.4842  0.7744  1.9490
 3305SOL    HW221552   2.215   3.974  17.507 -0.0256 -1.3068 -1.5546
 3306SOL     OW21553   3.951   3.802   3.576 -0.2420 -0.0516 -0.1696
 3306SOL    HW121554   4.000   3.816   3.494 -0.1589  1.0878  0.0695
 3306SOL    HW221555   3.868   3.838   3.546 -0.8931  0.1376  1.9159
 3307SOL     OW21556   2.178   4.158   7.577 -0.6066  0.0890 -0.7106
 3307SOL    HW121557   2.098   4.147   7.627 -0.1587  2.1315  0.4772
 3307SOL    HW221558   2.229   4.217   7.633 -0.8945  0.7977 -1.1935
 3308SOL     OW21559   4.183   1.218   1.314  0.0239  0.0521  0.0672
 3308SOL    HW121560   4.224   1.282   1.373  1.0766 -0.3577 -0.2195
 3308SOL    HW221561   4.179   1.139   1.368 -0.1712 -0.4792 -0.7334
 3309SOL     OW21562   3.822   1.092   5.900  0.2039  0.5764 -0.1036
 3309SOL    HW121563   3.789   1.181   5.908 -3.8404 -1.1880  2.8896
 3309SOL    HW221564   3.912   1.104   5.930  0.1150 -0.8375  0.7524
 3310SOL     OW21565   0.839   2.281   9.268  0.0016  0.1501  0.6288
 3310SOL    HW121566   0.926   2.315   9.287  0.3689  0.5481 -1.7576
 3310SOL    HW221567   0.856   2.197   9.310  0.4272 -0.6834 -1.2091
 3311SOL     OW21568   2.924   0.505   4.231  0.0873  0.4388 -0.2571
 3311SOL    HW121569   2.841   0.464   4.209  1.2823 -2.1958  0.1339
 3311SOL    HW221570   2.975   0.504   4.150  0.9652 -0.7129  0.3052
 3312SOL     OW21571   4.572   1.648   5.691 -0.2473  0.8129 -0.2274
 3312SOL    HW121572   4.658   1.609   5.704 -0.4956  0.2331 -0.3262
 3312SOL    HW221573   4.561   1.624   5.599  0.8319 -0.7877  0.0628
 3313SOL     OW21574   4.062   4.314   7.678  0.3972  0.5024  0.5105
 3313SOL    HW121575   4.056   4.406   7.654  3.2630  1.2223  2.5825
 3313SOL    HW221576   4.019   4.307   7.764  0.9703 -1.7350  0.6266
 3314SOL     OW21577   4.640   1.901   9.937 -0.1628 -0.4474  0.0158
 3314SOL    HW121578   4.642   1.981   9.989  3.0758  1.5358 -3.1970
 3314SOL    HW221579   4.545   1.897   9.925 -0.0622 -0.3314 -0.8336
 3315SOL     OW21580   3.452   3.044   7.070  0.0502 -0.2804 -0.8115
 3315SOL    HW121581   3.425   3.131   7.099 -0.1453 -1.1757  1.7241
 3315SOL    HW221582   3.456   3.053   6.975  0.3486  1.9249 -0.5744
 3316SOL     OW21583   1.664   3.285  14.394  0.9346 -0.1101  0.1575
 3316SOL    HW121584   1.642   3.378  14.399 -0.4546 -0.5403  2.1451
 3316SOL    HW221585   1.746   3.276  14.442  1.3911  0.3804 -0.5275
 3317SOL     OW21586   1.235   3.887   3.151  0.0216  0.7091 -0.2021
 3317SOL    HW121587   1.242   3.976   3.187  1.8683  0.2710  0.5222
 3317SOL    HW221588   1.159   3.851   3.197 -0.0990  0.7663 -0.3558
 3318SOL     OW21589   1.815   2.952   3.161 -0.5413 -0.1780  0.1128
 3318SOL    HW121590   1.807   2.969   3.255  3.5207  0.3856  0.3339
 3318SOL    HW221591   1.862   3.031   3.133 -1.6990  0.6112  0.3840
 3319SOL     OW21592   2.893   4.134   9.205 -0.1406 -0.0307  0.3319
 3319SOL    HW121593   2.941   4.152   9.287 -1.4132  0.3307  1.0002
 3319SOL    HW221594   2.806   4.107   9.235 -0.1975  0.6768  0.8113
 3320SOL     OW21595   1.814   3.340   9.320  0.1615  0.3345 -0.0456
 3320SOL    HW121596   1.723   3.312   9.328 -0.1373  1.0163 -1.1221
 3320SOL    HW221597   1.804   3.420   9.268  1.8159 -1.1857 -2.7107
 3321SOL     OW21598   3.779   4.668  15.746 -0.6490 -0.7670  0.0651
 3321SOL    HW121599   3.796   4.701  15.658 -1.6271 -1.6576 -0.4540
 3321SOL    HW221600   3.699   4.714  15.769 -0.8713 -0.6651 -0.9099
 3322SOL     OW21601   3.912   0.025   8.122  0.5123  0.2223 -0.0907
 3322SOL    HW121602   3.881   4.686   8.171  2.1214  0.0959  0.7223
 3322SOL    HW221603   3.914   0.093   8.189  0.9742  1.3343 -1.2296
 3323SOL     OW21604   0.676   1.569   7.329  0.0389 -0.3321  0.0450
 3323SOL    HW121605   0.623   1.613   7.395 -0.5011 -1.1009  0.1137
 3323SOL    HW221606   0.626   1.502   7.283 -2.6086  1.7962 -0.1489
 3324SOL     OW21607   3.513   4.424  16.243  0.2231 -0.2450 -0.1120
 3324SOL    HW121608   3.592   4.383  16.206  1.0441  0.8758  0.4210
 3324SOL    HW221609   3.540   4.464  16.325 -0.6460 -2.6523  1.3449
 3325SOL     OW21610   3.899   3.511   5.005 -0.5772  0.3357 -0.7079
 3325SOL    HW121611   3.846   3.540   5.079  0.4291  0.7336 -0.1314
 3325SOL    HW221612   3.985   3.539   5.037  0.2215 -0.7673 -1.9027
 3326SOL     OW21613   1.253   3.015   1.903  1.0207 -0.0830 -0.5952
 3326SOL    HW121614   1.209   2.992   1.985  3.6840  0.1229  0.8951
 3326SOL    HW221615   1.276   3.108   1.905  1.6191 -0.2337 -0.5795
 3327SOL     OW21616   2.514   3.228   5.347  0.0401 -0.0215 -0.0808
 3327SOL    HW121617   2.432   3.229   5.397 -1.8512 -2.1016 -3.1387
 3327SOL    HW221618   2.561   3.186   5.419 -0.1224  1.7459  1.0534
 3328SOL     OW21619   1.865   3.789   5.528  0.4772 -0.3389 -0.4886
 3328SOL    HW121620   1.891   3.827   5.444  0.0229  0.8873 -0.0626
 3328SOL    HW221621   1.771   3.805   5.529  0.4078 -0.7311 -0.5750
 3329SOL     OW21622   0.458   0.946   8.203 -0.5049  0.1286  0.5229
 3329SOL    HW121623   0.415   0.964   8.119 -1.5488 -1.8606  0.6260
 3329SOL    HW221624   0.452   1.028   8.253  1.3417  1.6885 -1.8416
 3330SOL     OW21625   1.678   1.848   9.472  0.6122 -0.1263  0.5377
 3330SOL    HW121626   1.697   1.779   9.535 -1.0276 -1.8929 -0.9287
 3330SOL    HW221627   1.631   1.908   9.530  0.5830  1.5173 -1.1710
 3331SOL     OW21628   3.418   3.925  13.363 -0.2413 -0.5426 -0.0249
 3331SOL    HW121629   3.361   3.888  13.430 -0.9266  1.6873  0.6021
 3331SOL    HW221630   3.388   4.015  13.355  0.9385 -0.1321  0.0887
 3332SOL     OW21631   4.631   0.443   1.737  0.0570  0.3154 -0.8941
 3332SOL    HW121632   4.622   0.379   1.808 -5.6275  0.2747 -1.6026
 3332SOL    HW221633   4.724   0.432   1.718 -0.4124 -1.0665 -2.3408
 3333SOL     OW21634   2.107   2.188   6.483 -0.0450 -0.5364  0.2864
 3333SOL    HW121635   2.111   2.251   6.556  0.8754  0.1332 -0.3397
 3333SOL    HW221636   2.012   2.182   6.480 -0.1114  2.1730 -3.4907
 3334SOL     OW21637   3.776   0.951   1.520 -0.0108  0.1540 -0.2331
 3334SOL    HW121638   3.856   0.982   1.478  1.2416 -1.0145  1.3090
 3334SOL    HW221639   3.778   1.010   1.596  0.2829  1.5163 -1.2912
 3335SOL     OW21640   4.505   0.828   6.961  0.2674  0.0039 -0.1192
 3335SOL    HW121641   4.545   0.902   6.914  0.1780 -0.3492 -0.7525
 3335SOL    HW221642   4.539   0.821   7.050 -0.4180 -1.7653 -0.0089
 3336SOL     OW21643   1.600   0.178   5.035  0.0225  0.1063 -0.0519
 3336SOL    HW121644   1.542   0.110   5.001  0.5457  0.6460 -2.0427
 3336SOL    HW221645   1.684   0.133   5.046  0.3253  0.3918 -1.2060
 3337SOL     OW21646   1.206   0.470   8.089 -0.3081 -0.1084 -0.2978
 3337SOL    HW121647   1.189   0.497   7.999  0.8782 -0.7710 -0.7127
 3337SOL    HW221648   1.152   0.524   8.147  0.1375  0.8781 -0.7910
 3338SOL     OW21649   2.901   2.730   6.359  0.1609 -0.0621  0.2193
 3338SOL    HW121650   2.905   2.661   6.425  1.2500 -0.8348 -0.6546
 3338SOL    HW221651   2.808   2.734   6.339  0.7593 -3.1733 -3.1209
 3339SOL     OW21652   2.650   2.091   7.501  0.1441  0.1436 -0.1797
 3339SOL    HW121653   2.590   2.029   7.542 -0.7339  0.1589 -1.4281
 3339SOL    HW221654   2.601   2.173   7.498 -3.6091 -2.0996 -0.3792
 3340SOL     OW21655   3.318   0.598   2.742 -0.1633 -0.3106  0.3795
 3340SOL    HW121656   3.392   0.640   2.697 -1.1739  2.2722  1.1238
 3340SOL    HW221657   3.318   0.651   2.821  0.1711 -0.7982  0.7072
 3341SOL     OW21658   2.717   1.698  13.129 -0.5001 -0.4113 -0.1840
 3341SOL    HW121659   2.771   1.670  13.202 -3.1228  1.3671  2.4366
 3341SOL    HW221660   2.755   1.784  13.112 -1.3928 -0.2004 -1.0956
 3342SOL     OW21661   1.965   2.341   2.996 -0.1081 -0.0833 -0.1034
 3342SOL    HW121662   1.930   2.266   3.044  0.7625  0.2189  0.9902
 3342SOL    HW221663   2.042   2.299   2.957 -0.3036  0.2516 -0.8673
 3343SOL     OW21664   0.189   0.071   4.685  0.0942  0.3543  0.1199
 3343SOL    HW121665   0.204   0.139   4.620  2.0375 -1.3855 -1.2295
 3343SOL    HW221666   0.122   0.115   4.738 -1.7488 -0.1142 -1.7814
 3344SOL     OW21667   2.029   2.757   4.569  0.0804  0.1002 -0.0662
 3344SOL    HW121668   2.087   2.828   4.539 -0.1152  0.5118  0.5396
 3344SOL    HW221669   2.041   2.759   4.664  0.4462  1.6567 -0.1341
 3345SOL     OW21670   1.693   3.130   7.382 -0.2887 -0.5208 -0.7575
 3345SOL    HW121671   1.679   3.052   7.435 -3.5283  0.2912 -0.3656
 3345SOL    HW221672   1.637   3.111   7.307 -0.5349  2.3450 -1.3288
 3346SOL     OW21673   0.691   2.947   2.334 -0.4049  0.7187  0.2969
 3346SOL    HW121674   0.642   3.021   2.299  0.5331  0.9906 -0.4319
 3346SOL    HW221675   0.734   2.984   2.412 -2.1406  2.4834  0.4279
 3347SOL     OW21676   2.164   3.805   1.399 -0.0985  0.1056  0.4237
 3347SOL    HW121677   2.197   3.771   1.315 -0.2513 -0.7115  0.6926
 3347SOL    HW221678   2.166   3.726   1.452  0.1839  0.2332  0.6048
 3348SOL     OW21679   0.075   2.771   0.417 -0.6394  0.1808  1.1395
 3348SOL    HW121680   0.080   2.857   0.460 -1.4590 -0.2227  2.0247
 3348SOL    HW221681   0.019   2.719   0.474 -0.4156 -0.3503  0.8767
 3349SOL     OW21682   1.274   1.227   2.714 -0.3593 -0.0122 -0.3111
 3349SOL    HW121683   1.323   1.159   2.668 -2.5201 -0.4015 -2.0343
 3349SOL    HW221684   1.238   1.175   2.785  0.3026 -1.3369 -0.9366
 3350SOL     OW21685   4.100   0.230   3.856 -0.2130  0.4482 -0.1149
 3350SOL    HW121686   4.131   0.278   3.932 -1.9744 -0.2647  1.0338
 3350SOL    HW221687   4.015   0.273   3.847  0.0093  1.0795  0.8724
 3351SOL     OW21688   3.168   1.775  12.767 -0.0537  0.7171  0.4550
 3351SOL    HW121689   3.239   1.834  12.743 -1.0318  1.7376  0.0902
 3351SOL    HW221690   3.190   1.694  12.721  0.5749  0.4122  1.2888
 3352SOL     OW21691   2.762   1.574   9.421 -1.1320 -0.0251 -0.0838
 3352SOL    HW121692   2.840   1.552   9.371  0.2128  1.6092  1.2951
 3352SOL    HW221693   2.767   1.667   9.440 -0.5194 -0.6550  2.8198
 3353SOL     OW21694   4.578   3.284   5.593  0.5027 -0.5064  0.4030
 3353SOL    HW121695   4.615   3.196   5.587 -2.4920 -1.7151 -0.8507
 3353SOL    HW221696   4.564   3.294   5.687 -0.4901  0.8818  0.1136
 3354SOL     OW21697   3.221   0.446   6.015  0.2655  0.6768 -0.2575
 3354SOL    HW121698   3.268   0.370   6.051 -1.5980 -0.1466  0.4040
 3354SOL    HW221699   3.297   0.500   5.994  0.2131  1.1744  0.7975
 3355SOL     OW21700   0.088   4.684   1.708  0.3901  0.1929  0.0200
 3355SOL    HW121701   0.121   4.604   1.668 -2.0789  0.1236 -1.8827
 3355SOL    HW221702   0.025   4.724   1.648 -0.5708 -0.3692  0.6470
 3356SOL     OW21703   0.422   3.762   6.945  0.0517  0.2287  0.5440
 3356SOL    HW121704   0.362   3.789   7.015 -2.0571  1.4040 -1.7030
 3356SOL    HW221705   0.404   3.669   6.933  3.8768 -0.1097 -2.5612
 3357SOL     OW21706   4.580   1.264  10.916  0.0634 -0.0012  0.1014
 3357SOL    HW121707   4.570   1.246  10.822  0.3977 -0.5546  0.1705
 3357SOL    HW221708   4.621   1.351  10.908 -1.2987  0.7686  1.6049
 3358SOL     OW21709   3.612   4.096   0.972 -0.2474 -0.0610 -0.2300
 3358SOL    HW121710   3.554   4.165   0.941  1.3677  2.7613  3.0859
 3358SOL    HW221711   3.554   4.057   1.037  1.3108  0.4800  1.4736
 3359SOL     OW21712   1.854   3.421  16.256 -0.0694  0.2551 -0.4426
 3359SOL    HW121713   1.938   3.461  16.276  0.6257 -1.4666  0.0454
 3359SOL    HW221714   1.794   3.477  16.305 -1.5073 -0.7862 -1.0263
 3360SOL     OW21715   4.031   1.794   7.740  0.3422 -0.2712  0.6983
 3360SOL    HW121716   4.028   1.715   7.686  0.3522 -0.1099  0.4633
 3360SOL    HW221717   3.951   1.772   7.788 -0.3860  1.8630  0.4388
 3361SOL     OW21718   2.697   1.686  11.604 -0.0545  0.2650  0.2019
 3361SOL    HW121719   2.702   1.654  11.514  1.0029  1.4581 -0.1625
 3361SOL    HW221720   2.625   1.748  11.598  0.3823  0.6365 -1.0748
 3362SOL     OW21721   3.264   4.167  15.705  0.8763  0.3486  0.0881
 3362SOL    HW121722   3.327   4.237  15.694 -1.3863  2.0578 -2.0989
 3362SOL    HW221723   3.197   4.189  15.640  0.8680 -1.5011 -0.5317
 3363SOL     OW21724   2.354   3.051   0.269  0.4024  0.2983 -0.0587
 3363SOL    HW121725   2.274   2.999   0.281  1.2377 -0.9166  0.2553
 3363SOL    HW221726   2.334   3.095   0.186 -0.1884  0.2432  0.0529
 3364SOL     OW21727   1.294   3.482   2.538 -0.0507  0.0381  0.6113
 3364SOL    HW121728   1.266   3.411   2.597  0.7802 -0.0254  0.9301
 3364SOL    HW221729   1.358   3.538   2.582  0.3743  0.2397 -0.2829
 3365SOL     OW21730   0.033   3.705   6.454  0.3518 -0.0711 -0.0727
 3365SOL    HW121731   4.693   3.719   6.510  0.0285  0.6240 -0.6961
 3365SOL    HW221732   0.069   3.793   6.444  0.4426 -0.0705  0.2463
 3366SOL     OW21733   0.659   3.963   1.243 -0.0859  0.2832  0.1693
 3366SOL    HW121734   0.611   3.897   1.193 -0.1677 -0.5101  1.3205
 3366SOL    HW221735   0.639   4.043   1.194 -1.1820 -0.9882 -1.4546
 3367SOL     OW21736   4.516   3.617   6.093 -0.0076  0.2965 -0.5951
 3367SOL    HW121737   4.480   3.635   6.179 -3.0045 -3.7350 -0.9861
 3367SOL    HW221738   4.496   3.524   6.087 -0.6859  0.4314 -0.4276
 3368SOL     OW21739   2.335   4.723  10.262 -0.1459  0.0210  0.5592
 3368SOL    HW121740   2.302   0.054  10.321  0.0567  0.2840  0.3703
 3368SOL    HW221741   2.257   4.667  10.253  1.4200 -1.8627 -1.1957
 3369SOL     OW21742   2.466   4.736  17.095 -0.3396 -0.5744  0.1151
 3369SOL    HW121743   2.409   0.049  17.154  0.1816 -0.4789  0.5454
 3369SOL    HW221744   2.412   4.720  17.018  0.7729  1.1454 -1.0385
 3370SOL     OW21745   1.242   4.126   3.262 -0.1947  0.2978  0.1278
 3370SOL    HW121746   1.291   4.173   3.194  1.9127 -1.8643  0.1501
 3370SOL    HW221747   1.175   4.193   3.271 -1.7583 -1.1965 -0.4973
 3371SOL     OW21748   1.305   2.323   8.162  0.2188  0.3510 -0.0161
 3371SOL    HW121749   1.210   2.324   8.151  0.2064 -1.1364 -0.1646
 3371SOL    HW221750   1.329   2.240   8.205  1.3351  1.1164  0.8348
 3372SOL     OW21751   3.109   1.165   6.135 -0.4511  0.5474 -0.2013
 3372SOL    HW121752   3.117   1.070   6.144  3.9802  0.9305 -0.3826
 3372SOL    HW221753   3.067   1.182   6.219 -0.0147  0.8850 -0.0514
 3373SOL     OW21754   2.207   2.437   9.956 -0.1295  0.3908 -0.0056
 3373SOL    HW121755   2.149   2.465  10.028 -0.3810  0.7490 -0.3492
 3373SOL    HW221756   2.148   2.437   9.881  2.5577 -1.0651 -2.0889
 3374SOL     OW21757   2.701   4.253   2.288 -0.6473  0.3965 -0.0098
 3374SOL    HW121758   2.721   4.221   2.376  3.9515 -0.0174 -1.2276
 3374SOL    HW221759   2.738   4.341   2.288 -1.0568  0.5606  0.7285
 3375SOL     OW21760   4.694   1.080   0.745 -0.8256 -0.3591  0.2323
 3375SOL    HW121761   4.660   1.043   0.826  2.3122 -1.8511  0.8771
 3375SOL    HW221762   4.620   1.067   0.686  1.7123 -0.9223 -2.9011
 3376SOL     OW21763   3.612   2.346   4.755 -0.4049  0.0253 -0.6201
 3376SOL    HW121764   3.551   2.355   4.829  0.8316 -0.5164  0.4648
 3376SOL    HW221765   3.599   2.431   4.713 -1.5296  0.1965  0.0503
 3377SOL     OW21766   4.719   0.976   7.679 -0.0351 -0.4116 -0.4623
 3377SOL    HW121767   0.034   1.051   7.707 -0.4324 -0.5669  0.6899
 3377SOL    HW221768   0.048   0.910   7.656  0.2311  0.2449 -1.5886
 3378SOL     OW21769   1.026   3.473  17.568 -0.2542 -0.2790 -0.2350
 3378SOL    HW121770   1.061   3.560  17.547 -0.2410 -0.1388  0.3616
 3378SOL    HW221771   1.092   3.423  17.519 -1.4119 -2.4994  0.5001
 3379SOL     OW21772   2.082   3.116   5.704  0.3627  0.6244  0.1596
 3379SOL    HW121773   2.061   3.190   5.761  1.8722  2.1554 -1.2438
 3379SOL    HW221774   2.104   3.147   5.616  1.6754  0.7258  0.5285
 3380SOL     OW21775   2.286   2.591  13.478 -0.5489 -0.0156  0.1895
 3380SOL    HW121776   2.308   2.552  13.393 -0.6886 -0.1533  0.2153
 3380SOL    HW221777   2.285   2.685  13.459 -1.0215 -0.5078 -2.2046
 3381SOL     OW21778   1.528   3.904   5.776 -0.1376 -0.4241 -0.0035
 3381SOL    HW121779   1.544   3.859   5.858  2.4914 -0.0308 -0.2970
 3381SOL    HW221780   1.482   3.830   5.737 -2.4218  0.6844  0.5606
 3382SOL     OW21781   3.210   2.908   3.733 -0.1842  0.3905 -0.0137
 3382SOL    HW121782   3.186   2.816   3.720  0.7057  0.1328  0.1099
 3382SOL    HW221783   3.227   2.907   3.827  0.5706 -0.1093 -0.1551
 3383SOL     OW21784   2.369   4.116   2.648 -0.0830 -0.6667  0.3575
 3383SOL    HW121785   2.443   4.081   2.698  0.2506 -0.0838  0.2662
 3383SOL    HW221786   2.362   4.045   2.584 -0.3386 -1.1481  0.9141
 3384SOL     OW21787   3.987   0.539   4.414 -0.3319  0.1596 -0.4836
 3384SOL    HW121788   3.904   0.531   4.367  1.7117  0.7917 -4.1945
 3384SOL    HW221789   4.025   0.462   4.371  2.7491  0.8861  0.9717
 3385SOL     OW21790   2.632   0.646   1.806 -0.7153 -0.4161  0.2262
 3385SOL    HW121791   2.567   0.579   1.787  0.2940 -0.8087 -1.7574
 3385SOL    HW221792   2.667   0.664   1.719 -1.8550  0.1227 -0.1309
 3386SOL     OW21793   4.631   4.268   0.493  0.3783 -0.4554 -0.3266
 3386SOL    HW121794   4.614   4.311   0.409  1.6109 -1.5233 -1.1317
 3386SOL    HW221795   4.710   4.216   0.477 -0.4543 -2.2164  1.3451
 3387SOL     OW21796   0.244   2.972  10.814 -0.2515 -0.2484 -0.4580
 3387SOL    HW121797   0.187   2.948  10.888 -2.0324 -0.2246 -1.8101
 3387SOL    HW221798   0.324   2.923  10.832 -0.4873  0.6207  2.8714
 3388SOL     OW21799   2.017   3.303   6.944 -0.2021 -0.1175 -0.2311
 3388SOL    HW121800   2.104   3.338   6.967 -0.3759  0.4653 -0.4789
 3388SOL    HW221801   1.958   3.373   6.970 -0.9970 -0.5329 -0.9597
 3389SOL     OW21802   2.037   2.359  12.496  0.2549 -0.1500  0.2621
 3389SOL    HW121803   1.992   2.426  12.445  1.6460  1.2172  0.8409
 3389SOL    HW221804   2.099   2.414  12.543  1.0229 -0.9840  0.2236
 3390SOL     OW21805   3.113   3.605   8.748  0.1286 -0.7873  0.7864
 3390SOL    HW121806   3.141   3.680   8.801 -0.1825 -1.0063  1.2653
 3390SOL    HW221807   3.198   3.563   8.762  0.5477 -1.1088 -2.9098
 3391SOL     OW21808   1.126   3.602   9.385  0.0866  0.1577  0.2793
 3391SOL    HW121809   1.096   3.512   9.371  1.4635 -0.7554  3.2813
 3391SOL    HW221810   1.164   3.619   9.299 -2.1540 -0.1922 -0.7918
 3392SOL     OW21811   1.505   4.683   4.885 -0.2654  0.2947 -0.1028
 3392SOL    HW121812   1.574   4.711   4.826  0.7298 -1.2315  0.3339
 3392SOL    HW221813   1.540   4.595   4.896 -1.1081  0.1903  1.7592
 3393SOL     OW21814   3.112   3.295   0.174  0.3844 -0.0580  0.0343
 3393SOL    HW121815   3.044   3.271   0.238  0.9730  0.2723  0.7766
 3393SOL    HW221816   3.158   3.212   0.162  1.8632  0.9096 -0.8549
 3394SOL     OW21817   1.623   0.321   8.741  0.3460 -0.5294  0.0751
 3394SOL    HW121818   1.572   0.374   8.803 -0.3942  0.9969 -1.8484
 3394SOL    HW221819   1.641   0.386   8.673 -0.9495 -1.7632 -1.4377
 3395SOL     OW21820   2.037   3.686   6.950 -0.8083 -0.1638 -0.4759
 3395SOL    HW121821   2.093   3.764   6.954  0.1216 -0.9984  3.0148
 3395SOL    HW221822   2.036   3.672   6.856 -1.2504 -3.0991 -0.0365
 3396SOL     OW21823   1.589   1.425   2.576 -0.5108  0.2615 -0.8695
 3396SOL    HW121824   1.674   1.382   2.569 -0.1652  0.6298  1.1544
 3396SOL    HW221825   1.543   1.397   2.497  0.2445 -1.9687 -0.5249
 3397SOL     OW21826   3.263   1.693   2.321 -0.2442 -0.1545 -0.0498
 3397SOL    HW121827   3.240   1.607   2.356 -1.3123  1.4479  3.2241
 3397SOL    HW221828   3.238   1.688   2.229 -0.5744 -2.0892  0.1598
 3398SOL     OW21829   4.084   2.715  11.970  0.3303 -0.4897 -0.1984
 3398SOL    HW121830   4.088   2.662  12.050 -0.6421 -3.6460 -2.2113
 3398SOL    HW221831   4.038   2.794  11.998  0.4874  0.4711 -2.6936
 3399SOL     OW21832   2.126   4.586  13.761 -0.1314  0.4863 -0.1449
 3399SOL    HW121833   2.058   4.599  13.827 -0.6138  1.6049 -0.8446
 3399SOL    HW221834   2.138   4.672  13.719  0.5437  0.9797  1.0529
 3400SOL     OW21835   0.194   4.469   7.274 -0.2544  0.2280 -0.2312
 3400SOL    HW121836   0.256   4.541   7.263  0.0892  0.2038  1.6555
 3400SOL    HW221837   0.229   4.435   7.356 -2.5066 -0.9325  0.2538
 3401SOL     OW21838   2.060   2.765  11.498 -0.0629 -0.1609  0.4622
 3401SOL    HW121839   2.148   2.802  11.486 -0.6653  1.3137  0.6491
 3401SOL    HW221840   2.090   2.684  11.540  1.8502  0.0984 -0.4229
 3402SOL     OW21841   4.445   4.341  11.672  0.0720  0.6656  0.0100
 3402SOL    HW121842   4.500   4.402  11.622  1.3069 -0.6740 -0.2584
 3402SOL    HW221843   4.372   4.352  11.611 -0.0942  0.9660  0.2599
 3403SOL     OW21844   0.376   0.580  13.717 -0.1583 -0.1207  0.5753
 3403SOL    HW121845   0.341   0.515  13.656 -0.9122 -0.9519  1.9074
 3403SOL    HW221846   0.317   0.656  13.716  0.8291  0.6320  0.2376
 3404SOL     OW21847   3.677   2.201  17.139  0.5179 -0.2136 -0.7674
 3404SOL    HW121848   3.611   2.132  17.150  0.3463 -0.1477 -1.3968
 3404SOL    HW221849   3.620   2.276  17.121 -0.1073 -0.0564  1.8224
 3405SOL     OW21850   2.248   1.058   9.476  0.3620  0.4326 -0.5764
 3405SOL    HW121851   2.294   1.139   9.497  1.3706 -0.3081  0.0636
 3405SOL    HW221852   2.182   1.100   9.421  0.2519 -1.0191 -1.5578
 3406SOL     OW21853   0.147   0.285   2.809  0.6182  0.1595  0.1242
 3406SOL    HW121854   0.073   0.228   2.833  1.0460  0.1970  1.5234
 3406SOL    HW221855   0.114   0.375   2.808  1.2677  0.3825 -1.5976
 3407SOL     OW21856   0.199   3.585   2.154 -0.0460 -0.0888 -0.0756
 3407SOL    HW121857   0.159   3.526   2.089 -0.6295 -1.3121  1.3753
 3407SOL    HW221858   0.131   3.585   2.222  0.5741 -2.2968  0.5442
 3408SOL     OW21859   3.097   1.244   2.607 -0.5633 -0.1132  0.9873
 3408SOL    HW121860   3.072   1.152   2.611  0.5941 -0.4604  0.1999
 3408SOL    HW221861   3.188   1.229   2.631 -0.4099  0.9353  1.0567
 3409SOL     OW21862   4.402   2.184   5.176  0.3471  0.7991  0.1253
 3409SOL    HW121863   4.481   2.156   5.128 -0.8269  0.0474 -1.3733
 3409SOL    HW221864   4.429   2.179   5.268  0.7546  2.4631  0.0992
 3410SOL     OW21865   0.701   2.860   0.745 -0.4927 -0.1906 -0.6795
 3410SOL    HW121866   0.758   2.843   0.670 -0.3124 -0.1680 -0.5468
 3410SOL    HW221867   0.651   2.932   0.706  0.3578  0.4317 -0.6188
 3411SOL     OW21868   3.572   4.518   2.743  0.0132  0.1205  0.4850
 3411SOL    HW121869   3.661   4.528   2.711 -0.3526  1.5298 -0.0719
 3411SOL    HW221870   3.537   4.606   2.728  0.8574  0.1830 -1.1373
 3412SOL     OW21871   0.274   0.561  14.778  0.1676  0.7121  0.0828
 3412SOL    HW121872   0.291   0.632  14.716 -3.3400 -0.6645 -2.4125
 3412SOL    HW221873   0.236   0.494  14.721 -0.6376  0.3186  1.0823
 3413SOL     OW21874   2.604   3.005   8.596 -0.3295 -0.0156  0.2329
 3413SOL    HW121875   2.530   3.063   8.582  0.1204  0.7152  0.8910
 3413SOL    HW221876   2.666   3.034   8.530 -1.2097 -1.6949 -1.3445
 3414SOL     OW21877   1.111   1.894   4.828 -0.3561 -0.1077 -0.1679
 3414SOL    HW121878   1.136   1.915   4.918  1.0938  1.2279 -0.8787
 3414SOL    HW221879   1.080   1.980   4.798 -1.9669 -0.8295 -0.5596
 3415SOL     OW21880   1.956   0.851  11.311 -0.1396 -0.1870  0.2605
 3415SOL    HW121881   1.871   0.835  11.352  0.5839  1.0570  2.1886
 3415SOL    HW221882   2.006   0.881  11.386 -1.7747 -1.1953  1.7439
 3416SOL     OW21883   1.917   0.229   0.149  0.5832 -0.3063  0.3156
 3416SOL    HW121884   1.991   0.271   0.192 -0.3993  0.5368  1.1857
 3416SOL    HW221885   1.854   0.222   0.221 -0.9012 -2.1193 -1.1615
 3417SOL     OW21886   4.502   2.630   5.002 -0.7627 -0.1111  0.0638
 3417SOL    HW121887   4.542   2.590   5.080  1.5724  0.4895 -0.8055
 3417SOL    HW221888   4.578   2.624   4.944 -2.2909  0.6411 -2.0150
 3418SOL     OW21889   2.401   1.549   4.142  0.2432  0.2479 -0.4844
 3418SOL    HW121890   2.382   1.482   4.207  1.0415  1.3094  0.8415
 3418SOL    HW221891   2.463   1.602   4.192 -0.0882  0.1566  0.0300
 3419SOL     OW21892   3.149   0.437  12.900 -0.0264 -0.3927 -0.3000
 3419SOL    HW121893   3.152   0.343  12.921 -2.9210 -0.2267  0.8047
 3419SOL    HW221894   3.215   0.436  12.831  0.2624 -1.6234 -0.0166
 3420SOL     OW21895   1.938   1.691  11.941 -0.0701  0.4973 -0.6826
 3420SOL    HW121896   2.013   1.639  11.970  0.0724  1.4014  0.5841
 3420SOL    HW221897   1.890   1.694  12.024 -0.2331  1.1921 -0.8045
 3421SOL     OW21898   2.357   2.084   8.511 -0.1288 -0.2863  0.1018
 3421SOL    HW121899   2.357   2.178   8.491 -1.9876 -0.1309  0.8058
 3421SOL    HW221900   2.431   2.075   8.571  0.4991 -0.4642 -0.7051
 3422SOL     OW21901   0.340   3.567   3.260  0.1638 -0.8158  0.0478
 3422SOL    HW121902   0.325   3.660   3.275 -2.5833 -1.2966  0.3072
 3422SOL    HW221903   0.350   3.571   3.165  2.4427  1.3668  0.3914
 3423SOL     OW21904   3.818   4.599   8.303  0.4342 -0.2267 -0.3371
 3423SOL    HW121905   3.828   4.535   8.373  1.5988 -1.1362 -1.3402
 3423SOL    HW221906   3.758   4.664   8.340 -0.6592 -1.2272 -0.3971
 3424SOL     OW21907   1.739   0.633  15.482 -0.0972 -0.0421 -0.3630
 3424SOL    HW121908   1.800   0.684  15.429 -1.4380  1.3850 -0.5523
 3424SOL    HW221909   1.783   0.548  15.492  0.5415  0.4793  1.2302
 3425SOL     OW21910   4.117   3.132   9.282  0.1248  0.1968 -0.3949
 3425SOL    HW121911   4.133   3.118   9.189  3.3528  1.1393  0.0390
 3425SOL    HW221912   4.026   3.103   9.276 -0.3438  1.2676  1.4406
 3426SOL     OW21913   1.391   4.508   1.915  0.4220  0.0427 -0.3155
 3426SOL    HW121914   1.354   4.503   2.003 -1.0018  0.4587 -0.8843
 3426SOL    HW221915   1.326   4.571   1.884  0.4262  0.3756  0.3505
 3427SOL     OW21916   2.507   4.273   5.920  0.8213 -0.5758 -0.4240
 3427SOL    HW121917   2.556   4.350   5.893 -3.1021  2.6955  1.5967
 3427SOL    HW221918   2.492   4.222   5.841 -0.2990 -0.8473 -0.0432
 3428SOL     OW21919   0.301   0.665   5.102  0.4085  0.6614  0.6702
 3428SOL    HW121920   0.272   0.722   5.174 -2.9508 -1.1129  0.7221
 3428SOL    HW221921   0.387   0.699   5.078  0.9187 -0.4978  0.8536
 3429SOL     OW21922   3.886   2.310   3.329 -0.6891  0.2404 -0.1263
 3429SOL    HW121923   3.804   2.291   3.284 -1.3816  0.4159  1.0435
 3429SOL    HW221924   3.951   2.340   3.266 -0.5720 -1.3702 -0.7654
 3430SOL     OW21925   1.193   4.181  12.168  0.3617 -0.4618 -0.6882
 3430SOL    HW121926   1.195   4.129  12.248  0.6272 -0.5752 -0.7693
 3430SOL    HW221927   1.142   4.122  12.114  1.9489 -1.7137 -0.8318
 3431SOL     OW21928   3.388   2.000  16.436 -0.6239  0.4421  0.0446
 3431SOL    HW121929   3.359   1.946  16.362  0.9493 -0.1518 -0.1540
 3431SOL    HW221930   3.475   2.027  16.406 -0.4833 -0.2450 -0.1830
 3432SOL     OW21931   1.057   0.631   4.519 -0.7479  0.4634  0.0625
 3432SOL    HW121932   1.001   0.700   4.484 -1.0635  0.4961  0.6399
 3432SOL    HW221933   1.038   0.644   4.612  3.4618 -1.1052  1.1393
 3433SOL     OW21934   0.991   0.169   5.736 -0.0382 -0.0601  0.1962
 3433SOL    HW121935   0.942   0.244   5.768  0.6664 -0.0584  1.2432
 3433SOL    HW221936   1.004   0.121   5.818  2.3660 -0.9395 -0.6949
 3434SOL     OW21937   1.736   1.429  16.715 -0.1440 -0.1503 -0.1705
 3434SOL    HW121938   1.825   1.458  16.735 -0.6505  0.5534  1.0426
 3434SOL    HW221939   1.725   1.373  16.792  0.8374 -0.2441 -0.0934
 3435SOL     OW21940   2.909   4.439  16.616 -0.2382 -0.3514 -0.4884
 3435SOL    HW121941   2.924   4.380  16.542  3.3998  0.5449 -0.4999
 3435SOL    HW221942   2.982   4.500  16.601 -1.2655  1.2244  0.9586
 3436SOL     OW21943   1.273   1.888   5.271  0.4534  0.3927 -0.3301
 3436SOL    HW121944   1.240   1.937   5.346 -0.2924  0.8880 -0.9813
 3436SOL    HW221945   1.270   1.795   5.294  1.2015  0.2660 -0.7374
 3437SOL     OW21946   0.792   4.601  12.731  0.7712  0.8674 -0.0193
 3437SOL    HW121947   0.867   4.614  12.789  2.0307 -1.4180 -1.1340
 3437SOL    HW221948   0.825   4.545  12.661  1.5211  1.7734 -0.3860
 3438SOL     OW21949   4.255   1.867   9.655 -0.7748 -0.1775 -0.1105
 3438SOL    HW121950   4.338   1.822   9.673 -1.9707 -2.2435  0.3300
 3438SOL    HW221951   4.271   1.958   9.678 -0.0589 -0.2763 -0.2167
 3439SOL     OW21952   3.064   4.012   8.460  0.3800 -0.1843 -0.1732
 3439SOL    HW121953   3.073   3.994   8.554  1.8334  0.7151 -0.1413
 3439SOL    HW221954   3.148   3.982   8.426 -1.2294 -0.7467 -3.5695
 3440SOL     OW21955   1.416   3.107   7.258 -0.5885  0.2779  0.3903
 3440SOL    HW121956   1.437   3.016   7.237  0.1415  0.3836  0.6637
 3440SOL    HW221957   1.357   3.109   7.333 -1.7522 -1.6439 -0.4514
 3441SOL     OW21958   0.654   4.586   9.023 -0.0881  0.1391 -0.0140
 3441SOL    HW121959   0.579   4.576   8.964  0.9181 -1.7611 -0.9739
 3441SOL    HW221960   0.694   4.500   9.010  1.6583  0.6224  2.1562
 3442SOL     OW21961   1.871   3.552   3.920 -0.0445  0.5942 -0.3509
 3442SOL    HW121962   1.941   3.502   3.876 -1.4348 -1.5222 -0.1391
 3442SOL    HW221963   1.865   3.624   3.857 -0.4475  1.2426  0.4383
 3443SOL     OW21964   4.067   3.689   4.801 -0.4500 -0.7654  0.4526
 3443SOL    HW121965   4.120   3.741   4.861  0.6654 -0.9409 -0.3772
 3443SOL    HW221966   4.124   3.613   4.797 -1.0290 -1.1698 -0.1130
 3444SOL     OW21967   1.484   1.447   4.586  0.3505  0.2970 -0.0399
 3444SOL    HW121968   1.418   1.497   4.537  1.9776  1.1289 -1.4011
 3444SOL    HW221969   1.435   1.390   4.645 -0.4137 -0.7997 -1.7385
 3445SOL     OW21970   4.013   1.436   7.295  0.0916 -0.0629 -0.1574
 3445SOL    HW121971   3.956   1.512   7.282 -0.2942  0.0984  2.4579
 3445SOL    HW221972   4.050   1.452   7.382 -0.0339 -0.8743  0.0507
 3446SOL     OW21973   1.825   1.510   8.570  0.2291  0.0835  0.6376
 3446SOL    HW121974   1.856   1.567   8.640 -0.7614  1.7089 -0.2516
 3446SOL    HW221975   1.862   1.555   8.494  0.1245  3.5272  2.6396
 3447SOL     OW21976   1.222   2.461   2.871 -0.2247 -0.2742  0.2627
 3447SOL    HW121977   1.163   2.459   2.947 -0.2136  2.0878  0.3386
 3447SOL    HW221978   1.226   2.368   2.849  0.1870 -0.6363  1.8566
 3448SOL     OW21979   0.907   4.187   0.747 -0.3973 -0.2040  0.4218
 3448SOL    HW121980   0.903   4.124   0.819 -1.1686 -0.3127  0.2793
 3448SOL    HW221981   0.842   4.249   0.779 -1.5493 -2.0772  1.7283
 3449SOL     OW21982   0.751   2.610  17.446 -0.3689 -0.1203  0.5331
 3449SOL    HW121983   0.749   2.523  17.406 -0.9832  0.5656 -0.9475
 3449SOL    HW221984   0.844   2.631  17.448 -0.2262 -0.6175 -0.4189
 3450SOL     OW21985   0.557   2.367   5.698 -0.4260 -0.3509  0.2488
 3450SOL    HW121986   0.650   2.390   5.710 -0.6443  0.3002  0.7139
 3450SOL    HW221987   0.525   2.442   5.647 -1.1451 -0.5628  0.3882
 3451SOL     OW21988   1.435   1.784   4.984  0.1137 -0.0550  0.1598
 3451SOL    HW121989   1.422   1.875   5.012  0.7872  0.5317 -1.4044
 3451SOL    HW221990   1.465   1.799   4.894  1.4510 -1.2456  0.4162
 3452SOL     OW21991   1.216   2.563   3.602 -0.4076 -0.3835  0.4290
 3452SOL    HW121992   1.152   2.565   3.673  1.6529 -1.4107  2.3134
 3452SOL    HW221993   1.301   2.552   3.646 -0.3554  0.4089  0.5339
 3453SOL     OW21994   0.052   1.482   5.263 -0.2717  0.1061  0.3738
 3453SOL    HW121995   0.072   1.474   5.170 -1.5070 -1.8753  0.2899
 3453SOL    HW221996   0.137   1.465   5.303 -0.2943  2.7482  1.5617
 3454SOL     OW21997   3.564   1.685  10.721  0.1647 -0.0966 -0.5396
 3454SOL    HW121998   3.517   1.608  10.754 -2.0026  1.4890  0.0447
 3454SOL    HW221999   3.532   1.750  10.783 -0.8098  0.9604 -2.1518
 3455SOL     OW22000   4.728   4.073   3.441 -0.0859 -0.0281 -0.0855
 3455SOL    HW122001   0.019   4.082   3.532 -0.2324 -1.8106  0.1405
 3455SOL    HW222002   4.654   4.133   3.441  0.1338  0.2413 -1.5039
 3456SOL     OW22003   4.020   0.815  13.802 -0.1004 -0.3347  0.1022
 3456SOL    HW122004   3.953   0.810  13.870 -0.3687  2.7548  0.0365
 3456SOL    HW222005   3.984   0.780  13.721 -0.0307  2.3913 -1.1092
 3457SOL     OW22006   0.416   1.957   1.672  0.5338 -0.0254  0.5268
 3457SOL    HW122007   0.432   1.986   1.761 -0.0541  1.3847  0.1716
 3457SOL    HW222008   0.478   2.011   1.622 -1.4343  1.5628 -0.2174
 3458SOL     OW22009   3.416   2.160   1.963 -0.0544 -0.5809  0.2497
 3458SOL    HW122010   3.490   2.219   1.976 -0.0395 -0.2043 -1.5318
 3458SOL    HW222011   3.389   2.163   1.872  2.1768  0.5343 -0.3791
 3459SOL     OW22012   1.598   1.840   2.800 -0.0703  0.2692 -0.0715
 3459SOL    HW122013   1.671   1.779   2.796  0.6877  1.1426  0.4180
 3459SOL    HW222014   1.616   1.895   2.724  0.2492  2.0272  1.2673
 3460SOL     OW22015   2.722   0.369  12.375 -0.2193  0.9364 -0.5159
 3460SOL    HW122016   2.816   0.382  12.386 -0.1283  0.3832 -0.6371
 3460SOL    HW222017   2.715   0.387  12.281 -0.8192  0.8199 -0.4931
 3461SOL     OW22018   0.422   0.356   2.157 -0.1678  0.1436  0.7175
 3461SOL    HW122019   0.434   0.309   2.074  0.6483 -0.2342  1.0450
 3461SOL    HW222020   0.451   0.443   2.131  0.3343 -1.0021 -2.5369
 3462SOL     OW22021   0.758   3.146   1.603  0.1160 -0.1026 -0.3930
 3462SOL    HW122022   0.683   3.194   1.568  2.5546  1.4809 -3.4279
 3462SOL    HW222023   0.767   3.181   1.692 -1.4220  0.8398 -0.6164
 3463SOL     OW22024   1.281   2.682   1.918  0.0661  0.2858  0.0616
 3463SOL    HW122025   1.259   2.721   1.834 -1.4095  1.2573  0.8915
 3463SOL    HW222026   1.347   2.746   1.941  0.1792 -0.7544  2.6540
 3464SOL     OW22027   1.286   1.162   4.107  0.3974  0.1366 -0.1249
 3464SOL    HW122028   1.285   1.223   4.181 -0.1430  0.4196 -0.3654
 3464SOL    HW222029   1.374   1.174   4.071  0.7736 -1.2690  0.3413
 3465SOL     OW22030   0.488   2.163   5.908 -0.0739 -0.1460 -0.0784
 3465SOL    HW122031   0.545   2.086   5.908  0.1469  0.0140 -0.3811
 3465SOL    HW222032   0.539   2.214   5.845  0.0323  0.7099  0.6909
 3466SOL     OW22033   2.719   4.278   5.536  0.4222 -0.0705 -0.2179
 3466SOL    HW122034   2.760   4.222   5.469 -0.7134  1.1620 -1.9545
 3466SOL    HW222035   2.637   4.311   5.499  0.5850 -0.8809 -1.3221
 3467SOL     OW22036   3.856   3.711   6.886  0.6157  0.2634 -0.5653
 3467SOL    HW122037   3.908   3.791   6.892  2.9619 -1.3984  1.1937
 3467SOL    HW222038   3.796   3.734   6.815 -2.1946  0.2427  1.7839
 3468SOL     OW22039   4.266   0.947   9.118  0.2144  0.3494 -0.5283
 3468SOL    HW122040   4.252   0.877   9.054  0.4121  0.4071 -0.6338
 3468SOL    HW222041   4.187   0.927   9.169  0.7930  2.3792  1.1707
 3469SOL     OW22042   1.568   4.404   3.108 -0.1105 -0.1662 -0.3259
 3469SOL    HW122043   1.606   4.469   3.048  0.2370  1.4143  1.6136
 3469SOL    HW222044   1.475   4.422   3.094  0.2978  3.6220  1.8411
 3470SOL     OW22045   0.895   2.919   3.309  0.4401 -0.2839 -0.4436
 3470SOL    HW122046   0.937   2.837   3.337 -0.5472 -0.7111 -0.2055
 3470SOL    HW222047   0.816   2.917   3.364 -0.2457  1.0713 -1.3624
 3471SOL     OW22048   4.651   0.224   6.812  0.8247 -0.0246 -0.6051
 3471SOL    HW122049   4.655   0.195   6.721 -1.4362  1.4225 -1.1641
 3471SOL    HW222050   4.583   0.290   6.805  0.7621 -0.0933 -0.6504
 3472SOL     OW22051   0.530   3.167   3.288  0.6953  0.0308  0.7043
 3472SOL    HW122052   0.512   3.209   3.204  0.1288  0.0640  0.8431
 3472SOL    HW222053   0.525   3.243   3.346 -0.7722  0.5947 -0.1563
 3473SOL     OW22054   0.699   4.111   1.645 -0.5271  0.0613 -0.2603
 3473SOL    HW122055   0.724   4.166   1.571 -0.4879 -0.7491 -0.8448
 3473SOL    HW222056   0.689   4.183   1.708 -0.7753 -1.0783  1.0226
 3474SOL     OW22057   3.727   0.587   3.814  0.9164  0.2487 -0.0317
 3474SOL    HW122058   3.773   0.652   3.867 -0.8682 -0.7727  2.7356
 3474SOL    HW222059   3.661   0.645   3.776 -1.1244 -0.0106  3.1623
 3475SOL     OW22060   2.941   3.420  15.378  0.1381 -0.2132  0.6416
 3475SOL    HW122061   2.962   3.329  15.357  0.2888 -0.4271  1.7302
 3475SOL    HW222062   2.926   3.421  15.473 -0.2444  0.6425  0.5717
 3476SOL     OW22063   2.934   1.549   9.726  0.5206 -0.3775 -0.4705
 3476SOL    HW122064   2.935   1.593   9.641 -2.7059  0.2758 -0.1573
 3476SOL    HW222065   2.957   1.613   9.794 -0.8887 -0.3673 -0.0082
 3477SOL     OW22066   1.556   3.241   9.411  0.5699  0.3455 -0.5166
 3477SOL    HW122067   1.593   3.155   9.429 -1.9239 -0.4503  0.8386
 3477SOL    HW222068   1.503   3.244   9.491  0.5781 -1.7537 -0.4506
 3478SOL     OW22069   2.136   2.560   3.179  0.2143 -0.0772 -0.4202
 3478SOL    HW122070   2.089   2.636   3.144  1.3961  1.1395  0.6829
 3478SOL    HW222071   2.076   2.495   3.142 -0.3978  0.6149 -0.6407
 3479SOL     OW22072   1.441   3.486   4.934  0.0482  0.4639  0.3838
 3479SOL    HW122073   1.378   3.505   4.864 -1.5075  1.7008  2.1406
 3479SOL    HW222074   1.377   3.446   4.993 -0.1563  0.7935  0.3878
 3480SOL     OW22075   3.718   2.606   8.270  0.1448  0.4415  0.0152
 3480SOL    HW122076   3.791   2.637   8.216 -2.6981  4.0003 -1.7544
 3480SOL    HW222077   3.767   2.575   8.347 -2.1185  1.1638  1.7559
 3481SOL     OW22078   4.315   0.169  12.842 -0.0980  0.3652 -0.1804
 3481SOL    HW122079   4.260   0.161  12.764 -1.8262 -1.2169  1.2174
 3481SOL    HW222080   4.315   0.074  12.853 -0.6322  0.5687  1.4750
 3482SOL     OW22081   2.765   4.443   4.129 -0.1197  0.1156 -0.2089
 3482SOL    HW122082   2.685   4.394   4.108 -0.1715  0.5184 -0.9307
 3482SOL    HW222083   2.833   4.377   4.116 -2.1318 -1.6758 -1.6455
 3483SOL     OW22084   0.523   1.639   5.258 -0.2653 -0.1980 -0.6739
 3483SOL    HW122085   0.482   1.562   5.219 -1.8344  0.0243  0.5551
 3483SOL    HW222086   0.608   1.632   5.215 -0.5785  0.0292 -1.3288
 3484SOL     OW22087   0.185   3.913   8.692 -0.1428  0.0322  0.0216
 3484SOL    HW122088   0.145   3.999   8.676 -1.4607 -0.2583  1.7316
 3484SOL    HW222089   0.204   3.883   8.604 -0.9568 -1.6285  0.4116
 3485SOL     OW22090   0.140   4.516   0.469  0.4024 -0.4955 -0.1248
 3485SOL    HW122091   0.143   4.609   0.494 -0.1211 -0.1532 -1.3272
 3485SOL    HW222092   0.092   4.481   0.543 -0.0528  0.2483 -0.0620
 3486SOL     OW22093   1.589   2.913   6.321 -0.6709 -0.2423  0.1515
 3486SOL    HW122094   1.550   2.959   6.395  2.4468 -0.1329  1.7441
 3486SOL    HW222095   1.574   2.962   6.240  1.2007 -0.0419 -0.0667
 3487SOL     OW22096   3.586   1.347  14.499 -0.1066 -0.1337  0.4213
 3487SOL    HW122097   3.636   1.372  14.421 -0.3993 -0.0863  0.2488
 3487SOL    HW222098   3.621   1.407  14.565 -1.4141  1.6224 -0.4902
 3488SOL     OW22099   4.115   0.362  17.555 -0.4746 -0.4546  0.4207
 3488SOL    HW122100   4.186   0.336  17.496 -1.3187  1.6709 -1.5266
 3488SOL    HW222101   4.048   0.400  17.499  0.3059 -0.7335 -0.6890
 3489SOL     OW22102   0.962   2.177   5.183 -0.7334 -0.3474  0.3867
 3489SOL    HW122103   0.956   2.272   5.171 -0.2466 -0.5815 -1.6611
 3489SOL    HW222104   0.958   2.166   5.279 -0.4617 -1.3862  0.2792
 3490SOL     OW22105   3.993   4.043   3.379 -0.0136  0.1957 -0.0458
 3490SOL    HW122106   4.060   4.003   3.324 -0.0773  0.3930 -0.2685
 3490SOL    HW222107   3.964   4.104   3.312 -0.4381 -0.5444 -0.5291
 3491SOL     OW22108   1.792   4.164   5.973 -0.3682  0.1492  0.3137
 3491SOL    HW122109   1.779   4.177   5.879 -0.5918 -1.7587  0.0772
 3491SOL    HW222110   1.807   4.069   5.980 -0.5069  0.1297  0.3530
 3492SOL     OW22111   4.511   4.268   2.310 -0.2666 -0.0535 -0.2502
 3492SOL    HW122112   4.467   4.194   2.352 -0.3084 -0.0267 -0.2471
 3492SOL    HW222113   4.446   4.300   2.249  0.5464  0.7357 -0.6912
 3493SOL     OW22114   3.599   1.458   8.840 -0.1580  0.4973 -0.2538
 3493SOL    HW122115   3.603   1.436   8.933 -4.2380 -1.0618 -0.4089
 3493SOL    HW222116   3.580   1.552   8.843 -0.0287  0.5120  0.1493
 3494SOL     OW22117   3.736   0.480  10.320 -0.3498  0.4566 -0.1915
 3494SOL    HW122118   3.736   0.390  10.353  1.2504  0.9408  1.0963
 3494SOL    HW222119   3.827   0.485  10.292 -0.9204 -0.2210 -2.2093
 3495SOL     OW22120   0.628   3.763   6.087  0.8129 -0.4041 -0.3751
 3495SOL    HW122121   0.677   3.823   6.142 -1.3513  1.5269 -0.5411
 3495SOL    HW222122   0.559   3.753   6.153  0.6527 -1.4637 -0.6986
 3496SOL     OW22123   4.176   2.582   5.369 -0.4378 -0.2681  0.4599
 3496SOL    HW122124   4.192   2.492   5.396 -0.2713 -0.3678  0.0392
 3496SOL    HW222125   4.227   2.622   5.439  1.9405 -0.9143 -0.8911
 3497SOL     OW22126   2.823   0.139   4.284  0.1173 -0.2023  0.4400
 3497SOL    HW122127   2.811   0.203   4.214 -2.0200 -1.9451 -0.7743
 3497SOL    HW222128   2.749   0.165   4.339 -0.2345  3.5319 -1.8105
 3498SOL     OW22129   3.474   3.617   9.243  0.0876 -0.2331 -0.1709
 3498SOL    HW122130   3.414   3.612   9.317  2.4519 -1.9367  1.6185
 3498SOL    HW222131   3.539   3.549   9.257  0.7206  0.1734 -1.0804
 3499SOL     OW22132   2.847   0.994  14.400 -0.1012 -0.1858 -0.0089
 3499SOL    HW122133   2.875   0.903  14.392 -1.5813 -0.4942 -1.7259
 3499SOL    HW222134   2.933   1.035  14.389 -0.3749  0.5656  0.6959
 3500SOL     OW22135   4.348   3.810   1.198  0.2166  0.5119  0.3909
 3500SOL    HW122136   4.429   3.861   1.187  0.0097  0.6076 -0.7192
 3500SOL    HW222137   4.337   3.837   1.289 -1.8312 -1.4605  0.7068
 3501SOL     OW22138   1.132   2.109   3.782 -0.0882 -0.0532 -0.0577
 3501SOL    HW122139   1.169   2.128   3.868 -0.0889  0.8418 -0.2620
 3501SOL    HW222140   1.076   2.035   3.807 -1.0108  0.5960 -0.1863
 3502SOL     OW22141   2.989   3.058   8.614  0.8486  0.4500 -0.4533
 3502SOL    HW122142   2.971   3.010   8.695 -3.3935  0.2176 -1.5312
 3502SOL    HW222143   2.955   3.002   8.545  1.7123  0.7207 -1.0911
 3503SOL     OW22144   3.745   4.408   3.211 -0.1627 -0.6868  0.0195
 3503SOL    HW122145   3.773   4.487   3.165  1.0255 -0.3559  1.3494
 3503SOL    HW222146   3.654   4.434   3.229 -0.0424 -0.1504 -0.1447
 3504SOL     OW22147   1.840   3.221   8.117 -0.3852 -0.2064 -0.4819
 3504SOL    HW122148   1.876   3.297   8.161 -1.1657  0.0852 -0.3535
 3504SOL    HW222149   1.923   3.175   8.101  0.4279  1.5407 -1.3703
 3505SOL     OW22150   3.886   3.732   7.874  0.1628  0.1022 -0.0964
 3505SOL    HW122151   3.959   3.759   7.930 -0.0567 -2.2470  1.3286
 3505SOL    HW222152   3.855   3.806   7.822  0.7977 -1.6240 -2.9348
 3506SOL     OW22153   1.685   2.716  16.975  0.6182  0.4306  0.1037
 3506SOL    HW122154   1.710   2.741  16.886  4.7727  4.0083  2.2708
 3506SOL    HW222155   1.638   2.797  16.996  0.4388  0.8957 -2.0535
 3507SOL     OW22156   0.255   1.376   6.870  0.2923 -0.2593  0.1831
 3507SOL    HW122157   0.253   1.285   6.900  1.5567 -0.6350 -0.8713
 3507SOL    HW222158   0.269   1.368   6.775  2.4772  0.1453  0.4807
 3508SOL     OW22159   0.827   0.516   2.991  0.1195  0.1355 -0.5235
 3508SOL    HW122160   0.860   0.426   2.996 -0.3972 -0.0948 -1.0973
 3508SOL    HW222161   0.911   0.559   2.972  0.8335 -0.9034  0.3249
 3509SOL     OW22162   3.924   0.920   2.103 -0.1080  0.6217 -0.3041
 3509SOL    HW122163   3.955   1.010   2.113  1.2614  0.1666 -0.4489
 3509SOL    HW222164   3.943   0.907   2.010  2.2733 -0.2355  0.2998
 3510SOL     OW22165   2.573   3.453  16.293  0.0003 -0.0588  0.3918
 3510SOL    HW122166   2.612   3.384  16.240  2.3379  0.2686  1.7224
 3510SOL    HW222167   2.641   3.464  16.359 -0.1937 -0.8998  0.7239
 3511SOL     OW22168   2.923   4.239   2.585 -0.0713 -0.9489  0.3345
 3511SOL    HW122169   2.880   4.323   2.566  0.7866 -0.7777 -0.8445
 3511SOL    HW222170   2.987   4.258   2.654 -0.3160 -0.9553  0.5654
 3512SOL     OW22171   1.930   0.021   6.893  0.2758 -0.1238 -0.8360
 3512SOL    HW122172   1.860   4.722   6.948 -0.7354  0.8774 -1.4838
 3512SOL    HW222173   2.006   0.018   6.951 -0.1068  1.8721 -0.2501
 3513SOL     OW22174   4.714   1.092   9.239  0.0469 -0.7049 -0.1703
 3513SOL    HW122175   0.065   1.053   9.247  0.2681 -0.1115  0.2998
 3513SOL    HW222176   4.720   1.154   9.312 -1.5855 -0.1583 -0.4944
 3514SOL     OW22177   0.533   2.758   5.838  0.3157  0.1896  0.3468
 3514SOL    HW122178   0.510   2.846   5.811  0.3675  0.4787  1.2314
 3514SOL    HW222179   0.443   2.727   5.837 -0.1546  1.6270 -0.4645
 3515SOL     OW22180   0.543   3.210   4.781 -0.0666 -0.0120 -0.4596
 3515SOL    HW122181   0.484   3.273   4.823 -0.5809  2.0035 -4.2681
 3515SOL    HW222182   0.521   3.207   4.688 -1.5218  0.1490 -0.1179
 3516SOL     OW22183   2.052   2.764   9.207  0.4826  0.1164 -0.2741
 3516SOL    HW122184   2.048   2.687   9.151 -2.0425  0.4066 -0.5008
 3516SOL    HW222185   1.957   2.779   9.215  0.3713  0.5290 -2.3882
 3517SOL     OW22186   4.561   2.612   7.771  0.4414 -0.3332 -0.7007
 3517SOL    HW122187   4.601   2.534   7.808  2.0459  0.6640 -0.3434
 3517SOL    HW222188   4.470   2.589   7.788 -0.3007  2.2109 -1.2050
 3518SOL     OW22189   0.647   0.734   7.162 -0.3244 -0.7930 -0.0249
 3518SOL    HW122190   0.571   0.762   7.213  1.3080  2.0696  0.8142
 3518SOL    HW222191   0.710   0.747   7.232 -0.2731 -1.3406  0.0326
 3519SOL     OW22192   0.552   2.211   2.766  0.2112 -0.3612  0.5804
 3519SOL    HW122193   0.459   2.191   2.774  0.3198 -1.9977 -2.0436
 3519SOL    HW222194   0.571   2.152   2.693  0.8903  1.4649 -0.7339
 3520SOL     OW22195   2.502   1.479   9.353  0.1752  0.2574  0.2692
 3520SOL    HW122196   2.578   1.511   9.401  0.6128  1.9673 -1.5540
 3520SOL    HW222197   2.554   1.414   9.304 -0.6325  1.1183 -1.7465
 3521SOL     OW22198   4.222   0.566   9.250 -0.8145 -0.3722  0.0797
 3521SOL    HW122199   4.257   0.581   9.338  1.6787  0.4561 -1.0785
 3521SOL    HW222200   4.141   0.525   9.281 -0.4330 -1.5466 -0.5057
 3522SOL     OW22201   3.186   3.607   0.346  0.1858 -0.1690  0.0042
 3522SOL    HW122202   3.167   3.567   0.261  0.0112 -1.1146  0.4894
 3522SOL    HW222203   3.204   3.530   0.399  3.1335  0.5829  0.0660
 3523SOL     OW22204   2.977   1.590  16.076 -0.3569  0.0760 -0.1547
 3523SOL    HW122205   2.901   1.534  16.061 -0.2715 -0.1954  0.4328
 3523SOL    HW222206   2.989   1.577  16.170  0.4889 -1.3421 -0.4556
 3524SOL     OW22207   1.688   2.724   6.510 -0.5702  0.9560  0.3176
 3524SOL    HW122208   1.635   2.774   6.448  0.2054  1.2749 -0.0840
 3524SOL    HW222209   1.657   2.756   6.595 -1.7025  1.5734 -0.3249
 3525SOL     OW22210   4.210   2.926   6.029 -0.4318 -0.1599 -0.1081
 3525SOL    HW122211   4.297   2.885   6.027 -0.8727 -1.0991 -0.1385
 3525SOL    HW222212   4.208   2.943   6.123  0.0587 -0.0244 -0.1223
 3526SOL     OW22213   0.250   0.422  14.045 -0.1462 -0.1178 -0.4216
 3526SOL    HW122214   0.254   0.374  13.962  0.4866  0.7235 -0.8762
 3526SOL    HW222215   0.189   0.493  14.028 -1.4239 -0.6501  1.8697
 3527SOL     OW22216   0.553   3.853  10.849  0.4009  0.0972  0.1058
 3527SOL    HW122217   0.546   3.764  10.813  2.4023  0.6541 -1.6434
 3527SOL    HW222218   0.634   3.849  10.899 -1.1525 -1.6107  2.5551
 3528SOL     OW22219   1.293   2.737   4.212 -0.1121  0.6953 -0.8902
 3528SOL    HW122220   1.266   2.807   4.153 -2.5274  1.0193  0.6198
 3528SOL    HW222221   1.292   2.784   4.295 -1.9251 -1.9603  0.5757
 3529SOL     OW22222   3.763   2.995   4.318  0.3009 -0.3917  0.2080
 3529SOL    HW122223   3.791   2.965   4.231  2.2171  0.2499  0.5970
 3529SOL    HW222224   3.825   2.953   4.377  1.4334 -1.0740 -1.4464
 3530SOL     OW22225   2.013   0.748   2.834 -0.6460  0.0974 -0.5453
 3530SOL    HW122226   2.050   0.731   2.921  0.8197  2.0921 -0.7714
 3530SOL    HW222227   1.985   0.662   2.805 -1.6584 -0.0469  0.8740
 3531SOL     OW22228   3.452   4.624   7.709  0.0033 -0.0739  0.0814
 3531SOL    HW122229   3.543   4.646   7.731  0.8876 -2.0972 -1.5345
 3531SOL    HW222230   3.437   4.649   7.618  0.8486 -2.2519 -0.6657
 3532SOL     OW22231   0.474   1.704   3.895 -0.0983  0.0461  0.1405
 3532SOL    HW122232   0.452   1.690   3.803  1.9306 -0.0657 -0.3205
 3532SOL    HW222233   0.486   1.617   3.933 -1.5337  0.0480  0.6244
 3533SOL     OW22234   3.056   3.016   7.579  0.3848  0.1182  0.4885
 3533SOL    HW122235   2.996   3.090   7.572 -1.3378 -1.2721  0.6282
 3533SOL    HW222236   3.115   3.027   7.505  0.1673 -0.9441  0.1651
 3534SOL     OW22237   1.562   3.575   3.351 -0.4299  0.2552 -0.0237
 3534SOL    HW122238   1.582   3.633   3.425 -0.6557 -1.5867  1.4788
 3534SOL    HW222239   1.647   3.575   3.307  0.6262 -0.3461  1.9913
 3535SOL     OW22240   0.587   4.521   6.936  0.1032  0.0057  0.1603
 3535SOL    HW122241   0.577   4.426   6.928 -0.9012  0.1958 -0.8020
 3535SOL    HW222242   0.552   4.546   6.850 -0.7410 -0.8975  0.2423
 3536SOL     OW22243   0.175   2.459   9.632 -0.2791  0.2989 -0.1108
 3536SOL    HW122244   0.180   2.391   9.699  1.3294 -0.4658 -0.9758
 3536SOL    HW222245   0.229   2.424   9.561  2.4932  0.6447  1.8153
 3537SOL     OW22246   0.052   4.286   5.484  0.3907  0.6145  0.5982
 3537SOL    HW122247   0.121   4.344   5.453  0.3614  1.2077  1.6858
 3537SOL    HW222248   0.055   4.326   5.570  1.9881  1.9087 -0.0532
 3538SOL     OW22249   0.799   1.702   8.649  0.4604  0.0751  0.4235
 3538SOL    HW122250   0.772   1.622   8.694 -2.4254  2.5777  3.2002
 3538SOL    HW222251   0.807   1.754   8.729  0.6795 -0.1076  0.5216
 3539SOL     OW22252   3.408   1.501   7.938 -0.3887  0.4991 -0.4860
 3539SOL    HW122253   3.366   1.524   7.855  1.8232  1.1192 -1.4287
 3539SOL    HW222254   3.394   1.587   7.979  0.5863 -0.0850  1.0900
 3540SOL     OW22255   3.523   3.632   7.352  0.0726 -0.6608 -0.1440
 3540SOL    HW122256   3.581   3.561   7.377  2.8252  1.2074 -1.2336
 3540SOL    HW222257   3.556   3.650   7.264 -2.6942  0.5676 -0.9458
 3541SOL     OW22258   2.419   0.468   6.832  0.3608  0.2549 -0.4180
 3541SOL    HW122259   2.410   0.413   6.910  3.0208 -0.9928 -0.9969
 3541SOL    HW222260   2.328   0.492   6.817 -0.6549 -2.5018  1.2471
 3542SOL     OW22261   4.252   1.408   0.652  0.0070 -0.4230 -0.0945
 3542SOL    HW122262   4.186   1.476   0.670 -0.1184  0.0659 -2.4736
 3542SOL    HW222263   4.201   1.339   0.610  0.0123  0.0728 -0.9249
 3543SOL     OW22264   1.495   3.571   1.895 -0.8581 -0.1617  0.1855
 3543SOL    HW122265   1.526   3.484   1.921  0.0721  0.3035  0.6444
 3543SOL    HW222266   1.434   3.548   1.825 -0.2194 -1.3084  0.0006
 3544SOL     OW22267   2.968   3.716  14.390 -0.4993 -0.2255  0.0516
 3544SOL    HW122268   2.986   3.671  14.307  1.2613  0.1010  0.2445
 3544SOL    HW222269   3.050   3.765  14.397 -0.1919 -0.5860 -0.9662
 3545SOL     OW22270   3.099   1.905   2.849  0.5088  0.3810  0.2172
 3545SOL    HW122271   3.072   1.976   2.907  1.2542  0.9288 -0.1126
 3545SOL    HW222272   3.156   1.860   2.911  0.6881  0.8739  0.4107
 3546SOL     OW22273   3.265   2.439   0.871 -0.2686 -0.1503  0.3186
 3546SOL    HW122274   3.181   2.463   0.910 -0.5552  1.1376 -1.1088
 3546SOL    HW222275   3.330   2.461   0.938  0.8296 -1.2485 -0.3739
 3547SOL     OW22276   3.441   1.768   3.647 -0.1217 -0.5521  0.2432
 3547SOL    HW122277   3.479   1.682   3.665  0.9513 -0.2302 -0.5280
 3547SOL    HW222278   3.516   1.827   3.647 -0.4468 -0.1461  1.0152
 3548SOL     OW22279   4.217   3.318   0.327 -0.1997 -0.1716 -0.0163
 3548SOL    HW122280   4.189   3.350   0.413 -0.4373  2.3866 -1.0507
 3548SOL    HW222281   4.241   3.227   0.343  0.8729  0.2295  0.7394
 3549SOL     OW22282   2.574   0.803  13.882 -0.0004  0.4451  0.0913
 3549SOL    HW122283   2.539   0.869  13.822  1.0750  2.7106  1.9774
 3549SOL    HW222284   2.490   0.764  13.906 -0.5243  1.0196 -0.7869
 3550SOL     OW22285   0.237   3.259   1.924 -0.1673 -0.4623 -0.4845
 3550SOL    HW122286   0.309   3.322   1.925 -0.9266  0.4304 -1.9083
 3550SOL    HW222287   0.167   3.322   1.935  1.1373  1.0393 -0.8174
 3551SOL     OW22288   1.042   1.711  12.820 -0.6348 -0.8308 -0.4149
 3551SOL    HW122289   0.963   1.717  12.874 -0.3303 -1.0007  0.0532
 3551SOL    HW222290   1.005   1.754  12.743 -0.8211 -1.7675 -0.8492
 3552SOL     OW22291   3.195   1.077  15.855 -0.0991 -0.1950  0.8986
 3552SOL    HW122292   3.116   1.114  15.816  0.6356  0.4501  0.0336
 3552SOL    HW222293   3.152   0.997  15.887  1.7677 -1.6146 -0.1009
 3553SOL     OW22294   3.718   3.457   7.420  0.3933  0.2185 -0.4059
 3553SOL    HW122295   3.730   3.391   7.352 -0.9885  1.6723 -2.0417
 3553SOL    HW222296   3.659   3.408   7.478  1.4862 -0.7100 -0.0724
 3554SOL     OW22297   1.906   1.628   3.720  0.1516  0.6080 -0.0609
 3554SOL    HW122298   1.923   1.711   3.765 -0.4516  0.1064  1.1114
 3554SOL    HW222299   1.951   1.577   3.787 -0.9718 -1.6734 -1.0197
 3555SOL     OW22300   0.675   0.105   5.900  0.1253  0.3760 -0.1005
 3555SOL    HW122301   0.742   0.081   5.963 -1.0674 -1.0809  0.6008
 3555SOL    HW222302   0.605   0.082   5.961  0.7594 -4.9102 -1.4037
 3556SOL     OW22303   0.319   4.543  15.487  0.1024 -0.6035  0.2912
 3556SOL    HW122304   0.402   4.498  15.470  1.4495  1.5239  1.1974
 3556SOL    HW222305   0.255   4.472  15.487 -0.0212 -0.4811 -1.6062
 3557SOL     OW22306   3.229   1.208   9.475 -0.1875  0.1124  0.1228
 3557SOL    HW122307   3.213   1.296   9.510 -0.0797  0.5734 -0.9940
 3557SOL    HW222308   3.194   1.150   9.543 -1.1110 -0.6985 -1.0468
 3558SOL     OW22309   0.046   1.297   8.700  0.0499  0.6302 -0.3910
 3558SOL    HW122310   0.085   1.209   8.706  1.7731  1.3015 -1.8694
 3558SOL    HW222311   4.731   1.298   8.780  1.8576 -1.0073  0.8158
 3559SOL     OW22312   1.317   2.449   6.952  0.4257  0.2579  0.9446
 3559SOL    HW122313   1.382   2.383   6.928 -0.2059  0.1345 -0.4490
 3559SOL    HW222314   1.326   2.520   6.889  1.0535  1.4825  2.4143
 3560SOL     OW22315   4.563   3.512  16.322  0.5137 -0.0713  0.8577
 3560SOL    HW122316   4.643   3.487  16.275 -0.7243  0.9976 -1.8659
 3560SOL    HW222317   4.587   3.497  16.413  2.5483  0.5595  0.4447
 3561SOL     OW22318   1.442   2.460   7.475  0.2597  0.0549 -0.0667
 3561SOL    HW122319   1.515   2.513   7.508 -0.6784  0.7101  0.9759
 3561SOL    HW222320   1.378   2.530   7.490  0.8922  0.1380  2.2149
 3562SOL     OW22321   0.251   2.004  15.020 -0.0170 -0.1450 -0.0493
 3562SOL    HW122322   0.207   1.970  14.943  2.3163  0.9152 -1.8652
 3562SOL    HW222323   0.325   2.048  14.977 -1.4504  1.5339 -0.7789
 3563SOL     OW22324   1.158   4.472   8.028 -0.0246  0.2021 -0.0480
 3563SOL    HW122325   1.111   4.532   8.085  0.2628  0.6303 -0.2587
 3563SOL    HW222326   1.241   4.520   8.032 -1.3921  2.7270 -2.8234
 3564SOL     OW22327   4.561   4.222   6.752 -0.0588 -0.1627  0.0061
 3564SOL    HW122328   4.470   4.250   6.758  0.0712  0.0566  0.9691
 3564SOL    HW222329   4.580   4.220   6.846 -1.4432  0.8820  0.3042
 3565SOL     OW22330   4.575   2.108  15.689  0.2274  0.3446  0.4369
 3565SOL    HW122331   4.570   2.063  15.605  0.7277  0.5343  0.3052
 3565SOL    HW222332   4.481   2.105  15.707 -0.1536  0.3543 -1.5485
 3566SOL     OW22333   1.197   2.373  11.606  0.3807 -0.3259 -0.0210
 3566SOL    HW122334   1.251   2.332  11.674 -3.0551 -2.0314  1.6507
 3566SOL    HW222335   1.235   2.347  11.522 -0.0519  3.1944 -1.3007
 3567SOL     OW22336   3.443   4.301   4.072  0.5973  0.3420  0.3722
 3567SOL    HW122337   3.426   4.213   4.106  1.7237 -0.2792 -0.7107
 3567SOL    HW222338   3.358   4.344   4.082 -0.6646 -2.5039  2.1081
 3568SOL     OW22339   1.748   1.576  15.849  0.2899  0.3165  0.1385
 3568SOL    HW122340   1.774   1.599  15.760  2.7079 -2.8400  0.0121
 3568SOL    HW222341   1.694   1.498  15.836 -2.6009  2.1579  1.1650
 3569SOL     OW22342   0.124   0.684   4.881  0.2280  0.2391 -0.0307
 3569SOL    HW122343   0.057   0.670   4.948 -0.0287 -1.0677 -0.5465
 3569SOL    HW222344   0.204   0.659   4.927 -1.2129 -0.5329  2.0709
 3570SOL     OW22345   1.693   4.628   5.420  0.4520  0.1866  0.3347
 3570SOL    HW122346   1.649   4.713   5.429  0.8993  0.6505 -1.7623
 3570SOL    HW222347   1.738   4.630   5.505  0.1665 -0.7660  0.5014
 3571SOL     OW22348   2.371   0.196  10.610 -0.1125 -0.1538  0.4868
 3571SOL    HW122349   2.279   0.186  10.588  0.2990 -0.0115 -1.3043
 3571SOL    HW222350   2.368   0.172  10.703 -0.3750  1.3641  0.8620
 3572SOL     OW22351   0.732   0.845   1.732 -0.0755 -0.1684 -0.5112
 3572SOL    HW122352   0.641   0.850   1.761  0.0390  0.4015 -0.2562
 3572SOL    HW222353   0.772   0.813   1.813  1.3555 -0.6752 -1.4314
 3573SOL     OW22354   0.894   1.056   8.751  0.0718  0.0775  0.1703
 3573SOL    HW122355   0.961   0.997   8.788 -0.6190 -0.5329  0.4571
 3573SOL    HW222356   0.956   1.122   8.720 -0.8102  0.0125 -1.7015
 3574SOL     OW22357   4.435   2.037  17.520 -0.1611  0.0240 -0.0348
 3574SOL    HW122358   4.453   2.068  17.431  0.9789  1.4223  0.6895
 3574SOL    HW222359   4.402   1.947  17.506  0.4774  0.2719 -3.1600
 3575SOL     OW22360   0.619   0.148   0.084  0.3651  0.2950  0.0126
 3575SOL    HW122361   0.589   0.159  17.738  1.0809  2.1392  0.0024
 3575SOL    HW222362   0.614   0.231   0.131 -0.2176  0.5360 -0.4755
 3576SOL     OW22363   3.473   1.006  15.792 -0.4161  0.0979  0.0765
 3576SOL    HW122364   3.380   1.027  15.790 -0.4470 -0.0821 -0.3280
 3576SOL    HW222365   3.471   0.956  15.874 -0.4152 -2.2630 -1.3637
 3577SOL     OW22366   2.210   0.157   8.271 -0.2913 -0.1698 -0.6133
 3577SOL    HW122367   2.258   0.096   8.216 -0.0172 -0.1954 -0.3448
 3577SOL    HW222368   2.274   0.176   8.340  2.1882 -0.2472 -2.9295
 3578SOL     OW22369   4.465   3.849   3.776 -0.1155  0.6361 -0.0410
 3578SOL    HW122370   4.379   3.859   3.735 -0.2307 -0.9559 -0.1596
 3578SOL    HW222371   4.455   3.762   3.815  1.3468 -1.1380 -3.6304
 3579SOL     OW22372   0.225   1.443  10.415  0.1358 -0.1049 -0.2666
 3579SOL    HW122373   0.214   1.490  10.333 -3.0662  0.1480  0.2852
 3579SOL    HW222374   0.264   1.507  10.474 -1.5483  0.2576  0.4612
 3580SOL     OW22375   3.003   0.349   6.712 -0.6768  0.3163 -0.0412
 3580SOL    HW122376   3.094   0.322   6.718 -0.3641  1.0735 -1.4881
 3580SOL    HW222377   2.971   0.276   6.765  1.2931 -1.7481 -1.7247
 3581SOL     OW22378   1.570   0.452   2.180 -1.3112  0.1617 -0.1411
 3581SOL    HW122379   1.507   0.524   2.173 -0.7823  0.6450 -0.0034
 3581SOL    HW222380   1.645   0.512   2.178 -0.7410 -0.4812  2.3809
 3582SOL     OW22381   2.239   2.533  12.599 -0.0984 -0.4045 -0.4334
 3582SOL    HW122382   2.310   2.470  12.612 -1.7143 -1.9339  0.9940
 3582SOL    HW222383   2.291   2.613  12.598 -1.1127  0.2705  0.6894
 3583SOL     OW22384   2.052   2.861   4.155 -0.1428 -0.0277  0.2366
 3583SOL    HW122385   2.086   2.944   4.188  0.1344 -0.2972  0.6194
 3583SOL    HW222386   1.983   2.895   4.097 -1.9690 -2.2546  1.0954
 3584SOL     OW22387   3.514   1.581   8.207  0.2523 -0.3200 -0.4115
 3584SOL    HW122388   3.448   1.537   8.260 -0.6349  1.2978 -0.1782
 3584SOL    HW222389   3.470   1.637   8.142 -0.2830 -0.2879 -0.0241
 3585SOL     OW22390   4.639   1.692   7.210 -0.1179 -0.2131 -0.0912
 3585SOL    HW122391   4.615   1.643   7.131  0.8386  1.4931 -1.4296
 3585SOL    HW222392   4.706   1.629   7.237  2.5622  2.2900 -0.9312
 3586SOL     OW22393   3.295   0.234   6.196  0.2168 -0.2084  0.1287
 3586SOL    HW122394   3.342   0.151   6.206 -1.4435 -1.2502 -0.7884
 3586SOL    HW222395   3.329   0.287   6.268  2.1486  0.5740 -1.3521
 3587SOL     OW22396   3.714   4.055   2.290 -0.3833 -0.4714 -0.7980
 3587SOL    HW122397   3.673   4.029   2.372  0.1393  1.7474  0.1624
 3587SOL    HW222398   3.748   4.143   2.306  0.7851 -1.1246  0.2884
 3588SOL     OW22399   0.739   1.668   4.254 -0.3630 -0.0334  0.4930
 3588SOL    HW122400   0.789   1.587   4.245 -0.4561 -0.2649  1.9233
 3588SOL    HW222401   0.802   1.734   4.283  1.1414 -1.3616  0.2226
 3589SOL     OW22402   4.367   4.043  13.095  0.0715  1.0256 -0.0022
 3589SOL    HW122403   4.435   4.027  13.161  1.2981  0.7801 -1.3398
 3589SOL    HW222404   4.340   3.952  13.083  0.0476  1.1579 -0.9106
 3590SOL     OW22405   2.584   1.300   8.644  0.2818  0.3012  0.4280
 3590SOL    HW122406   2.631   1.256   8.715 -0.0580  0.8103  0.9741
 3590SOL    HW222407   2.568   1.226   8.586 -2.9957  0.1357  1.4891
 3591SOL     OW22408   1.157   0.436  11.154 -0.5519  0.6792 -0.1893
 3591SOL    HW122409   1.116   0.509  11.201 -4.1817 -0.5720 -1.4242
 3591SOL    HW222410   1.210   0.478  11.087  0.9856  0.7728  1.0936
 3592SOL     OW22411   4.410   3.823   8.586  0.4854  0.3045  0.1186
 3592SOL    HW122412   4.433   3.730   8.588 -1.8766 -0.2837  0.4338
 3592SOL    HW222413   4.477   3.852   8.647  1.4967  0.6690 -1.1679
 3593SOL     OW22414   4.544   4.524  17.715 -0.0047  0.2668 -0.4557
 3593SOL    HW122415   4.476   4.457  17.720 -1.2516  1.5335 -0.3794
 3593SOL    HW222416   4.541   4.541  17.621  0.5057 -0.9616 -0.6977
 3594SOL     OW22417   1.850   1.928   6.324 -0.3002 -0.2238  0.0061
 3594SOL    HW122418   1.766   1.953   6.285  0.3171  2.2087  0.2455
 3594SOL    HW222419   1.887   2.009   6.358  0.6988 -0.8629  0.4511
 3595SOL     OW22420   3.064   2.343  14.684 -0.8324  0.0407 -0.1056
 3595SOL    HW122421   3.117   2.294  14.621 -0.4356  1.9969 -1.2850
 3595SOL    HW222422   2.981   2.352  14.638  0.2350 -1.7732 -2.3984
 3596SOL     OW22423   1.326   1.996   2.590  0.4795  0.1228  0.3256
 3596SOL    HW122424   1.311   2.042   2.508 -3.9727 -0.5651  0.7590
 3596SOL    HW222425   1.411   1.952   2.581  0.4831  0.2104 -0.0621
 3597SOL     OW22426   1.364   3.560   5.452 -0.2172  0.8826  0.2023
 3597SOL    HW122427   1.287   3.504   5.451 -1.4459  2.5540  0.9874
 3597SOL    HW222428   1.374   3.567   5.547 -2.3051 -0.0454  0.4862
 3598SOL     OW22429   2.703   1.911   8.499  0.2769 -0.1567  0.2323
 3598SOL    HW122430   2.643   1.847   8.461  0.2985 -0.8776  1.4048
 3598SOL    HW222431   2.781   1.870   8.464 -1.6532 -1.0990 -2.9739
 3599SOL     OW22432   0.944   0.499  15.192  0.0016  0.6914  0.2435
 3599SOL    HW122433   0.918   0.409  15.212  0.8643  0.5177  0.5861
 3599SOL    HW222434   0.877   0.553  15.233 -3.0692 -1.3981 -1.9799
 3600SOL     OW22435   2.126   3.726   5.940 -0.4225  0.0464 -0.4492
 3600SOL    HW122436   2.145   3.648   5.992  2.1483  0.4448 -0.7892
 3600SOL    HW222437   2.207   3.775   5.932 -0.9343  1.2660  1.7141
 3601SOL     OW22438   0.762   3.051  12.954 -0.0426 -0.1468 -0.0972
 3601SOL    HW122439   0.738   3.066  13.046  2.0187  1.2845  0.1962
 3601SOL    HW222440   0.721   3.129  12.915  0.0749 -0.6683 -1.2409
 3602SOL     OW22441   2.269   1.267   1.443  0.3649 -0.3168  0.1488
 3602SOL    HW122442   2.292   1.331   1.510  0.0102 -1.0028  0.9255
 3602SOL    HW222443   2.208   1.321   1.392  0.4295  0.0992  0.5104
 3603SOL     OW22444   2.330   2.607   8.358  0.0593  0.0788 -0.6490
 3603SOL    HW122445   2.282   2.690   8.357  0.5515  0.3712 -0.1105
 3603SOL    HW222446   2.412   2.626   8.312  0.5292 -0.1017  0.1060
 3604SOL     OW22447   1.835   3.334   0.868  0.4336 -0.0528 -0.1534
 3604SOL    HW122448   1.897   3.404   0.847 -0.3998  0.1902 -1.7920
 3604SOL    HW222449   1.848   3.334   0.963 -1.7153 -0.3262  0.1409
 3605SOL     OW22450   2.532   2.111   0.006 -0.0752  0.4682 -0.0082
 3605SOL    HW122451   2.517   2.018   0.023 -2.7484  0.8486 -0.3806
 3605SOL    HW222452   2.455   2.148   0.048  0.0286  0.5850  0.0789
 3606SOL     OW22453   1.377   1.414   1.775  0.0359  0.1427 -0.3146
 3606SOL    HW122454   1.406   1.451   1.692 -2.0917 -1.0096 -1.5521
 3606SOL    HW222455   1.404   1.483   1.836  1.7112  1.0354 -2.0664
 3607SOL     OW22456   4.455   0.661   1.747 -0.6420 -0.3146  0.3819
 3607SOL    HW122457   4.524   0.596   1.743 -1.0356 -0.5993 -2.1129
 3607SOL    HW222458   4.486   0.726   1.683 -1.7551  0.0949  0.2490
 3608SOL     OW22459   0.250   1.444   2.770 -0.3924  0.0389 -0.1439
 3608SOL    HW122460   0.249   1.449   2.866  2.4617  0.8264 -0.1643
 3608SOL    HW222461   0.169   1.487   2.745 -0.8246 -1.7691 -1.8520
 3609SOL     OW22462   1.512   0.660  15.627 -0.8198 -0.9668 -0.2223
 3609SOL    HW122463   1.573   0.674  15.700 -0.0753 -3.5249 -0.3390
 3609SOL    HW222464   1.583   0.654  15.563 -0.4842  1.0636 -0.0399
 3610SOL     OW22465   1.300   3.006  17.494  0.5492 -0.3067 -0.4298
 3610SOL    HW122466   1.322   2.931  17.549  1.1147  0.4327  0.3699
 3610SOL    HW222467   1.343   2.988  17.411 -0.6960 -0.0295 -1.1284
 3611SOL     OW22468   3.319   4.396  12.281  0.1050 -1.0137 -0.4467
 3611SOL    HW122469   3.252   4.464  12.293 -0.1686 -1.0066 -2.0164
 3611SOL    HW222470   3.398   4.437  12.317 -2.5775  1.7626  2.4145
 3612SOL     OW22471   1.564   3.717   3.606 -0.7903 -0.0106 -0.1864
 3612SOL    HW122472   1.472   3.742   3.595 -0.0567  2.0018 -1.6979
 3612SOL    HW222473   1.587   3.756   3.690  1.4851 -0.5448 -0.5685
 3613SOL     OW22474   3.728   1.453  16.678 -0.1840 -0.3766 -0.6465
 3613SOL    HW122475   3.671   1.426  16.606 -0.9394  1.6688 -0.8170
 3613SOL    HW222476   3.687   1.415  16.755 -0.6413 -1.6407 -1.5192
 3614SOL     OW22477   0.058   1.194   9.740  0.0043  0.2199  0.2452
 3614SOL    HW122478   4.706   1.167   9.762 -0.3121  1.0812  0.0157
 3614SOL    HW222479   0.089   1.111   9.704 -0.2402 -0.6082  1.9638
 3615SOL     OW22480   3.094   0.019   7.922  0.3761  0.4113 -0.4789
 3615SOL    HW122481   3.042   4.730   7.846 -1.0024  0.6485  0.3950
 3615SOL    HW222482   3.044   0.094   7.952 -0.6026  0.1290 -1.4237
 3616SOL     OW22483   3.397   1.482  10.764 -0.2040 -0.5952  0.0427
 3616SOL    HW122484   3.445   1.434  10.696  1.5598  0.5642  0.4830
 3616SOL    HW222485   3.379   1.423  10.837 -0.7907 -0.6384 -0.1323
 3617SOL     OW22486   0.948   0.557   0.001 -0.1527 -0.3032  0.5188
 3617SOL    HW122487   0.921   0.521   0.085  1.2964  0.7459  1.4428
 3617SOL    HW222488   0.878   0.619  17.722  0.7312  0.0558 -1.1528
 3618SOL     OW22489   0.762   2.085   9.942 -0.0294  0.6454  0.1207
 3618SOL    HW122490   0.710   2.142   9.886 -0.1932 -1.4743 -1.8694
 3618SOL    HW222491   0.732   2.007   9.896 -0.0512  0.5996  0.2137
 3619SOL     OW22492   0.960   3.487   8.021  0.2949 -0.1688  0.1250
 3619SOL    HW122493   1.050   3.463   7.998  0.2009  0.2249 -0.6603
 3619SOL    HW222494   0.970   3.559   8.083  1.3642  0.7140 -1.0583
 3620SOL     OW22495   0.128   3.082   3.398 -0.2797 -0.0737 -0.5252
 3620SOL    HW122496   0.213   3.040   3.388 -0.0836  0.3868 -0.7723
 3620SOL    HW222497   0.136   3.171   3.366 -0.7686 -0.2786 -1.2281
 3621SOL     OW22498   0.835   4.699   1.918  0.1433 -0.1009  0.1940
 3621SOL    HW122499   0.875   0.048   1.927 -2.7736  1.2694  0.2207
 3621SOL    HW222500   0.751   4.708   1.963  0.5174 -1.2605  1.1086
 3622SOL     OW22501   2.914   1.079   8.707 -0.0185  0.1741 -0.3509
 3622SOL    HW122502   2.958   1.150   8.661 -2.4652  1.8662 -0.0546
 3622SOL    HW222503   2.834   1.128   8.726 -0.1562  0.9434 -2.9625
 3623SOL     OW22504   2.267   1.239  11.896 -0.0406  0.3866  0.2661
 3623SOL    HW122505   2.271   1.151  11.934  1.2195  0.0105 -0.7246
 3623SOL    HW222506   2.201   1.223  11.828 -0.7437  2.0044  0.5739
 3624SOL     OW22507   4.288   4.391   0.057  0.3971 -0.1902 -0.2263
 3624SOL    HW122508   4.205   4.350   0.083  0.3259 -0.0513 -0.2351
 3624SOL    HW222509   4.262   4.429  17.719  0.9091 -2.4574 -1.4311
 3625SOL     OW22510   0.035   2.048  15.852 -0.2346  0.4706 -0.7543
 3625SOL    HW122511   4.694   2.048  15.796  0.3303 -0.1826 -1.5461
 3625SOL    HW222512   0.076   2.134  15.845 -0.4059  0.5851 -0.3407
 3626SOL     OW22513   2.365   1.068   6.727 -0.0106 -0.2774 -0.3478
 3626SOL    HW122514   2.438   1.110   6.681 -1.2718  1.6370 -0.6525
 3626SOL    HW222515   2.337   1.144   6.779  0.3642  0.2921 -0.9787
 3627SOL     OW22516   0.311   3.317  14.220  0.7459 -0.2562 -0.0612
 3627SOL    HW122517   0.333   3.309  14.127 -0.7897  0.8851 -0.5380
 3627SOL    HW222518   0.264   3.234  14.227  0.7597 -0.1985  0.6630
 3628SOL     OW22519   4.217   4.274  13.077 -0.0234  0.0981 -0.1485
 3628SOL    HW122520   4.301   4.230  13.066  1.1359  1.9506  1.2686
 3628SOL    HW222521   4.176   4.244  12.996  0.9180 -0.3940 -0.4365
 3629SOL     OW22522   0.377   3.570   3.747 -0.2936 -0.6791  0.2522
 3629SOL    HW122523   0.345   3.648   3.701 -0.5071 -1.7602 -1.4425
 3629SOL    HW222524   0.334   3.505   3.691 -1.4509 -0.1120  0.4892
 3630SOL     OW22525   0.948   1.921   8.204 -0.0242  0.3935  0.0642
 3630SOL    HW122526   1.032   1.881   8.227  0.3835  1.4891  0.5062
 3630SOL    HW222527   0.976   1.993   8.147  1.2982  0.8937  1.3224
 3631SOL     OW22528   1.376   4.246   4.754 -0.0652 -0.4092 -0.3621
 3631SOL    HW122529   1.453   4.189   4.746 -0.0668 -0.4865  0.1609
 3631SOL    HW222530   1.306   4.184   4.733 -1.9163  0.7942  2.2147
 3632SOL     OW22531   4.638   4.140   4.667 -0.3461  0.1602 -0.7575
 3632SOL    HW122532   4.631   4.234   4.683 -2.2011 -0.3679  1.5403
 3632SOL    HW222533   4.727   4.124   4.699  0.1164  1.7147 -1.2596
 3633SOL     OW22534   4.626   1.533   6.463 -0.3217  0.1320  0.6706
 3633SOL    HW122535   4.674   1.528   6.546 -2.6944  0.1464  2.0562
 3633SOL    HW222536   4.636   1.623   6.432  1.1775 -0.4844 -0.6384
 3634SOL     OW22537   1.813   1.108   3.216  0.1741 -0.0829  0.0013
 3634SOL    HW122538   1.810   1.192   3.171  0.3203  0.6700  1.4302
 3634SOL    HW222539   1.750   1.112   3.287 -0.8463 -1.7823 -0.8052
 3635SOL     OW22540   4.053   0.773  10.960  0.2160  0.2082  0.2735
 3635SOL    HW122541   4.079   0.865  10.964 -0.6793  0.5433 -1.9078
 3635SOL    HW222542   3.963   0.786  10.992  1.0384  1.2188  2.1632
 3636SOL     OW22543   2.809   0.152   0.967 -0.5271 -0.3511 -0.3697
 3636SOL    HW122544   2.783   0.097   1.040  1.3287  0.5860  1.0006
 3636SOL    HW222545   2.798   0.104   0.885 -0.2095  1.1387 -1.2848
 3637SOL     OW22546   1.077   2.989   7.154  0.1091  0.0476 -0.3867
 3637SOL    HW122547   1.097   2.922   7.088  0.7815 -1.1946  1.1035
 3637SOL    HW222548   1.077   3.066   7.097  1.5744  0.8781  0.7493
 3638SOL     OW22549   3.847   3.894  14.435  0.6044 -0.0978  0.0197
 3638SOL    HW122550   3.828   3.941  14.516 -3.1968 -3.6394  1.1892
 3638SOL    HW222551   3.813   3.809  14.464  1.2150  0.3766  2.1299
 3639SOL     OW22552   1.898   1.660   8.799 -1.0117  0.0941 -0.1845
 3639SOL    HW122553   1.966   1.601   8.832 -0.2099  1.4607  0.6610
 3639SOL    HW222554   1.933   1.746   8.823 -1.6219  0.1122  0.6195
 3640SOL     OW22555   3.650   1.373   7.929  0.2752  0.0288 -0.0590
 3640SOL    HW122556   3.652   1.302   7.994  0.4739 -0.1801 -0.2956
 3640SOL    HW222557   3.564   1.412   7.944  0.5499  0.7305 -0.3041
 3641SOL     OW22558   0.092   1.134   1.755  0.0338  0.1958  0.3583
 3641SOL    HW122559   0.043   1.212   1.730 -1.5055 -0.8741  0.0608
 3641SOL    HW222560   0.032   1.104   1.822 -2.1062 -0.3320 -1.7989
 3642SOL     OW22561   4.118   3.662   0.118  0.8105  0.0391 -0.0025
 3642SOL    HW122562   4.207   3.693   0.102  0.7935  1.0240  1.7136
 3642SOL    HW222563   4.085   3.684   0.031  1.4809  1.8925  0.1911
 3643SOL     OW22564   4.396   3.724   5.588  0.2754 -0.0167  0.1968
 3643SOL    HW122565   4.450   3.663   5.638 -1.4408  0.1809  2.2695
 3643SOL    HW222566   4.316   3.676   5.568  1.3600 -0.5931 -2.7621
 3644SOL     OW22567   3.878   0.084   0.897 -0.1517  0.5751  0.2067
 3644SOL    HW122568   3.937   0.140   0.847  1.3694 -0.3856  0.9340
 3644SOL    HW222569   3.929   0.004   0.889 -0.3030  0.7103 -2.1899
 3645SOL     OW22570   2.435   3.309   3.047  0.0231  0.4116 -0.5477
 3645SOL    HW122571   2.488   3.388   3.036  0.5966 -0.0120 -0.7836
 3645SOL    HW222572   2.491   3.245   3.090  0.1955 -0.4414 -2.0447
 3646SOL     OW22573   2.039   3.582   5.641 -0.2034  0.8560  0.4769
 3646SOL    HW122574   1.977   3.634   5.590  0.0018  1.2780  0.6568
 3646SOL    HW222575   2.063   3.652   5.702  0.8712 -0.4758  1.6054
 3647SOL     OW22576   2.762   2.417   1.901 -0.5657  0.1224 -0.4659
 3647SOL    HW122577   2.723   2.329   1.892 -2.7615  1.1189 -0.8345
 3647SOL    HW222578   2.764   2.411   1.996  0.1776  0.6521 -0.4517
 3648SOL     OW22579   0.530   2.063   5.598 -0.1939  0.4877  0.2902
 3648SOL    HW122580   0.604   2.113   5.632 -0.2937  1.1306 -0.4496
 3648SOL    HW222581   0.518   2.101   5.511 -1.0666  1.5552  0.8650
 3649SOL     OW22582   1.539   4.313   8.687 -0.3850 -0.2363  0.8622
 3649SOL    HW122583   1.558   4.225   8.720 -0.9921 -0.4584  0.6217
 3649SOL    HW222584   1.604   4.361   8.738 -0.0365 -0.4185  0.5836
 3650SOL     OW22585   2.580   0.025   4.918  0.0904 -0.3524 -0.8002
 3650SOL    HW122586   2.655   0.077   4.947  0.3957 -0.7970 -0.7760
 3650SOL    HW222587   2.521   0.041   4.991  1.6779 -1.8315  0.8308
 3651SOL     OW22588   3.876   2.132  15.866  0.3714 -0.2408  0.1241
 3651SOL    HW122589   3.815   2.061  15.844 -0.9166  0.6056  0.9682
 3651SOL    HW222590   3.810   2.200  15.877  0.5418  0.0115 -0.3686
 3652SOL     OW22591   2.279   0.693   1.855  0.4057 -0.2740  0.4042
 3652SOL    HW122592   2.369   0.710   1.884  0.1846 -1.2019  1.6273
 3652SOL    HW222593   2.304   0.665   1.767 -1.1625  1.0866 -0.4742
 3653SOL     OW22594   3.182   2.998   6.699  0.3461 -0.4525 -0.5405
 3653SOL    HW122595   3.122   2.925   6.715  0.7002 -0.2286  1.8077
 3653SOL    HW222596   3.166   3.003   6.605  1.3573 -1.9531 -0.7925
 3654SOL     OW22597   2.523   1.311   7.563 -0.3377  0.2614  0.0082
 3654SOL    HW122598   2.462   1.242   7.588  0.3452 -1.0083 -1.8148
 3654SOL    HW222599   2.463   1.385   7.559 -2.4078 -1.4427 -0.5197
 3655SOL     OW22600   4.267   4.484   6.554 -0.1505  0.4815  0.4117
 3655SOL    HW122601   4.274   4.474   6.649 -1.2532 -0.8075  0.3539
 3655SOL    HW222602   4.225   4.400   6.539 -0.7635  1.2050 -1.8667
 3656SOL     OW22603   0.917   1.636   2.783  0.0404  0.0452 -0.1714
 3656SOL    HW122604   0.997   1.600   2.744 -0.2240 -0.4013 -0.2994
 3656SOL    HW222605   0.910   1.708   2.721 -0.1109 -0.1102 -0.3331
 3657SOL     OW22606   4.088   1.842   8.631  0.2887 -0.1078 -0.4212
 3657SOL    HW122607   4.035   1.856   8.552 -1.3179 -1.8361  0.3381
 3657SOL    HW222608   4.143   1.774   8.594 -0.1397 -0.5767 -0.1971
 3658SOL     OW22609   4.646   4.683   5.494 -0.4219  0.5155  0.0735
 3658SOL    HW122610   4.596   4.682   5.413 -1.0190  0.9012  0.4320
 3658SOL    HW222611   4.683   0.035   5.489  0.0995  0.2070 -1.2887
 3659SOL     OW22612   0.929   0.047   7.659 -0.3074  0.4489 -1.0704
 3659SOL    HW122613   0.849   0.004   7.629 -0.5111  0.3073 -0.3309
 3659SOL    HW222614   0.992   4.712   7.665  0.7184  1.3043 -1.7058
 3660SOL     OW22615   0.293   4.005   6.157 -0.1425 -0.1454  0.5959
 3660SOL    HW122616   0.359   3.975   6.219  0.3380 -0.2163  0.0513
 3660SOL    HW222617   0.292   3.931   6.096 -1.9482  0.0144  0.4259
 3661SOL     OW22618   0.232   4.019  11.290 -0.5927  0.0895  0.8403
 3661SOL    HW122619   0.265   3.984  11.207 -0.2404 -0.1016  1.0571
 3661SOL    HW222620   0.219   4.110  11.263 -1.2354  0.3250  1.9271
 3662SOL     OW22621   0.077   3.386   1.364  0.5032 -0.1538  0.1256
 3662SOL    HW122622   4.725   3.394   1.329 -0.0876  0.1758  1.6752
 3662SOL    HW222623   0.116   3.472   1.351  0.6038 -0.0270  1.2372
 3663SOL     OW22624   3.332   2.524   0.380 -0.1161  0.0799 -0.4878
 3663SOL    HW122625   3.236   2.526   0.376 -0.1246  0.5028 -0.0983
 3663SOL    HW222626   3.341   2.514   0.475 -1.6952 -2.5716 -0.6101
 3664SOL     OW22627   2.901   4.558  11.962  0.1997 -0.8154  0.4127
 3664SOL    HW122628   2.859   4.491  12.016  1.0717 -0.2243  1.8166
 3664SOL    HW222629   2.857   4.546  11.878 -0.6116  1.7935  0.4552
 3665SOL     OW22630   1.416   4.387   3.573  0.1897  0.1373  0.6552
 3665SOL    HW122631   1.376   4.347   3.650  1.6868  1.2472  1.9868
 3665SOL    HW222632   1.496   4.335   3.574  0.1539  0.0610 -0.5524
 3666SOL     OW22633   3.141   0.425   7.437  0.0012  0.5268 -0.2318
 3666SOL    HW122634   3.236   0.433   7.422  0.7546  1.5498  5.0977
 3666SOL    HW222635   3.138   0.352   7.498 -1.3759 -0.1016 -1.0417
 3667SOL     OW22636   2.146   2.265   8.050 -0.2004 -0.2199  0.3757
 3667SOL    HW122637   2.188   2.179   8.046 -0.1571 -0.2366  1.2067
 3667SOL    HW222638   2.085   2.263   8.124 -0.2241 -0.3614  0.3513
 3668SOL     OW22639   2.407   3.241   8.167  0.0090 -0.3991  0.3654
 3668SOL    HW122640   2.407   3.307   8.236 -2.3191  0.1922 -0.2039
 3668SOL    HW222641   2.399   3.167   8.227 -0.8588 -0.3009  0.3683
 3669SOL     OW22642   2.810   3.335   1.391  0.0860 -0.0361  0.5016
 3669SOL    HW122643   2.873   3.304   1.325 -2.4797 -1.7925 -1.1231
 3669SOL    HW222644   2.863   3.408   1.423 -0.0439  0.0011  0.6276
 3670SOL     OW22645   3.887   1.477   2.918 -0.4345 -0.1136 -0.4160
 3670SOL    HW122646   3.883   1.382   2.905  0.8034 -0.1141 -0.7924
 3670SOL    HW222647   3.806   1.515   2.885 -0.4681  0.4215  0.2718
 3671SOL     OW22648   2.444   4.699  13.677 -0.2468  0.2536  0.0746
 3671SOL    HW122649   2.477   4.641  13.608  0.0591 -1.7244  1.8946
 3671SOL    HW222650   2.448   4.652  13.760  1.5352  0.0646 -0.1288
 3672SOL     OW22651   2.265   0.100  14.201 -0.2593  0.1414  0.0597
 3672SOL    HW122652   2.173   0.122  14.187 -0.0390  1.0175 -0.0216
 3672SOL    HW222653   2.270   0.024  14.142 -1.6876  1.0985 -1.3088
 3673SOL     OW22654   2.745   2.758   8.678 -0.0518 -0.1037  0.5901
 3673SOL    HW122655   2.675   2.819   8.655 -0.2110 -0.1767  0.8694
 3673SOL    HW222656   2.724   2.742   8.771 -1.0402  0.3224  0.4417
 3674SOL     OW22657   2.204   3.044   3.655  0.1521  0.6050 -0.0227
 3674SOL    HW122658   2.197   2.948   3.648  2.5323  0.5124 -1.0325
 3674SOL    HW222659   2.140   3.076   3.593  0.5222  1.8682  0.2575
 3675SOL     OW22660   0.749   4.516  10.332  0.0056 -0.3015 -0.1304
 3675SOL    HW122661   0.786   4.433  10.303  3.3837  0.8109  1.0601
 3675SOL    HW222662   0.809   4.550  10.397 -0.4564  0.3949 -0.0665
 3676SOL     OW22663   3.263   3.721  14.673  0.7300 -0.6411  0.0411
 3676SOL    HW122664   3.221   3.734  14.588 -0.7889  1.4485  1.0996
 3676SOL    HW222665   3.225   3.637  14.699  3.2675 -1.9658 -0.5845
 3677SOL     OW22666   2.577   0.747   6.945 -0.3656 -0.7033 -0.1829
 3677SOL    HW122667   2.578   0.675   7.008 -1.6492  1.8167  2.7434
 3677SOL    HW222668   2.605   0.698   6.868  1.2662  0.7491 -0.4994
 3678SOL     OW22669   1.289   4.434   8.618  0.1703 -0.5784 -0.3794
 3678SOL    HW122670   1.281   4.394   8.531  2.0514 -0.4679 -0.5950
 3678SOL    HW222671   1.369   4.383   8.633 -0.4112 -0.2423  3.7019
 3679SOL     OW22672   3.291   3.881   7.281 -0.5886 -0.4443  0.0820
 3679SOL    HW122673   3.371   3.927   7.306  0.1801 -1.9814  0.4292
 3679SOL    HW222674   3.225   3.950   7.279 -0.4773 -0.2824  2.5578
 3680SOL     OW22675   4.705   3.446  14.390 -0.3180  0.5441 -0.2211
 3680SOL    HW122676   0.059   3.461  14.363  1.0773 -1.9126  3.1397
 3680SOL    HW222677   4.650   3.437  14.313 -0.8078  1.4834  0.0173
 3681SOL     OW22678   3.609   2.947  17.728 -0.2949  0.0327 -0.1437
 3681SOL    HW122679   3.563   2.863  17.728  1.1341 -0.7490 -1.5247
 3681SOL    HW222680   3.544   3.008   0.018 -0.4360 -0.1916 -0.0137
 3682SOL     OW22681   4.300   2.171  15.720  0.2760  0.6103  0.7035
 3682SOL    HW122682   4.257   2.127  15.646  1.7256  0.6841 -0.1943
 3682SOL    HW222683   4.220   2.198  15.765 -0.6201 -2.5096  1.0198
 3683SOL     OW22684   2.691   2.158   5.376  0.2555 -0.1659  0.5524
 3683SOL    HW122685   2.622   2.110   5.329 -0.8939 -0.3501  2.4133
 3683SOL    HW222686   2.651   2.211   5.445  1.2761 -0.4153  1.3286
 3684SOL     OW22687   2.043   2.824   5.512  0.4532  0.0286  0.0578
 3684SOL    HW122688   2.125   2.837   5.560 -0.5007  1.8189  1.2076
 3684SOL    HW222689   1.989   2.893   5.550  2.7208  0.5950  2.2766
 3685SOL     OW22690   0.692   3.101   2.967 -0.3002 -0.6561 -0.6506
 3685SOL    HW122691   0.778   3.131   2.937  1.0726 -0.9200  2.9375
 3685SOL    HW222692   0.628   3.156   2.921  0.9258 -1.0890 -2.8759
 3686SOL     OW22693   0.683   1.469   3.652 -0.0160  0.0487  0.3654
 3686SOL    HW122694   0.695   1.417   3.573 -2.9151  0.1230 -0.1273
 3686SOL    HW222695   0.597   1.438   3.680 -1.1347  1.5486 -1.4385
 3687SOL     OW22696   2.287   4.057   3.236 -0.9591  0.8983  0.0937
 3687SOL    HW122697   2.352   3.995   3.202 -0.4920  1.1939  0.4489
 3687SOL    HW222698   2.275   4.106   3.154  0.2789 -1.1565 -1.3205
 3688SOL     OW22699   1.231   3.477   8.399  0.4641  0.2603 -0.0009
 3688SOL    HW122700   1.237   3.401   8.456 -0.0411 -0.0505 -0.3572
 3688SOL    HW222701   1.143   3.508   8.421  1.0144  0.6415  1.6246
 3689SOL     OW22702   3.639   1.374   1.627  0.6043 -0.1196 -0.2091
 3689SOL    HW122703   3.707   1.341   1.568  0.6697  1.5432 -1.0586
 3689SOL    HW222704   3.638   1.326   1.710 -0.3099 -1.0988 -0.7792
 3690SOL     OW22705   4.137   0.749  14.904 -0.3666  0.5715 -0.2104
 3690SOL    HW122706   4.200   0.783  14.840  2.2534 -2.5691  0.7506
 3690SOL    HW222707   4.180   0.671  14.936 -2.5307 -0.1169  1.0194
 3691SOL     OW22708   3.845   4.289   7.299  0.2674  0.0328 -0.3147
 3691SOL    HW122709   3.763   4.272   7.252  1.4487  0.7598 -2.6361
 3691SOL    HW222710   3.877   4.199   7.303 -0.0659 -0.0365  0.9156
 3692SOL     OW22711   3.416   4.363   6.272 -0.2857 -0.4066 -0.2748
 3692SOL    HW122712   3.343   4.415   6.239 -1.5458 -1.3246  1.0520
 3692SOL    HW222713   3.397   4.269   6.273 -1.3425 -0.1757  0.7865
 3693SOL     OW22714   4.222   0.189   9.279 -0.0506 -0.3535  0.6939
 3693SOL    HW122715   4.176   0.105   9.288  1.8550 -1.2860  1.6017
 3693SOL    HW222716   4.184   0.252   9.341 -1.2398  0.2859 -0.7019
 3694SOL     OW22717   0.371   0.210   4.010  0.2935  0.5337 -0.2734
 3694SOL    HW122718   0.376   0.305   4.000  0.6619  0.4632 -0.8138
 3694SOL    HW222719   0.279   0.186   4.004  0.4685 -0.3305  0.4364
 3695SOL     OW22720   2.907   1.512   8.957 -0.1023  1.0472  0.6566
 3695SOL    HW122721   2.987   1.506   8.905 -0.3069  0.1468  0.4555
 3695SOL    HW222722   2.912   1.605   8.982  0.1968  0.5290  2.5772
 3696SOL     OW22723   2.932   0.903  13.441  0.2488 -0.2232 -0.6799
 3696SOL    HW122724   2.986   0.842  13.491 -1.5016 -0.0195  1.4224
 3696SOL    HW222725   2.918   0.854  13.360  2.3456  0.6533 -1.5879
 3697SOL     OW22726   2.474   1.116  10.331 -0.3505 -0.2745  0.3274
 3697SOL    HW122727   2.529   1.182  10.373 -0.4952  0.5920 -0.8494
 3697SOL    HW222728   2.525   1.109  10.250  0.0266  0.9612  0.4665
 3698SOL     OW22729   0.811   4.221  16.964 -1.3775  0.3287  0.0227
 3698SOL    HW122730   0.778   4.279  17.032  0.9278  0.1274  1.3377
 3698SOL    HW222731   0.896   4.204  17.006 -0.9651 -0.8278 -1.2643
 3699SOL     OW22732   0.750   2.514   4.353  0.0140 -0.0311  0.2331
 3699SOL    HW122733   0.744   2.595   4.303 -0.0945 -0.4994 -0.5228
 3699SOL    HW222734   0.722   2.455   4.283  0.5348  0.3804 -0.3196
 3700SOL     OW22735   4.579   2.092   9.664  0.1645  0.4146 -0.0738
 3700SOL    HW122736   4.575   2.108   9.570 -2.0294 -2.4731 -0.4809
 3700SOL    HW222737   4.655   2.035   9.662  1.1298  1.7804 -2.0826
 3701SOL     OW22738   0.927   3.915   1.540 -0.8687  0.3078 -0.1879
 3701SOL    HW122739   0.950   3.862   1.615  0.4162 -0.3357 -1.0419
 3701SOL    HW222740   0.833   3.931   1.547 -1.2342 -1.3992 -1.2828
 3702SOL     OW22741   1.534   1.193   1.766  0.1904 -0.4464 -0.8020
 3702SOL    HW122742   1.486   1.124   1.813 -0.1801 -0.2104 -0.8382
 3702SOL    HW222743   1.485   1.273   1.781  0.4614 -0.5907  0.7904
 3703SOL     OW22744   3.031   1.249   0.149  0.2848 -0.2539 -1.1355
 3703SOL    HW122745   2.983   1.199   0.083 -1.1413  0.9362 -0.9784
 3703SOL    HW222746   3.019   1.340   0.122  3.0211  0.7207  0.8650
 3704SOL     OW22747   4.575   3.089  16.058  0.6242  0.1927  0.3181
 3704SOL    HW122748   4.601   3.149  15.988 -0.5258  0.4177  0.0924
 3704SOL    HW222749   4.485   3.065  16.039  0.9636 -0.8410  0.0235
 3705SOL     OW22750   0.223   0.825   1.108  0.1006 -0.1573  0.1017
 3705SOL    HW122751   0.139   0.793   1.141 -0.7843 -0.8316 -2.8215
 3705SOL    HW222752   0.241   0.758   1.042 -2.0711 -1.5335  0.9261
 3706SOL     OW22753   2.801   4.084  15.622  0.6501 -0.0275 -0.1687
 3706SOL    HW122754   2.774   4.015  15.562 -0.6983  1.2019 -0.9732
 3706SOL    HW222755   2.729   4.143  15.601 -1.4742 -1.5300  2.9519
 3707SOL     OW22756   4.400   1.714   3.306  0.0001  0.3394 -0.3969
 3707SOL    HW122757   4.377   1.721   3.399 -2.6904  1.2295 -1.1375
 3707SOL    HW222758   4.380   1.620   3.300  2.0488 -0.1490  0.4080
 3708SOL     OW22759   0.297   1.130  14.438 -0.3577  0.7847 -0.3377
 3708SOL    HW122760   0.265   1.110  14.350  0.6857 -3.7851  0.3156
 3708SOL    HW222761   0.391   1.128  14.422 -0.1559  1.3155  0.7541
 3709SOL     OW22762   3.694   1.650   8.486 -0.3987 -0.1522  0.5910
 3709SOL    HW122763   3.616   1.701   8.466 -1.3173 -1.4307  0.9535
 3709SOL    HW222764   3.657   1.562   8.484  0.0800 -0.3336 -0.1354
 3710SOL     OW22765   0.890   4.446   3.420  0.2451 -0.1076 -0.7400
 3710SOL    HW122766   0.941   4.465   3.499 -0.8070 -0.7752  0.0965
 3710SOL    HW222767   0.829   4.384   3.459  2.8284 -1.4551  1.1780
 3711SOL     OW22768   2.468   3.895   7.638 -0.3738 -0.4827 -0.7082
 3711SOL    HW122769   2.377   3.872   7.660 -1.4636  2.5699 -2.0649
 3711SOL    HW222770   2.513   3.857   7.713 -2.1429 -1.2066 -0.0072
 3712SOL     OW22771   2.703   1.230   2.068  0.3948  0.2087  0.1836
 3712SOL    HW122772   2.666   1.303   2.118 -1.4335 -0.5653 -0.0322
 3712SOL    HW222773   2.717   1.176   2.146  1.5526 -0.8846 -0.8070
 3713SOL     OW22774   2.366   1.802   3.218 -0.0298 -0.3923  0.0679
 3713SOL    HW122775   2.335   1.887   3.249  0.9921 -0.2438  0.6831
 3713SOL    HW222776   2.445   1.821   3.167 -0.3605  1.1225  0.1159
 3714SOL     OW22777   3.315   3.076   8.212  0.4092 -0.4300 -0.1490
 3714SOL    HW122778   3.357   3.007   8.160  1.0321 -1.4804  1.7561
 3714SOL    HW222779   3.278   3.033   8.288 -2.0920  1.3709 -0.3678
 3715SOL     OW22780   0.202   3.168   8.026  0.5556 -0.3158 -0.3886
 3715SOL    HW122781   0.146   3.102   7.986 -1.0978 -0.3573  1.9725
 3715SOL    HW222782   0.282   3.119   8.045 -0.3096 -2.1091 -1.3111
 3716SOL     OW22783   2.639   2.959  16.971 -0.2309  0.5773  0.9503
 3716SOL    HW122784   2.699   2.935  17.043  0.4305 -2.4338 -0.6033
 3716SOL    HW222785   2.699   2.998  16.908 -1.5934 -0.2086 -0.8345
 3717SOL     OW22786   4.367   2.714  14.925  0.1922  0.0600  0.0742
 3717SOL    HW122787   4.340   2.795  14.882  0.8583  0.4847  0.4602
 3717SOL    HW222788   4.354   2.730  15.018  0.6568 -1.2084  0.3628
 3718SOL     OW22789   0.050   2.934   1.685  0.1214 -0.4408  0.4951
 3718SOL    HW122790   0.071   2.998   1.753  1.3735  0.2029 -0.4922
 3718SOL    HW222791   0.045   2.989   1.607 -3.2934  0.2770  1.2142
 3719SOL     OW22792   3.555   0.974   1.820 -0.5078  0.3934  0.2796
 3719SOL    HW122793   3.569   0.976   1.914 -1.7197  1.5953  0.4304
 3719SOL    HW222794   3.586   0.885   1.801 -3.2772  0.0917 -2.9694
 3720SOL     OW22795   0.591   0.848   6.923 -0.3535 -0.0680 -0.6655
 3720SOL    HW122796   0.614   0.792   6.996  0.7802  0.2408 -0.7983
 3720SOL    HW222797   0.590   0.796   6.842  0.5098  1.9622 -1.9737
 3721SOL     OW22798   1.270   0.989  11.981 -0.0466 -0.3413 -0.2230
 3721SOL    HW122799   1.364   0.974  11.969 -0.0256 -0.4507  0.0796
 3721SOL    HW222800   1.252   0.934  12.057  2.4015  1.9596  2.0302
 3722SOL     OW22801   4.214   0.955   4.718 -0.3551  0.0239 -0.4572
 3722SOL    HW122802   4.145   0.891   4.731  0.7982 -1.1504 -0.0344
 3722SOL    HW222803   4.256   0.948   4.804 -2.6919  1.5477  0.7853
 3723SOL     OW22804   2.236   0.206   7.844  0.1367  0.3156 -0.4725
 3723SOL    HW122805   2.160   0.204   7.786 -0.6718  0.3524  0.5826
 3723SOL    HW222806   2.305   0.160   7.796 -0.2807  0.6441 -1.3861
 3724SOL     OW22807   2.659   3.259   9.555  0.2270  0.4655  0.3305
 3724SOL    HW122808   2.753   3.280   9.554  0.4349 -0.5346 -2.4807
 3724SOL    HW222809   2.655   3.172   9.594 -2.6374  1.0131  1.2348
 3725SOL     OW22810   2.312   2.854  13.419  0.2715 -0.1720 -0.0085
 3725SOL    HW122811   2.405   2.872  13.430  0.5484 -1.2654 -0.5354
 3725SOL    HW222812   2.306   2.868  13.324 -1.2884 -2.3424 -0.2414
 3726SOL     OW22813   2.428   3.890   2.421 -0.3774  0.5664  0.0806
 3726SOL    HW122814   2.440   3.977   2.382 -1.1922  0.0648 -1.2903
 3726SOL    HW222815   2.445   3.840   2.341  0.7036 -0.2062  0.7843
 3727SOL     OW22816   1.276   4.348   5.602 -0.1614  0.2050 -0.3512
 3727SOL    HW122817   1.309   4.423   5.651 -3.4131  1.5196 -0.2091
 3727SOL    HW222818   1.189   4.330   5.638 -0.3137  3.1661  0.7661
 3728SOL     OW22819   2.920   3.590   1.213 -0.0679 -0.1446  0.8216
 3728SOL    HW122820   2.923   3.516   1.273 -0.7937 -1.0696 -0.3056
 3728SOL    HW222821   3.012   3.616   1.205 -0.6638  2.2381  1.7314
 3729SOL     OW22822   1.004   0.253   5.255  0.4835  0.9162 -0.1060
 3729SOL    HW122823   0.985   0.340   5.221 -0.6902  1.2671  1.4270
 3729SOL    HW222824   0.974   0.259   5.346 -2.1161 -0.5285 -0.9018
 3730SOL     OW22825   3.600   1.592  12.636  0.2289 -0.2728 -0.0309
 3730SOL    HW122826   3.653   1.639  12.700  2.2026 -0.6506 -1.3909
 3730SOL    HW222827   3.538   1.538  12.686  1.1739 -0.1228  1.3026
 3731SOL     OW22828   1.142   4.460  16.125 -0.0052 -0.9836 -0.0521
 3731SOL    HW122829   1.047   4.453  16.113 -0.3005 -0.4978  1.9886
 3731SOL    HW222830   1.151   4.545  16.168 -3.7729  0.3925 -1.9880
 3732SOL     OW22831   2.085   1.982   8.629 -0.6489  0.0324  0.3982
 3732SOL    HW122832   2.169   1.966   8.585  0.2819 -1.1170  2.5494
 3732SOL    HW222833   2.104   2.036   8.707 -1.1813  0.1356  0.4546
 3733SOL     OW22834   0.231   0.516   3.136  0.3716  0.3199  0.3610
 3733SOL    HW122835   0.160   0.474   3.184 -1.4023  3.7138  0.7116
 3733SOL    HW222836   0.292   0.530   3.209 -0.5402  2.3667  0.7229
 3734SOL     OW22837   4.334   4.266   7.599  0.3946  0.5121 -0.6302
 3734SOL    HW122838   4.372   4.354   7.605 -0.1721  0.8655 -2.2027
 3734SOL    HW222839   4.254   4.271   7.652  0.6718 -1.1451 -0.0711
 3735SOL     OW22840   3.752   1.108   5.613  0.4468 -0.3120 -0.0782
 3735SOL    HW122841   3.753   1.072   5.701  2.6445  0.0528  0.0548
 3735SOL    HW222842   3.671   1.157   5.603 -1.1162 -2.3447  2.8800
 3736SOL     OW22843   1.167   4.252   3.698  0.1796 -0.1911 -0.4516
 3736SOL    HW122844   1.108   4.323   3.673 -1.6426 -2.0238 -1.3291
 3736SOL    HW222845   1.149   4.187   3.631  0.1868  0.1614 -0.7941
 3737SOL     OW22846   3.164   3.875  10.446  0.2731  0.4425 -0.0403
 3737SOL    HW122847   3.070   3.890  10.442  0.0095 -0.8995  1.3683
 3737SOL    HW222848   3.186   3.965  10.470 -4.2553  1.8895 -1.3964
 3738SOL     OW22849   3.856   1.898   8.155  0.2135 -0.7690  0.1677
 3738SOL    HW122850   3.837   1.831   8.089  0.0491  0.0562 -0.6196
 3738SOL    HW222851   3.941   1.864   8.182  0.7356  0.8379  0.5364
 3739SOL     OW22852   0.857   2.463  14.258 -0.2647  0.3028 -0.3685
 3739SOL    HW122853   0.840   2.437  14.168 -0.0113  0.4435 -0.4565
 3739SOL    HW222854   0.800   2.540  14.266 -1.3784 -0.4852 -0.6301
 3740SOL     OW22855   2.747   3.338   4.586 -0.1484  0.2744 -0.3900
 3740SOL    HW122856   2.830   3.379   4.562  0.7631  1.7690  5.4480
 3740SOL    HW222857   2.682   3.403   4.560 -2.1075 -1.5336 -0.0073
 3741SOL     OW22858   2.074   1.491   8.337 -0.1676 -0.0128 -0.2902
 3741SOL    HW122859   2.104   1.566   8.389 -1.2933  1.6230 -1.9937
 3741SOL    HW222860   2.126   1.424   8.382  0.3683  0.9328  0.5155
 3742SOL     OW22861   3.861   1.285   3.469  0.4086 -0.6397  0.1376
 3742SOL    HW122862   3.934   1.314   3.524 -1.8813  1.0760  2.1968
 3742SOL    HW222863   3.845   1.361   3.414 -1.4313 -0.8308  0.4332
 3743SOL     OW22864   0.202   1.800   2.857  0.5208  0.2025  0.1770
 3743SOL    HW122865   0.204   1.750   2.939  0.2657 -1.0192 -0.5537
 3743SOL    HW222866   0.274   1.863   2.863 -0.8288  1.7716 -0.0379
 3744SOL     OW22867   3.470   2.817   4.506  0.5334 -0.9354  0.1261
 3744SOL    HW122868   3.500   2.888   4.450 -0.6132  1.4561  2.4975
 3744SOL    HW222869   3.394   2.860   4.546  0.6522 -0.6745  0.0727
 3745SOL     OW22870   3.864   4.576   2.729  0.0819 -0.2125  0.9405
 3745SOL    HW122871   3.905   4.503   2.683  2.8627  1.9628 -0.0143
 3745SOL    HW222872   3.843   4.632   2.654 -1.0447 -1.3350  0.4158
 3746SOL     OW22873   3.291   3.527   8.968 -0.5475  0.3656  0.1726
 3746SOL    HW122874   3.318   3.617   8.985 -2.5848  0.9526  0.2580
 3746SOL    HW222875   3.211   3.535   9.021 -0.3815 -2.8420  0.9067
 3747SOL     OW22876   2.477   2.490   9.842 -0.6018  0.1579  0.4055
 3747SOL    HW122877   2.444   2.570   9.800  1.0878  0.5187 -0.2726
 3747SOL    HW222878   2.394   2.451   9.867 -0.7099  1.6550  2.3041
 3748SOL     OW22879   2.693   4.260   6.820 -0.0409  0.3954 -0.8610
 3748SOL    HW122880   2.726   4.174   6.842  1.3006  0.7563 -1.4773
 3748SOL    HW222881   2.713   4.317   6.894  1.1650 -1.9808  0.5980
 3749SOL     OW22882   0.178   1.458   0.494 -0.4491  0.6028  0.3467
 3749SOL    HW122883   0.202   1.545   0.460  2.2084 -0.4671 -0.4926
 3749SOL    HW222884   0.120   1.490   0.563 -1.7644  0.7285 -0.8267
 3750SOL     OW22885   0.019   3.322  13.350  0.1345  0.3603 -0.1417
 3750SOL    HW122886   4.709   3.388  13.402 -0.0876 -0.1003  0.2433
 3750SOL    HW222887   0.031   3.252  13.414  0.1852  0.3771 -0.1327
 3751SOL     OW22888   3.160   2.028   3.458  0.1934  0.2198 -0.5462
 3751SOL    HW122889   3.216   2.066   3.527 -1.4264  0.0063  0.8849
 3751SOL    HW222890   3.081   2.080   3.471 -0.2307 -0.6592  0.4538
 3752SOL     OW22891   0.586   3.504   6.680  0.1393  0.1348  0.3823
 3752SOL    HW122892   0.657   3.470   6.626 -0.3010  0.4280 -0.3804
 3752SOL    HW222893   0.593   3.442   6.753 -0.1643 -2.4206 -1.7686
 3753SOL     OW22894   2.989   0.583   6.909 -0.9092 -0.3990 -0.2379
 3753SOL    HW122895   2.978   0.496   6.871  1.7631 -0.0062 -1.9705
 3753SOL    HW222896   2.960   0.572   6.999  0.9547  0.3114  0.4541
 3754SOL     OW22897   0.592   3.488   5.931  0.3887 -0.1381 -0.5594
 3754SOL    HW122898   0.623   3.496   5.840  2.6407 -2.6452 -0.0369
 3754SOL    HW222899   0.626   3.573   5.960  0.5491 -0.6879  0.8370
 3755SOL     OW22900   1.216   4.059   1.205 -0.2306  0.1269  0.1943
 3755SOL    HW122901   1.276   4.134   1.206  0.5437 -0.5070  0.9357
 3755SOL    HW222902   1.200   4.067   1.299 -0.7409 -0.8588  0.1898
 3756SOL     OW22903   2.114   2.169   3.664 -0.4161 -0.1270  0.4241
 3756SOL    HW122904   2.089   2.080   3.641 -1.6700  0.0537  1.0748
 3756SOL    HW222905   2.210   2.165   3.666 -0.3654  0.4173 -1.6048
 3757SOL     OW22906   2.966   4.677   4.651  0.4456  0.2722  0.6833
 3757SOL    HW122907   3.053   4.698   4.687 -0.2910  0.1627  2.5445
 3757SOL    HW222908   2.934   0.026   4.625 -1.4024 -1.2305 -1.9485
 3758SOL     OW22909   1.372   0.794   9.650 -0.0931 -0.2465  0.1000
 3758SOL    HW122910   1.446   0.775   9.592  1.5624 -0.6760  2.3579
 3758SOL    HW222911   1.381   0.888   9.666 -1.9280 -0.3113  1.4340
 3759SOL     OW22912   4.192   0.721  16.339  0.5268 -0.6067 -0.2399
 3759SOL    HW122913   4.254   0.785  16.373 -1.3430 -0.0929  2.1489
 3759SOL    HW222914   4.200   0.716  16.244 -2.0842  2.0876 -0.5818
 3760SOL     OW22915   0.178   1.638   6.051  0.2240  0.0570  0.2520
 3760SOL    HW122916   0.182   1.700   5.979 -2.5825  1.4495  1.2885
 3760SOL    HW222917   0.189   1.563   5.993  0.1037  0.5956 -0.4581
 3761SOL     OW22918   4.093   4.002  11.646  0.3531  0.1185  0.3474
 3761SOL    HW122919   4.054   3.963  11.568 -2.0848  0.6575  1.2917
 3761SOL    HW222920   4.185   4.018  11.629 -0.1913  3.7754  0.6698
 3762SOL     OW22921   3.542   2.934   8.754 -0.6606  0.4771  0.3135
 3762SOL    HW122922   3.607   2.923   8.685 -0.9214  2.4690 -0.2255
 3762SOL    HW222923   3.500   3.013   8.722 -0.6301  0.1499 -0.5328
 3763SOL     OW22924   1.226   4.489  14.837  0.3779  0.5595 -0.3896
 3763SOL    HW122925   1.179   4.553  14.783  0.7711  1.7984  0.7386
 3763SOL    HW222926   1.200   4.518  14.924 -0.9312 -0.5855 -0.4059
 3764SOL     OW22927   2.610   4.562   4.413 -0.0065  0.2087 -0.7032
 3764SOL    HW122928   2.587   4.474   4.442  3.1563 -0.3989  0.0114
 3764SOL    HW222929   2.525   4.604   4.424 -0.6505 -1.2947  0.0685
 3765SOL     OW22930   2.553   3.697   6.067  0.0002  0.0797 -0.3077
 3765SOL    HW122931   2.509   3.766   6.017  0.0138  0.8947  0.8222
 3765SOL    HW222932   2.637   3.741   6.079  0.4714 -1.2808  1.3056
 3766SOL     OW22933   0.928   1.816   6.103  0.1380  0.1748 -0.0101
 3766SOL    HW122934   0.871   1.785   6.174 -0.3783  0.4233 -0.3133
 3766SOL    HW222935   0.939   1.735   6.054  2.7008 -0.5486  1.7889
 3767SOL     OW22936   0.385   1.767   9.628 -0.5064  0.0372 -0.8883
 3767SOL    HW122937   0.338   1.712   9.691  0.4351 -0.1832 -0.3758
 3767SOL    HW222938   0.324   1.783   9.556 -0.4571 -0.1606 -0.9746
 3768SOL     OW22939   2.913   2.556   7.837 -0.1818 -0.0946 -0.4791
 3768SOL    HW122940   2.833   2.584   7.792 -0.1166  1.7727  0.5488
 3768SOL    HW222941   2.965   2.518   7.767  1.4312  1.3302 -0.0597
 3769SOL     OW22942   0.968   0.297   2.130 -0.6700  0.6402 -0.2034
 3769SOL    HW122943   1.026   0.369   2.104  1.0976  0.1782  2.3972
 3769SOL    HW222944   0.934   0.266   2.046  1.1576 -0.3201 -0.5939
 3770SOL     OW22945   0.433   2.299  10.234 -0.7293 -0.1549  0.5335
 3770SOL    HW122946   0.504   2.361  10.250 -0.1424 -1.1864  1.8784
 3770SOL    HW222947   0.478   2.227  10.190  2.7859  0.9363  2.4130
 3771SOL     OW22948   1.315   2.679   9.120  0.5511  0.1911  0.6881
 3771SOL    HW122949   1.234   2.639   9.151  0.0470  1.2595  0.7350
 3771SOL    HW222950   1.279   2.763   9.094 -1.9011 -0.8664  0.6376
 3772SOL     OW22951   3.017   0.697   2.800  0.8446  0.6817  0.7326
 3772SOL    HW122952   3.040   0.727   2.888 -1.0478  0.8351  1.1788
 3772SOL    HW222953   3.031   0.602   2.798 -2.5429  0.2171 -0.9102
 3773SOL     OW22954   1.757   3.292   2.872 -0.3750 -0.0253 -0.0025
 3773SOL    HW122955   1.662   3.295   2.883 -0.2570  2.1408  0.2651
 3773SOL    HW222956   1.772   3.376   2.829 -0.2019 -0.5757 -1.0163
 3774SOL     OW22957   0.535   3.813   5.847 -0.2068 -0.5368  0.2677
 3774SOL    HW122958   0.444   3.795   5.867  0.1935 -2.2704  0.5159
 3774SOL    HW222959   0.558   3.803   5.939  3.7715  0.2451 -0.6317
 3775SOL     OW22960   0.564   0.444   0.058 -0.5792 -0.1053  0.0805
 3775SOL    HW122961   0.576   0.533   0.024  0.4102 -0.0401  0.5849
 3775SOL    HW222962   0.480   0.423   0.017  0.5207 -1.4923 -1.4693
 3776SOL     OW22963   2.366   2.877   0.002  0.1931 -0.4107 -0.0188
 3776SOL    HW122964   2.297   2.903   0.064  0.6131  0.2061  0.1829
 3776SOL    HW222965   2.317   2.884  17.665  0.3622 -1.8484 -0.2395
 3777SOL     OW22966   1.298   2.271   9.498 -0.5324  0.1419 -0.0373
 3777SOL    HW122967   1.278   2.268   9.591 -0.8218 -0.3710 -0.1164
 3777SOL    HW222968   1.260   2.191   9.460 -0.6147  0.9305 -1.6342
 3778SOL     OW22969   3.709   4.555  10.949 -0.0702  0.4282  0.3158
 3778SOL    HW122970   3.787   4.590  10.992 -1.2074  2.3019  0.8307
 3778SOL    HW222971   3.662   4.519  11.025 -0.9964 -0.7285 -0.7978
 3779SOL     OW22972   2.843   4.717   4.073 -0.2807  0.9757  0.1518
 3779SOL    HW122973   2.832   0.027   4.156 -2.1738 -0.4816  0.6982
 3779SOL    HW222974   2.820   4.629   4.100 -0.2822  1.3252  1.2976
 3780SOL     OW22975   0.563   2.050  15.919 -0.1121 -0.8128 -0.0617
 3780SOL    HW122976   0.645   2.027  15.962  0.2860 -1.0988 -0.9776
 3780SOL    HW222977   0.566   1.998  15.838 -1.2566  0.2081 -0.7682
 3781SOL     OW22978   3.921   2.273   5.324 -0.0044  0.1203 -0.0430
 3781SOL    HW122979   3.842   2.240   5.280 -1.1089 -0.5047  2.4471
 3781SOL    HW222980   3.879   2.351   5.360  1.0819  0.6121  0.1555
 3782SOL     OW22981   0.692   1.101   3.272  0.0097  0.6354  0.0772
 3782SOL    HW122982   0.691   1.044   3.350 -0.6264  0.2257 -0.2315
 3782SOL    HW222983   0.599   1.124   3.264  0.1504  1.3820  0.6337
 3783SOL     OW22984   4.641   1.112  10.702 -0.2043 -0.3599 -0.3451
 3783SOL    HW122985   4.680   1.190  10.663 -0.4390 -0.1245 -0.1161
 3783SOL    HW222986   4.724   1.068  10.721 -0.8331 -1.1334  0.6345
 3784SOL     OW22987   1.885   3.924   4.052 -0.0470  0.0961 -0.4175
 3784SOL    HW122988   1.863   4.009   4.012  1.2287  0.2489 -0.7846
 3784SOL    HW222989   1.863   3.860   3.984 -0.4210 -0.2557  0.0380
 3785SOL     OW22990   2.506   2.656   6.640  0.2577 -0.4722 -0.4744
 3785SOL    HW122991   2.505   2.631   6.732 -3.3471  0.8219 -0.1538
 3785SOL    HW222992   2.460   2.741   6.642 -0.3915 -0.8472  1.0394
 3786SOL     OW22993   3.693   4.513   6.236  0.1089  0.2583 -0.3200
 3786SOL    HW122994   3.631   4.462   6.289  3.8355 -2.5231  1.3240
 3786SOL    HW222995   3.644   4.577   6.185  0.2216 -0.7112 -1.6395
 3787SOL     OW22996   1.150   0.449   1.980 -0.7338  0.2825  0.4146
 3787SOL    HW122997   1.121   0.451   1.889 -0.5818 -0.3283  0.3566
 3787SOL    HW222998   1.190   0.362   1.982 -0.6185  0.2363 -3.5606
 3788SOL     OW22999   2.547   2.803  12.032  0.3208  0.2996 -0.0020
 3788SOL    HW123000   2.533   2.726  12.086  4.0218 -0.6385 -0.3863
 3788SOL    HW223001   2.635   2.790  11.997 -0.1108 -1.2522 -0.4869
 3789SOL     OW23002   0.994   3.087   7.929  0.1676  0.7189  0.5172
 3789SOL    HW123003   1.005   3.122   8.017  1.3153  0.1112  0.6081
 3789SOL    HW223004   0.961   3.164   7.883 -0.9998 -1.0147 -1.5545
 3790SOL     OW23005   3.215   1.353  13.348  0.3937 -0.0828  0.4183
 3790SOL    HW123006   3.185   1.409  13.420  0.7195  1.6634 -0.7978
 3790SOL    HW223007   3.166   1.272  13.363  0.9820 -0.8807 -2.0009
 3791SOL     OW23008   4.281   2.775  15.968  0.0334 -0.0648  0.1552
 3791SOL    HW123009   4.288   2.866  15.940  1.4127 -0.3169 -0.3605
 3791SOL    HW223010   4.240   2.775  16.054 -0.2378 -0.3444  0.0256
 3792SOL     OW23011   1.101   2.285   7.012 -0.3501 -0.4228  0.0031
 3792SOL    HW123012   1.156   2.345   7.063 -0.0287  0.8795 -1.8988
 3792SOL    HW223013   1.026   2.340   6.990  0.8500  1.7202  1.3374
 3793SOL     OW23014   0.951   0.551  16.364 -0.3549 -0.6100  0.1504
 3793SOL    HW123015   1.021   0.490  16.389 -0.5466 -0.8199  0.1686
 3793SOL    HW223016   0.914   0.576  16.448  0.0137  0.8666 -0.1241
 3794SOL     OW23017   4.401   1.912  10.791 -0.3588 -0.4892  0.2469
 3794SOL    HW123018   4.473   1.863  10.751 -2.0602 -1.4048 -1.7001
 3794SOL    HW223019   4.448   1.974  10.846 -0.9557 -0.7594  1.0633
 3795SOL     OW23020   2.923   3.894  14.600 -0.1169 -0.4173 -0.2876
 3795SOL    HW123021   3.004   3.935  14.570 -0.2444 -1.2553 -1.7751
 3795SOL    HW223022   2.932   3.808  14.557  0.3462 -1.1159  1.2086
 3796SOL     OW23023   0.934   1.293   3.724  0.4612 -0.7311 -0.5710
 3796SOL    HW123024   0.947   1.384   3.700 -1.9019 -1.1802 -3.5185
 3796SOL    HW223025   1.014   1.290   3.778  1.1053  1.5782 -1.4287
 3797SOL     OW23026   3.653   1.599   1.828 -0.0538 -0.0366  0.1870
 3797SOL    HW123027   3.717   1.540   1.789 -1.4317 -1.9255  0.7895
 3797SOL    HW223028   3.698   1.683   1.813 -0.0912 -0.1437 -0.5398
 3798SOL     OW23029   3.445   2.737   2.881  0.1590  0.8559  0.5795
 3798SOL    HW123030   3.359   2.762   2.914 -0.9642  0.3165 -1.9427
 3798SOL    HW223031   3.474   2.656   2.923 -0.8476  0.4694  0.5143
 3799SOL     OW23032   1.738   2.790   1.052  0.1098  0.4127 -0.1139
 3799SOL    HW123033   1.673   2.722   1.035 -1.2867  1.3338  1.6455
 3799SOL    HW223034   1.727   2.854   0.981  0.0258 -0.3626 -0.8003
 3800SOL     OW23035   3.997   3.666   8.415 -0.5880 -0.2168 -0.0918
 3800SOL    HW123036   4.064   3.724   8.451 -0.9426  1.3171 -1.8883
 3800SOL    HW223037   4.051   3.587   8.415  2.9410  2.2282 -0.4618
 3801SOL     OW23038   0.193   0.420  11.817 -0.6813 -0.6357  0.0694
 3801SOL    HW123039   0.266   0.462  11.772  1.1179 -0.7054  2.9180
 3801SOL    HW223040   0.229   0.384  11.898 -1.1215 -0.9618  0.1195
 3802SOL     OW23041   3.675   1.417   7.376 -0.4936 -0.1129  0.1863
 3802SOL    HW123042   3.615   1.342   7.382 -0.7792  0.2969  2.6963
 3802SOL    HW223043   3.747   1.360   7.349 -0.9056  0.1627 -1.4950
 3803SOL     OW23044   4.472   0.550   7.853 -0.0304 -0.3597 -0.8270
 3803SOL    HW123045   4.441   0.636   7.884  0.5500 -1.5009  2.8954
 3803SOL    HW223046   4.551   0.540   7.905 -1.3025 -1.1363  0.9754
 3804SOL     OW23047   1.200   3.731  16.969  0.0619 -0.0621 -0.3722
 3804SOL    HW123048   1.149   3.651  16.986  1.4803 -0.8276  0.2832
 3804SOL    HW223049   1.136   3.786  16.923 -0.9782 -0.7912  0.1811
 3805SOL     OW23050   1.900   1.967  17.310 -0.5510 -0.6324  0.2946
 3805SOL    HW123051   1.833   2.031  17.286  1.1389  1.4454  1.1009
 3805SOL    HW223052   1.949   1.957  17.229  1.7057  0.5241  1.5132
 3806SOL     OW23053   0.440   1.399   1.499  0.4610 -0.2897 -0.1309
 3806SOL    HW123054   0.423   1.476   1.445 -0.1580  0.7131  1.4661
 3806SOL    HW223055   0.458   1.334   1.431 -0.6150  0.1725 -0.8509
 3807SOL     OW23056   0.949   3.418   2.455  0.1760  0.0403 -0.1083
 3807SOL    HW123057   0.977   3.327   2.464  0.5654 -0.1357 -2.9545
 3807SOL    HW223058   0.878   3.417   2.390  0.7106 -2.4942 -0.6692
 3808SOL     OW23059   0.101   0.754   6.746  0.2339 -0.6429 -0.5023
 3808SOL    HW123060   0.065   0.667   6.765 -0.6164 -0.2248 -0.2009
 3808SOL    HW223061   0.022   0.809   6.752  0.4699 -0.0983 -2.4188
 3809SOL     OW23062   3.173   1.871   4.150 -0.9323 -0.4716  0.0480
 3809SOL    HW123063   3.165   1.855   4.056  2.4226 -1.0120 -0.1167
 3809SOL    HW223064   3.138   1.792   4.192  0.0306 -1.0099 -0.1681
 3810SOL     OW23065   4.050   2.073  15.610 -0.1582 -0.2489  0.4401
 3810SOL    HW123066   3.983   2.007  15.595  1.8096 -1.9172 -1.0821
 3810SOL    HW223067   4.019   2.117  15.689 -0.1192 -0.8474  0.7819
 3811SOL     OW23068   0.289   2.212   2.831  0.4606  0.4402 -0.3795
 3811SOL    HW123069   0.307   2.216   2.925  0.1103 -2.3361 -0.1661
 3811SOL    HW223070   0.194   2.225   2.831  0.4600  0.4735  0.3157
 3812SOL     OW23071   0.796   0.055   8.868 -0.3370  0.4419 -0.2014
 3812SOL    HW123072   0.780   0.007   8.949  0.4063 -1.1788 -1.0229
 3812SOL    HW223073   0.765   4.725   8.806 -1.5273  3.0357 -2.3966
 3813SOL     OW23074   2.905   4.466   4.497 -0.0528  0.4993  0.1076
 3813SOL    HW123075   2.929   4.535   4.558  1.4193 -1.0873  1.3196
 3813SOL    HW223076   2.810   4.466   4.510  0.1976 -0.8990  1.8675
 3814SOL     OW23077   1.335   2.288   5.981 -0.9432 -0.2017  0.0592
 3814SOL    HW123078   1.265   2.349   6.007 -0.4150  1.1333 -1.6868
 3814SOL    HW223079   1.294   2.231   5.916 -0.9775  1.5440 -1.4426
 3815SOL     OW23080   3.554   4.483  13.135 -0.6597 -0.2573 -0.0848
 3815SOL    HW123081   3.565   4.442  13.221 -0.7566 -1.3581 -0.5923
 3815SOL    HW223082   3.552   4.403  13.082  0.5986  0.2067 -0.8432
 3816SOL     OW23083   2.723   0.183   2.425  0.1108  0.2103  0.2139
 3816SOL    HW123084   2.776   0.253   2.464  1.5617 -1.2842  0.9205
 3816SOL    HW223085   2.657   0.161   2.490 -0.1833  0.9060  0.1497
 3817SOL     OW23086   4.089   1.016  11.563  0.0726  0.2152 -0.0536
 3817SOL    HW123087   3.997   0.993  11.554  0.4152 -2.1981  2.6237
 3817SOL    HW223088   4.084   1.111  11.555 -2.2055  0.1226  0.2613
 3818SOL     OW23089   1.068   2.665   5.205 -0.4076  0.2869 -0.0643
 3818SOL    HW123090   1.130   2.695   5.272 -1.8411 -0.1299  1.4445
 3818SOL    HW223091   1.131   2.660   5.133 -1.7586 -2.5671 -1.0415
 3819SOL     OW23092   1.413   0.363   9.923 -0.5403  0.4532  0.2587
 3819SOL    HW123093   1.394   0.455   9.904 -1.8162  0.1888  0.2562
 3819SOL    HW223094   1.504   0.361   9.951 -1.4532 -1.6200  3.1340
 3820SOL     OW23095   0.223   1.353   8.267  0.2493  0.4176  0.0540
 3820SOL    HW123096   0.297   1.338   8.326 -0.7210 -1.5507  0.7918
 3820SOL    HW223097   0.169   1.277   8.289  1.0974 -0.1665  0.0818
 3821SOL     OW23098   3.061   1.042   3.855 -0.0844  0.1471 -0.0301
 3821SOL    HW123099   2.999   1.062   3.784  0.1414 -1.2484 -0.6368
 3821SOL    HW223100   2.999   1.036   3.928  0.7409 -0.7711  0.6069
 3822SOL     OW23101   3.873   3.075  12.982  0.5301 -0.5150  0.2024
 3822SOL    HW123102   3.926   3.050  13.057  1.7395 -0.4054 -0.6112
 3822SOL    HW223103   3.883   2.998  12.926  1.7149 -0.0697 -0.1999
 3823SOL     OW23104   1.468   1.637   9.771  0.2480 -0.5701  0.0180
 3823SOL    HW123105   1.519   1.716   9.793  0.4911 -0.2471 -1.6473
 3823SOL    HW223106   1.530   1.569   9.797  0.1938  0.0279  1.7267
 3824SOL     OW23107   1.127   4.319  12.551 -0.5056  0.0618  0.2089
 3824SOL    HW123108   1.052   4.345  12.604 -0.3747  2.5881 -0.8486
 3824SOL    HW223109   1.117   4.381  12.479 -1.8246  0.4082  0.6765
 3825SOL     OW23110   0.199   2.851   6.611  0.1755 -0.4807 -0.3353
 3825SOL    HW123111   0.279   2.833   6.662  0.6193  0.6717 -0.6259
 3825SOL    HW223112   0.147   2.780   6.648  1.1117  0.0413  1.9785
 3826SOL     OW23113   1.486   0.350   3.443  0.4935  0.0383 -0.0173
 3826SOL    HW123114   1.445   0.420   3.394  0.7500 -0.4366 -0.9084
 3826SOL    HW223115   1.441   0.349   3.528  0.2056  1.8937 -0.1453
 3827SOL     OW23116   3.718   3.003   6.097 -0.0563 -0.5669 -0.7317
 3827SOL    HW123117   3.633   3.031   6.061 -0.8494 -1.8462  0.1492
 3827SOL    HW223118   3.701   3.025   6.189  0.6452 -0.1734 -0.6938
 3828SOL     OW23119   3.107   0.385   7.984 -0.7138  0.0772  0.7256
 3828SOL    HW123120   3.194   0.344   7.984  0.3186  2.2797  0.3252
 3828SOL    HW223121   3.125   0.441   8.060  1.1651 -3.0460  2.6093
 3829SOL     OW23122   4.057   2.270   8.153 -0.3208 -0.0720 -0.3354
 3829SOL    HW123123   4.089   2.185   8.182  0.0789  0.5295  0.9766
 3829SOL    HW223124   4.118   2.331   8.194 -0.7963  0.6085 -0.6300
 3830SOL     OW23125   2.002   3.895  17.296 -0.3087  0.0891  0.0720
 3830SOL    HW123126   1.952   3.817  17.270  0.5094  0.8056 -3.5913
 3830SOL    HW223127   2.061   3.907  17.222 -0.8307  0.4733 -0.2777
 3831SOL     OW23128   1.840   4.636   6.316 -0.6331 -0.1979  0.1300
 3831SOL    HW123129   1.901   4.695   6.360 -1.6434  0.2326  0.9354
 3831SOL    HW223130   1.883   4.638   6.230  0.5883 -1.6349  0.7087
 3832SOL     OW23131   3.417   0.793   5.108 -0.0884  0.0278  0.3249
 3832SOL    HW123132   3.508   0.763   5.105 -0.2909 -0.4680 -0.6565
 3832SOL    HW223133   3.398   0.806   5.015  0.0266  0.3733  0.3515
 3833SOL     OW23134   0.713   2.490   3.912 -0.7296 -0.4152  0.3319
 3833SOL    HW123135   0.661   2.570   3.916 -0.2362  0.0599 -2.2511
 3833SOL    HW223136   0.701   2.455   4.000  1.8670 -0.5550  0.6188
 3834SOL     OW23137   4.254   2.450   3.604 -0.5108  0.2559 -0.1049
 3834SOL    HW123138   4.165   2.436   3.574 -0.4567  2.2986 -1.2437
 3834SOL    HW223139   4.244   2.401   3.686 -0.4429  0.4157  0.0016
 3835SOL     OW23140   3.609   0.341   6.356 -0.6278 -0.3426 -0.4071
 3835SOL    HW123141   3.644   0.431   6.353 -1.5276 -0.0243 -1.3457
 3835SOL    HW223142   3.665   0.304   6.287  2.2191  1.8982  0.7139
 3836SOL     OW23143   2.222   2.158   5.724 -0.1783 -0.2027 -0.0113
 3836SOL    HW123144   2.153   2.139   5.788 -0.9348  0.8263 -0.5096
 3836SOL    HW223145   2.299   2.120   5.766 -1.1416 -1.2543  0.8243
 3837SOL     OW23146   4.358   1.880  11.765 -0.3939  0.3207  0.3244
 3837SOL    HW123147   4.400   1.826  11.698  1.2055 -0.2176  1.7720
 3837SOL    HW223148   4.273   1.879  11.721  0.5856 -1.0608 -1.5286
 3838SOL     OW23149   2.136   3.326   8.176  0.2657 -0.1420  0.6068
 3838SOL    HW123150   2.199   3.263   8.141  0.5527  0.7746 -0.5472
 3838SOL    HW223151   2.171   3.340   8.264  0.2706  0.4553  0.5119
 3839SOL     OW23152   2.401   2.341   9.056 -0.3245  0.2353  0.1019
 3839SOL    HW123153   2.375   2.432   9.044 -3.6017 -0.8176 -0.7785
 3839SOL    HW223154   2.355   2.323   9.138 -0.6614 -0.4654 -0.2327
 3840SOL     OW23155   2.347   3.429   9.386  0.3558  0.1266  0.2462
 3840SOL    HW123156   2.263   3.403   9.422  0.3617 -1.0315 -0.5804
 3840SOL    HW223157   2.386   3.343   9.375  0.1679  0.3497 -2.1754
 3841SOL     OW23158   0.328   0.093  12.607 -0.3004  0.3342 -0.2042
 3841SOL    HW123159   0.269   0.125  12.538  0.6689 -0.1032 -1.2301
 3841SOL    HW223160   0.398   0.053  12.556 -0.0232 -0.3489  0.7071
 3842SOL     OW23161   3.751   2.509   6.787 -0.1356  0.1816  0.2653
 3842SOL    HW123162   3.705   2.425   6.787  1.2618 -0.5789  1.3212
 3842SOL    HW223163   3.702   2.574   6.836 -0.8943  0.4807 -0.8820
 3843SOL     OW23164   2.338   3.566   6.785 -0.1597  0.4087 -0.1749
 3843SOL    HW123165   2.270   3.581   6.720  1.6247 -0.1516 -2.1801
 3843SOL    HW223166   2.394   3.643   6.770  0.0565 -0.6319 -4.6414
 3844SOL     OW23167   0.495   2.816   4.460 -0.2779  1.1338 -0.4589
 3844SOL    HW123168   0.513   2.829   4.367  0.7984  0.8181 -0.2972
 3844SOL    HW223169   0.434   2.883   4.489  0.0738  0.8398  0.9769
 3845SOL     OW23170   2.033   2.395   9.308  0.2803  0.1380  0.5514
 3845SOL    HW123171   2.047   2.427   9.220  0.6506  0.2618  0.6580
 3845SOL    HW223172   2.115   2.413   9.353 -0.4563 -0.3108  2.1038
 3846SOL     OW23173   2.622   3.165   8.825  0.0192  0.1020  0.7638
 3846SOL    HW123174   2.602   3.122   8.741  1.4716  0.0673  0.4345
 3846SOL    HW223175   2.590   3.254   8.811 -0.7292 -0.3276 -0.2336
 3847SOL     OW23176   2.475   1.763   5.926  0.1390 -0.2752  0.1337
 3847SOL    HW123177   2.422   1.777   6.004 -1.8791 -1.2282 -1.0444
 3847SOL    HW223178   2.408   1.796   5.866  1.8482  0.4286 -1.3769
 3848SOL     OW23179   0.918   4.514   1.194  0.0842  0.0653 -0.7751
 3848SOL    HW123180   0.847   4.534   1.132 -0.0529 -0.9377 -0.9390
 3848SOL    HW223181   0.904   4.420   1.184 -1.6047  0.1701  0.6835
 3849SOL     OW23182   1.409   2.932   3.576 -0.1005  0.2995 -0.2912
 3849SOL    HW123183   1.468   2.983   3.520 -0.6906 -0.5674 -1.7177
 3849SOL    HW223184   1.445   2.848   3.604 -1.1783  0.4604  1.5394
 3850SOL     OW23185   0.644   1.511  13.905  0.1661  0.1012  0.3006
 3850SOL    HW123186   0.604   1.582  13.954 -0.4873  0.0678 -0.1847
 3850SOL    HW223187   0.698   1.466  13.970  2.6749 -0.3712 -2.0823
 3851SOL     OW23188   4.150   3.106   4.342  0.5375 -0.4391  0.1948
 3851SOL    HW123189   4.222   3.066   4.390  1.3999 -0.5506 -1.1786
 3851SOL    HW223190   4.085   3.109   4.411 -1.5652  0.7231 -1.8472
 3852SOL     OW23191   3.206   3.514   0.060  0.0413  0.1562  0.1369
 3852SOL    HW123192   3.233   3.438   0.007 -0.7725  1.2128 -1.7733
 3852SOL    HW223193   3.147   3.464   0.115  0.6729 -0.1995  0.4972
 3853SOL     OW23194   0.232   2.728   1.701 -0.1163 -0.2275 -0.4769
 3853SOL    HW123195   0.268   2.754   1.786  0.3409 -2.1318 -0.0928
 3853SOL    HW223196   0.159   2.789   1.691 -0.5058 -0.8533 -1.5193
 3854SOL     OW23197   0.006   4.221   3.049 -0.3013  0.2877 -0.2542
 3854SOL    HW123198   0.068   4.170   3.102 -1.1462 -3.1737 -2.5708
 3854SOL    HW223199   0.056   4.240   2.970 -0.4057  0.4556 -0.2796
 3855SOL     OW23200   2.555   0.167   4.341  0.0262  0.1007  0.1175
 3855SOL    HW123201   2.519   0.104   4.279  1.5692 -0.3473 -0.3117
 3855SOL    HW223202   2.483   0.143   4.399 -0.0595  1.1588  0.4435
 3856SOL     OW23203   4.051   1.479   7.876 -0.9147  0.2237  0.0944
 3856SOL    HW123204   4.030   1.410   7.813 -0.2788 -0.7061  0.9009
 3856SOL    HW223205   3.968   1.526   7.880 -0.5577  0.8131  0.7309
 3857SOL     OW23206   3.292   0.896   3.449 -0.1972  0.7572  0.2430
 3857SOL    HW123207   3.206   0.894   3.407  1.0725  0.8656 -2.4033
 3857SOL    HW223208   3.329   0.810   3.428  0.7587  1.3820 -0.6716
 3858SOL     OW23209   3.576   2.757   0.565 -0.4568 -0.1441  0.2773
 3858SOL    HW123210   3.553   2.810   0.642 -1.6658  1.0672 -0.9174
 3858SOL    HW223211   3.510   2.688   0.569  0.6042 -1.3207 -2.6536
 3859SOL     OW23212   1.575   2.958  17.049  0.0689  0.5830  0.3929
 3859SOL    HW123213   1.617   3.043  17.059  1.9234 -0.2406 -0.1470
 3859SOL    HW223214   1.486   2.985  17.027  0.0971  0.7020  0.4311
 3860SOL     OW23215   4.235   0.909   9.430 -0.7095 -0.2932  0.1129
 3860SOL    HW123216   4.311   0.967   9.429 -2.3057  1.8238  0.5707
 3860SOL    HW223217   4.164   0.966   9.461 -0.2896  0.1264  0.3118
 3861SOL     OW23218   1.361   4.721   4.625  0.2639 -0.4164  0.1678
 3861SOL    HW123219   1.422   0.058   4.616 -1.9848  1.2755 -1.3363
 3861SOL    HW223220   1.378   4.706   4.718  1.1338  0.1973  0.1041
 3862SOL     OW23221   1.530   0.818   2.022 -0.2041 -0.1906  0.3416
 3862SOL    HW123222   1.607   0.787   2.070  2.2449  3.4305 -1.2312
 3862SOL    HW223223   1.458   0.783   2.074  1.3167 -2.8483  0.6762
 3863SOL     OW23224   0.365   0.602   1.894  0.5374  0.3755  0.0557
 3863SOL    HW123225   0.407   0.596   1.980 -2.4897  0.5635  1.5689
 3863SOL    HW223226   0.399   0.685   1.862  0.0056  0.9122  0.8868
 3864SOL     OW23227   4.512   2.408   3.478 -0.3088 -0.0897  1.0022
 3864SOL    HW123228   4.420   2.419   3.499 -0.2551 -0.2140  1.3039
 3864SOL    HW223229   4.542   2.499   3.480  2.3673 -0.9366  0.1525
 3865SOL     OW23230   0.674   3.969   7.802  0.1447  0.3753  0.0032
 3865SOL    HW123231   0.707   3.978   7.712 -0.9729 -0.4879 -0.4928
 3865SOL    HW223232   0.593   3.920   7.792  1.4035 -1.6676 -0.1660
 3866SOL     OW23233   0.775   1.471   6.922 -0.4791 -0.0864  0.3060
 3866SOL    HW123234   0.737   1.409   6.858  1.8437 -0.9480 -0.2211
 3866SOL    HW223235   0.834   1.520   6.866  0.2200 -0.0710  1.0605
 3867SOL     OW23236   0.303   1.807   5.438 -0.3924 -0.0223  0.4559
 3867SOL    HW123237   0.313   1.891   5.394  0.6204 -0.3501  0.0674
 3867SOL    HW223238   0.271   1.750   5.368 -0.3298  1.6950 -0.9668
 3868SOL     OW23239   2.724   3.078  11.545  0.3951  0.0544 -0.3629
 3868SOL    HW123240   2.688   3.157  11.584  3.3316  1.8010 -1.2764
 3868SOL    HW223241   2.800   3.067  11.601  1.8938 -2.4077 -2.8544
 3869SOL     OW23242   0.463   2.347   7.177 -0.3201  0.2286 -0.3061
 3869SOL    HW123243   0.455   2.319   7.268 -0.6050 -0.3289 -0.4992
 3869SOL    HW223244   0.371   2.371   7.167 -0.3128  0.3151 -0.1625
 3870SOL     OW23245   4.301   3.654  16.967 -0.2545  0.0300 -0.7207
 3870SOL    HW123246   4.313   3.559  16.956  1.7022  0.2413 -0.4069
 3870SOL    HW223247   4.235   3.668  17.036 -0.7034 -0.9734 -0.9422
 3871SOL     OW23248   4.719   2.340   1.947  0.0219  0.0734  0.2501
 3871SOL    HW123249   4.658   2.330   2.020  0.9890 -0.7410  0.9529
 3871SOL    HW223250   4.722   2.248   1.921 -1.8133 -0.4299  1.8294
 3872SOL     OW23251   3.551   3.628   6.503  0.0092 -0.2562 -0.0674
 3872SOL    HW123252   3.623   3.565   6.501  1.0692  0.9313  1.2003
 3872SOL    HW223253   3.596   3.701   6.545 -0.5789 -0.4653  0.9234
 3873SOL     OW23254   2.252   3.785   6.361 -0.1763  0.6075 -0.3621
 3873SOL    HW123255   2.158   3.775   6.374 -0.3721  1.0267 -1.4690
 3873SOL    HW223256   2.282   3.696   6.345  0.4747  0.5270  1.3300
 3874SOL     OW23257   0.851   3.872   0.422 -0.3096  0.0384  0.2760
 3874SOL    HW123258   0.913   3.846   0.354 -0.8264  0.0602 -0.2035
 3874SOL    HW223259   0.903   3.858   0.501 -1.3638  1.4511  1.2298
 3875SOL     OW23260   0.170   3.434   5.046  0.7206  0.2250 -0.3606
 3875SOL    HW123261   0.112   3.465   4.976  0.2687 -0.5288 -0.3309
 3875SOL    HW223262   0.102   3.385   5.093 -0.0100  1.3508 -0.2446
 3876SOL     OW23263   2.595   0.951   9.825  0.1782  0.0958  0.1168
 3876SOL    HW123264   2.613   1.029   9.774 -0.0910 -0.0389 -0.1839
 3876SOL    HW223265   2.582   0.886   9.756 -0.8241 -0.8805  1.2023
 3877SOL     OW23266   0.266   2.881   2.228 -0.1889  0.5734 -0.2126
 3877SOL    HW123267   0.200   2.950   2.234  0.6271  1.0473  3.2483
 3877SOL    HW223268   0.214   2.810   2.192 -0.3695  1.2967 -1.3946
 3878SOL     OW23269   2.600   0.971  16.484  0.5294 -0.4005  0.2997
 3878SOL    HW123270   2.545   1.046  16.507 -1.4786 -1.3672 -1.3670
 3878SOL    HW223271   2.610   0.936  16.572 -2.5732 -1.4308  0.2281
 3879SOL     OW23272   0.088   3.889   4.048 -0.5977  0.3283 -0.3779
 3879SOL    HW123273   0.024   3.821   4.026 -0.4458 -0.0157  0.2481
 3879SOL    HW223274   0.141   3.887   3.969 -2.1550  1.3644 -1.4408
 3880SOL     OW23275   3.821   1.963   9.868  0.1161  0.4252  0.1687
 3880SOL    HW123276   3.783   1.880   9.839  0.8354  0.7142 -1.6007
 3880SOL    HW223277   3.902   1.935   9.910 -0.0021 -1.5758 -0.9283
 3881SOL     OW23278   1.061   0.094   4.880 -0.1488 -0.1384 -0.3692
 3881SOL    HW123279   1.075   4.736   4.870 -0.3731  0.0003 -1.9718
 3881SOL    HW223280   0.994   0.091   4.948  1.0299  1.4135  0.8583
 3882SOL     OW23281   1.912   2.347  17.285  0.1038 -0.2375 -0.1865
 3882SOL    HW123282   1.893   2.272  17.230  1.4076 -0.5659 -0.1821
 3882SOL    HW223283   1.859   2.422  17.256 -1.3624 -1.1367  0.1828
 3883SOL     OW23284   1.879   2.589   9.477  0.3564  0.3558  0.3016
 3883SOL    HW123285   1.914   2.510   9.437  0.6728  0.6579 -0.0259
 3883SOL    HW223286   1.807   2.561   9.534  0.8674 -0.4813  0.5345
 3884SOL     OW23287   3.361   4.305  15.425  0.1491  0.5921 -0.4333
 3884SOL    HW123288   3.337   4.377  15.366  2.6775  1.1877 -0.7424
 3884SOL    HW223289   3.300   4.239  15.391  1.8964 -0.9143 -0.6264
 3885SOL     OW23290   3.952   3.440   1.997  0.5446  0.0419 -0.3836
 3885SOL    HW123291   3.919   3.454   2.085 -1.0453  1.2406 -1.1596
 3885SOL    HW223292   4.029   3.386   2.011 -0.0567 -0.8360 -0.4430
 3886SOL     OW23293   1.520   1.243   8.241 -0.9803 -0.1382  0.4273
 3886SOL    HW123294   1.532   1.178   8.310 -0.9009  0.2860  0.8090
 3886SOL    HW223295   1.607   1.258   8.203 -0.8329 -0.0498  0.7986
 3887SOL     OW23296   3.759   1.047  14.763  0.4363 -0.0700 -0.0602
 3887SOL    HW123297   3.743   1.046  14.857  0.2313  1.4935 -0.0681
 3887SOL    HW223298   3.834   0.991  14.745  0.5834 -0.1553  0.8705
 3888SOL     OW23299   3.481   3.321   1.744 -0.5034  0.6935  0.2669
 3888SOL    HW123300   3.565   3.291   1.777 -0.5373  1.0819  0.7024
 3888SOL    HW223301   3.439   3.363   1.819 -2.5890 -0.9204  0.0011
 3889SOL     OW23302   0.649   4.446   5.843 -0.5176  0.1956 -0.7116
 3889SOL    HW123303   0.567   4.493   5.860 -0.7184 -0.5582  0.3785
 3889SOL    HW223304   0.608   4.360   5.834 -0.2137  0.1765 -1.9376
 3890SOL     OW23305   3.416   1.761   8.023  0.0767 -0.4073  0.2207
 3890SOL    HW123306   3.478   1.790   7.956 -0.5876  0.7427  0.1001
 3890SOL    HW223307   3.332   1.772   7.978 -1.5334 -1.7583  2.8896
 3891SOL     OW23308   1.401   1.154   3.450  0.2868 -0.2951  0.5305
 3891SOL    HW123309   1.395   1.103   3.369 -2.1896  1.2623 -0.2331
 3891SOL    HW223310   1.317   1.198   3.441  0.6007 -0.1338 -1.6304
 3892SOL     OW23311   0.990   3.070   3.108  0.1418  0.2303 -0.2632
 3892SOL    HW123312   0.946   3.007   3.165  1.4711 -0.5649 -0.1349
 3892SOL    HW223313   1.002   3.009   3.036  1.2962 -0.8222  0.8051
 3893SOL     OW23314   3.653   0.139   4.704  0.2695  0.0349 -0.3365
 3893SOL    HW123315   3.744   0.108   4.704 -0.1249 -1.1469 -1.1474
 3893SOL    HW223316   3.661   0.213   4.644 -1.9775  1.0873  0.6858
 3894SOL     OW23317   1.464   1.270   6.867 -0.1586 -0.6925 -0.3205
 3894SOL    HW123318   1.421   1.298   6.787 -2.7225 -1.0658  0.9200
 3894SOL    HW223319   1.388   1.248   6.922 -0.3875  0.1898 -0.2845
 3895SOL     OW23320   2.807   3.314   9.862  0.1180  0.5108  0.6294
 3895SOL    HW123321   2.800   3.243   9.926 -0.1698 -1.0866 -1.1619
 3895SOL    HW223322   2.839   3.260   9.789  1.4453  2.6525 -0.3601
 3896SOL     OW23323   3.499   0.080   4.033 -0.7386  0.0740 -0.3413
 3896SOL    HW123324   3.511   0.164   3.989  1.2127  0.5107  1.0212
 3896SOL    HW223325   3.502   0.117   4.121 -2.6231 -0.7460  0.0684
 3897SOL     OW23326   2.229   1.690   5.242  0.3799  0.3098 -0.0646
 3897SOL    HW123327   2.185   1.762   5.198 -0.6057  0.7334  1.6092
 3897SOL    HW223328   2.191   1.712   5.327 -0.6662 -0.5047 -0.3204
 3898SOL     OW23329   4.510   1.475   1.890  0.1439  0.3981  0.0588
 3898SOL    HW123330   4.480   1.396   1.934 -3.5865  1.4889 -0.5326
 3898SOL    HW223331   4.590   1.439   1.850  0.3262 -0.9860  1.6883
 3899SOL     OW23332   4.096   1.751  10.649 -0.3895  0.3629  0.0129
 3899SOL    HW123333   4.124   1.721  10.736 -0.7289  0.1219  0.0382
 3899SOL    HW223334   4.045   1.676  10.619 -1.3079  1.1650 -0.4152
 3900SOL     OW23335   1.940   1.504   2.490 -0.1851  0.4741  0.7674
 3900SOL    HW123336   2.008   1.539   2.433  0.0361  0.3100  0.9281
 3900SOL    HW223337   1.941   1.581   2.547  0.1936 -0.0504  1.4597
 3901SOL     OW23338   1.419   2.539   8.332  0.3792  0.0017 -0.0097
 3901SOL    HW123339   1.391   2.473   8.270 -0.0262  1.6833 -1.6095
 3901SOL    HW223340   1.345   2.535   8.393  0.0747  2.6087 -0.1990
 3902SOL     OW23341   1.032   3.494   6.538  0.1598 -0.2888  0.0246
 3902SOL    HW123342   1.072   3.531   6.616  0.5467  0.3346 -0.4784
 3902SOL    HW223343   1.104   3.485   6.476  0.7770  1.7448  0.4680
 3903SOL     OW23344   1.580   3.305   2.001  0.2141  0.2535  0.0037
 3903SOL    HW123345   1.646   3.239   2.022 -2.4013 -1.9691  1.2302
 3903SOL    HW223346   1.566   3.292   1.907  0.9227  2.2038 -0.3599
 3904SOL     OW23347   2.680   1.661   5.441 -0.4995 -0.0222  0.0584
 3904SOL    HW123348   2.600   1.699   5.476 -0.2006  1.2176 -0.6252
 3904SOL    HW223349   2.649   1.577   5.407 -2.9799  0.4646  1.1194
 3905SOL     OW23350   3.038   3.592   8.431 -0.1991  0.5546 -0.0239
 3905SOL    HW123351   3.130   3.606   8.453  0.0003  0.7472 -0.9565
 3905SOL    HW223352   3.031   3.502   8.461 -1.4183  0.5345 -0.3882
 3906SOL     OW23353   1.430   4.179   5.156  0.2198  0.5787  0.5837
 3906SOL    HW123354   1.464   4.238   5.223  1.5905 -1.3458  1.5841
 3906SOL    HW223355   1.508   4.193   5.102 -1.3784  1.4388 -1.5075
 3907SOL     OW23356   0.075   2.014   1.828  0.0332  0.2989  0.5812
 3907SOL    HW123357   4.727   1.979   1.802  0.5695 -1.1581  0.7559
 3907SOL    HW223358   0.109   1.941   1.880  1.4630  0.4026 -0.2132
 3908SOL     OW23359   2.652   3.984   9.268  0.2444 -0.6835  0.0228
 3908SOL    HW123360   2.577   4.032   9.302  0.4615  1.0851 -1.9840
 3908SOL    HW223361   2.612   3.952   9.187  1.1730  1.0370 -1.1083
 3909SOL     OW23362   1.460   0.688  16.827  0.2031 -0.1124  0.4313
 3909SOL    HW123363   1.528   0.748  16.856 -0.6918  1.4609 -0.7498
 3909SOL    HW223364   1.491   0.663  16.740 -2.2842  1.3128 -0.8661
 3910SOL     OW23365   0.259   1.250   5.287  0.4678  0.3548  0.4443
 3910SOL    HW123366   0.247   1.213   5.375  0.4267 -1.0009 -0.1385
 3910SOL    HW223367   0.227   1.182   5.228 -1.4602  1.3751  0.3304
 3911SOL     OW23368   1.794   1.709  13.152 -0.0946 -0.3764  0.4275
 3911SOL    HW123369   1.738   1.696  13.229 -0.4330 -2.5583 -0.1915
 3911SOL    HW223370   1.745   1.647  13.097  0.2889  0.2006 -0.5610
 3912SOL     OW23371   1.115   2.424   7.676 -0.4230 -0.8270 -0.2755
 3912SOL    HW123372   1.123   2.490   7.745  1.8791 -0.0970 -1.2485
 3912SOL    HW223373   1.023   2.423   7.648 -0.8831 -2.2106  1.2294
 3913SOL     OW23374   3.314   1.768  16.249 -0.1240  0.4004 -0.4240
 3913SOL    HW123375   3.293   1.752  16.157 -0.4849 -0.4349 -0.1900
 3913SOL    HW223376   3.247   1.718  16.296  1.0248 -0.3185  0.4475
 3914SOL     OW23377   2.543   0.742   2.632  0.5138  0.0718 -0.3484
 3914SOL    HW123378   2.471   0.772   2.578  0.1621  2.3638  1.3880
 3914SOL    HW223379   2.605   0.813   2.615  1.0457 -0.5062 -0.8396
 3915SOL     OW23380   1.331   0.045   3.526 -0.3607 -0.4035  0.7347
 3915SOL    HW123381   1.308   0.126   3.572 -1.1590  1.1222 -2.3813
 3915SOL    HW223382   1.270   0.055   3.453 -0.4242  0.2292  0.8773
 3916SOL     OW23383   0.831   0.502   6.695  0.2166 -0.3317 -0.0768
 3916SOL    HW123384   0.920   0.516   6.726  0.2031  0.0951 -0.2254
 3916SOL    HW223385   0.791   0.516   6.782  1.8849 -0.3881  0.6984
 3917SOL     OW23386   2.561   2.728   4.441 -0.2481 -0.0873  0.3020
 3917SOL    HW123387   2.648   2.733   4.480  0.1505  1.8214 -0.8284
 3917SOL    HW223388   2.501   2.687   4.504 -1.6785 -1.1397 -1.7387
 3918SOL     OW23389   3.438   1.597   6.949  0.0117  0.7972 -0.5439
 3918SOL    HW123390   3.431   1.502   6.948 -0.8640  0.8610 -0.3789
 3918SOL    HW223391   3.511   1.603   7.010  1.2423  1.9121 -2.0945
 3919SOL     OW23392   0.203   0.327   7.726 -0.6020 -0.1468 -0.6725
 3919SOL    HW123393   0.145   0.315   7.801 -2.1172 -1.4089 -2.0381
 3919SOL    HW223394   0.290   0.325   7.765 -0.5783  0.2381 -0.7070
 3920SOL     OW23395   2.004   2.128   1.919 -0.2884 -0.0903 -0.0136
 3920SOL    HW123396   2.040   2.067   1.983  1.3816  0.5222 -0.3798
 3920SOL    HW223397   1.945   2.172   1.980  2.1227  0.9235  1.5913
 3921SOL     OW23398   4.633   3.265   8.446  0.1436  0.4759 -0.2625
 3921SOL    HW123399   4.586   3.205   8.389  0.4159 -0.0320  0.0533
 3921SOL    HW223400   4.598   3.228   8.527 -1.3161  0.2090 -1.0157
 3922SOL     OW23401   1.402   4.106   0.382  0.2416 -0.0975  0.0201
 3922SOL    HW123402   1.481   4.159   0.393 -1.8643  2.9319  0.8077
 3922SOL    HW223403   1.406   4.049   0.459  2.0773 -1.8115 -1.3639
 3923SOL     OW23404   2.803   0.241   3.324  0.2354  0.2873  0.3504
 3923SOL    HW123405   2.885   0.252   3.277  0.5597 -0.6477  0.7022
 3923SOL    HW223406   2.811   0.149   3.346 -0.0416  0.5738  1.6499
 3924SOL     OW23407   1.757   0.361   4.240  0.2813  0.3946  0.1238
 3924SOL    HW123408   1.673   0.343   4.280 -0.7733 -0.5211 -2.4990
 3924SOL    HW223409   1.823   0.366   4.309  0.4030 -0.6941  0.0824
 3925SOL     OW23410   4.405   4.366   8.108  0.5488 -0.0041  0.7275
 3925SOL    HW123411   4.444   4.315   8.179 -3.5389 -1.3399  2.0195
 3925SOL    HW223412   4.312   4.349   8.116  0.4332 -0.2360 -1.1679
 3926SOL     OW23413   0.128   0.289   1.023 -0.0970 -0.2104  0.0281
 3926SOL    HW123414   0.085   0.350   0.963 -1.7220  1.0674  2.5130
 3926SOL    HW223415   0.088   0.324   1.102 -1.9766  0.3776 -1.1924
 3927SOL     OW23416   4.339   1.988   7.922 -0.3666  0.5545  0.0978
 3927SOL    HW123417   4.419   1.935   7.926 -0.5961  0.1695 -0.3174
 3927SOL    HW223418   4.313   1.979   8.013  0.7471  1.4221  0.4901
 3928SOL     OW23419   4.494   1.437   9.567 -0.2683  0.1910  0.2811
 3928SOL    HW123420   4.475   1.379   9.640 -0.6266  0.4084  0.3601
 3928SOL    HW223421   4.518   1.517   9.614  1.4125  0.4207 -0.9996
 3929SOL     OW23422   4.692   1.949   5.375 -0.0093  0.8784 -0.3438
 3929SOL    HW123423   4.731   1.875   5.328 -0.4217 -1.0564  2.3755
 3929SOL    HW223424   4.605   1.911   5.388 -0.0388  0.1274 -2.8123
 3930SOL     OW23425   1.718   1.604   1.636 -0.0951 -0.4434 -0.1125
 3930SOL    HW123426   1.709   1.690   1.675 -1.0996 -0.7313  0.2909
 3930SOL    HW223427   1.689   1.628   1.548  0.4466  2.9784  0.6583
 3931SOL     OW23428   1.191   3.250  11.751  0.4012  0.8345  0.0573
 3931SOL    HW123429   1.098   3.246  11.732 -0.0167 -0.0550  2.2351
 3931SOL    HW223430   1.228   3.311  11.688  0.9332  1.1239  0.6526
 3932SOL     OW23431   2.447   0.528   2.077 -0.3273 -0.3329  0.5765
 3932SOL    HW123432   2.354   0.535   2.102 -0.3762  0.5467  0.1430
 3932SOL    HW223433   2.463   0.437   2.051 -0.7942 -0.0071 -0.8655
 3933SOL     OW23434   0.829   2.224  10.516  0.9458  0.4703 -0.5276
 3933SOL    HW123435   0.896   2.170  10.557 -0.8777 -0.3625  1.3584
 3933SOL    HW223436   0.761   2.203  10.580  2.0222  1.3334  0.9070
 3934SOL     OW23437   2.700   3.454   1.132 -1.1578  0.0017 -0.3551
 3934SOL    HW123438   2.722   3.399   1.057 -0.8985 -0.7833  0.2993
 3934SOL    HW223439   2.783   3.500   1.144  0.0293 -2.4069  0.5160
 3935SOL     OW23440   2.074   2.051   2.649  0.1444 -0.0311  0.3016
 3935SOL    HW123441   2.117   1.989   2.707  1.2323  0.2828 -0.1696
 3935SOL    HW223442   2.009   2.083   2.712 -0.1520 -0.3567  0.1598
 3936SOL     OW23443   2.067   0.738  16.273 -0.7005  0.1050  0.5375
 3936SOL    HW123444   2.020   0.743  16.356  0.2461  2.4830  0.9427
 3936SOL    HW223445   2.072   0.643  16.263  2.9777  0.2392  0.8467
 3937SOL     OW23446   2.783   3.862   4.344 -0.3213 -0.1251  0.6868
 3937SOL    HW123447   2.833   3.794   4.298  1.8225  1.5070  0.6110
 3937SOL    HW223448   2.801   3.836   4.434  3.0492 -0.2609  0.0005
 3938SOL     OW23449   1.873   0.592   3.572 -0.3132  0.0981 -0.0215
 3938SOL    HW123450   1.787   0.579   3.613 -0.2071 -1.9089 -0.4069
 3938SOL    HW223451   1.918   0.516   3.609  1.1002  0.5844 -0.7580
 3939SOL     OW23452   3.070   4.185   5.398 -0.2551  0.0142  0.2660
 3939SOL    HW123453   2.983   4.149   5.381  0.0813 -0.3613 -0.6604
 3939SOL    HW223454   3.091   4.248   5.328 -0.1011  0.4701  0.7204
 3940SOL     OW23455   2.657   0.880   3.726  0.0064  0.3658 -0.3323
 3940SOL    HW123456   2.580   0.901   3.673 -0.6521 -2.0459 -0.3538
 3940SOL    HW223457   2.660   0.784   3.717 -0.1479  0.2293  0.9819
 3941SOL     OW23458   3.201   1.544   4.609  0.1282  0.7086 -0.1255
 3941SOL    HW123459   3.295   1.561   4.601  0.3333 -0.8241 -1.0332
 3941SOL    HW223460   3.198   1.474   4.674 -1.7413  0.4632 -0.4810
 3942SOL     OW23461   0.971   4.634   0.420  0.3646 -0.0481 -0.1923
 3942SOL    HW123462   0.994   4.541   0.419 -0.8148 -0.3696  1.4872
 3942SOL    HW223463   0.920   4.641   0.339 -2.2268 -0.6191  1.3588
 3943SOL     OW23464   2.732   2.596   7.223 -0.1599 -0.2885 -0.3175
 3943SOL    HW123465   2.654   2.541   7.235 -0.8643  0.3562 -1.9670
 3943SOL    HW223466   2.694   2.680   7.246  1.9260  0.3262  0.8707
 3944SOL     OW23467   2.842   3.789   5.973 -0.1361 -0.1694 -0.3320
 3944SOL    HW123468   2.850   3.701   5.935 -0.1685 -0.2999 -0.0392
 3944SOL    HW223469   2.819   3.836   5.893 -1.6825  0.2441  0.3476
 3945SOL     OW23470   4.107   3.646   2.225  0.5157  0.5300  0.1526
 3945SOL    HW123471   4.101   3.742   2.230 -0.6218  0.5500 -1.5136
 3945SOL    HW223472   4.037   3.608   2.278  0.1462  2.2451  0.9082
 3946SOL     OW23473   3.743   3.048   3.208 -0.1344  0.1377 -0.7905
 3946SOL    HW123474   3.676   3.053   3.140 -0.3322 -1.0728 -0.6858
 3946SOL    HW223475   3.784   2.963   3.192  0.4097  0.6892 -2.2607
 3947SOL     OW23476   1.172   3.287   7.340  0.5207 -0.6086  0.0521
 3947SOL    HW123477   1.086   3.328   7.343  0.9564  0.3396 -0.5455
 3947SOL    HW223478   1.194   3.320   7.253  0.6730  0.8631  0.6603
 3948SOL     OW23479   2.487   0.069   6.075  0.1209  0.0947 -0.0395
 3948SOL    HW123480   2.576   0.035   6.072  0.9050  2.2023 -0.2373
 3948SOL    HW223481   2.489   0.117   6.157  0.4301  0.2281 -0.1263
 3949SOL     OW23482   0.321   0.337   7.330  0.3939 -0.2449  0.2264
 3949SOL    HW123483   0.331   0.360   7.423 -1.1024 -0.8374  0.5353
 3949SOL    HW223484   0.412   0.312   7.318  0.0216 -0.2765 -2.4389
 3950SOL     OW23485   2.089   0.443   5.432 -0.6121 -0.3161  0.3433
 3950SOL    HW123486   2.034   0.371   5.400  0.1465 -0.6980 -0.0977
 3950SOL    HW223487   2.045   0.508   5.377 -1.8655  0.3048  2.0822
 3951SOL     OW23488   2.364   2.480   7.055  0.0142 -0.4840 -0.4241
 3951SOL    HW123489   2.272   2.506   7.048  0.2375 -0.2332 -2.4500
 3951SOL    HW223490   2.371   2.404   6.998  2.3429 -0.0658 -0.7177
 3952SOL     OW23491   2.919   2.727   0.618  0.7005  0.1372 -0.9631
 3952SOL    HW123492   2.940   2.820   0.621 -0.2688  0.3640 -1.1769
 3952SOL    HW223493   2.823   2.727   0.621  0.7402 -1.9109  0.5821
 3953SOL     OW23494   2.729   2.755   2.580 -0.5896  0.3460 -0.2851
 3953SOL    HW123495   2.807   2.757   2.524 -0.6135  2.3499 -0.2492
 3953SOL    HW223496   2.689   2.829   2.534  0.7993  0.3669 -1.4869
 3954SOL     OW23497   0.679   1.858   9.866 -0.1326 -0.0207 -0.0249
 3954SOL    HW123498   0.726   1.790   9.914  1.5226 -0.2145 -1.8650
 3954SOL    HW223499   0.591   1.823   9.879 -0.4051  1.9751  3.3338
 3955SOL     OW23500   0.675   3.092  12.635 -0.5367 -0.5652 -0.0404
 3955SOL    HW123501   0.581   3.108  12.621 -0.5942  0.1973  1.2691
 3955SOL    HW223502   0.708   3.130  12.554  1.5603 -1.8652  0.2084
 3956SOL     OW23503   3.101   2.062   7.385 -0.2329 -0.0782 -0.6447
 3956SOL    HW123504   3.062   2.045   7.470 -0.5521  1.1749 -0.5411
 3956SOL    HW223505   3.030   2.108   7.341 -1.8201  0.1057  2.1608
 3957SOL     OW23506   0.340   3.844   3.320  0.0534 -0.2259  0.0624
 3957SOL    HW123507   0.325   3.893   3.239  3.0514 -0.8527 -0.8730
 3957SOL    HW223508   0.397   3.901   3.372  2.5315  0.9370 -3.9173
 3958SOL     OW23509   3.554   0.722   2.651  0.3753  0.2391  0.2472
 3958SOL    HW123510   3.640   0.704   2.613  0.1018  0.1170 -0.3236
 3958SOL    HW223511   3.576   0.743   2.742 -0.3448 -1.4876  0.8065
 3959SOL     OW23512   0.894   4.492  10.806  0.1421  0.1178 -0.1243
 3959SOL    HW123513   0.926   4.402  10.804 -0.9741 -0.2205 -2.8094
 3959SOL    HW223514   0.966   4.542  10.843  0.3270 -1.9913  2.3240
 3960SOL     OW23515   4.078   4.624   0.865 -0.4227  0.1823 -0.0604
 3960SOL    HW123516   4.152   4.580   0.909  0.1760  0.3443 -0.9079
 3960SOL    HW223517   4.124   4.650   0.786 -0.7465 -1.5365 -0.8280
 3961SOL     OW23518   4.700   3.317  10.921  0.0231  0.2652  0.6051
 3961SOL    HW123519   4.651   3.399  10.927  0.0340  0.2272  1.1742
 3961SOL    HW223520   4.675   3.278  10.837  1.7572 -0.6980  0.5190
 3962SOL     OW23521   0.526   0.550  15.755 -0.6459 -0.4656 -0.2506
 3962SOL    HW123522   0.457   0.609  15.787 -0.9259 -1.7174  1.4388
 3962SOL    HW223523   0.586   0.558  15.829 -0.5269  2.3083 -0.6308
 3963SOL     OW23524   3.889   1.668  14.899 -0.2411 -0.2697  0.2973
 3963SOL    HW123525   3.845   1.687  14.982  0.5085  2.5144  0.0717
 3963SOL    HW223526   3.959   1.611  14.928  3.5987  4.6600  0.6422
 3964SOL     OW23527   3.964   4.339   6.041  0.2436  0.8468 -0.3801
 3964SOL    HW123528   3.959   4.253   5.999 -1.4737  0.4754  0.5808
 3964SOL    HW223529   3.882   4.331   6.090 -0.2254  0.3851 -1.2475
 3965SOL     OW23530   1.310   0.268   4.831  0.1736  0.1240  0.1034
 3965SOL    HW123531   1.267   0.197   4.879 -0.0019 -0.0505 -0.3053
 3965SOL    HW223532   1.250   0.275   4.756 -1.3637 -0.1062  1.3180
 3966SOL     OW23533   0.787   0.500   0.198 -0.5444 -0.4639  0.2343
 3966SOL    HW123534   0.718   0.484   0.134 -0.6939  0.3474  0.1958
 3966SOL    HW223535   0.758   0.436   0.263  0.7371 -0.2449  1.0305
 3967SOL     OW23536   1.404   4.129  12.003  0.2414  0.3501  0.4164
 3967SOL    HW123537   1.397   4.038  11.973 -0.0801  0.3603  0.4619
 3967SOL    HW223538   1.323   4.141  12.052 -0.3486 -0.3462 -0.3742
 3968SOL     OW23539   0.405   1.361   3.749 -0.1172  0.3286  0.1206
 3968SOL    HW123540   0.377   1.423   3.817 -1.4968  0.5286 -0.6379
 3968SOL    HW223541   0.326   1.307   3.758  0.7590 -0.6081  2.2247
 3969SOL     OW23542   1.749   3.549   3.175  0.2585 -0.4127 -0.1257
 3969SOL    HW123543   1.825   3.493   3.188  1.8695  2.4963  2.9338
 3969SOL    HW223544   1.741   3.537   3.081  0.8610  0.3518 -0.2719
 3970SOL     OW23545   4.449   0.190   8.799 -0.9464  0.5269 -0.2712
 3970SOL    HW123546   4.396   0.187   8.719 -0.4041  0.5462 -0.6254
 3970SOL    HW223547   4.384   0.178   8.869 -1.3215 -0.8471 -0.8502
 3971SOL     OW23548   4.613   2.637  15.078 -0.1179 -0.0091  0.0644
 3971SOL    HW123549   4.538   2.694  15.063 -1.7312 -2.2226 -0.2147
 3971SOL    HW223550   4.632   2.655  15.170 -1.1603 -1.4918  0.5586
 3972SOL     OW23551   2.574   2.341   7.549 -0.1424 -0.3950 -0.1736
 3972SOL    HW123552   2.488   2.317   7.583  0.4400 -0.3635  1.3370
 3972SOL    HW223553   2.625   2.339   7.630  1.6503  0.2542 -1.2879
 3973SOL     OW23554   3.224   0.979   4.675 -0.0455  0.6343  0.3650
 3973SOL    HW123555   3.279   1.047   4.633  0.6661 -1.0167 -1.3863
 3973SOL    HW223556   3.225   0.915   4.604  0.1025  1.5335 -0.4609
 3974SOL     OW23557   3.676   1.328  13.544  0.5342 -0.0248  0.1561
 3974SOL    HW123558   3.701   1.355  13.632 -0.0096  0.8940  0.0355
 3974SOL    HW223559   3.664   1.416  13.509  0.6444 -0.4445 -0.9242
 3975SOL     OW23560   0.292   0.915   3.158  0.2301 -0.2134 -0.5616
 3975SOL    HW123561   0.269   0.879   3.244  0.9394  2.6974  0.8406
 3975SOL    HW223562   0.259   1.004   3.168  1.4423  0.2645 -0.8218
 3976SOL     OW23563   2.372   4.000   5.130  0.4629  0.1691  0.0204
 3976SOL    HW123564   2.318   3.922   5.125 -1.2080  1.3898 -0.8405
 3976SOL    HW223565   2.409   4.006   5.042  0.4770  1.6433  0.1200
 3977SOL     OW23566   1.995   3.383   3.434  0.4912 -0.0623 -0.3106
 3977SOL    HW123567   1.994   3.465   3.386  2.5112  0.5929  0.7959
 3977SOL    HW223568   2.052   3.324   3.385  0.7123 -1.0090  1.0899
 3978SOL     OW23569   1.125   0.283  13.594 -0.0652  0.2980 -0.4637
 3978SOL    HW123570   1.108   0.236  13.512 -0.8354  2.4524 -1.5585
 3978SOL    HW223571   1.176   0.361  13.571 -0.6214  0.5675 -0.7955
 3979SOL     OW23572   4.202   0.115   6.667  0.0975 -0.1171 -0.1666
 3979SOL    HW123573   4.200   0.186   6.603 -1.8003  0.1510  0.2155
 3979SOL    HW223574   4.281   0.068   6.637  1.4158  2.0721 -0.1194
 3980SOL     OW23575   0.467   0.168  13.116  0.5219 -0.3020  0.0185
 3980SOL    HW123576   0.500   0.081  13.094 -1.0740 -0.1125 -3.1606
 3980SOL    HW223577   0.541   0.223  13.092 -0.3668  1.1932  0.7083
 3981SOL     OW23578   0.534   2.450   8.968  0.2432  0.1492  0.1390
 3981SOL    HW123579   0.604   2.511   8.944  1.6706 -1.7133 -0.4177
 3981SOL    HW223580   0.557   2.419   9.056  0.2232 -1.3102 -0.3756
 3982SOL     OW23581   2.993   2.910   0.241 -0.1794  0.0970 -0.0247
 3982SOL    HW123582   2.960   2.820   0.232  0.2383 -0.1153  0.5332
 3982SOL    HW223583   2.942   2.953   0.173  0.0261  1.3741  0.6270
 3983SOL     OW23584   0.978   2.112  14.511  0.1149  0.0518 -0.4127
 3983SOL    HW123585   1.069   2.093  14.486  0.0327  1.5610 -1.8513
 3983SOL    HW223586   0.958   2.024  14.542  2.7927 -0.8729 -1.2341
 3984SOL     OW23587   1.650   0.484   4.019  0.0091 -0.0210 -0.6220
 3984SOL    HW123588   1.698   0.420   4.073 -0.7639  0.4956  0.6682
 3984SOL    HW223589   1.660   0.560   4.077 -2.0659 -0.8493  0.8133
 3985SOL     OW23590   3.388   1.782   2.553 -0.4947 -0.0712 -0.5771
 3985SOL    HW123591   3.299   1.764   2.584 -0.9693  3.2139 -0.0180
 3985SOL    HW223592   3.381   1.752   2.462  2.1991 -3.7733  0.4264
 3986SOL     OW23593   2.624   3.152  13.318  0.4269  0.0011 -0.2797
 3986SOL    HW123594   2.545   3.188  13.277  0.7897 -0.7913 -1.6443
 3986SOL    HW223595   2.668   3.230  13.351  1.9972 -1.3304  0.7789
 3987SOL     OW23596   4.362   3.818   1.900  0.1963 -0.0681  0.6935
 3987SOL    HW123597   4.398   3.753   1.960 -0.3400  1.4831  2.7378
 3987SOL    HW223598   4.439   3.855   1.857  0.4283 -1.3124  0.0435
 3988SOL     OW23599   3.359   1.909   8.980  0.3765  0.3159 -0.2348
 3988SOL    HW123600   3.323   1.871   9.061  2.3691 -1.6142 -0.2572
 3988SOL    HW223601   3.278   1.954   8.954 -0.5472 -0.6793  0.8741
 3989SOL     OW23602   3.701   4.656   4.442  0.0335  0.3219 -0.2298
 3989SOL    HW123603   3.633   4.647   4.375 -0.3074 -0.8575  0.2800
 3989SOL    HW223604   3.682   0.008   4.471 -2.4391  0.8426 -3.3863
 3990SOL     OW23605   3.255   3.006   0.251  0.0408  0.2838  0.3881
 3990SOL    HW123606   3.308   2.926   0.248 -0.5435 -0.1429  1.6022
 3990SOL    HW223607   3.167   2.968   0.247  0.4907 -0.6913 -0.3929
 3991SOL     OW23608   2.198   1.223   6.239 -0.0769 -0.7387 -0.5044
 3991SOL    HW123609   2.219   1.306   6.195 -3.3620  1.6453  2.4556
 3991SOL    HW223610   2.276   1.176   6.208  0.2264 -1.4608  1.3364
 3992SOL     OW23611   0.824   3.252   8.096  0.1366  0.2420 -0.0718
 3992SOL    HW123612   0.864   3.333   8.065  0.8767 -0.5083 -1.0490
 3992SOL    HW223613   0.734   3.285   8.091 -0.3847 -1.5108 -2.2939
 3993SOL     OW23614   0.242   2.780   5.642  0.1638 -0.3320  0.2618
 3993SOL    HW123615   0.240   2.871   5.672  0.9377 -0.8013  1.7121
 3993SOL    HW223616   0.152   2.771   5.610  1.0088  1.7308 -2.7705
 3994SOL     OW23617   0.528   2.366   8.061 -0.0171  0.1079  0.3123
 3994SOL    HW123618   0.488   2.284   8.031 -0.8561  1.1372 -1.3917
 3994SOL    HW223619   0.497   2.377   8.151  0.0890 -0.8429  0.4731
 3995SOL     OW23620   2.199   1.953   6.351  0.4222  0.3318 -0.1219
 3995SOL    HW123621   2.200   2.034   6.402  1.2491  0.3474 -0.1600
 3995SOL    HW223622   2.175   1.894   6.422  0.7778 -0.4328 -0.6412
 3996SOL     OW23623   3.312   0.070   3.624  0.0986 -0.1427 -0.3572
 3996SOL    HW123624   3.299   0.118   3.706 -0.0210 -0.9548  0.1022
 3996SOL    HW223625   3.400   0.033   3.627 -0.2655 -0.9594  0.2443
 3997SOL     OW23626   3.881   3.684   2.450 -0.7266 -0.3473  0.3187
 3997SOL    HW123627   3.809   3.734   2.488  1.3120  2.5629  0.3310
 3997SOL    HW223628   3.927   3.753   2.402 -1.7134  0.1624  0.0938
 3998SOL     OW23629   1.684   2.506   1.987  0.0678 -0.4240  0.2369
 3998SOL    HW123630   1.609   2.530   2.041  1.5705  1.5981  1.4621
 3998SOL    HW223631   1.747   2.577   2.003 -0.4750 -0.1933  1.3063
 3999SOL     OW23632   1.272   0.167   6.177  0.1297  0.6203 -0.1180
 3999SOL    HW123633   1.367   0.168   6.181  0.0434 -0.0384  1.8795
 3999SOL    HW223634   1.257   0.174   6.082  1.9004 -1.3250 -0.5470
 4000SOL     OW23635   3.777   0.897   8.876 -0.1636  0.4477  0.0041
 4000SOL    HW123636   3.690   0.881   8.913  0.3120 -1.0376  0.4855
 4000SOL    HW223637   3.808   0.974   8.922  0.5314  0.3918 -0.3749
 4001SOL     OW23638   2.212   3.255   2.169 -0.2203  0.0923  0.6854
 4001SOL    HW123639   2.155   3.318   2.213 -1.7503 -0.9412  0.1911
 4001SOL    HW223640   2.177   3.173   2.203 -0.2067  0.0141  0.5100
 4002SOL     OW23641   0.621   4.229  13.288 -0.4678  0.0264 -0.7686
 4002SOL    HW123642   0.549   4.179  13.248 -0.7522  0.2777 -0.5747
 4002SOL    HW223643   0.616   4.220  13.383 -0.3015 -0.5075 -0.8111
 4003SOL     OW23644   2.180   0.295  11.952 -0.2527 -0.1102  0.1153
 4003SOL    HW123645   2.249   0.338  12.002 -0.8628 -0.7331  1.4862
 4003SOL    HW223646   2.233   0.230  11.907 -0.5831 -0.5042  0.2937
 4004SOL     OW23647   4.411   1.396   6.004  0.0897 -0.1960  0.5612
 4004SOL    HW123648   4.398   1.364   5.915  1.6497  0.7236  0.0019
 4004SOL    HW223649   4.446   1.313   6.036 -0.9917 -1.3021 -1.1883
 4005SOL     OW23650   0.718   1.205   5.246  0.6656  0.1173  0.0660
 4005SOL    HW123651   0.667   1.283   5.268  1.5120  0.4465  0.8671
 4005SOL    HW223652   0.723   1.214   5.150  0.2886 -1.1793 -0.0684
 4006SOL     OW23653   4.410   2.885   7.034 -0.1958 -0.1180 -0.2577
 4006SOL    HW123654   4.411   2.981   7.035  2.8677 -0.1366 -2.6330
 4006SOL    HW223655   4.455   2.869   6.951 -1.0980 -1.4932 -0.4782
 4007SOL     OW23656   1.262   1.194   7.086 -0.4766 -0.3271  0.3105
 4007SOL    HW123657   1.215   1.187   7.169 -0.5512 -2.1991  0.1030
 4007SOL    HW223658   1.199   1.243   7.032  0.4920  2.5562  1.8168
 4008SOL     OW23659   2.845   3.984  11.421 -0.3833  0.0746 -0.2076
 4008SOL    HW123660   2.808   3.987  11.509  1.6125 -1.2234  0.6941
 4008SOL    HW223661   2.783   3.931  11.371 -1.7800  0.6496  0.9246
 4009SOL     OW23662   1.847   3.727   7.652  0.6355  0.0770 -0.2100
 4009SOL    HW123663   1.814   3.730   7.742 -0.3430 -0.7797 -0.5344
 4009SOL    HW223664   1.790   3.789   7.605 -0.3566  0.2894  1.2991
 4010SOL     OW23665   4.038   2.256   7.106  0.3739  0.1371 -0.5020
 4010SOL    HW123666   4.003   2.245   7.018 -0.9182 -0.8552  0.1249
 4010SOL    HW223667   4.127   2.283   7.083  1.1429 -1.2030  0.8824
 4011SOL     OW23668   2.805   1.049   4.369 -0.9958 -0.8149  0.4028
 4011SOL    HW123669   2.762   1.132   4.345 -1.3654 -0.6981  1.4626
 4011SOL    HW223670   2.733   0.988   4.353 -1.5775 -0.6587  2.4423
 4012SOL     OW23671   3.417   3.281  11.099  0.2314 -0.1285 -0.0877
 4012SOL    HW123672   3.481   3.269  11.029  1.7725  1.0336  1.1325
 4012SOL    HW223673   3.352   3.328  11.047  0.2020 -1.1383 -0.9557
 4013SOL     OW23674   1.331   1.041   5.186  0.2481  0.6548  0.2213
 4013SOL    HW123675   1.248   1.003   5.158  0.4832 -1.0887  1.8928
 4013SOL    HW223676   1.392   0.968   5.170 -0.1401  0.7018 -1.4953
 4014SOL     OW23677   1.208   0.162  11.656  0.4565  0.2448  0.0850
 4014SOL    HW123678   1.276   0.220  11.623  0.8535 -0.4836 -0.3863
 4014SOL    HW223679   1.215   0.081  11.605 -0.4370  0.3240 -0.1600
 4015SOL     OW23680   0.720   2.458   2.598  0.5022 -0.4231 -0.3532
 4015SOL    HW123681   0.687   2.425   2.514 -0.5601 -1.2818  0.4012
 4015SOL    HW223682   0.745   2.372   2.632  3.1008  0.7623  0.7061
 4016SOL     OW23683   1.196   4.648   9.474  0.3548  0.8639 -0.6683
 4016SOL    HW123684   1.279   4.602   9.491 -0.9538 -1.7404 -1.3109
 4016SOL    HW223685   1.133   4.576   9.473 -0.0479  1.2658 -3.3570
 4017SOL     OW23686   0.964   0.243   2.822 -0.0869 -0.5081  0.3544
 4017SOL    HW123687   0.900   0.284   2.763  1.6811  1.1236 -0.4603
 4017SOL    HW223688   0.925   0.158   2.841  1.2196 -1.4827 -1.2407
 4018SOL     OW23689   1.476   4.562   6.195  0.1611  0.1448  0.0691
 4018SOL    HW123690   1.502   4.653   6.183  0.0759  0.2012  0.3015
 4018SOL    HW223691   1.550   4.523   6.241 -0.6218 -1.2830  0.1386
 4019SOL     OW23692   0.170   2.184   5.108  0.6482  0.0818 -0.0235
 4019SOL    HW123693   0.087   2.160   5.066  0.4415 -2.0396  1.5872
 4019SOL    HW223694   0.220   2.212   5.031  1.8781 -3.1346 -0.3976
 4020SOL     OW23695   1.164   0.619   2.919  0.0226  0.3059 -0.3458
 4020SOL    HW123696   1.229   0.553   2.939  0.9261  0.2698 -3.3121
 4020SOL    HW223697   1.141   0.647   3.007  0.7689  1.9122 -0.6566
 4021SOL     OW23698   2.243   3.838  15.074  0.8071 -0.2708 -0.0147
 4021SOL    HW123699   2.282   3.800  15.154 -1.1396  1.0725  1.5570
 4021SOL    HW223700   2.182   3.767  15.054 -0.1467  0.2935  0.9275
 4022SOL     OW23701   0.455   4.411   2.254 -0.3128  0.3080 -0.3304
 4022SOL    HW123702   0.380   4.369   2.297 -0.8157  0.9951 -0.5308
 4022SOL    HW223703   0.490   4.330   2.218 -2.0006 -0.3123 -0.5623
 4023SOL     OW23704   3.333   1.224   8.455 -0.2072 -0.0268 -0.6974
 4023SOL    HW123705   3.362   1.239   8.545 -0.0171  1.1073 -0.9554
 4023SOL    HW223706   3.405   1.168   8.426 -0.0366 -0.4821  0.5713
 4024SOL     OW23707   1.311   3.315   0.804 -0.1530 -0.6225 -0.5781
 4024SOL    HW123708   1.229   3.272   0.830 -2.4497  3.0848 -1.6316
 4024SOL    HW223709   1.341   3.265   0.729  1.0605 -0.2049 -0.3718
 4025SOL     OW23710   4.197   3.789  11.805 -0.0520  0.6266  0.1762
 4025SOL    HW123711   4.149   3.868  11.781 -3.0282 -1.9800 -2.4716
 4025SOL    HW223712   4.238   3.767  11.722 -0.8012  0.6355 -0.2003
 4026SOL     OW23713   0.289   4.334   5.130 -0.8777  0.3590  0.9131
 4026SOL    HW123714   0.381   4.307   5.127 -1.1156 -0.3211 -0.1901
 4026SOL    HW223715   0.276   4.364   5.220  3.1725  0.3402  1.4793
 4027SOL     OW23716   0.716   2.091  10.885 -0.4235 -0.1015  0.3007
 4027SOL    HW123717   0.803   2.132  10.885 -1.1572  1.4221 -0.9554
 4027SOL    HW223718   0.689   2.085  10.794 -1.1385  1.4829  0.4086
 4028SOL     OW23719   0.917   1.427   5.097 -0.7591 -0.2585  0.2529
 4028SOL    HW123720   0.858   1.502   5.092  0.0945  0.5339  1.8856
 4028SOL    HW223721   1.002   1.468   5.078  0.3587 -0.9273  3.7918
 4029SOL     OW23722   3.273   1.816  10.115  0.4677  0.3727  0.2506
 4029SOL    HW123723   3.329   1.755  10.067  0.4899  1.2957 -0.9051
 4029SOL    HW223724   3.282   1.802  10.209  1.0200 -1.6217 -0.1051
 4030SOL     OW23725   2.398   2.897   1.330  0.6824 -0.3622  0.7610
 4030SOL    HW123726   2.310   2.923   1.302  0.5235 -1.6036  0.0919
 4030SOL    HW223727   2.390   2.804   1.306  0.7860 -0.7353  2.2173
 4031SOL     OW23728   3.067   1.802  15.912 -0.4498  0.0001 -0.0438
 4031SOL    HW123729   3.045   1.718  15.950 -0.0718  0.1878  0.5800
 4031SOL    HW223730   3.074   1.853  15.993  1.2363 -0.0043 -0.1842
 4032SOL     OW23731   3.457   0.221   4.258  0.6646  0.1394 -0.0194
 4032SOL    HW123732   3.430   0.305   4.295 -1.3348  0.6256 -2.6081
 4032SOL    HW223733   3.406   0.162   4.314  0.6971 -0.0019 -0.1382
 4033SOL     OW23734   4.395   3.548   4.653  1.0969 -1.1373 -0.0318
 4033SOL    HW123735   4.310   3.525   4.615 -0.2082  1.3577  1.4232
 4033SOL    HW223736   4.429   3.460   4.672  2.5372 -0.3277  1.1107
 4034SOL     OW23737   0.271   4.720  15.249 -0.0762  0.4950 -0.1403
 4034SOL    HW123738   0.278   4.635  15.293 -0.7889 -0.6319 -2.2208
 4034SOL    HW223739   0.227   0.030  15.321  2.1829 -0.6488  1.9694
 4035SOL     OW23740   4.662   4.100   5.295 -0.5455 -0.4417  0.2326
 4035SOL    HW123741   4.584   4.156   5.294  0.2216  0.6124 -1.0805
 4035SOL    HW223742   4.722   4.162   5.335 -0.1837 -1.0820  0.6772
 4036SOL     OW23743   3.340   3.012   8.587  0.1069 -0.0653  0.5115
 4036SOL    HW123744   3.255   3.013   8.630 -0.6243  2.5943 -1.0360
 4036SOL    HW223745   3.320   2.976   8.501  0.3703 -0.5429  0.6519
 4037SOL     OW23746   2.310   1.129  13.236 -0.0108  0.6100 -0.0394
 4037SOL    HW123747   2.335   1.204  13.290 -1.5144  1.5244 -0.5724
 4037SOL    HW223748   2.363   1.141  13.157  0.8965 -1.5124  0.2604
 4038SOL     OW23749   0.344   4.302  10.914 -0.1490  0.1010 -0.7461
 4038SOL    HW123750   0.265   4.251  10.929  1.4826 -2.5851 -1.1313
 4038SOL    HW223751   0.305   4.383  10.881 -0.6670  1.0636  2.2802
 4039SOL     OW23752   4.317   3.351   3.290  0.2732 -0.4351 -0.1159
 4039SOL    HW123753   4.270   3.432   3.271  1.2638  0.6470  2.0642
 4039SOL    HW223754   4.409   3.374   3.301  0.8038 -1.7813 -1.8360
 4040SOL     OW23755   3.621   3.055   4.542  0.2895 -0.0169  0.3540
 4040SOL    HW123756   3.659   3.040   4.455  0.5140 -0.5291  0.5400
 4040SOL    HW223757   3.664   2.984   4.589 -1.1613  0.8743  2.9946
 4041SOL     OW23758   2.939   0.132   6.835 -1.1394 -0.3615 -0.0966
 4041SOL    HW123759   2.869   0.071   6.813  0.9817 -2.5147 -0.8294
 4041SOL    HW223760   3.015   0.075   6.829  0.1804  1.4213 -0.3697
 4042SOL     OW23761   0.094   1.802  16.075  0.4367 -0.1649  0.1148
 4042SOL    HW123762   0.054   1.843  16.151 -1.9616 -2.6476  0.2025
 4042SOL    HW223763   0.172   1.856  16.060 -0.0264  0.5680  0.3264
 4043SOL     OW23764   1.316   4.675   5.132  0.4732 -0.1814 -0.6989
 4043SOL    HW123765   1.369   4.680   5.052  1.7555 -2.0182  0.0414
 4043SOL    HW223766   1.295   4.581   5.129  0.5892 -0.2564  0.7784
 4044SOL     OW23767   2.210   4.274  14.932  0.0770 -0.1015  0.3107
 4044SOL    HW123768   2.172   4.228  14.858  0.7289 -0.0670 -0.0496
 4044SOL    HW223769   2.293   4.307  14.899 -0.0913  2.2034  2.1647
 4045SOL     OW23770   3.962   0.301   5.502 -0.0393  0.3674  0.4043
 4045SOL    HW123771   3.985   0.248   5.579 -0.1381  1.4293  1.1537
 4045SOL    HW223772   3.885   0.353   5.523 -2.1896 -1.8942 -1.9465
 4046SOL     OW23773   4.199   3.318   7.296 -0.5605  0.2238 -0.3519
 4046SOL    HW123774   4.172   3.271   7.217  1.7258 -1.6203 -0.0194
 4046SOL    HW223775   4.213   3.234   7.341  2.4365  0.8388 -0.1571
 4047SOL     OW23776   1.795   2.392   7.029  0.2166  0.5608 -0.0338
 4047SOL    HW123777   1.810   2.478   6.989  0.1494 -0.4966 -2.3431
 4047SOL    HW223778   1.851   2.395   7.106 -0.4987  0.0675  0.5049
 4048SOL     OW23779   3.817   3.589  14.285 -0.5715  0.2511 -0.4991
 4048SOL    HW123780   3.785   3.628  14.366 -0.5078  1.6465 -1.1466
 4048SOL    HW223781   3.900   3.549  14.312  0.2586  1.2430 -1.5706
 4049SOL     OW23782   4.183   2.261  15.440 -0.3966  0.1159 -0.7453
 4049SOL    HW123783   4.180   2.204  15.364  0.5626 -1.7354  0.6044
 4049SOL    HW223784   4.131   2.210  15.503 -1.3686  0.9963 -0.8316
 4050SOL     OW23785   0.468   2.551   6.481 -0.1863 -0.5994  0.2399
 4050SOL    HW123786   0.377   2.528   6.503  0.3407 -0.5155  2.4647
 4050SOL    HW223787   0.464   2.528   6.388  0.8862  0.4562 -0.0533
 4051SOL     OW23788   2.118   0.146   4.449 -0.3879  0.2324 -0.2490
 4051SOL    HW123789   2.135   0.195   4.369 -0.3601  3.0956  1.4962
 4051SOL    HW223790   2.097   0.060   4.412  0.5775  0.3247 -1.0003
 4052SOL     OW23791   1.835   2.847  17.256  0.0075  0.3333 -0.1942
 4052SOL    HW123792   1.852   2.913  17.189 -0.5071 -1.3431 -1.9890
 4052SOL    HW223793   1.754   2.882  17.293  0.8324  0.8024  1.1887
 4053SOL     OW23794   4.450   0.112   7.823  0.2572 -0.1577 -0.5124
 4053SOL    HW123795   4.359   0.086   7.838  0.9333 -1.0203  2.0170
 4053SOL    HW223796   4.447   0.139   7.731  2.2748 -0.7312 -0.7336
 4054SOL     OW23797   2.496   1.591   1.483 -0.6500 -0.2887  0.4279
 4054SOL    HW123798   2.469   1.682   1.470  3.0152  0.4704 -1.9632
 4054SOL    HW223799   2.420   1.553   1.526  1.6262 -2.3734  2.5870
 4055SOL     OW23800   1.392   2.625  15.380  0.3347  0.2809 -0.3355
 4055SOL    HW123801   1.402   2.661  15.292  1.1861 -1.1221 -0.8096
 4055SOL    HW223802   1.316   2.679  15.403 -0.1687 -0.0209 -1.2775
 4056SOL     OW23803   2.003   1.931   8.045 -0.5137  0.2404  0.0424
 4056SOL    HW123804   1.966   2.002   7.993  1.2442 -0.7741 -2.6146
 4056SOL    HW223805   1.973   1.949   8.134  0.1826  0.5747  0.2091
 4057SOL     OW23806   3.988   2.757   7.787 -0.0706  0.2621 -0.5695
 4057SOL    HW123807   4.056   2.824   7.797  0.0055  0.3644 -1.7856
 4057SOL    HW223808   4.026   2.708   7.714  0.9530  0.7386 -0.3481
 4058SOL     OW23809   2.638   1.306   5.977  0.0550  0.9974  0.3350
 4058SOL    HW123810   2.677   1.220   5.968 -0.8556  0.5332  0.7652
 4058SOL    HW223811   2.720   1.351   5.998 -1.1133  3.2412  0.1506
 4059SOL     OW23812   2.712   2.329   7.774  0.1670 -0.3777 -0.0973
 4059SOL    HW123813   2.791   2.375   7.803  1.2485 -0.8332 -2.2949
 4059SOL    HW223814   2.712   2.254   7.833  0.1846 -0.9389 -0.8049
 4060SOL     OW23815   4.211   2.166   4.507 -0.5025  0.4888 -0.0054
 4060SOL    HW123816   4.293   2.126   4.536 -0.3683 -0.6958 -2.0144
 4060SOL    HW223817   4.222   2.259   4.528 -2.0327  0.6143  0.2627
 4061SOL     OW23818   1.460   1.393   2.194 -0.7258 -0.1622 -0.4252
 4061SOL    HW123819   1.414   1.329   2.249  0.1243 -1.5383 -1.2995
 4061SOL    HW223820   1.542   1.410   2.240 -0.9921 -2.0192  0.7503
 4062SOL     OW23821   2.531   3.601   9.836  0.0669  0.3500  0.3431
 4062SOL    HW123822   2.622   3.613   9.863  0.1480 -1.1862  0.7234
 4062SOL    HW223823   2.545   3.556   9.752 -0.1195 -1.3109  1.2102
 4063SOL     OW23824   3.178   2.614   5.156  0.1006 -0.2340  0.9797
 4063SOL    HW123825   3.138   2.656   5.080 -0.1400 -1.0642  0.6383
 4063SOL    HW223826   3.181   2.524   5.122  0.7102 -0.0357  0.5050
 4064SOL     OW23827   2.982   2.260   0.415 -0.2547 -0.5842  0.1359
 4064SOL    HW123828   2.992   2.352   0.438 -0.4741 -0.6208  0.3898
 4064SOL    HW223829   2.894   2.249   0.451 -0.8155  0.5532 -0.8817
 4065SOL     OW23830   3.508   1.769   6.762  0.2853  0.0802 -0.1302
 4065SOL    HW123831   3.489   1.701   6.827  1.2638 -0.9262 -0.8883
 4065SOL    HW223832   3.574   1.813   6.815 -0.3105 -0.8493  1.3697
 4066SOL     OW23833   1.891   2.299   8.908 -0.3631  0.3152  0.1842
 4066SOL    HW123834   1.965   2.241   8.891 -0.2054  0.1449  1.4251
 4066SOL    HW223835   1.854   2.313   8.821  1.1407 -0.0624 -0.5035
 4067SOL     OW23836   1.394   1.826   1.638 -0.7342 -0.3891  0.5885
 4067SOL    HW123837   1.409   1.911   1.595  0.9616  0.7525  3.4383
 4067SOL    HW223838   1.473   1.814   1.691  0.6879  0.3689 -1.3629
 4068SOL     OW23839   0.308   1.216  13.298  0.1227 -0.4545  0.6746
 4068SOL    HW123840   0.267   1.148  13.351 -3.3932  0.8974 -0.3342
 4068SOL    HW223841   0.352   1.173  13.224  0.1018 -2.1086  1.6115
 4069SOL     OW23842   0.890   2.364  14.531  0.4214  0.1606 -0.4404
 4069SOL    HW123843   0.872   2.383  14.438 -2.1867  0.9215  0.2275
 4069SOL    HW223844   0.918   2.274  14.519  2.2887  0.9035 -1.6106
 4070SOL     OW23845   1.542   2.065   8.098 -0.3614  0.1177  0.1990
 4070SOL    HW123846   1.498   2.110   8.171 -1.2153 -0.0644 -0.2077
 4070SOL    HW223847   1.571   1.984   8.138  0.3525  0.4180  0.2901
 4071SOL     OW23848   0.338   2.911   9.877  0.1459  0.0685  0.0512
 4071SOL    HW123849   0.382   2.912   9.962  0.5135  1.8602 -0.1580
 4071SOL    HW223850   0.372   2.833   9.833 -1.9664 -0.4136 -0.7194
 4072SOL     OW23851   3.836   4.333   5.531 -0.4785 -0.3989 -1.2108
 4072SOL    HW123852   3.763   4.276   5.506 -0.5384 -0.4719 -0.8605
 4072SOL    HW223853   3.911   4.274   5.539 -0.0321 -0.0691 -2.9218
 4073SOL     OW23854   4.626   1.951   7.068 -0.1124 -0.1152  0.4976
 4073SOL    HW123855   4.632   1.863   7.106  0.1920 -0.5390 -0.5493
 4073SOL    HW223856   4.700   1.958   7.007  0.4990 -1.4165  1.0846
 4074SOL     OW23857   3.300   2.126   4.861  0.3779 -0.0252  0.6530
 4074SOL    HW123858   3.249   2.063   4.913 -0.7367 -0.1950 -0.6469
 4074SOL    HW223859   3.271   2.121   4.770  1.6247  1.7422  0.1621
 4075SOL     OW23860   0.870   4.376   2.239 -0.3630 -0.1345 -0.2772
 4075SOL    HW123861   0.791   4.410   2.197 -0.7398  0.3015  0.7814
 4075SOL    HW223862   0.909   4.335   2.162  0.0277 -0.7290  0.2383
 4076SOL     OW23863   1.788   3.891   4.825  0.2292 -0.2263  0.5492
 4076SOL    HW123864   1.785   3.850   4.738 -1.4805  0.5668  0.2186
 4076SOL    HW223865   1.705   3.856   4.858  0.0420  2.6352  3.1550
 4077SOL     OW23866   3.469   3.091   9.074  0.1571  0.1815 -0.0218
 4077SOL    HW123867   3.523   3.084   8.996  0.0888 -0.4524 -0.0135
 4077SOL    HW223868   3.384   3.124   9.042 -0.9794  0.7211  3.4958
 4078SOL     OW23869   4.384   3.160  12.768 -0.4537 -0.0925  0.5445
 4078SOL    HW123870   4.439   3.232  12.735  0.4184 -1.6554 -1.4002
 4078SOL    HW223871   4.394   3.174  12.862 -0.0529  1.7319  0.2325
 4079SOL     OW23872   2.993   3.855   9.305 -0.0636 -0.3461 -0.0917
 4079SOL    HW123873   2.913   3.828   9.258 -0.7547  1.4000  0.0896
 4079SOL    HW223874   2.964   3.834   9.394 -0.0916  0.6411  0.1316
 4080SOL     OW23875   2.227   4.711   2.938 -0.3884 -0.0541 -0.1634
 4080SOL    HW123876   2.196   0.064   2.928  2.6095  1.1160  1.1144
 4080SOL    HW223877   2.242   4.676   2.850  0.7583  1.0262 -0.3934
 4081SOL     OW23878   4.091   3.957  12.358 -0.6874  0.2597 -0.1554
 4081SOL    HW123879   4.031   3.965  12.284 -0.9923  0.5888  0.1311
 4081SOL    HW223880   4.058   3.878  12.401  0.8025 -0.8974 -1.1394
 4082SOL     OW23881   0.861   0.904   2.364 -0.5906  0.5181  0.7278
 4082SOL    HW123882   0.810   0.948   2.296  2.2814 -0.7607 -2.2443
 4082SOL    HW223883   0.794   0.878   2.427 -3.5855  1.7146 -1.9647
 4083SOL     OW23884   2.754   1.169   7.250  0.2404 -0.1800  0.1242
 4083SOL    HW123885   2.710   1.093   7.211 -0.8347 -0.0498  1.0903
 4083SOL    HW223886   2.707   1.241   7.208  0.2358 -0.0573  0.3413
 4084SOL     OW23887   3.150   4.499   7.086 -0.1486 -0.3572  0.1242
 4084SOL    HW123888   3.073   4.447   7.106 -0.6255 -0.6108 -2.3499
 4084SOL    HW223889   3.134   4.536   6.999 -1.3526 -2.5399 -0.5803
 4085SOL     OW23890   1.436   3.120  14.399 -0.4628 -0.1272 -0.5806
 4085SOL    HW123891   1.516   3.172  14.410 -0.9412  0.6830 -0.9245
 4085SOL    HW223892   1.364   3.183  14.397 -1.2151 -0.9535  0.6653
 4086SOL     OW23893   4.210   3.749   1.676 -0.4028 -0.4777 -0.6233
 4086SOL    HW123894   4.147   3.819   1.661  0.8913  1.3767  2.6068
 4086SOL    HW223895   4.256   3.777   1.755  1.1033  0.6544 -1.8888
 4087SOL     OW23896   1.137   1.357   3.892 -0.1336 -0.2250 -0.2073
 4087SOL    HW123897   1.178   1.292   3.950  1.1344  0.6252 -0.1558
 4087SOL    HW223898   1.166   1.440   3.930 -1.3341  0.3187 -0.4986
 4088SOL     OW23899   1.246   3.211  10.653 -0.7742  0.2107 -0.5185
 4088SOL    HW123900   1.158   3.186  10.682  0.3923 -1.1845  1.7764
 4088SOL    HW223901   1.270   3.271  10.723 -0.4950 -2.1023  1.3543
 4089SOL     OW23902   0.055   1.678  15.182 -0.5508 -0.8230  0.1460
 4089SOL    HW123903   4.697   1.685  15.175 -0.4033 -1.0695 -1.9397
 4089SOL    HW223904   0.080   1.669  15.090 -0.8261  0.7951 -0.0925
 4090SOL     OW23905   4.563   4.619   4.434 -0.0845 -0.2149 -0.0981
 4090SOL    HW123906   4.646   4.646   4.394  0.6647 -0.2335  1.4367
 4090SOL    HW223907   4.566   4.525   4.418  1.7760 -0.3824  1.1730
 4091SOL     OW23908   0.948   2.342   6.193  0.0103  0.0747 -0.1191
 4091SOL    HW123909   0.988   2.344   6.280 -1.7342  0.4074  0.6642
 4091SOL    HW223910   0.965   2.250   6.173  0.0422  0.3692 -1.4082
 4092SOL     OW23911   4.534   3.529   2.775 -0.2152  0.3937 -0.5481
 4092SOL    HW123912   4.474   3.603   2.765  0.1355  0.9237  1.2555
 4092SOL    HW223913   4.603   3.574   2.824 -0.5811 -0.2147  0.5173
 4093SOL     OW23914   3.975   1.564   4.360  0.0077 -0.5871 -0.1596
 4093SOL    HW123915   4.030   1.497   4.401  1.2626  0.7420  0.3086
 4093SOL    HW223916   3.996   1.636   4.419  1.8666 -1.4743  0.2816
 4094SOL     OW23917   3.077   0.237  11.356 -0.0495  0.4848 -0.2811
 4094SOL    HW123918   3.115   0.297  11.292 -2.3118  2.3768  0.1329
 4094SOL    HW223919   3.162   0.208  11.389  0.3382  1.2265 -0.6084
 4095SOL     OW23920   1.934   0.310  14.012  0.0695  0.3518 -0.1188
 4095SOL    HW123921   1.945   0.243  14.079 -0.4393  0.3207 -0.0655
 4095SOL    HW223922   1.962   0.261  13.934 -0.7324 -0.2975 -0.0004
 4096SOL     OW23923   1.269   1.732   3.467 -0.1601  0.4064 -0.7480
 4096SOL    HW123924   1.265   1.663   3.401  1.6883  1.5813 -2.1027
 4096SOL    HW223925   1.182   1.769   3.453  0.1817  1.2145 -0.7390
 4097SOL     OW23926   2.830   2.321   9.490  0.0366 -0.1426 -0.3069
 4097SOL    HW123927   2.898   2.268   9.530 -0.4997 -2.0076 -1.8622
 4097SOL    HW223928   2.773   2.346   9.563 -1.5356  0.4550 -1.7381
 4098SOL     OW23929   1.948   3.047   0.708  0.5326 -0.0494 -0.0704
 4098SOL    HW123930   1.912   3.110   0.645  0.1709 -0.5839 -0.4019
 4098SOL    HW223931   1.922   2.962   0.673  1.3548 -0.0739 -0.6321
 4099SOL     OW23932   3.297   2.870  15.619  0.0071 -0.5052  0.5140
 4099SOL    HW123933   3.328   2.959  15.637 -0.9276 -0.4040  1.6749
 4099SOL    HW223934   3.252   2.846  15.700 -0.3017  1.2644  0.8867
 4100SOL     OW23935   2.191   4.011   8.171  0.6242 -0.7834  0.4953
 4100SOL    HW123936   2.241   3.936   8.138  0.1340 -0.3750 -1.1599
 4100SOL    HW223937   2.102   3.977   8.170  0.0021  0.9155 -0.6967
 4101SOL     OW23938   0.983   1.180   4.987 -0.4065 -0.9638 -0.4536
 4101SOL    HW123939   0.986   1.201   4.893 -0.5632 -3.4508 -1.0233
 4101SOL    HW223940   0.955   1.262   5.026  2.3743 -0.7373  1.1040
 4102SOL     OW23941   1.121   4.018   7.318 -0.5160  0.1787 -0.0670
 4102SOL    HW123942   1.051   3.983   7.265 -1.0445  0.0242  0.7316
 4102SOL    HW223943   1.082   4.053   7.399  0.3445  0.1127  0.3820
 4103SOL     OW23944   0.366   3.044   1.685 -0.4426  0.7621 -0.3227
 4103SOL    HW123945   0.439   3.105   1.694 -0.6366  0.5276  2.8640
 4103SOL    HW223946   0.387   3.001   1.603 -1.0503  2.8452 -1.5605
 4104SOL     OW23947   4.095   3.959   4.393 -0.1734 -0.5216  0.1196
 4104SOL    HW123948   4.177   3.964   4.345 -0.1015 -0.8088  0.2082
 4104SOL    HW223949   4.106   4.018   4.468 -0.5169 -1.0063  0.5597
 4105SOL     OW23950   1.728   2.416   1.704  0.1927  0.0253  0.1361
 4105SOL    HW123951   1.796   2.350   1.707 -0.4743 -0.7504 -1.8022
 4105SOL    HW223952   1.713   2.447   1.794 -0.4109  1.2471 -0.3901
 4106SOL     OW23953   1.903   3.114   7.687  0.3133 -0.9273 -0.5588
 4106SOL    HW123954   1.962   3.140   7.615  0.6205  1.7363  0.6743
 4106SOL    HW223955   1.930   3.022   7.679  0.7326 -0.8530  0.0204
 4107SOL     OW23956   1.669   4.727   7.792  0.0671 -0.3558  0.6608
 4107SOL    HW123957   1.694   0.077   7.761  2.2691 -1.0527  0.4565
 4107SOL    HW223958   1.576   0.001   7.812 -0.2422 -1.5540 -0.1214
 4108SOL     OW23959   3.432   3.705   0.418  0.3321  0.3468 -0.2682
 4108SOL    HW123960   3.487   3.657   0.356  1.5123  2.0895 -0.5628
 4108SOL    HW223961   3.351   3.702   0.368  0.7329  0.8053 -0.9498
 4109SOL     OW23962   4.321   4.662  15.266 -0.8045 -0.0441  0.5769
 4109SOL    HW123963   4.243   4.606  15.253 -0.8340  0.1654 -0.1874
 4109SOL    HW223964   4.331   4.664  15.361  0.7073  0.7309  0.3863
 4110SOL     OW23965   0.883   1.510   7.528  0.1618 -0.0751 -0.4205
 4110SOL    HW123966   0.822   1.506   7.455 -1.1966 -1.4129  0.7886
 4110SOL    HW223967   0.875   1.420   7.560  2.0533  0.6647  2.1492
 4111SOL     OW23968   3.740   3.289  17.464  0.3474  0.0983  0.3070
 4111SOL    HW123969   3.662   3.280  17.410 -0.4270  1.3525  1.2246
 4111SOL    HW223970   3.746   3.201  17.501 -0.4047 -0.7269 -1.5310
 4112SOL     OW23971   3.963   3.773   3.050 -0.1805 -0.4923 -0.3491
 4112SOL    HW123972   3.968   3.824   2.969  3.4289 -0.1092  0.1309
 4112SOL    HW223973   4.049   3.732   3.049  0.3480  0.6238 -0.1345
 4113SOL     OW23974   3.393   0.930  14.029 -0.0081  0.1564 -0.0917
 4113SOL    HW123975   3.421   0.993  13.963 -1.0499  0.6090 -0.1027
 4113SOL    HW223976   3.438   0.960  14.108 -0.5715 -1.7212  0.9240
 4114SOL     OW23977   3.053   4.061   3.068  0.0819 -0.1799  0.3086
 4114SOL    HW123978   3.148   4.075   3.075  0.0307 -0.4414  1.5443
 4114SOL    HW223979   3.045   3.999   3.140  0.6893  1.4820  1.8167
 4115SOL     OW23980   4.068   2.250   4.263  0.2287 -0.0234 -1.0940
 4115SOL    HW123981   4.094   2.225   4.351 -1.1909  1.0245 -0.3675
 4115SOL    HW223982   4.012   2.320   4.298  2.6898  0.7116  1.3024
 4116SOL     OW23983   2.207   0.372   6.027 -0.1005  0.2067  0.6181
 4116SOL    HW123984   2.195   0.294   6.080 -1.9164  0.2474  0.2889
 4116SOL    HW223985   2.130   0.369   5.970 -0.8960 -1.6323  1.7810
 4117SOL     OW23986   2.795   3.262   3.375 -0.2861  0.4125  0.1716
 4117SOL    HW123987   2.887   3.270   3.347 -0.4191 -0.1205 -0.4193
 4117SOL    HW223988   2.776   3.354   3.395  1.8744  0.0775  3.7359
 4118SOL     OW23989   4.274   1.946   6.743 -0.5284  0.4517  0.0837
 4118SOL    HW123990   4.183   1.925   6.761  0.2865 -2.3450  0.9240
 4118SOL    HW223991   4.290   2.018   6.804  0.6592  1.1820 -1.0956
 4119SOL     OW23992   1.027   0.442   1.703  0.2147 -0.5462 -0.3475
 4119SOL    HW123993   1.090   0.464   1.634  0.5577  1.6401  0.6639
 4119SOL    HW223994   0.943   0.461   1.661 -0.5694 -0.6061  1.2149
 4120SOL     OW23995   4.599   4.210   9.123 -0.5872 -0.6961 -0.8246
 4120SOL    HW123996   4.686   4.204   9.163 -0.7311  1.9495 -0.1202
 4120SOL    HW223997   4.629   4.246   9.040 -2.4136  0.0439 -1.1573
 4121SOL     OW23998   2.105   3.866   2.104  0.6401 -0.3220  0.4200
 4121SOL    HW123999   2.123   3.957   2.128 -2.1912  0.1499  0.6446
 4121SOL    HW224000   2.191   3.850   2.065  0.9326  0.4518  0.7436
 4122SOL     OW24001   1.562   4.266   8.167  0.0773  0.6836  0.2175
 4122SOL    HW124002   1.473   4.243   8.192  0.5180  1.3780  2.4657
 4122SOL    HW224003   1.577   4.339   8.228 -1.0858  1.4719 -0.4474
 4123SOL     OW24004   0.191   1.471   3.915  0.4899  0.0654  0.2523
 4123SOL    HW124005   0.108   1.488   3.958  0.9746  1.6954  0.5340
 4123SOL    HW224006   0.171   1.381   3.889  3.2169 -0.3506 -0.4622
 4124SOL     OW24007   0.179   2.101  12.681  0.1442  0.4603  0.3129
 4124SOL    HW124008   0.207   2.070  12.767  0.5559  2.5672  0.9466
 4124SOL    HW224009   0.228   2.184  12.681 -1.2968  1.3081  1.0361
 4125SOL     OW24010   0.150   2.305   4.639 -0.3562 -0.8176  0.1687
 4125SOL    HW124011   0.166   2.307   4.544 -1.0063  0.2949  0.0888
 4125SOL    HW224012   0.107   2.390   4.646  1.5528  0.1180  0.6344
 4126SOL     OW24013   1.676   2.490   9.677  0.1759  0.7407 -0.2173
 4126SOL    HW124014   1.657   2.400   9.703  0.5393  0.7707  0.1587
 4126SOL    HW224015   1.589   2.524   9.653 -1.3298 -1.1736  2.5593
 4127SOL     OW24016   3.128   2.585   9.968 -0.2502  0.2795 -0.2990
 4127SOL    HW124017   3.159   2.668   9.933 -4.1305  2.1269  0.7271
 4127SOL    HW224018   3.202   2.571  10.027  0.1913  1.4121 -0.6025
 4128SOL     OW24019   4.240   0.689   7.247  0.5993 -0.0009  0.2998
 4128SOL    HW124020   4.239   0.665   7.154 -1.2687  0.1219  0.3029
 4128SOL    HW224021   4.331   0.718   7.252 -0.0141  1.7675  1.1655
 4129SOL     OW24022   3.458   4.580   8.203 -0.2839 -0.1639 -0.1013
 4129SOL    HW124023   3.432   4.638   8.132  1.3376  1.5600  0.7149
 4129SOL    HW224024   3.483   4.499   8.159  0.2073  0.3326 -0.7433
 4130SOL     OW24025   3.154   0.083   5.036  0.1393  0.5723  0.3985
 4130SOL    HW124026   3.143   0.025   5.111  3.0210  1.2396  1.3333
 4130SOL    HW224027   3.186   0.163   5.078  0.6497 -0.6479  2.3249
 4131SOL     OW24028   3.905   0.290   4.957 -0.1352 -0.0888  0.5420
 4131SOL    HW124029   3.979   0.343   4.985 -1.3634  2.7429 -1.5317
 4131SOL    HW224030   3.862   0.265   5.038 -1.3714 -0.0235 -0.0911
 4132SOL     OW24031   2.562   3.682   1.249  0.4050  0.0007  0.3217
 4132SOL    HW124032   2.535   3.642   1.332 -0.4037 -0.0985  0.0133
 4132SOL    HW224033   2.590   3.605   1.199 -0.2071  0.4392 -0.6930
 4133SOL     OW24034   2.289   0.323   3.056  0.9044 -0.1607 -0.3981
 4133SOL    HW124035   2.228   0.307   2.984  0.6815 -2.5945  0.3338
 4133SOL    HW224036   2.219   0.329   3.122  0.5912  2.4168 -0.9649
 4134SOL     OW24037   4.591   2.745   1.442 -0.4703  0.1295  0.0447
 4134SOL    HW124038   4.502   2.764   1.471  0.1411  1.3613  1.0878
 4134SOL    HW224039   4.619   2.666   1.489 -1.2332 -0.1699 -0.0100
 4135SOL     OW24040   3.121   2.255  16.538 -0.3164 -0.2162  0.2524
 4135SOL    HW124041   3.139   2.337  16.584  0.2290 -0.6626  0.8297
 4135SOL    HW224042   3.025   2.261  16.539 -0.2969  0.3807 -0.7816
 4136SOL     OW24043   3.883   4.706   7.599 -0.0354 -0.0860  0.4650
 4136SOL    HW124044   3.885   4.614   7.573  0.7449  0.2856 -0.7782
 4136SOL    HW224045   3.929   4.694   7.683 -0.3765  0.5570  0.7379
 4137SOL     OW24046   4.335   4.185   7.111  0.3631 -0.1830 -0.4309
 4137SOL    HW124047   4.415   4.149   7.072  1.9127 -0.3188  2.8964
 4137SOL    HW224048   4.356   4.279   7.108 -0.2409 -0.0251  0.3781
 4138SOL     OW24049   3.027   2.998  16.018  0.5727 -0.2499  0.1992
 4138SOL    HW124050   2.963   3.059  15.979  1.4335  0.8516  0.4954
 4138SOL    HW224051   3.074   2.974  15.938 -0.6915  0.2318 -0.6937
 4139SOL     OW24052   0.646   3.576   5.372 -0.2088 -0.4310  0.6005
 4139SOL    HW124053   0.554   3.550   5.376 -0.5434  0.3642 -1.8544
 4139SOL    HW224054   0.641   3.616   5.285  2.4601  2.6742  1.9089
 4140SOL     OW24055   0.746   0.071  10.506  0.3193 -0.0924  0.2164
 4140SOL    HW124056   0.652   0.061  10.489  0.0507  0.7856  1.1945
 4140SOL    HW224057   0.768   0.100  10.417  0.8785  1.4344  0.8524
 4141SOL     OW24058   3.741   0.531   4.778 -0.2329 -0.2220 -0.0845
 4141SOL    HW124059   3.755   0.463   4.844  0.1066 -0.3190 -0.2517
 4141SOL    HW224060   3.727   0.479   4.699  1.6320  0.7629 -1.0673
 4142SOL     OW24061   3.414   0.006   6.748 -0.4295 -0.8313 -0.1310
 4142SOL    HW124062   3.383   4.661   6.710  0.8296  0.0774 -3.1640
 4142SOL    HW224063   3.468   0.034   6.674 -0.3921  0.0260  0.2139
 4143SOL     OW24064   1.812   2.194   0.762 -0.3374  0.2288  0.2195
 4143SOL    HW124065   1.788   2.112   0.805 -0.1993  0.9427  1.6339
 4143SOL    HW224066   1.864   2.240   0.827 -0.3970 -1.1688  1.2438
 4144SOL     OW24067   2.001   3.556   5.151  0.8418 -0.1758 -0.0867
 4144SOL    HW124068   1.944   3.530   5.079  0.3630 -1.1064  0.6234
 4144SOL    HW224069   1.953   3.515   5.223 -0.5389  1.0836 -0.3083
 4145SOL     OW24070   0.325   3.307   3.615 -0.0966 -0.3460  0.2525
 4145SOL    HW124071   0.250   3.276   3.667  0.0189 -1.6670 -0.3564
 4145SOL    HW224072   0.392   3.253   3.656  2.3594  0.2166 -3.0046
 4146SOL     OW24073   0.150   4.359   6.927 -0.1156 -0.2300  0.7592
 4146SOL    HW124074   0.235   4.338   6.965 -0.2731 -1.8613  0.2138
 4146SOL    HW224075   0.105   4.286   6.970  0.5089 -1.8908 -1.3924
 4147SOL     OW24076   0.367   2.252   8.867  0.1914 -0.2785  0.2331
 4147SOL    HW124077   0.398   2.336   8.903 -0.1246  0.0718 -0.3227
 4147SOL    HW224078   0.273   2.269   8.867 -0.0965 -1.8744  1.1437
 4148SOL     OW24079   1.923   3.111  17.137  0.3769  0.2276  0.1896
 4148SOL    HW124080   1.855   3.174  17.115 -0.6006 -0.8506  0.1505
 4148SOL    HW224081   1.994   3.173  17.124 -1.6865  2.1721 -1.7206
 4149SOL     OW24082   1.969   1.794   8.405  0.7114 -0.5706  0.4134
 4149SOL    HW124083   1.970   1.886   8.432  0.6982 -0.2710 -0.5971
 4149SOL    HW224084   2.035   1.758   8.463  1.2794 -0.6470 -0.2729
 4150SOL     OW24085   0.091   3.884   6.787  0.3649 -0.1895  0.0264
 4150SOL    HW124086   0.128   3.965   6.822 -0.4755 -0.7502  2.2170
 4150SOL    HW224087   0.127   3.885   6.698  0.5820  0.4788  0.1217
 4151SOL     OW24088   2.922   3.435   2.234  0.0604  0.8552  0.2005
 4151SOL    HW124089   3.010   3.469   2.214  0.8586 -1.2813  0.0487
 4151SOL    HW224090   2.909   3.461   2.325 -1.2529 -1.8167  0.7860
 4152SOL     OW24091   0.893   4.687  10.121  0.1676 -0.4414 -0.4858
 4152SOL    HW124092   0.963   4.628  10.093 -0.0225 -1.6250  1.5869
 4152SOL    HW224093   0.814   4.633  10.118  0.4724 -0.9239  0.1713
 4153SOL     OW24094   1.682   0.262   2.733 -0.4396  0.8705  0.1151
 4153SOL    HW124095   1.600   0.240   2.687  0.1823 -0.5763 -0.2992
 4153SOL    HW224096   1.654   0.339   2.783  0.8429  0.9438  0.7126
 4154SOL     OW24097   0.218   3.068   5.567 -0.6524 -0.3139 -0.5558
 4154SOL    HW124098   0.194   3.100   5.480 -3.2989 -1.4484 -0.2391
 4154SOL    HW224099   0.166   3.126   5.622 -1.6766  0.9505 -2.8765
 4155SOL     OW24100   2.715   1.966   4.527 -0.1617  0.3097 -0.2328
 4155SOL    HW124101   2.624   1.955   4.555  0.7099 -1.1919  2.0361
 4155SOL    HW224102   2.735   2.059   4.532 -1.0786  0.4467  0.8896
 4156SOL     OW24103   4.245   4.479   9.680 -0.3222  0.2754 -0.6155
 4156SOL    HW124104   4.225   4.443   9.766  1.3287  0.2096 -0.2668
 4156SOL    HW224105   4.216   4.405   9.626  0.5641 -0.5826  0.0810
 4157SOL     OW24106   1.217   1.220   0.238  0.1755 -0.2347  0.1372
 4157SOL    HW124107   1.277   1.145   0.243  1.0441  0.3860 -0.9818
 4157SOL    HW224108   1.237   1.251   0.149 -0.4886  0.3716  0.1973
 4158SOL     OW24109   4.347   2.732  15.204 -0.1882  0.6358  0.0292
 4158SOL    HW124110   4.413   2.759  15.267  0.0583 -0.1371  0.1086
 4158SOL    HW224111   4.331   2.649  15.250  0.1781  0.6464  0.1759
 4159SOL     OW24112   4.452   2.113  12.552  0.4626 -0.1275 -0.0118
 4159SOL    HW124113   4.386   2.098  12.485 -0.4214  0.1736  0.7829
 4159SOL    HW224114   4.524   2.144  12.497  0.4252  0.4478  0.2634
 4160SOL     OW24115   4.315   3.447   2.180 -0.1316  0.5454 -0.0666
 4160SOL    HW124116   4.246   3.512   2.195 -1.9325 -1.7652  1.4966
 4160SOL    HW224117   4.274   3.361   2.173  1.0907 -0.2195  2.0407
 4161SOL     OW24118   4.732   4.658   3.032 -0.0056  0.5059  0.1865
 4161SOL    HW124119   4.717   4.695   2.945  1.6389 -0.3590 -0.4711
 4161SOL    HW224120   4.662   4.698   3.084 -0.0272 -0.7290  1.0988
 4162SOL     OW24121   4.632   2.288  16.502  0.2259  0.3366  0.0802
 4162SOL    HW124122   4.698   2.268  16.435 -0.9034 -0.7047 -0.7128
 4162SOL    HW224123   4.613   2.208  16.552  1.6460  0.1290  0.2954
 4163SOL     OW24124   3.223   1.143   4.985  0.3588  0.6828  0.4955
 4163SOL    HW124125   3.156   1.074   4.985  2.9484 -1.8202 -2.0880
 4163SOL    HW224126   3.303   1.095   4.965 -0.2455 -0.0490 -0.2122
 4164SOL     OW24127   3.110   3.296   7.099  0.0414 -0.1808 -0.0877
 4164SOL    HW124128   3.065   3.376   7.127 -1.0012 -0.5672 -0.6514
 4164SOL    HW224129   3.184   3.291   7.160 -2.0572  1.9174  2.6453
 4165SOL     OW24130   3.312   1.896   7.705 -0.0277 -0.0011 -0.7284
 4165SOL    HW124131   3.246   1.886   7.774  0.9662  1.3935  0.4173
 4165SOL    HW224132   3.334   1.988   7.721  0.7634 -0.0442 -1.5424
 4166SOL     OW24133   3.560   1.979   5.840  0.2974 -0.0091 -0.4954
 4166SOL    HW124134   3.528   2.053   5.789  0.6077  0.3627 -0.1556
 4166SOL    HW224135   3.476   1.957   5.880  0.9576  1.7678  1.8823
 4167SOL     OW24136   2.782   1.818  16.055 -0.0167 -0.3799  0.3027
 4167SOL    HW124137   2.744   1.811  15.968 -1.1786  0.5336  0.7340
 4167SOL    HW224138   2.873   1.842  16.037  0.7143 -1.4738  2.5184
 4168SOL     OW24139   4.482   3.634   2.076 -0.0601  0.0171  0.4890
 4168SOL    HW124140   4.533   3.623   1.996 -1.2737  4.1796 -0.8626
 4168SOL    HW224141   4.447   3.547   2.095  1.5955 -0.8996 -0.6586
 4169SOL     OW24142   4.099   1.063   6.642 -0.7178  0.1600  0.4607
 4169SOL    HW124143   4.076   1.142   6.691 -1.2385 -0.2745  0.9244
 4169SOL    HW224144   4.133   1.098   6.560 -1.8761 -0.3293 -0.2302
 4170SOL     OW24145   3.951   2.929   9.217  0.3893  0.1664 -0.1918
 4170SOL    HW124146   3.867   2.908   9.176  0.6231  2.0725 -1.6320
 4170SOL    HW224147   3.963   2.854   9.276  2.7121 -0.2267 -1.1454
 4171SOL     OW24148   4.082   2.217   7.870 -0.4900 -0.1155  0.1336
 4171SOL    HW124149   4.071   2.224   7.965 -0.5555 -1.9238  0.2451
 4171SOL    HW224150   3.999   2.178   7.844  0.1021 -0.7125 -0.8745
 4172SOL     OW24151   3.863   3.234   7.717 -0.2488 -0.1625 -0.1179
 4172SOL    HW124152   3.887   3.221   7.809 -3.8020 -0.6006  0.7364
 4172SOL    HW224153   3.895   3.321   7.693  1.1645 -0.5597  0.3200
 4173SOL     OW24154   0.092   2.101   6.878  0.6497  0.3266 -0.7586
 4173SOL    HW124155   0.161   2.040   6.903  1.9245  2.0591 -0.1216
 4173SOL    HW224156   0.124   2.116   6.789  1.1750  0.9043 -0.4724
 4174SOL     OW24157   1.983   0.232   3.909  0.0304  0.2609 -0.1857
 4174SOL    HW124158   1.909   0.184   3.948  1.4115 -2.6838 -1.1742
 4174SOL    HW224159   2.057   0.172   3.917  0.3988  0.9239  1.3882
 4175SOL     OW24160   4.154   1.903   3.554 -0.2048 -0.2978  0.1866
 4175SOL    HW124161   4.141   1.945   3.469  0.6739  1.5757  0.9759
 4175SOL    HW224162   4.148   1.985   3.603 -0.3571 -0.0970 -0.1736
 4176SOL     OW24163   2.643   0.587  12.008  0.4470  0.0544 -0.1472
 4176SOL    HW124164   2.677   0.497  12.011 -0.5205 -0.4593 -4.8659
 4176SOL    HW224165   2.681   0.601  12.095 -0.5086 -0.2316  0.3104
 4177SOL     OW24166   3.252   4.344  14.886 -0.2549  0.0253  0.3600
 4177SOL    HW124167   3.230   4.333  14.794  0.1763  0.5411  0.1897
 4177SOL    HW224168   3.195   4.272  14.912 -1.9654  1.6328  1.0557
 4178SOL     OW24169   3.888   4.082   2.964  0.4499 -0.1464  0.0671
 4178SOL    HW124170   3.815   4.141   2.948  0.2001 -0.4324  0.1519
 4178SOL    HW224171   3.931   4.125   3.039  1.1074 -1.4651  0.4417
 4179SOL     OW24172   1.900   1.300   2.733 -0.1364 -0.5304 -0.1980
 4179SOL    HW124173   1.855   1.220   2.706 -0.5834 -0.3980  0.1454
 4179SOL    HW224174   1.903   1.359   2.658  1.0284  1.0184  1.0694
 4180SOL     OW24175   1.222   1.501   3.280 -0.6563 -0.2249 -0.5676
 4180SOL    HW124176   1.276   1.436   3.235  0.9486  0.9544 -0.3613
 4180SOL    HW224177   1.210   1.555   3.202  0.6783  0.1911 -0.4796
 4181SOL     OW24178   2.081   2.515   3.974 -0.3315 -0.2672  0.4491
 4181SOL    HW124179   2.061   2.464   4.052  1.0107  0.4007  1.2399
 4181SOL    HW224180   2.091   2.449   3.905 -1.7974 -1.8074  1.7251
 4182SOL     OW24181   3.893   0.900   1.826  0.3666  0.5529  0.2906
 4182SOL    HW124182   3.808   0.869   1.795 -0.3895  0.4058  2.4818
 4182SOL    HW224183   3.872   0.993   1.838 -2.0109 -0.0332  0.7675
 4183SOL     OW24184   3.680   1.363   5.038 -0.1573  0.4609 -0.0864
 4183SOL    HW124185   3.594   1.326   5.058 -0.9321  2.6219  0.5019
 4183SOL    HW224186   3.677   1.433   5.103 -0.4381  0.4987 -0.1432
 4184SOL     OW24187   0.694   4.473   8.303  0.2525 -0.2938 -0.8452
 4184SOL    HW124188   0.676   4.519   8.384  2.3712 -1.2061  0.1530
 4184SOL    HW224189   0.772   4.427   8.333  1.2401  1.2192 -1.0865
 4185SOL     OW24190   3.727   2.109   5.542  0.3216 -0.1638 -0.2543
 4185SOL    HW124191   3.704   2.105   5.449 -0.2659  1.8172 -0.1928
 4185SOL    HW224192   3.689   2.192   5.570  0.3098 -0.8574  1.7644
 4186SOL     OW24193   3.139   1.464   0.916 -0.7109 -0.1051 -0.3023
 4186SOL    HW124194   3.088   1.451   0.996  0.6441  2.7885  1.0396
 4186SOL    HW224195   3.090   1.435   0.839 -0.5799 -0.1373 -0.3740
 4187SOL     OW24196   4.580   1.027   8.263  0.3765 -0.5051  0.6207
 4187SOL    HW124197   4.532   1.096   8.309 -0.3776 -0.9239  0.4712
 4187SOL    HW224198   4.543   1.037   8.175 -0.0379 -0.9438  0.7424
 4188SOL     OW24199   2.439   2.240   9.670  0.2084 -0.5649  0.3903
 4188SOL    HW124200   2.411   2.323   9.630  0.8404  0.2279  1.5998
 4188SOL    HW224201   2.386   2.230   9.749  1.6142  2.8385  1.7677
 4189SOL     OW24202   4.516   4.515   0.606  0.2927  0.3024  0.0371
 4189SOL    HW124203   4.539   4.559   0.525  0.7132  1.1273  0.6098
 4189SOL    HW224204   4.520   4.422   0.581  0.9596  0.3126  0.0994
 4190SOL     OW24205   2.289   2.547  12.278  0.4509 -0.3133  0.1993
 4190SOL    HW124206   2.282   2.537  12.373 -0.2635  0.7554  0.2472
 4190SOL    HW224207   2.384   2.551  12.267  0.3434 -0.9950 -1.0304
 4191SOL     OW24208   0.795   0.121   4.997 -0.1734 -0.9921  0.4056
 4191SOL    HW124209   0.821   0.072   5.075 -0.3921 -0.7817  0.6084
 4191SOL    HW224210   0.762   0.055   4.936  3.3391 -2.3470 -0.0563
 4192SOL     OW24211   3.486   1.914   7.240 -0.2814  0.0725 -0.5392
 4192SOL    HW124212   3.508   1.921   7.333 -0.0554 -1.1081 -0.5011
 4192SOL    HW224213   3.401   1.871   7.247  0.3225 -1.1526 -0.7319
 4193SOL     OW24214   0.862   1.867  10.722 -0.1375 -0.6451  0.3576
 4193SOL    HW124215   0.792   1.851  10.658 -1.6884  0.4662  1.7793
 4193SOL    HW224216   0.908   1.942  10.684 -1.5263  0.1944  0.3322
 4194SOL     OW24217   4.471   4.201   4.993  0.5025 -0.4191 -0.3230
 4194SOL    HW124218   4.455   4.241   5.078  0.8360 -0.4770 -0.2343
 4194SOL    HW224219   4.552   4.246   4.969 -0.3682  1.4086  0.1761
 4195SOL     OW24220   3.988   4.093   3.643  0.3792  0.3093 -0.3945
 4195SOL    HW124221   3.927   4.047   3.701 -1.4867  2.3151 -0.7786
 4195SOL    HW224222   3.966   4.068   3.553  1.0931  3.1509 -1.3476
 4196SOL     OW24223   4.035   1.004   3.767  0.3633 -0.2672  0.1677
 4196SOL    HW124224   4.006   0.926   3.720  0.0456 -0.3383  0.4849
 4196SOL    HW224225   3.956   1.017   3.819  0.0878 -1.7227  0.1189
 4197SOL     OW24226   0.715   4.727   6.242  0.3182  0.3624  0.1646
 4197SOL    HW124227   0.809   4.731   6.220  0.2235  1.1982 -0.0932
 4197SOL    HW224228   0.695   4.639   6.210 -0.3326  0.9175 -0.9687
 4198SOL     OW24229   4.233   3.074   5.212 -0.2656 -0.5443  0.4160
 4198SOL    HW124230   4.281   3.139   5.263  0.7793  0.7016 -2.1283
 4198SOL    HW224231   4.299   3.013   5.177  0.8361  0.3728  0.9078
 4199SOL     OW24232   3.378   1.840  14.755 -0.6868  0.2230  0.3465
 4199SOL    HW124233   3.391   1.928  14.718 -1.5245  0.0730 -0.3095
 4199SOL    HW224234   3.429   1.790  14.691  2.3322  2.2590  1.1445
 4200SOL     OW24235   2.117   0.381   4.733  0.3114 -0.0893 -0.0433
 4200SOL    HW124236   2.188   0.444   4.747 -1.6153  2.1557 -0.4366
 4200SOL    HW224237   2.160   0.305   4.773  1.5131 -0.5416 -2.2350
 4201SOL     OW24238   3.383   3.754   0.682  0.1057 -0.7605 -0.1365
 4201SOL    HW124239   3.406   3.676   0.734  1.1040 -0.7337 -0.5402
 4201SOL    HW224240   3.403   3.728   0.593 -0.9217  2.0773 -1.1954
 4202SOL     OW24241   1.105   1.444   7.174 -0.4348  0.2620 -0.3396
 4202SOL    HW124242   1.096   1.501   7.250 -0.1585  1.7595 -1.4177
 4202SOL    HW224243   1.026   1.390   7.174 -0.0988 -0.2516 -3.3402
 4203SOL     OW24244   3.662   0.347   4.549 -0.3502 -0.0392 -0.0163
 4203SOL    HW124245   3.581   0.395   4.529  0.1318  0.3576 -1.0384
 4203SOL    HW224246   3.698   0.332   4.462  0.9314 -0.5059  0.5999
 4204SOL     OW24247   2.312   3.794   8.042  0.6025  0.5685  0.0185
 4204SOL    HW124248   2.298   3.717   7.986  2.3923  1.6419 -1.8924
 4204SOL    HW224249   2.396   3.773   8.083  0.7237 -1.0520 -1.0331
 4205SOL     OW24250   0.012   0.886   5.450  0.3739  0.3185 -0.3365
 4205SOL    HW124251   4.674   0.929   5.407  1.1013  0.7184 -1.1950
 4205SOL    HW224252   4.724   0.796   5.469  3.0046 -0.3981 -0.3976
 4206SOL     OW24253   3.842   1.368   7.729 -0.2039 -0.4238  0.4270
 4206SOL    HW124254   3.790   1.362   7.809  0.3875  0.1336  0.8609
 4206SOL    HW224255   3.797   1.293   7.690 -1.0607  0.2701  0.0847
 4207SOL     OW24256   0.359   0.749  14.593  0.6280 -0.2295  0.3255
 4207SOL    HW124257   0.288   0.791  14.545  1.5033  2.0172  0.9825
 4207SOL    HW224258   0.433   0.808  14.582  0.1950  0.2338 -0.1137
 4208SOL     OW24259   2.979   1.067  11.736  0.0927 -0.2135  0.3535
 4208SOL    HW124260   2.917   1.119  11.786  1.3368  0.6248  1.0155
 4208SOL    HW224261   2.971   1.109  11.650  0.4454 -1.8616 -0.4722
 4209SOL     OW24262   0.719   4.703  14.455  0.6053 -0.0648  0.2305
 4209SOL    HW124263   0.661   4.674  14.386 -0.0625  1.4524  0.1439
 4209SOL    HW224264   0.793   0.010  14.412  0.2269  1.6371  1.2887
 4210SOL     OW24265   1.106   4.683   9.846 -0.1439 -0.0832 -0.4859
 4210SOL    HW124266   1.099   4.628   9.924  1.9662 -0.5342 -0.6143
 4210SOL    HW224267   1.189   4.647   9.814  0.6412  0.5353  0.8657
 4211SOL     OW24268   1.660   4.721   2.125 -0.3174  0.0845  0.2671
 4211SOL    HW124269   1.618   4.729   2.210 -4.2076  1.5687 -1.8202
 4211SOL    HW224270   1.631   0.073   2.102 -1.2465 -0.5136 -0.8609
 4212SOL     OW24271   3.190   0.575   6.312  0.2592  0.3825 -0.1228
 4212SOL    HW124272   3.224   0.515   6.378  2.4204 -0.9386 -2.4232
 4212SOL    HW224273   3.100   0.541   6.308  0.8775 -1.2119 -0.9442
 4213SOL     OW24274   4.588   2.731   4.612  0.0483  0.1242  0.2848
 4213SOL    HW124275   4.594   2.787   4.535  0.1117 -0.6185 -0.2542
 4213SOL    HW224276   4.509   2.683   4.589  0.0761 -0.3482  1.1940
 4214SOL     OW24277   3.873   1.198   2.900 -0.2728  0.7639 -0.0732
 4214SOL    HW124278   3.858   1.150   2.819  0.1036  0.1913  0.1969
 4214SOL    HW224279   3.887   1.130   2.965  0.0753  1.9752  1.1199
 4215SOL     OW24280   1.451   2.855   0.695  0.8233  0.6244  0.4296
 4215SOL    HW124281   1.509   2.881   0.623 -1.4410 -2.0278 -2.3529
 4215SOL    HW224282   1.483   2.765   0.701 -1.5645 -0.2576 -0.0605
 4216SOL     OW24283   4.007   2.959  14.543  0.5164 -0.8113  0.0954
 4216SOL    HW124284   3.979   2.997  14.626 -1.3217  0.0335 -0.9126
 4216SOL    HW224285   4.095   2.932  14.571  1.0755 -0.2917 -1.1298
 4217SOL     OW24286   4.557   3.473   5.329  0.3592  0.3502  0.2693
 4217SOL    HW124287   4.619   3.471   5.402 -0.1994 -2.0009  0.6837
 4217SOL    HW224288   4.519   3.560   5.343 -0.6339 -0.1604  0.8177
 4218SOL     OW24289   4.085   3.628   9.804 -0.0004  0.0046 -0.1340
 4218SOL    HW124290   4.042   3.554   9.762  1.0455 -0.3369 -0.6035
 4218SOL    HW224291   4.035   3.645   9.884  0.0929 -0.2046 -0.0327
 4219SOL     OW24292   3.600   1.226   1.847  0.7850 -0.0942  0.5781
 4219SOL    HW124293   3.572   1.140   1.815 -0.8155  1.0532 -1.0694
 4219SOL    HW224294   3.544   1.242   1.923  0.3981 -0.3394  0.3431
 4220SOL     OW24295   1.763   2.508   7.840 -0.2588 -0.1169 -0.4776
 4220SOL    HW124296   1.853   2.486   7.814  0.5959  1.5359  1.0423
 4220SOL    HW224297   1.761   2.471   7.928  0.8010 -1.1644 -0.8970
 4221SOL     OW24298   2.555   1.833   3.914 -0.3245 -0.4018 -0.4588
 4221SOL    HW124299   2.477   1.835   3.970 -0.5848 -1.0180 -0.7983
 4221SOL    HW224300   2.588   1.746   3.937  0.1981  0.0605  0.5222
 4222SOL     OW24301   3.516   2.321   3.293 -0.0691 -0.1381  0.1830
 4222SOL    HW124302   3.507   2.300   3.200 -1.1966  1.0471  0.0233
 4222SOL    HW224303   3.434   2.369   3.300 -0.9951 -1.9778  1.8799
 4223SOL     OW24304   1.182   1.023  13.484 -0.0507  0.4106  0.3867
 4223SOL    HW124305   1.088   1.023  13.467 -0.1310 -1.5068  0.7826
 4223SOL    HW224306   1.213   1.076  13.410  3.7561  0.3174  1.9090
 4224SOL     OW24307   0.590   2.053   8.101 -0.5902  0.2911  0.0636
 4224SOL    HW124308   0.508   2.060   8.053 -2.0915  0.3416  2.5969
 4224SOL    HW224309   0.571   1.963   8.131  0.7462 -0.5861 -1.7492
 4225SOL     OW24310   3.945   2.312   2.388  0.3121  0.4087 -0.2046
 4225SOL    HW124311   4.016   2.312   2.453 -1.6666 -0.2205  1.9631
 4225SOL    HW224312   3.937   2.222   2.357  1.8428  0.4836 -0.8361
 4226SOL     OW24313   3.777   3.710   8.566  0.3476 -0.2237 -0.3268
 4226SOL    HW124314   3.829   3.688   8.489  1.6999  1.0204  0.2498
 4226SOL    HW224315   3.844   3.711   8.633  2.1816 -0.6681 -2.1651
 4227SOL     OW24316   1.882   3.789  16.443  0.1647  0.4467  0.2639
 4227SOL    HW124317   1.899   3.866  16.388  0.8146  1.4323  1.8437
 4227SOL    HW224318   1.961   3.776  16.495  1.1756  0.2268 -1.3043
 4228SOL     OW24319   3.379   2.132   7.815  0.6439  0.0734  0.5709
 4228SOL    HW124320   3.462   2.179   7.808  0.4171  0.5762  1.2131
 4228SOL    HW224321   3.314   2.196   7.841 -1.1205 -0.9010 -1.4521
 4229SOL     OW24322   0.805   2.061   7.921  0.1186 -0.3155  0.1667
 4229SOL    HW124323   0.885   2.108   7.943  0.6569 -1.0062 -0.3201
 4229SOL    HW224324   0.757   2.053   8.004 -1.0083 -1.7246 -0.6134
 4230SOL     OW24325   3.909   4.253  14.431  0.4761  0.1335 -0.2570
 4230SOL    HW124326   3.879   4.259  14.522  1.8767 -1.1890  0.2942
 4230SOL    HW224327   3.919   4.159  14.412 -0.9788 -0.2074  0.5805
 4231SOL     OW24328   3.623   1.273   8.636 -0.3150 -0.8330  0.0253
 4231SOL    HW124329   3.555   1.216   8.674 -1.4183  1.0536  0.8567
 4231SOL    HW224330   3.630   1.348   8.694  1.6169  0.8888 -2.4532
 4232SOL     OW24331   3.027   2.972   6.462  0.5519 -0.7253 -0.0336
 4232SOL    HW124332   3.007   2.886   6.425  0.4686 -0.0615 -1.5375
 4232SOL    HW224333   2.940   3.011   6.449  1.5054  2.1781  2.1298
 4233SOL     OW24334   3.024   2.129   2.995 -0.1971  0.5048  0.6104
 4233SOL    HW124335   2.963   2.203   2.997 -0.9983 -0.1721  1.3534
 4233SOL    HW224336   2.985   2.061   3.051 -0.2173  1.0996  1.3181
 4234SOL     OW24337   0.642   2.768   4.663  0.2039 -0.0821 -0.2466
 4234SOL    HW124338   0.725   2.780   4.616  0.5221  2.6833  0.9842
 4234SOL    HW224339   0.587   2.784   4.587 -0.9661  0.2939  0.6783
 4235SOL     OW24340   1.874   3.466   4.894 -0.2267  0.4788  0.2147
 4235SOL    HW124341   1.810   3.490   4.961 -0.9031 -0.2139 -0.1772
 4235SOL    HW224342   1.823   3.425   4.823  1.3990  1.3244 -1.4255
 4236SOL     OW24343   0.512   2.016   1.928 -0.2979 -0.1473  0.6326
 4236SOL    HW124344   0.578   1.949   1.947  0.1773  0.2048  0.2122
 4236SOL    HW224345   0.461   2.016   2.009 -1.1708 -0.7865  0.0932
 4237SOL     OW24346   1.725   3.574  16.470  0.3600 -0.3419 -0.2142
 4237SOL    HW124347   1.684   3.606  16.550 -0.1434 -0.8415 -0.2716
 4237SOL    HW224348   1.782   3.650  16.457 -0.1788 -0.3896 -2.8835
 4238SOL     OW24349   0.814   1.350  16.515  0.2358 -0.5804 -0.1485
 4238SOL    HW124350   0.908   1.333  16.511  0.2392 -0.4742 -0.5404
 4238SOL    HW224351   0.807   1.361  16.610 -3.5494 -2.6691 -0.2199
 4239SOL     OW24352   1.311   0.768   1.742 -0.5615  0.3116 -0.3664
 4239SOL    HW124353   1.284   0.801   1.657  1.6677  1.0984 -0.7657
 4239SOL    HW224354   1.227   0.766   1.788  0.2423  2.3434  1.1829
 4240SOL     OW24355   0.388   2.613   1.511  0.1146  0.2048 -0.6561
 4240SOL    HW124356   0.467   2.664   1.531  0.0554 -0.8209  2.1090
 4240SOL    HW224357   0.342   2.628   1.593  0.1529 -1.5131 -0.3185
 4241SOL     OW24358   2.368   0.353   5.168 -0.4360  0.2125  0.3367
 4241SOL    HW124359   2.283   0.366   5.127 -0.3718 -1.1636 -0.2237
 4241SOL    HW224360   2.417   0.435   5.163 -0.5175  0.2584  0.2930
 4242SOL     OW24361   0.048   0.446   8.903  0.1340 -0.2023 -0.0254
 4242SOL    HW124362   0.070   0.468   8.812 -1.4926  0.7046 -0.2064
 4242SOL    HW224363   4.707   0.501   8.917 -0.3757 -0.8277 -0.3772
 4243SOL     OW24364   2.544   2.963   5.009 -0.3092  0.1877  0.0364
 4243SOL    HW124365   2.527   2.958   4.915 -1.1459 -1.8352  0.2921
 4243SOL    HW224366   2.452   2.981   5.031 -0.6574  0.1547 -1.4264
 4244SOL     OW24367   1.207   1.097  12.953  0.5731  0.1015  0.7984
 4244SOL    HW124368   1.112   1.086  12.959  0.5284  1.5513  2.7378
 4244SOL    HW224369   1.247   1.031  13.009  0.4431 -0.7851 -0.1507
 4245SOL     OW24370   1.718   4.714  15.452  0.4106 -0.3834 -0.3230
 4245SOL    HW124371   1.699   4.698  15.360  3.1296  0.1065 -0.9702
 4245SOL    HW224372   1.703   0.071  15.466 -4.7852 -1.0311 -1.5863
 4246SOL     OW24373   1.964   3.551   4.175  0.3640  0.4048  0.5334
 4246SOL    HW124374   1.991   3.461   4.157  1.8767  0.8945  0.2849
 4246SOL    HW224375   1.916   3.565   4.093  1.9567 -1.4712 -0.7249
 4247SOL     OW24376   3.775   0.662   7.157  0.9933 -0.1751  0.8718
 4247SOL    HW124377   3.846   0.662   7.093 -1.2874  1.1053 -1.6665
 4247SOL    HW224378   3.723   0.735   7.124  1.6450 -1.1070 -2.1739
 4248SOL     OW24379   1.109   0.314   6.358  0.1797 -0.0434 -0.0533
 4248SOL    HW124380   1.192   0.357   6.377  0.9000 -1.0452 -0.8963
 4248SOL    HW224381   1.142   0.258   6.287  0.3017  0.5537 -0.4619
 4249SOL     OW24382   2.251   3.104   8.395  0.0759 -0.0510  0.1402
 4249SOL    HW124383   2.196   3.039   8.439 -0.8332  1.0068  0.5828
 4249SOL    HW224384   2.299   3.151   8.464 -0.5979  2.4681 -1.1213
 4250SOL     OW24385   3.901   1.115   8.602 -0.6405  0.6494 -0.1127
 4250SOL    HW124386   3.823   1.157   8.637 -1.3235 -1.1940  0.6042
 4250SOL    HW224387   3.874   1.024   8.617  0.3447  0.5470  1.0227
 4251SOL     OW24388   1.479   3.610   1.394 -0.7246  0.0601  0.0911
 4251SOL    HW124389   1.536   3.686   1.391  0.0366 -0.4974  0.4306
 4251SOL    HW224390   1.389   3.642   1.402 -1.4884 -1.7417 -1.1575
 4252SOL     OW24391   0.501   3.423   3.443  0.5998  0.6819 -0.4584
 4252SOL    HW124392   0.445   3.407   3.519 -0.4025 -3.2154 -2.0527
 4252SOL    HW224393   0.438   3.466   3.385 -1.5342 -0.4124  1.0376
 4253SOL     OW24394   0.310   2.861   8.327  0.0367 -0.0778  0.0141
 4253SOL    HW124395   0.288   2.800   8.398 -1.4997 -0.7531 -1.0421
 4253SOL    HW224396   0.230   2.913   8.325 -1.2274 -2.0019  0.6868
 4254SOL     OW24397   0.235   2.606  12.716 -0.3229 -0.5870  0.0120
 4254SOL    HW124398   0.259   2.598  12.808 -1.1929 -4.0764 -0.0641
 4254SOL    HW224399   0.288   2.682  12.693  0.4452 -0.1336  3.3277
 4255SOL     OW24400   2.872   1.728   2.737  0.0455 -0.0569  0.1085
 4255SOL    HW124401   2.939   1.766   2.794  0.2921  0.5630 -0.5938
 4255SOL    HW224402   2.875   1.635   2.763 -0.9705  0.5813  2.4901
 4256SOL     OW24403   3.278   3.099   7.433 -0.4144  0.3039 -0.1447
 4256SOL    HW124404   3.343   3.072   7.498 -0.3898  1.8393  0.4742
 4256SOL    HW224405   3.306   3.044   7.360 -0.3383 -1.0232  0.8773
 4257SOL     OW24406   2.192   3.445   5.463 -0.8172  0.1863 -0.6138
 4257SOL    HW124407   2.277   3.457   5.505 -0.1596 -2.1410 -1.3048
 4257SOL    HW224408   2.136   3.509   5.508  1.2959 -0.6279  3.1737
 4258SOL     OW24409   2.745   0.940  10.323 -0.0637 -0.4969  0.0233
 4258SOL    HW124410   2.696   0.966  10.245  0.0341 -0.1981  0.0582
 4258SOL    HW224411   2.808   1.010  10.341 -0.8775  1.0373 -3.1151
 4259SOL     OW24412   3.667   3.270   6.848 -0.4524  0.2084 -0.1733
 4259SOL    HW124413   3.671   3.200   6.783  1.5168 -2.1370  2.4519
 4259SOL    HW224414   3.748   3.320   6.843  0.2830 -0.6984  2.4876
 4260SOL     OW24415   2.968   3.053  12.019 -0.2819 -0.0528 -0.2350
 4260SOL    HW124416   2.996   2.972  12.061  1.2316  0.9104  0.5788
 4260SOL    HW224417   3.003   3.119  12.078 -0.5472 -0.7651  0.7061
 4261SOL     OW24418   4.194   2.729  16.242  0.0879 -0.5099 -0.2378
 4261SOL    HW124419   4.230   2.659  16.296  0.1609 -1.0895 -1.0381
 4261SOL    HW224420   4.236   2.811  16.268 -0.9511 -0.6406  1.8505
 4262SOL     OW24421   0.361   0.070   7.656 -0.3686  0.1711  0.5628
 4262SOL    HW124422   0.315   0.038   7.734 -0.4527 -0.7368  0.1408
 4262SOL    HW224423   0.423   0.128   7.699  0.3737  0.2997 -0.7068
 4263SOL     OW24424   3.558   3.470   7.997 -0.1488  0.2569  0.1715
 4263SOL    HW124425   3.567   3.544   7.936  0.6766  1.2962  1.5464
 4263SOL    HW224426   3.636   3.480   8.051 -0.4136  1.3037  0.3690
 4264SOL     OW24427   1.139   3.744   1.129  0.4109 -0.0437  0.5652
 4264SOL    HW124428   1.115   3.679   1.195 -1.1868  1.2218  1.2194
 4264SOL    HW224429   1.078   3.814   1.153  1.3258  1.8084 -2.5289
 4265SOL     OW24430   3.312   3.575   9.758  0.1793  0.5456  1.2288
 4265SOL    HW124431   3.342   3.484   9.760 -0.7453  0.2411  1.1257
 4265SOL    HW224432   3.219   3.566   9.738 -0.1300  2.7892  1.7579
 4266SOL     OW24433   0.126   2.916   2.725 -0.0029  0.2967  0.2666
 4266SOL    HW124434   0.096   2.951   2.641  3.0168  0.4658 -0.7497
 4266SOL    HW224435   0.068   2.966   2.782  0.6377  0.3455  0.8770
 4267SOL     OW24436   2.304   0.723   3.986  0.4884 -0.3006 -0.0411
 4267SOL    HW124437   2.253   0.775   3.923 -0.1081  0.0352  0.7260
 4267SOL    HW224438   2.342   0.651   3.935  2.6722 -0.2718  1.5704
 4268SOL     OW24439   3.610   3.691  17.248  0.1102 -0.0502 -0.4805
 4268SOL    HW124440   3.634   3.598  17.244  1.7955  0.3307  1.0300
 4268SOL    HW224441   3.587   3.691  17.341  0.0976 -3.7725 -0.4624
 4269SOL     OW24442   1.630   3.426   6.404 -0.0541  0.2276  0.2938
 4269SOL    HW124443   1.663   3.444   6.316  3.1595 -1.1142  1.2489
 4269SOL    HW224444   1.567   3.498   6.416  1.5521  1.7059 -0.1061
 4270SOL     OW24445   4.441   1.289   9.767 -0.0882 -0.3756  0.2319
 4270SOL    HW124446   4.426   1.194   9.766 -2.0114 -0.0560 -3.2706
 4270SOL    HW224447   4.428   1.310   9.860  3.4162  0.8333  0.4462
 4271SOL     OW24448   0.966   3.089   9.069  0.2855 -0.5926 -0.4767
 4271SOL    HW124449   0.944   3.175   9.032 -2.4256 -0.9779  0.2614
 4271SOL    HW224450   0.965   3.035   8.990  1.0909  1.3450 -1.8160
 4272SOL     OW24451   2.862   1.690   3.164  0.4226 -0.1477 -0.2417
 4272SOL    HW124452   2.856   1.625   3.094  0.1456 -0.4182  0.0294
 4272SOL    HW224453   2.928   1.652   3.222 -1.1926 -0.7160  1.2512
 4273SOL     OW24454   3.069   3.506   5.786  0.3479  0.2061  0.6611
 4273SOL    HW124455   2.988   3.547   5.755  1.6078  1.0642 -1.5299
 4273SOL    HW224456   3.057   3.515   5.881 -0.0522 -1.1614  0.7322
 4274SOL     OW24457   1.312   0.870   3.640 -0.6515  0.3451 -0.2566
 4274SOL    HW124458   1.353   0.954   3.658 -0.3000 -0.2833  1.9405
 4274SOL    HW224459   1.235   0.873   3.697  0.7804 -0.1202  1.7234
 4275SOL     OW24460   2.383   0.946   3.039  0.0747 -0.2236 -0.5777
 4275SOL    HW124461   2.338   1.021   3.078 -0.2002 -0.6334 -0.1065
 4275SOL    HW224462   2.379   0.977   2.948 -1.7457  1.7854  0.2038
 4276SOL     OW24463   4.639   1.962   6.587  0.9378 -0.0599 -0.3723
 4276SOL    HW124464   4.586   1.908   6.530  2.2853 -3.1043  1.2551
 4276SOL    HW224465   4.611   1.928   6.672  1.7671 -1.4523 -0.6609
 4277SOL     OW24466   2.963   4.518   4.875  0.3249 -0.2737  0.1542
 4277SOL    HW124467   2.874   4.485   4.886  0.0891  0.6942  1.0796
 4277SOL    HW224468   2.938   4.577   4.804 -1.5580 -0.9001  0.2938
 4278SOL     OW24469   0.585   0.374   9.445  0.3221 -0.0023  0.2816
 4278SOL    HW124470   0.623   0.288   9.464  0.6896 -0.5917 -3.2528
 4278SOL    HW224471   0.593   0.423   9.527  1.0968 -0.0316  0.2222
 4279SOL     OW24472   0.391   3.746   5.530 -0.4978 -0.2935 -0.1452
 4279SOL    HW124473   0.321   3.773   5.590  1.5314  1.2718  1.5120
 4279SOL    HW224474   0.356   3.769   5.444 -0.6262 -0.4742 -0.1405
 4280SOL     OW24475   1.607   1.643  13.362 -0.0829 -0.3530 -0.2242
 4280SOL    HW124476   1.621   1.553  13.392  0.1216 -0.8202 -1.6883
 4280SOL    HW224477   1.517   1.660  13.388 -0.0800 -0.8414  0.1103
 4281SOL     OW24478   4.074   3.408   5.352 -0.1885 -0.8243 -0.3883
 4281SOL    HW124479   4.167   3.394   5.365  0.2784  1.4812 -1.3124
 4281SOL    HW224480   4.040   3.318   5.346 -1.5822 -0.0739 -4.2711
 4282SOL     OW24481   1.650   3.084   1.335  0.1673  0.0656  0.0993
 4282SOL    HW124482   1.599   3.127   1.266  1.9655  1.1316 -0.5617
 4282SOL    HW224483   1.584   3.027   1.375  1.1006 -1.4422 -0.5202
 4283SOL     OW24484   2.123   4.280   7.330 -0.4539  0.5432 -0.0476
 4283SOL    HW124485   2.173   4.284   7.412 -1.6250  0.2696  0.6699
 4283SOL    HW224486   2.197   4.257   7.272  1.2682  1.0995  1.9409
 4284SOL     OW24487   4.254   2.972  16.305  0.0311 -0.1325  0.2044
 4284SOL    HW124488   4.256   3.004  16.395  1.1889 -1.8849  0.8207
 4284SOL    HW224489   4.182   3.026  16.275  0.2381 -0.9605 -1.7525
 4285SOL     OW24490   0.972   1.734   5.222  0.1814 -0.1182 -0.3815
 4285SOL    HW124491   1.044   1.707   5.279  0.5060 -0.3842 -0.9192
 4285SOL    HW224492   1.032   1.740   5.148  1.1040  0.7463  0.4395
 4286SOL     OW24493   3.841   1.298   7.041  0.0855 -0.2627 -0.3802
 4286SOL    HW124494   3.837   1.265   7.131 -3.7067 -1.3529 -0.9545
 4286SOL    HW224495   3.749   1.314   7.021 -0.0692  1.4542  1.6817
 4287SOL     OW24496   0.795   0.662   1.364 -0.4879 -0.1607 -0.1470
 4287SOL    HW124497   0.843   0.745   1.363 -1.8079  0.6054 -0.1056
 4287SOL    HW224498   0.708   0.682   1.328  0.0277  0.5040 -1.0490
 4288SOL     OW24499   2.239   3.520   7.596 -0.0524 -0.5152 -0.2430
 4288SOL    HW124500   2.152   3.482   7.594  0.5881 -1.9262 -0.8603
 4288SOL    HW224501   2.214   3.612   7.600 -1.7714 -1.0261  0.6249
 4289SOL     OW24502   0.294   2.178  10.769 -0.0993  0.2337 -0.1015
 4289SOL    HW124503   0.316   2.181  10.676 -0.8381  0.3783 -0.2656
 4289SOL    HW224504   0.348   2.105  10.799  0.2645  0.4484 -0.2310
 4290SOL     OW24505   4.339   0.875   5.043  0.5007 -0.1368  0.1522
 4290SOL    HW124506   4.266   0.816   5.063  0.0987  0.3412  0.1079
 4290SOL    HW224507   4.296   0.953   5.080 -0.5977 -0.8878  0.4584
 4291SOL     OW24508   3.521   2.545   1.365  0.1765 -1.0990 -0.3308
 4291SOL    HW124509   3.447   2.514   1.417 -0.3243  1.1387  0.3063
 4291SOL    HW224510   3.567   2.462   1.357 -2.0649 -2.3912  0.1932
 4292SOL     OW24511   4.131   3.458   6.899  0.2432 -0.4001 -0.6111
 4292SOL    HW124512   4.117   3.389   6.963 -1.6812  0.2468 -0.3375
 4292SOL    HW224513   4.197   3.423   6.839  0.0895 -0.0467 -0.9901
 4293SOL     OW24514   0.993   2.108   2.458  0.2867 -0.3732  0.2149
 4293SOL    HW124515   1.068   2.162   2.432  0.3052 -0.7842 -0.5846
 4293SOL    HW224516   0.929   2.179   2.447  0.2693 -0.5828 -1.0293
 4294SOL     OW24517   0.717   2.614   5.670  0.6523  0.0581  0.4121
 4294SOL    HW124518   0.678   2.660   5.744 -0.4313  0.9068 -0.6886
 4294SOL    HW224519   0.698   2.675   5.599  0.7354 -1.8920 -1.3204
 4295SOL     OW24520   3.152   2.026   3.771 -0.3324  0.0728 -0.3189
 4295SOL    HW124521   3.228   2.075   3.739 -0.7853  0.1094 -1.3274
 4295SOL    HW224522   3.093   2.099   3.791  1.0259  1.2785 -0.6708
 4296SOL     OW24523   2.004   3.944   0.907  0.1410 -0.2596  0.3165
 4296SOL    HW124524   1.920   3.958   0.862 -1.0331 -1.1459  2.2146
 4296SOL    HW224525   2.045   3.896   0.835  0.7892  0.6363  0.0954
 4297SOL     OW24526   2.594   4.241  14.861 -0.1640  0.3594 -0.1363
 4297SOL    HW124527   2.627   4.178  14.926  2.1643  2.5165  0.8061
 4297SOL    HW224528   2.549   4.178  14.806 -1.7893  0.9516  0.5118
 4298SOL     OW24529   0.052   0.183   3.534  0.1668 -0.2907  0.2805
 4298SOL    HW124530   4.731   0.245   3.578 -0.1480 -0.6723  0.4005
 4298SOL    HW224531   0.070   0.217   3.446 -0.9198 -4.7102 -1.6482
 4299SOL     OW24532   2.658   3.505   1.686 -0.0758  0.1925 -0.0378
 4299SOL    HW124533   2.639   3.557   1.609 -0.0707 -0.5451 -0.5416
 4299SOL    HW224534   2.715   3.445   1.637  0.3568  0.6468 -0.0886
 4300SOL     OW24535   0.898   2.970  12.726 -0.0003 -0.2231 -0.2445
 4300SOL    HW124536   0.824   3.004  12.677  0.4256 -0.3432 -0.9876
 4300SOL    HW224537   0.865   2.992  12.813 -2.5862  0.9499 -1.5463
 4301SOL     OW24538   4.298   1.350   0.933  0.0593  0.8169  0.0682
 4301SOL    HW124539   4.210   1.365   0.968 -1.1786 -1.5037 -2.1507
 4301SOL    HW224540   4.285   1.336   0.840  3.7145 -0.7226 -0.1907
 4302SOL     OW24541   3.016   3.405   7.814 -0.4676  0.5687  0.0984
 4302SOL    HW124542   3.079   3.455   7.762  0.7568 -0.2411  0.8238
 4302SOL    HW224543   3.036   3.441   7.900  0.0641  1.3009 -0.3283
 4303SOL     OW24544   0.232   0.496  11.064  0.5018  0.1198 -0.2534
 4303SOL    HW124545   0.244   0.585  11.097  1.7823  1.1069 -3.3806
 4303SOL    HW224546   0.303   0.495  11.000  0.7699  2.7689 -0.0055
 4304SOL     OW24547   1.087   4.099   2.265  0.3298 -0.0687 -0.3722
 4304SOL    HW124548   1.118   4.149   2.341 -2.7384  1.2749 -0.0145
 4304SOL    HW224549   1.171   4.055   2.248  0.7342  0.0065  1.3878
 4305SOL     OW24550   2.740   0.826   7.366  0.0539 -0.4377  0.1207
 4305SOL    HW124551   2.812   0.867   7.319 -1.7617  0.9197 -1.5079
 4305SOL    HW224552   2.763   0.734   7.377  0.6084 -0.1627  1.3350
 4306SOL     OW24553   3.625   3.429   2.595 -0.0425 -0.2179 -0.4578
 4306SOL    HW124554   3.605   3.338   2.614  1.0509 -0.3430  0.0815
 4306SOL    HW224555   3.546   3.462   2.551 -0.6799  0.9239  1.4763
 4307SOL     OW24556   0.995   2.784   7.667  0.3601  0.8658 -0.2183
 4307SOL    HW124557   0.932   2.786   7.739  1.0738 -1.0866  0.4628
 4307SOL    HW224558   0.995   2.872   7.630  1.2878  0.8897 -0.1712
 4308SOL     OW24559   4.487   3.543   6.509 -0.2577  0.1714 -0.1309
 4308SOL    HW124560   4.443   3.547   6.424 -2.8154  0.0411  1.1876
 4308SOL    HW224561   4.489   3.636   6.532 -0.4269  1.0058 -3.3788
 4309SOL     OW24562   2.645   2.762   1.948  0.0801 -0.0205  0.0840
 4309SOL    HW124563   2.741   2.757   1.943  0.3686  2.0026  3.8312
 4309SOL    HW224564   2.615   2.842   1.905 -0.8877  0.9888  2.6407
 4310SOL     OW24565   2.665   1.421   2.256  0.0635  0.0580  0.0948
 4310SOL    HW124566   2.645   1.501   2.208 -0.1036 -0.1332 -0.1477
 4310SOL    HW224567   2.746   1.453   2.297 -0.5611 -0.6449  1.9056
 4311SOL     OW24568   4.439   0.206   2.496 -0.1035 -0.0350  0.2026
 4311SOL    HW124569   4.473   0.175   2.412 -1.6147  1.3899 -0.9460
 4311SOL    HW224570   4.445   0.127   2.550  1.0006 -0.2822 -0.2787
 4312SOL     OW24571   1.200   4.642   4.124 -0.0839 -0.7095  0.2406
 4312SOL    HW124572   1.189   4.633   4.218  0.4196  0.4023  0.4059
 4312SOL    HW224573   1.185   4.733   4.100 -0.1353 -1.3597 -2.2021
 4313SOL     OW24574   3.317   0.058   4.411  0.4117 -0.0714 -0.2117
 4313SOL    HW124575   3.228   0.083   4.438  0.5654  1.1985 -0.9085
 4313SOL    HW224576   3.332   4.734   4.485  0.2014  0.7494  0.4993
 4314SOL     OW24577   2.636   3.683  16.718 -1.2165 -0.0352 -0.5225
 4314SOL    HW124578   2.649   3.616  16.785  1.1613 -0.6586 -1.5826
 4314SOL    HW224579   2.653   3.765  16.764 -1.0166 -1.8189  2.5870
 4315SOL     OW24580   0.301   0.250   2.583 -0.1146  0.1323  0.7889
 4315SOL    HW124581   0.258   0.284   2.662  0.5106 -2.5455  2.2854
 4315SOL    HW224582   0.395   0.249   2.600 -0.2573 -1.3994  1.4611
 4316SOL     OW24583   4.719   4.628   6.265 -0.3463  0.0422 -0.1826
 4316SOL    HW124584   4.662   4.669   6.200 -0.6917 -1.6022 -0.9299
 4316SOL    HW224585   0.065   4.676   6.255  0.1006 -0.8885 -0.9825
 4317SOL     OW24586   1.656   1.162   8.476 -0.7523 -0.1903 -0.0504
 4317SOL    HW124587   1.632   1.131   8.563 -1.3357  0.8759  0.1678
 4317SOL    HW224588   1.678   1.254   8.488 -1.0244  0.0341 -1.2336
 4318SOL     OW24589   1.884   2.668   2.171 -0.3359  0.8410 -0.1322
 4318SOL    HW124590   1.925   2.740   2.122  0.9871  0.2998  0.1645
 4318SOL    HW224591   1.855   2.717   2.248 -0.1807  0.5340  0.1215
 4319SOL     OW24592   4.510   0.472   8.869 -0.3064  0.8208  0.7331
 4319SOL    HW124593   4.417   0.473   8.891 -1.3822  1.3373 -3.8072
 4319SOL    HW224594   4.505   0.381   8.841 -1.1725  0.9663  0.4131
 4320SOL     OW24595   2.645   1.651   2.080  0.7548  0.1427  0.0388
 4320SOL    HW124596   2.699   1.720   2.040  0.9384  1.7007  2.9382
 4320SOL    HW224597   2.593   1.619   2.007  0.2356  0.8021  0.1116
 4321SOL     OW24598   4.627   0.631   6.044  0.1651 -0.3637 -0.0152
 4321SOL    HW124599   4.664   0.651   6.130  1.5021 -0.4859 -0.5686
 4321SOL    HW224600   4.694   0.575   6.005 -0.0365 -0.4822 -0.1936
 4322SOL     OW24601   2.459   0.073   8.115 -0.3050 -0.4179 -0.4385
 4322SOL    HW124602   2.506   0.039   8.039 -0.9316 -0.2944 -0.8855
 4322SOL    HW224603   2.452   0.165   8.092  1.1787 -0.7611 -2.2630
 4323SOL     OW24604   3.797   3.615   9.916  0.2598  0.3013 -0.7744
 4323SOL    HW124605   3.726   3.671   9.886  1.8569  2.1511 -1.1328
 4323SOL    HW224606   3.742   3.537   9.927 -0.6074  1.1462  0.9041
 4324SOL     OW24607   1.716   2.121  17.180  0.0012  0.2392 -0.1727
 4324SOL    HW124608   1.713   2.173  17.100 -1.2133 -0.3931 -0.5344
 4324SOL    HW224609   1.639   2.065  17.180 -0.4232  0.8201  0.0558
 4325SOL     OW24610   4.325   2.686  11.751 -0.0502 -0.1054  0.2915
 4325SOL    HW124611   4.231   2.690  11.736 -0.0666  0.5742  0.5852
 4325SOL    HW224612   4.331   2.639  11.834  1.3543 -0.2374  0.1216
 4326SOL     OW24613   4.167   1.563   9.908 -0.1756  0.2848  0.2035
 4326SOL    HW124614   4.173   1.470   9.885 -2.3380  0.4105 -0.8750
 4326SOL    HW224615   4.251   1.575   9.952  0.4556 -0.2324 -0.8484
 4327SOL     OW24616   4.234   1.612  12.886  0.1548 -0.2762 -0.3478
 4327SOL    HW124617   4.189   1.539  12.844 -0.0691 -0.8208  0.8592
 4327SOL    HW224618   4.318   1.579  12.916 -0.9196 -0.5712  2.2899
 4328SOL     OW24619   4.619   1.620   5.412 -0.5897  0.1378 -0.0914
 4328SOL    HW124620   4.661   1.564   5.346  1.3574  3.3149 -1.5048
 4328SOL    HW224621   4.564   1.677   5.359 -1.2644  0.2183  0.6984
 4329SOL     OW24622   3.248   2.044   9.648 -0.5788 -0.4917  0.5464
 4329SOL    HW124623   3.250   1.961   9.695  0.9205 -0.4021  0.6445
 4329SOL    HW224624   3.337   2.080   9.657 -0.5589 -0.6710  1.1019
 4330SOL     OW24625   2.535   3.244   4.844 -0.0032 -0.2489  0.5089
 4330SOL    HW124626   2.511   3.167   4.792 -1.0076 -0.0525  0.6843
 4330SOL    HW224627   2.513   3.215   4.933  0.3903  0.4435  0.8310
 4331SOL     OW24628   0.096   3.131   7.070 -0.4783 -0.1294 -0.7175
 4331SOL    HW124629   0.102   3.146   6.976 -0.7601 -0.0310 -0.7228
 4331SOL    HW224630   0.161   3.200   7.085 -0.0642 -0.2339 -1.9994
 4332SOL     OW24631   3.388   0.748   2.974  0.3185 -0.2329  0.1378
 4332SOL    HW124632   3.382   0.819   3.037 -0.9597  0.0491 -0.3073
 4332SOL    HW224633   3.414   0.676   3.032  0.9422 -0.0120  0.1372
 4333SOL     OW24634   3.612   2.371   0.867  0.2264  0.2497 -0.2522
 4333SOL    HW124635   3.682   2.310   0.842 -1.6298 -2.8994  2.1526
 4333SOL    HW224636   3.562   2.317   0.929  2.1065  0.1460  1.1862
 4334SOL     OW24637   1.086   1.289   6.920  0.3642  0.0847 -0.4409
 4334SOL    HW124638   1.006   1.289   6.972 -0.6666  1.4625 -2.0364
 4334SOL    HW224639   1.112   1.380   6.936  0.1445 -0.4670  3.0327
 4335SOL     OW24640   4.438   3.020   7.315  0.4289 -0.2919 -0.0925
 4335SOL    HW124641   4.461   2.937   7.273 -0.2073  0.0329 -1.0881
 4335SOL    HW224642   4.485   3.077   7.254  0.2775  0.9709  0.9532
 4336SOL     OW24643   2.152   2.675   8.599  0.4887 -0.0712 -0.3125
 4336SOL    HW124644   2.127   2.619   8.526 -1.2232 -0.0913  0.2958
 4336SOL    HW224645   2.236   2.636   8.625  0.8513  0.2167 -1.0608
 4337SOL     OW24646   2.669   1.673   0.063  0.1554 -0.9325  0.4253
 4337SOL    HW124647   2.744   1.684   0.122 -0.5710  0.8889  1.0209
 4337SOL    HW224648   2.703   1.671  17.718  0.0203 -0.4160  0.3662
 4338SOL     OW24649   1.898   0.396  15.445 -0.5522 -0.1892 -0.0624
 4338SOL    HW124650   1.992   0.410  15.451 -0.6243  0.1884  0.2138
 4338SOL    HW224651   1.882   0.340  15.370  0.0490 -0.3969 -0.0289
 4339SOL     OW24652   2.829   3.906  10.647  0.0233 -0.4384 -0.1678
 4339SOL    HW124653   2.773   3.982  10.636 -0.7426 -0.8495  0.9035
 4339SOL    HW224654   2.851   3.898  10.555 -1.5836  1.1735 -0.6830
 4340SOL     OW24655   2.792   3.237   7.822  0.3781  0.0966 -0.6296
 4340SOL    HW124656   2.862   3.300   7.805 -1.1205  1.7785 -0.5178
 4340SOL    HW224657   2.776   3.195   7.737 -0.8406 -3.3146  1.2590
 4341SOL     OW24658   3.938   2.169  11.792  0.0061  1.0372 -0.0680
 4341SOL    HW124659   4.011   2.140  11.846 -0.2686  1.8055  0.6983
 4341SOL    HW224660   3.865   2.147  11.850  1.3516  0.8329  1.5422
 4342SOL     OW24661   4.498   3.574   8.580 -0.1339 -0.2890  0.9530
 4342SOL    HW124662   4.518   3.562   8.488 -0.6906 -0.4977  0.8569
 4342SOL    HW224663   4.534   3.497   8.623  0.8381  0.5732  1.6853
 4343SOL     OW24664   1.004   1.551   6.412 -0.3678  0.1442  0.0581
 4343SOL    HW124665   1.007   1.627   6.471 -1.5939  0.5842 -0.4358
 4343SOL    HW224666   0.928   1.573   6.357  0.3518 -0.1707 -1.0521
 4344SOL     OW24667   1.257   3.591   2.185  0.4594  0.1962 -0.0493
 4344SOL    HW124668   1.279   3.501   2.160 -1.9755  0.3942 -2.7983
 4344SOL    HW224669   1.205   3.575   2.263  1.7024 -2.2705  0.2738
 4345SOL     OW24670   2.048   0.885   2.589 -0.1800 -0.0650  0.1718
 4345SOL    HW124671   2.096   0.829   2.528 -1.5549  0.7265 -1.6304
 4345SOL    HW224672   2.040   0.841   2.673 -0.7947 -0.2110  0.0324
 4346SOL     OW24673   4.570   0.181   8.073 -0.1219  0.2559  0.7700
 4346SOL    HW124674   4.538   0.097   8.108  0.2276  0.0231  0.5369
 4346SOL    HW224675   4.544   0.165   7.982 -0.7702 -0.2856  1.0454
 4347SOL     OW24676   0.803   4.419   5.299  0.4879 -0.1542  0.3325
 4347SOL    HW124677   0.777   4.511   5.303  0.7472  0.0264 -2.2721
 4347SOL    HW224678   0.757   4.376   5.371  0.6266 -2.2843 -0.8378
 4348SOL     OW24679   1.510   1.386  11.494  0.6821  0.0480 -0.3549
 4348SOL    HW124680   1.489   1.410  11.404  0.0030  1.7236  0.2367
 4348SOL    HW224681   1.603   1.408  11.496  0.3250  1.3936  1.7980
 4349SOL     OW24682   2.145   2.138   6.978 -0.3088 -0.2354  0.2195
 4349SOL    HW124683   2.102   2.066   6.931 -0.1358 -1.1648  1.4993
 4349SOL    HW224684   2.152   2.089   7.059 -0.6460 -1.1732 -0.3195
 4350SOL     OW24685   3.965   2.064   3.120 -0.4742 -0.0450  0.5711
 4350SOL    HW124686   3.872   2.059   3.144 -0.8157 -1.7849 -1.1277
 4350SOL    HW224687   3.970   1.985   3.067 -1.1343 -0.1721  0.6988
 4351SOL     OW24688   3.903   3.940   7.700 -0.1518  0.1960 -0.5358
 4351SOL    HW124689   3.840   4.010   7.718 -1.8178 -1.3985 -0.1062
 4351SOL    HW224690   3.854   3.897   7.630 -1.0150 -0.9489  0.7580
 4352SOL     OW24691   0.887   3.949   2.466  0.3757 -0.3827  0.2576
 4352SOL    HW124692   0.819   3.975   2.529  0.3314 -0.5686  0.2872
 4352SOL    HW224693   0.893   4.035   2.425 -2.2186 -1.1350 -1.7321
 4353SOL     OW24694   0.780   2.575   8.736  0.0406  0.2594 -0.2783
 4353SOL    HW124695   0.842   2.588   8.808 -0.1533  0.9009 -0.2250
 4353SOL    HW224696   0.832   2.564   8.657  1.5265 -1.4424  0.9339
 4354SOL     OW24697   2.834   4.338   5.796  0.3836  0.6347  0.0338
 4354SOL    HW124698   2.805   4.334   5.705 -2.5613 -0.2547  1.0057
 4354SOL    HW224699   2.795   4.420   5.826 -1.2833 -1.0720  2.5286
 4355SOL     OW24700   0.713   2.525   6.027 -0.1981  0.6474 -0.3597
 4355SOL    HW124701   0.628   2.481   6.023  1.3155 -2.3504 -0.2654
 4355SOL    HW224702   0.735   2.504   6.118 -0.5451 -0.0192 -0.4241
 4356SOL     OW24703   3.683   4.315   6.682 -0.0990  0.1203  0.1503
 4356SOL    HW124704   3.721   4.391   6.727 -1.3359  2.1904 -2.2895
 4356SOL    HW224705   3.615   4.357   6.629 -0.1417 -0.2341 -0.0700
 4357SOL     OW24706   2.475   3.469   9.606 -0.0637  0.4591  0.4158
 4357SOL    HW124707   2.419   3.476   9.529  2.0858  0.6927 -1.1249
 4357SOL    HW224708   2.542   3.407   9.578 -1.6226 -1.6664  1.3247
 4358SOL     OW24709   1.623   4.371   7.216  0.0228 -0.3525  0.1215
 4358SOL    HW124710   1.538   4.388   7.176  0.4576 -0.0345 -0.6648
 4358SOL    HW224711   1.590   4.352   7.305  1.8565 -0.5560  0.7553
 4359SOL     OW24712   1.191   4.077  12.427 -0.3107  0.1162  0.9201
 4359SOL    HW124713   1.264   4.057  12.485 -0.3640  1.2713  1.3873
 4359SOL    HW224714   1.156   4.155  12.470 -0.1648  0.4329  0.4717
 4360SOL     OW24715   3.469   0.357  10.790 -0.0859  0.1771  0.2236
 4360SOL    HW124716   3.432   0.420  10.851  0.5265  0.1723  0.5973
 4360SOL    HW224717   3.538   0.413  10.757  0.1107 -0.6838 -0.8540
 4361SOL     OW24718   2.766   1.215   2.721  0.4073 -0.7678 -0.2149
 4361SOL    HW124719   2.702   1.210   2.792  1.2806  0.5026  0.6518
 4361SOL    HW224720   2.765   1.132   2.673  0.0528 -1.6531  1.3169
 4362SOL     OW24721   0.678   2.271   6.483 -0.5827 -0.1702  0.0945
 4362SOL    HW124722   0.726   2.258   6.564  0.6054  3.5133 -0.0365
 4362SOL    HW224723   0.590   2.240   6.506 -0.4766  1.2652  2.3608
 4363SOL     OW24724   4.352   0.158   2.774 -0.3070 -0.1801 -0.0402
 4363SOL    HW124725   4.344   0.243   2.730 -0.3545 -0.0305  0.2544
 4363SOL    HW224726   4.347   0.104   2.696 -2.2773  0.2002 -0.1837
 4364SOL     OW24727   4.313   3.293   3.841 -0.0405 -0.1083  0.2369
 4364SOL    HW124728   4.289   3.368   3.786  1.1758  0.1055 -0.0013
 4364SOL    HW224729   4.247   3.225   3.824  0.5446 -0.5059 -0.4233
 4365SOL     OW24730   1.681   3.382  16.842 -0.2831  0.5644 -0.4909
 4365SOL    HW124731   1.674   3.308  16.903  2.8986 -0.6720 -1.5899
 4365SOL    HW224732   1.636   3.338  16.770 -1.5888  1.8555 -0.4628
 4366SOL     OW24733   1.845   2.285  12.795  0.0742  0.0194 -0.8685
 4366SOL    HW124734   1.791   2.249  12.866  1.3196  0.4445  0.2975
 4366SOL    HW224735   1.821   2.377  12.789 -0.5244 -0.0881 -0.1049
 4367SOL     OW24736   0.136   3.680  17.099  0.2640  0.0808  0.8103
 4367SOL    HW124737   0.084   3.760  17.091 -0.4580 -0.4245  0.5277
 4367SOL    HW224738   0.058   3.625  17.093 -0.7288  1.4566  0.9406
 4368SOL     OW24739   4.484   0.435   4.707  0.0014  0.0904 -0.0961
 4368SOL    HW124740   4.454   0.487   4.632  1.0091  0.2091 -0.4174
 4368SOL    HW224741   4.578   0.429   4.692  0.2571 -0.5640  1.8760
 4369SOL     OW24742   0.418   1.701   3.625 -0.1537 -0.3058  0.1921
 4369SOL    HW124743   0.372   1.635   3.573 -1.0503  1.5462 -1.3482
 4369SOL    HW224744   0.494   1.711   3.569  1.2011 -2.6548  1.6040
 4370SOL     OW24745   1.928   3.265   5.208 -0.2039 -0.8274 -0.0508
 4370SOL    HW124746   1.889   3.193   5.158 -2.9087  2.2348 -2.4015
 4370SOL    HW224747   1.994   3.290   5.143  0.0133  0.9538  0.8402
 4371SOL     OW24748   4.657   1.244  14.663 -0.1373  0.4042 -0.6802
 4371SOL    HW124749   4.591   1.180  14.685 -1.0926  1.5392 -0.2498
 4371SOL    HW224750   4.717   1.193  14.609  1.8580  1.4036  0.5766
 4372SOL     OW24751   3.779   2.313   1.493  0.3583  0.6594 -0.0139
 4372SOL    HW124752   3.707   2.299   1.432 -1.2373 -1.0774  2.2429
 4372SOL    HW224753   3.858   2.305   1.440 -0.8779  0.7355 -1.8712
 4373SOL     OW24754   1.412   0.175   5.838  0.3152 -0.1125 -0.1832
 4373SOL    HW124755   1.356   0.218   5.773  1.3969 -0.1831 -1.1577
 4373SOL    HW224756   1.451   0.251   5.880  0.3796 -0.8918  1.1804
 4374SOL     OW24757   0.945   4.459   9.130  0.3485  0.5578 -0.0277
 4374SOL    HW124758   0.872   4.408   9.093  0.3328 -0.9456  2.0676
 4374SOL    HW224759   0.958   4.516   9.054 -0.1904 -0.5273 -0.9400
 4375SOL     OW24760   4.670   1.683   2.738  0.0880  0.1786 -0.5341
 4375SOL    HW124761   4.637   1.754   2.793  1.0095  0.7330 -0.7161
 4375SOL    HW224762   0.021   1.714   2.717  0.7728 -1.7169 -0.4716
 4376SOL     OW24763   3.491   2.335   9.169 -0.2931  0.1472 -0.3976
 4376SOL    HW124764   3.452   2.265   9.116 -0.2043 -1.3482  1.4804
 4376SOL    HW224765   3.428   2.335   9.242 -1.2589  1.0662 -1.2282
 4377SOL     OW24766   4.420   0.805   8.345  0.2189 -0.0635 -0.4906
 4377SOL    HW124767   4.426   0.871   8.275  0.3084  0.4615  0.0110
 4377SOL    HW224768   4.507   0.776   8.370 -0.3770 -0.1111  1.5223
 4378SOL     OW24769   3.719   1.657   7.514 -0.1200  0.7451  0.1795
 4378SOL    HW124770   3.666   1.725   7.472  0.6667  0.5024 -1.1982
 4378SOL    HW224771   3.673   1.579   7.486 -1.5724  1.0438  1.7287
 4379SOL     OW24772   1.521   2.511   5.915 -0.3782 -0.3677 -0.6078
 4379SOL    HW124773   1.444   2.558   5.883  0.3763  0.7184 -0.8294
 4379SOL    HW224774   1.482   2.430   5.948 -1.4473 -0.5867 -2.3927
 4380SOL     OW24775   2.378   0.906   4.176  0.6323  0.1782  0.6994
 4380SOL    HW124776   2.367   0.844   4.104 -2.1022  0.2756  1.0330
 4380SOL    HW224777   2.288   0.931   4.194  0.8943  0.9660  0.9035
 4381SOL     OW24778   0.643   4.638   6.658 -0.0065 -0.0081  0.4854
 4381SOL    HW124779   0.674   4.685   6.735 -1.6799  2.3040 -0.2458
 4381SOL    HW224780   0.644   4.718   6.605 -0.1625 -0.7438 -0.6201
 4382SOL     OW24781   2.805   3.307   0.925 -0.0716 -0.1593 -0.0615
 4382SOL    HW124782   2.899   3.315   0.908 -0.1723  1.2983  0.0948
 4382SOL    HW224783   2.780   3.248   0.854 -2.4148  0.9923 -0.1769
 4383SOL     OW24784   0.053   2.554   4.670  0.3002  0.5388 -0.2376
 4383SOL    HW124785   4.724   2.623   4.663  1.5988  1.9021  1.0070
 4383SOL    HW224786   0.081   2.571   4.760  1.6613 -2.4505 -0.1178
 4384SOL     OW24787   1.684   3.804   1.300  0.1216 -0.3691 -0.4520
 4384SOL    HW124788   1.752   3.737   1.294 -0.5669 -1.0881  0.0036
 4384SOL    HW224789   1.679   3.840   1.211 -2.3840  0.5671  0.0781
 4385SOL     OW24790   0.224   0.958  12.953 -0.5217  0.5520  0.0721
 4385SOL    HW124791   0.287   1.014  12.999  2.5653 -2.9969  0.1078
 4385SOL    HW224792   0.171   1.034  12.929 -1.6912 -0.3224 -0.1290
 4386SOL     OW24793   4.336   2.966   8.863 -0.5999 -0.2699 -0.0861
 4386SOL    HW124794   4.324   2.890   8.919  3.9135 -0.5574  0.5162
 4386SOL    HW224795   4.294   2.957   8.777  0.2333 -3.8713 -0.1231
 4387SOL     OW24796   3.044   0.404   2.828  0.4427  0.3638  0.5928
 4387SOL    HW124797   2.984   0.400   2.902  0.2042 -3.6883  0.1516
 4387SOL    HW224798   3.116   0.347   2.853  0.3547  0.1205  0.2932
 4388SOL     OW24799   1.062   2.779   6.951 -0.0688 -0.8470 -0.2023
 4388SOL    HW124800   0.974   2.741   6.948 -1.2901  2.0923 -1.3246
 4388SOL    HW224801   1.059   2.833   6.872 -2.4633 -2.2521 -1.0888
 4389SOL     OW24802   3.121   4.404   2.404 -0.1537 -0.1339 -1.0066
 4389SOL    HW124803   3.106   4.442   2.317 -1.7520  0.0703 -0.6405
 4389SOL    HW224804   3.031   4.412   2.437  0.0468  0.3913 -0.5919
 4390SOL     OW24805   1.460   1.498   1.301 -0.3129  0.3329  0.2116
 4390SOL    HW124806   1.406   1.520   1.377 -0.8903  1.1331 -0.4346
 4390SOL    HW224807   1.475   1.405   1.318 -0.6132  0.2582  0.0738
 4391SOL     OW24808   1.171   1.223   8.630  0.0064 -0.1383 -0.0291
 4391SOL    HW124809   1.166   1.231   8.725  2.7538  1.0522  0.0192
 4391SOL    HW224810   1.250   1.271   8.607  0.9801 -0.5995  2.3483
 4392SOL     OW24811   0.600   3.589   9.529  0.4791  0.3251  0.3924
 4392SOL    HW124812   0.600   3.498   9.498 -0.6924  0.9037 -1.2886
 4392SOL    HW224813   0.540   3.633   9.468 -1.1367 -1.6996  0.5037
 4393SOL     OW24814   4.029   1.824   6.793 -0.0956  0.3584  0.2379
 4393SOL    HW124815   4.041   1.753   6.856 -3.0586 -0.2498  0.1195
 4393SOL    HW224816   3.973   1.882   6.843 -2.9801 -1.5666 -0.7490
 4394SOL     OW24817   3.942   3.448  12.473 -0.2492 -0.6324 -0.1414
 4394SOL    HW124818   4.013   3.424  12.414 -0.1663 -0.1081 -0.2596
 4394SOL    HW224819   3.922   3.371  12.525  1.7050 -1.5183 -0.7145
 4395SOL     OW24820   0.271   3.347  10.235  0.5586  0.3724 -0.1683
 4395SOL    HW124821   0.364   3.367  10.226  0.7044  0.0844  0.7540
 4395SOL    HW224822   0.232   3.430  10.208 -0.9165  0.1975  1.4350
 4396SOL     OW24823   4.114   1.654  10.193 -0.0753 -0.7042 -0.3280
 4396SOL    HW124824   4.105   1.564  10.162  0.2055 -0.2921 -1.6220
 4396SOL    HW224825   4.041   1.677  10.251 -0.3191 -1.3796 -0.3732
 4397SOL     OW24826   1.737   3.282   3.499  1.0523 -0.2484 -0.0243
 4397SOL    HW124827   1.816   3.335   3.494  0.8071  0.2693  1.6392
 4397SOL    HW224828   1.674   3.350   3.521  1.1176  0.1701 -1.1096
 4398SOL     OW24829   1.391   3.632  15.070 -0.0268 -0.2022 -0.3050
 4398SOL    HW124830   1.297   3.629  15.090  0.1187  2.2587  0.8639
 4398SOL    HW224831   1.402   3.551  15.020  3.6564 -0.5128  1.0130
 4399SOL     OW24832   4.120   2.669  14.498  0.1644  0.0108 -0.1928
 4399SOL    HW124833   4.202   2.685  14.545 -0.1451  0.6757  0.1167
 4399SOL    HW224834   4.061   2.681  14.573 -0.1920 -1.9866 -0.1347
 4400SOL     OW24835   4.731   1.751   1.852 -0.2331  0.4553 -0.0013
 4400SOL    HW124836   4.637   1.763   1.858 -0.6599 -1.6196 -2.6434
 4400SOL    HW224837   0.026   1.681   1.909  0.5912 -0.0857 -1.1214
 4401SOL     OW24838   0.472   0.778  13.343  0.0873 -0.4903 -0.4699
 4401SOL    HW124839   0.377   0.769  13.346  0.1878 -1.3369  0.2389
 4401SOL    HW224840   0.490   0.871  13.351  0.3322 -0.5230 -0.6356
 4402SOL     OW24841   1.615   0.771   8.024  0.2310  0.0439  0.1505
 4402SOL    HW124842   1.554   0.725   7.966  0.9588  0.5403 -1.0022
 4402SOL    HW224843   1.566   0.853   8.032 -0.4533 -0.4861  1.5454
 4403SOL     OW24844   4.617   3.506  13.507 -0.0973 -0.5014  0.0730
 4403SOL    HW124845   4.655   3.522  13.593 -2.4034  2.0516  0.5798
 4403SOL    HW224846   4.620   3.590  13.461 -3.0753 -0.3636  0.1361
 4404SOL     OW24847   0.324   1.984   8.175 -0.2192 -0.5371  0.5021
 4404SOL    HW124848   0.406   1.939   8.196  0.0931  0.0125  0.4740
 4404SOL    HW224849   0.289   1.919   8.114 -0.0161 -0.8145  0.6809
 4405SOL     OW24850   2.012   3.446   8.882  0.0625 -0.2852  0.0236
 4405SOL    HW124851   2.019   3.353   8.860 -0.1009  0.4262 -3.0685
 4405SOL    HW224852   2.093   3.458   8.932 -1.2244  0.7792  1.8449
 4406SOL     OW24853   1.484   2.673  11.172 -0.2032  0.0827 -0.0405
 4406SOL    HW124854   1.533   2.686  11.091  0.7734  1.8471  0.8500
 4406SOL    HW224855   1.552   2.670  11.239 -0.8795  0.1725  0.6529
 4407SOL     OW24856   3.364   3.598   6.695  0.0166 -0.1518  0.1796
 4407SOL    HW124857   3.440   3.581   6.639 -2.4758 -1.6636 -2.7426
 4407SOL    HW224858   3.404   3.554   6.770 -2.4463 -0.8876  1.0655
 4408SOL     OW24859   4.341   2.393   0.986  0.7825  0.3624 -0.0409
 4408SOL    HW124860   4.415   2.375   1.043  0.4173 -1.1426 -0.0281
 4408SOL    HW224861   4.370   2.342   0.910  1.9208 -1.4051  1.5815
 4409SOL     OW24862   3.955   2.672   3.575 -0.0849 -0.5581 -0.4950
 4409SOL    HW124863   3.872   2.636   3.542 -0.8226  1.1070 -0.4435
 4409SOL    HW224864   3.948   2.764   3.552 -1.0691 -0.3160  0.7392
 4410SOL     OW24865   3.574   0.559   1.412 -0.4934 -0.0556  0.0917
 4410SOL    HW124866   3.599   0.487   1.470  1.1645  0.1859 -0.3406
 4410SOL    HW224867   3.538   0.617   1.480  0.5947  2.8542 -1.7816
 4411SOL     OW24868   3.014   2.568   2.305  0.8645 -0.2657 -0.0712
 4411SOL    HW124869   3.100   2.604   2.328  0.9686 -0.6807  0.1924
 4411SOL    HW224870   2.969   2.651   2.315 -0.1420 -0.7089 -1.0151
 4412SOL     OW24871   3.969   4.240   3.177  0.2943  0.4881  0.5050
 4412SOL    HW124872   4.051   4.266   3.220  1.2749  0.5198 -1.4033
 4412SOL    HW224873   3.924   4.324   3.165  0.1478  0.4999  1.1350
 4413SOL     OW24874   1.234   4.011   4.736  0.0335  0.0768  0.4385
 4413SOL    HW124875   1.245   3.918   4.715  0.5858  0.0449  0.8740
 4413SOL    HW224876   1.261   4.017   4.827  0.9737 -2.3195  0.3129
 4414SOL     OW24877   1.492   3.816   9.097 -0.1818  0.2654  0.1140
 4414SOL    HW124878   1.574   3.859   9.122  0.2118 -1.2933  1.5185
 4414SOL    HW224879   1.454   3.890   9.050  2.0244  0.4878 -1.3496
 4415SOL     OW24880   1.717   4.099   0.249  0.3342 -0.5829  0.4020
 4415SOL    HW124881   1.807   4.065   0.243 -0.2950 -2.2819  0.4366
 4415SOL    HW224882   1.678   4.031   0.305  1.4941  0.1356  2.0829
 4416SOL     OW24883   0.552   0.757   9.856  0.0153 -0.1255 -0.2187
 4416SOL    HW124884   0.607   0.755   9.778 -0.0843  0.0991 -0.2938
 4416SOL    HW224885   0.613   0.733   9.926 -0.8533 -0.2666  0.4926
 4417SOL     OW24886   2.743   0.555   2.431  0.0033 -0.0414 -0.0348
 4417SOL    HW124887   2.648   0.563   2.422  0.0557  2.0669  1.2673
 4417SOL    HW224888   2.771   0.476   2.386  1.2197  1.9161 -2.7178
 4418SOL     OW24889   0.018   2.445   9.241 -0.3407 -0.4906 -0.1638
 4418SOL    HW124890   0.029   2.353   9.217 -0.1449 -0.0383 -1.8306
 4418SOL    HW224891   0.106   2.463   9.275 -0.8014  0.7490  0.3691
 4419SOL     OW24892   0.233   3.883   6.508 -0.0653  0.3486 -0.1602
 4419SOL    HW124893   0.302   3.902   6.570  0.3427 -0.4992 -0.3564
 4419SOL    HW224894   0.206   3.967   6.471  0.2236  0.8590  0.7975
 4420SOL     OW24895   3.378   1.391  16.728  0.6836  0.1481  0.1327
 4420SOL    HW124896   3.286   1.375  16.706  1.0043 -2.7924  0.9106
 4420SOL    HW224897   3.417   1.402  16.642  1.1381 -2.0305  0.0705
 4421SOL     OW24898   1.206   0.635   4.056 -0.1413 -0.2924  0.3735
 4421SOL    HW124899   1.243   0.597   3.976 -2.4840 -1.4121 -0.1558
 4421SOL    HW224900   1.255   0.718   4.056  3.2261 -2.2554 -2.1802
 4422SOL     OW24901   2.346   2.610   2.775  0.0469 -0.9985 -0.2993
 4422SOL    HW124902   2.321   2.687   2.724  0.1318 -0.8149 -0.0649
 4422SOL    HW224903   2.277   2.547   2.753 -0.3753 -0.5433 -0.2827
 4423SOL     OW24904   3.583   1.688   4.388  0.3228  0.3605 -0.7068
 4423SOL    HW124905   3.644   1.708   4.317 -0.9166 -1.3356 -2.2772
 4423SOL    HW224906   3.505   1.684   4.331 -0.8767 -0.0128  0.9689
 4424SOL     OW24907   0.954   2.849   2.899  0.0801  0.1357 -0.0474
 4424SOL    HW124908   0.892   2.866   2.828  0.4560 -0.7241 -0.5830
 4424SOL    HW224909   0.911   2.779   2.948 -1.1792  0.2361 -0.9987
 4425SOL     OW24910   0.216   0.968   9.214  0.3138  0.2697 -0.1012
 4425SOL    HW124911   0.202   0.874   9.226  1.0936  0.5280  2.9839
 4425SOL    HW224912   0.283   0.977   9.281  0.3701 -1.3638  0.0638
 4426SOL     OW24913   3.660   2.310   9.932 -0.2251 -0.0073  0.1018
 4426SOL    HW124914   3.617   2.252   9.995 -0.6457 -1.0533 -1.1441
 4426SOL    HW224915   3.663   2.391   9.983  1.3162 -0.1438  0.2318
 4427SOL     OW24916   0.013   3.648   3.840  0.4948 -0.5383  0.0974
 4427SOL    HW124917   0.106   3.635   3.862  0.8267 -1.1002 -1.6463
 4427SOL    HW224918   4.710   3.569   3.877 -1.4151  0.5206  0.3078
 4428SOL     OW24919   4.563   1.746  13.011 -0.1091  0.3043 -0.0774
 4428SOL    HW124920   4.505   1.744  13.087 -0.9987 -0.4376 -0.7728
 4428SOL    HW224921   4.626   1.811  13.042  0.3894 -0.4655  0.5065
 4429SOL     OW24922   3.782   3.123  15.468  0.2056  0.5841  0.4493
 4429SOL    HW124923   3.818   3.050  15.417 -1.2444 -0.1470  0.4758
 4429SOL    HW224924   3.689   3.117  15.448  0.8606 -1.2803 -2.1059
 4430SOL     OW24925   4.427   2.626   0.509  0.1931  0.3450 -0.1920
 4430SOL    HW124926   4.512   2.596   0.476 -0.3519 -0.1425 -1.1376
 4430SOL    HW224927   4.423   2.610   0.604  0.4446  3.0521  0.2808
 4431SOL     OW24928   3.733   2.986   7.708 -0.7324 -0.6882 -0.6522
 4431SOL    HW124929   3.734   2.975   7.803  0.3162  2.0464 -0.3506
 4431SOL    HW224930   3.744   3.081   7.712 -1.2014 -0.7049  1.3664
 4432SOL     OW24931   0.883   4.447  12.522  0.1115 -0.0677  0.0178
 4432SOL    HW124932   0.806   4.407  12.482  1.0488 -0.1466 -1.6815
 4432SOL    HW224933   0.930   4.487  12.449  0.4570 -0.9102 -0.2107
 4433SOL     OW24934   0.700   1.195   4.388  0.0370  0.3107  0.4256
 4433SOL    HW124935   0.691   1.269   4.448  0.5076  0.2647  0.5546
 4433SOL    HW224936   0.649   1.219   4.311 -1.1262  2.4242  1.8405
 4434SOL     OW24937   1.423   3.383   8.725  0.1700 -0.0244 -0.4988
 4434SOL    HW124938   1.335   3.409   8.752  0.8601  1.0666  0.6506
 4434SOL    HW224939   1.467   3.465   8.745 -0.6695  0.6482 -1.4365
 4435SOL     OW24940   3.141   4.306  13.966 -0.0122 -0.0850 -0.1312
 4435SOL    HW124941   3.168   4.336  13.879 -0.6640  0.2847 -0.2069
 4435SOL    HW224942   3.204   4.355  14.019  1.7761  0.2627 -2.5913
 4436SOL     OW24943   2.791   3.148   9.026  0.0598  0.0349 -0.2124
 4436SOL    HW124944   2.811   3.055   9.033 -1.4146 -0.1897  0.8625
 4436SOL    HW224945   2.719   3.155   8.964  0.7463 -1.4368 -1.1709
 4437SOL     OW24946   1.645   1.792  16.204  0.3487  0.6238  0.3989
 4437SOL    HW124947   1.586   1.747  16.144  0.5724 -1.6686  1.8930
 4437SOL    HW224948   1.619   1.882  16.185  4.2688  1.0235 -3.0001
 4438SOL     OW24949   4.545   3.335   6.159  0.4109  0.3545  0.0118
 4438SOL    HW124950   4.586   3.315   6.074 -0.0892  0.8812 -0.3538
 4438SOL    HW224951   4.453   3.343   6.133  0.3062  1.0819  0.6089
 4439SOL     OW24952   0.120   4.221  10.688 -0.2868  0.7292 -0.6268
 4439SOL    HW124953   0.119   4.205  10.783 -0.7441 -1.7802 -1.0677
 4439SOL    HW224954   0.038   4.183  10.657  0.0986  0.6055 -1.4739
 4440SOL     OW24955   3.883   2.938   1.444 -0.1636  0.2031  0.1859
 4440SOL    HW124956   3.890   2.950   1.539 -0.3504  0.2356  0.1968
 4440SOL    HW224957   3.804   2.884   1.438 -0.6351  0.8331  0.7124
 4441SOL     OW24958   2.662   3.428  12.424  0.2708 -0.6083  0.4043
 4441SOL    HW124959   2.596   3.494  12.443  0.2106 -0.6932  0.4877
 4441SOL    HW224960   2.707   3.431  12.508  1.6485 -0.3130 -0.3299
 4442SOL     OW24961   2.598   1.061  15.064  0.5218 -0.7381  0.4127
 4442SOL    HW124962   2.537   1.090  15.132  0.3723  0.3368 -0.1736
 4442SOL    HW224963   2.673   1.047  15.122  1.3766  0.5786 -0.3690
 4443SOL     OW24964   2.821   3.125   1.672  0.4923  0.0491  0.2497
 4443SOL    HW124965   2.809   3.031   1.681 -0.6811  0.0798 -0.9204
 4443SOL    HW224966   2.734   3.138   1.634  0.7105  1.6063  0.2586
 4444SOL     OW24967   3.319   3.513  14.352 -0.2343 -0.2281 -0.3346
 4444SOL    HW124968   3.362   3.547  14.431  2.0659  0.9807 -2.0880
 4444SOL    HW224969   3.340   3.576  14.283  1.1420  0.5094  0.7555
 4445SOL     OW24970   3.934   4.146   8.395  0.3899  0.4945  0.5303
 4445SOL    HW124971   3.998   4.081   8.366  0.5554  0.1937  1.5439
 4445SOL    HW224972   3.865   4.087   8.427 -1.8093  2.3142 -0.9140
 4446SOL     OW24973   0.823   4.608   8.088 -0.0195  0.1397  0.3947
 4446SOL    HW124974   0.898   4.643   8.136  1.0782 -0.5982 -0.7663
 4446SOL    HW224975   0.766   4.582   8.160 -0.2948 -0.3369 -0.0001
 4447SOL     OW24976   1.820   1.268   8.206  0.2710 -0.2689 -0.2889
 4447SOL    HW124977   1.830   1.314   8.289  0.3741 -0.7117 -0.0571
 4447SOL    HW224978   1.768   1.335   8.161  1.3844  1.1481  0.5043
 4448SOL     OW24979   0.149   1.523  10.157  0.1372 -0.2569  0.1267
 4448SOL    HW124980   0.175   1.485  10.073 -0.9241  0.8567 -0.7194
 4448SOL    HW224981   0.063   1.558  10.134  0.0882 -0.8996 -0.6890
 4449SOL     OW24982   1.538   3.269  10.496  0.0084  0.2420  0.0423
 4449SOL    HW124983   1.528   3.301  10.407 -2.5422 -1.2876 -0.2296
 4449SOL    HW224984   1.588   3.340  10.537 -2.0570  1.4164  0.5623
 4450SOL     OW24985   1.035   0.010   3.007 -0.6737  0.2567 -0.3174
 4450SOL    HW124986   1.064   4.660   2.976  1.8634 -0.0355  2.9827
 4450SOL    HW224987   0.983   4.734   3.086 -0.3063 -0.1705 -0.1445
 4451SOL     OW24988   0.082   2.206   8.605 -0.5708 -0.1726  0.4300
 4451SOL    HW124989   0.098   2.119   8.644  0.0502 -0.8413 -1.3128
 4451SOL    HW224990   0.169   2.245   8.613 -1.0509  0.8070  0.8619
 4452SOL     OW24991   1.979   0.233   0.487  0.2023 -0.3806 -0.4468
 4452SOL    HW124992   1.898   0.240   0.437  0.4885  0.9690 -0.7253
 4452SOL    HW224993   1.977   0.298   0.558  0.2062 -1.3987  0.4762
 4453SOL     OW24994   1.740   1.674   3.516  0.1495  0.4550 -0.0399
 4453SOL    HW124995   1.789   1.670   3.598 -2.1313  0.8255  1.3388
 4453SOL    HW224996   1.804   1.618   3.471  0.7039  3.0569 -2.4662
 4454SOL     OW24997   0.287   3.141  12.188 -0.0536 -0.0536 -0.4946
 4454SOL    HW124998   0.369   3.154  12.236 -0.2997  2.5082 -0.7479
 4454SOL    HW224999   0.318   3.132  12.098  0.4381  0.0444 -0.3339
 4455SOL     OW25000   4.004   4.270  11.725 -0.0822  0.1301 -0.2318
 4455SOL    HW125001   4.014   4.177  11.704  1.2342 -0.0601  1.2662
 4455SOL    HW225002   4.019   4.268  11.820 -1.1517 -0.2896 -0.0621
 4456SOL     OW25003   0.703   3.698   2.472 -0.4644 -0.4753  0.3739
 4456SOL    HW125004   0.653   3.761   2.421 -0.8562 -1.5449 -0.5595
 4456SOL    HW225005   0.648   3.621   2.458  0.0113 -1.2624  2.7582
 4457SOL     OW25006   1.769   1.344   3.974  0.2834 -0.2684 -0.1711
 4457SOL    HW125007   1.741   1.426   4.014 -0.3610 -0.1574 -0.8597
 4457SOL    HW225008   1.786   1.295   4.055 -1.1039 -1.1587 -0.4277
 4458SOL     OW25009   3.009   3.443   7.365  0.9787  0.7209  0.4745
 4458SOL    HW125010   2.954   3.521   7.363  2.0038  1.4089 -0.8124
 4458SOL    HW225011   3.091   3.479   7.398  1.8018 -0.5568 -0.1773
 4459SOL     OW25012   1.067   4.376  17.609 -0.0271 -0.4814 -0.2138
 4459SOL    HW125013   1.061   4.444  17.542 -0.9896  0.6095  0.9803
 4459SOL    HW225014   1.160   4.354  17.618 -0.1101  0.0352  2.0696
 4460SOL     OW25015   0.621   3.926   2.056  0.1619  0.4123 -0.7276
 4460SOL    HW125016   0.701   3.964   2.093 -0.1468  0.4108 -0.0721
 4460SOL    HW225017   0.653   3.909   1.967 -0.4940 -4.0891 -0.0820
 4461SOL     OW25018   4.679   4.382   4.927 -0.1647  0.1104 -0.1314
 4461SOL    HW125019   4.668   4.477   4.925 -0.5245  0.0928  0.7210
 4461SOL    HW225020   0.037   4.373   4.919 -0.0250  0.9233  0.5530
 4462SOL     OW25021   2.607   1.405   5.378 -0.0480 -0.1338  0.3454
 4462SOL    HW125022   2.674   1.345   5.344  2.1466  2.1608  0.6703
 4462SOL    HW225023   2.525   1.389   5.331 -0.3444 -0.1829  0.8835
 4463SOL     OW25024   2.422   2.056   6.179 -0.0226 -0.0640 -0.3121
 4463SOL    HW125025   2.359   2.123   6.203  0.0843 -0.1344  0.1631
 4463SOL    HW225026   2.375   1.975   6.198  0.5142  0.1619  1.9451
 4464SOL     OW25027   3.576   3.731   9.581  0.3020 -0.2101  0.1215
 4464SOL    HW125028   3.664   3.751   9.549  0.9108 -1.5754  0.9603
 4464SOL    HW225029   3.568   3.638   9.561 -2.1187 -0.3251  1.5598
 4465SOL     OW25030   1.504   3.459  17.138  0.4504 -0.9456  0.0732
 4465SOL    HW125031   1.446   3.470  17.063 -0.8992 -0.7973  1.1381
 4465SOL    HW225032   1.450   3.485  17.213 -1.0156 -0.6437 -1.0879
 4466SOL     OW25033   1.147   4.502  16.730 -0.4016  0.0163 -0.6462
 4466SOL    HW125034   1.214   4.519  16.796 -1.3323 -2.0366  0.8258
 4466SOL    HW225035   1.209   4.453  16.676  0.6639  1.3559 -0.6096
 4467SOL     OW25036   1.262   2.293   1.509  0.4391 -0.3337 -0.1153
 4467SOL    HW125037   1.177   2.312   1.549  0.7248  0.3938  0.1379
 4467SOL    HW225038   1.310   2.363   1.553 -2.8948  1.6872  0.3546
 4468SOL     OW25039   2.743   3.614   6.591 -0.8202 -0.2248 -0.6182
 4468SOL    HW125040   2.813   3.673   6.564  0.4618 -0.9504  1.1071
 4468SOL    HW225041   2.679   3.667   6.638 -0.8074 -1.0238  0.3133
 4469SOL     OW25042   0.510   1.677   9.265 -0.9769  0.1586 -0.0956
 4469SOL    HW125043   0.447   1.621   9.219  0.5484 -0.6111 -1.2495
 4469SOL    HW225044   0.462   1.759   9.270  0.4987  0.9588  0.7491
 4470SOL     OW25045   2.475   4.114   2.237  0.6603 -0.5600  0.2892
 4470SOL    HW125046   2.557   4.161   2.250  1.2404 -1.4712 -0.1385
 4470SOL    HW225047   2.479   4.097   2.143 -1.2998 -1.7200  0.4008
 4471SOL     OW25048   4.587   0.660   0.751 -0.0693 -0.0752  0.1361
 4471SOL    HW125049   4.495   0.655   0.778 -0.2695 -0.5942 -0.6438
 4471SOL    HW225050   4.580   0.733   0.690  2.0083 -1.1732 -1.4544
 4472SOL     OW25051   0.331   0.933   6.883 -0.0588 -0.1924 -0.3509
 4472SOL    HW125052   0.420   0.916   6.913 -0.2012 -0.2905  0.0130
 4472SOL    HW225053   0.340   0.879   6.804 -3.8742 -0.3197 -0.7006
 4473SOL     OW25054   4.665   2.839   9.309 -0.2934 -0.4563 -0.3553
 4473SOL    HW125055   4.597   2.796   9.362  0.8428  0.3022  1.7379
 4473SOL    HW225056   4.667   2.786   9.229  0.3090 -1.5490  0.3746
 4474SOL     OW25057   2.303   3.232  13.013 -0.2555  0.4869  0.3644
 4474SOL    HW125058   2.309   3.204  12.921 -0.9681  1.6319 -0.0331
 4474SOL    HW225059   2.387   3.196  13.039 -0.5329  0.1924  0.8339
 4475SOL     OW25060   3.277   3.525  10.617  0.4132 -0.5413 -0.1950
 4475SOL    HW125061   3.287   3.450  10.558 -1.5806  0.4776 -1.7969
 4475SOL    HW225062   3.227   3.484  10.688  0.4338  0.7138  0.5477
 4476SOL     OW25063   4.130   4.349   7.314 -0.3653  0.5784  0.4787
 4476SOL    HW125064   4.167   4.301   7.240  1.7454  1.4598  0.9557
 4476SOL    HW225065   4.106   4.278   7.373 -0.1022 -1.4324 -1.8191
 4477SOL     OW25066   0.265   0.736   5.363 -0.2780 -0.1637 -0.3980
 4477SOL    HW125067   0.215   0.811   5.394  0.1508 -0.4160  0.8939
 4477SOL    HW225068   0.348   0.782   5.349 -1.3517  1.5299 -1.1679
 4478SOL     OW25069   3.925   1.557   8.839  0.1901 -0.0317  0.1117
 4478SOL    HW125070   3.969   1.503   8.772 -2.5987 -1.7993 -0.3146
 4478SOL    HW225071   3.850   1.499   8.853 -1.5982  1.5506 -3.0959
 4479SOL     OW25072   0.693   0.412   3.984  0.0876  0.2225  0.0291
 4479SOL    HW125073   0.722   0.323   3.963  3.0446  0.7911  1.7448
 4479SOL    HW225074   0.631   0.391   4.053 -1.2406 -0.6668 -1.4283
 4480SOL     OW25075   2.311   2.463   5.576 -0.1417  0.3451 -0.0345
 4480SOL    HW125076   2.228   2.443   5.619 -0.0037 -0.9574 -0.3710
 4480SOL    HW225077   2.341   2.528   5.639 -1.7025  0.4385  0.6080
 4481SOL     OW25078   1.813   3.640   8.881  0.3866  0.1020  0.2701
 4481SOL    HW125079   1.880   3.574   8.858 -0.8131 -0.6012 -1.1821
 4481SOL    HW225080   1.787   3.618   8.971 -0.4703  1.2042  0.2801
 4482SOL     OW25081   1.986   1.058  14.581 -0.9368  0.3208  0.1421
 4482SOL    HW125082   1.907   1.084  14.630 -0.8480  1.3336 -0.2593
 4482SOL    HW225083   2.054   1.095  14.637 -0.6128 -1.1183  0.7048
 4483SOL     OW25084   0.565   1.201  15.342 -0.1380  0.3347  0.1106
 4483SOL    HW125085   0.637   1.153  15.383  0.1867  2.0856  1.6011
 4483SOL    HW225086   0.539   1.256  15.416 -0.2059 -0.2434  0.5157
 4484SOL     OW25087   4.109   2.909   5.373  0.1865  0.9855  0.2474
 4484SOL    HW125088   4.122   2.978   5.307 -1.5167  1.1243  0.0569
 4484SOL    HW225089   4.089   2.836   5.314  1.4197 -0.2706  1.3863
 4485SOL     OW25090   3.251   1.808   9.803 -1.0166  0.3619  0.7762
 4485SOL    HW125091   3.313   1.742   9.834 -0.3394  0.2739 -0.7300
 4485SOL    HW225092   3.167   1.783   9.843 -0.5738  0.9765  2.0754
 4486SOL     OW25093   3.859   1.244  12.441  0.1015  0.3736  0.2225
 4486SOL    HW125094   3.908   1.280  12.515 -1.7307 -0.9607  2.0622
 4486SOL    HW225095   3.788   1.306  12.424  0.8612  0.6540 -1.9407
 4487SOL     OW25096   1.384   1.916   5.601 -0.2399 -0.0646  0.1198
 4487SOL    HW125097   1.300   1.901   5.558 -0.2116 -0.7173  0.2896
 4487SOL    HW225098   1.391   2.011   5.605  2.1390 -0.2522  0.7332
 4488SOL     OW25099   4.293   4.260   6.804 -0.9648  0.5283  0.1543
 4488SOL    HW125100   4.286   4.350   6.838  0.7428 -0.1843  2.3570
 4488SOL    HW225101   4.204   4.225   6.796 -0.4213 -1.0436  1.1272
 4489SOL     OW25102   4.110   0.755   4.523 -0.1819 -0.6599  0.1650
 4489SOL    HW125103   4.070   0.675   4.490 -1.4207  0.0244 -0.0144
 4489SOL    HW225104   4.034   0.814   4.523 -0.0438 -0.4763  1.9086
 4490SOL     OW25105   3.969   1.935  12.733  0.7326 -0.1608  0.1947
 4490SOL    HW125106   4.059   1.958  12.756  0.7690  0.2269 -0.3615
 4490SOL    HW225107   3.933   2.023  12.738  1.5157  0.1979 -0.5477
 4491SOL     OW25108   1.472   1.560   6.711  0.3112 -0.0078 -0.5538
 4491SOL    HW125109   1.494   1.526   6.624  0.6927 -0.9287 -0.1013
 4491SOL    HW225110   1.406   1.493   6.729 -0.2976  0.6200 -0.4598
 4492SOL     OW25111   1.452   2.281   4.467  0.1549 -0.2535 -0.1776
 4492SOL    HW125112   1.436   2.360   4.518 -0.7956  1.1871 -2.7671
 4492SOL    HW225113   1.508   2.310   4.395 -0.4050  1.9877  0.3190
 4493SOL     OW25114   3.258   3.611   7.231  0.3821  0.0700  0.0849
 4493SOL    HW125115   3.271   3.699   7.268  1.1662  0.3739 -0.9186
 4493SOL    HW225116   3.277   3.552   7.303  2.2021  0.8613  0.2441
 4494SOL     OW25117   3.606   2.893  15.284 -0.0867  0.4279  0.1338
 4494SOL    HW125118   3.528   2.853  15.245  1.2553 -0.2005 -1.8740
 4494SOL    HW225119   3.598   2.860  15.373  1.1400 -1.6811 -0.5423
 4495SOL     OW25120   3.686   2.143   4.399 -0.1426  0.7174 -0.0468
 4495SOL    HW125121   3.652   2.197   4.328  1.1858  1.2078 -0.2961
 4495SOL    HW225122   3.722   2.074   4.342 -2.4549 -0.1722 -0.4408
 4496SOL     OW25123   2.952   1.546   5.977  0.7010 -0.6624  0.1579
 4496SOL    HW125124   2.871   1.595   5.961  3.2146  4.1271  2.0587
 4496SOL    HW225125   3.017   1.610   5.946  0.0357 -0.7100 -1.3584
 4497SOL     OW25126   1.806   4.225   8.539  0.4200  0.6009 -0.2352
 4497SOL    HW125127   1.852   4.223   8.455 -2.9337  4.0319 -2.1205
 4497SOL    HW225128   1.771   4.314   8.537 -1.8584 -0.3063 -1.0844
 4498SOL     OW25129   0.919   2.811   5.501  0.0253 -0.3497  0.0294
 4498SOL    HW125130   0.952   2.891   5.460 -0.9569  0.7468  1.3696
 4498SOL    HW225131   0.827   2.818   5.475 -0.0578 -0.3953  0.3110
 4499SOL     OW25132   1.813   4.704   3.803 -0.1991  0.7202 -0.7708
 4499SOL    HW125133   1.739   4.735   3.751 -0.8135  1.3484  0.4833
 4499SOL    HW225134   1.800   0.017   3.883 -3.6737  1.3602 -1.6978
 4500SOL     OW25135   2.049   0.645   3.081  0.2048 -0.0132  0.1562
 4500SOL    HW125136   2.015   0.706   3.147  1.3454  0.3050  0.4523
 4500SOL    HW225137   2.076   0.571   3.135  0.5420 -0.8418 -1.1385
 4501SOL     OW25138   1.241   0.477   7.169 -0.4138 -0.2409 -0.3337
 4501SOL    HW125139   1.283   0.526   7.099 -0.6655 -1.4085 -1.2990
 4501SOL    HW225140   1.241   0.390   7.129  0.0778 -0.3353 -0.1312
 4502SOL     OW25141   1.881   3.658   8.133 -0.1135 -0.3340 -0.2018
 4502SOL    HW125142   1.839   3.695   8.055  1.2341 -0.3005 -0.9185
 4502SOL    HW225143   1.946   3.597   8.097 -0.0857 -0.5284  0.1852
 4503SOL     OW25144   1.120   0.538   3.732  0.4069 -0.2021  0.1908
 4503SOL    HW125145   1.092   0.579   3.650 -2.2141 -0.7171  0.8595
 4503SOL    HW225146   1.057   0.571   3.796 -0.4084 -1.0746 -0.1710
 4504SOL     OW25147   1.336   0.868   6.713  0.0809 -0.2258 -0.2435
 4504SOL    HW125148   1.405   0.905   6.769  1.5238 -0.8749 -1.6061
 4504SOL    HW225149   1.353   0.913   6.630  2.8446  0.2384  0.5742
 4505SOL     OW25150   1.417   4.156  16.067  0.5718 -0.0754 -0.1071
 4505SOL    HW125151   1.369   4.085  16.025 -0.1402 -0.7946  1.9264
 4505SOL    HW225152   1.454   4.211  15.998 -1.2846  0.0644 -0.9847
 4506SOL     OW25153   3.641   1.895   6.968 -0.0983  0.0239 -0.1918
 4506SOL    HW125154   3.601   1.899   7.055 -2.0274  2.4507 -1.2058
 4506SOL    HW225155   3.736   1.897   6.985 -0.0753  0.1088 -0.3315
 4507SOL     OW25156   3.988   3.429   3.428 -0.8470  0.4127  0.4029
 4507SOL    HW125157   3.919   3.387   3.377 -0.4570 -0.8475  0.9292
 4507SOL    HW225158   4.020   3.490   3.361 -0.4372 -0.3750 -0.1205
 4508SOL     OW25159   3.060   3.365   3.626 -0.8904 -0.1087 -0.2544
 4508SOL    HW125160   3.080   3.452   3.661 -2.3691 -0.2946  1.0311
 4508SOL    HW225161   3.085   3.304   3.696  1.1559  1.5748  0.4766
 4509SOL     OW25162   0.703   3.856   4.346 -0.5682  0.1846  0.1758
 4509SOL    HW125163   0.690   3.781   4.403  0.6919 -2.4537 -3.0582
 4509SOL    HW225164   0.788   3.842   4.305 -0.6498  0.4364 -0.0804
 4510SOL     OW25165   0.815   0.827   3.175 -0.3669 -0.7006 -0.4048
 4510SOL    HW125166   0.811   0.922   3.164  1.0276 -0.7572 -1.4755
 4510SOL    HW225167   0.729   0.814   3.136 -0.2115  0.4171 -1.1354
 4511SOL     OW25168   1.882   2.277   7.609 -0.1035  0.0768  0.2754
 4511SOL    HW125169   1.788   2.273   7.595 -0.1279  1.1966  0.1183
 4511SOL    HW225170   1.899   2.219   7.683  2.5601 -1.9937 -1.9538
 4512SOL     OW25171   2.501   0.765   6.608 -0.0434 -0.2740 -0.2470
 4512SOL    HW125172   2.493   0.694   6.544 -2.0688 -0.5007  0.2784
 4512SOL    HW225173   2.411   0.780   6.638 -0.4759 -0.3143 -1.5256
 4513SOL     OW25174   3.008   3.135   4.158 -0.0469  0.0178 -0.2320
 4513SOL    HW125175   2.939   3.069   4.160  0.2107 -0.0995  3.4003
 4513SOL    HW225176   3.068   3.097   4.223  0.6989  2.3853  0.4602
 4514SOL     OW25177   2.975   3.728   1.682 -0.0106 -0.5212 -0.6378
 4514SOL    HW125178   2.907   3.738   1.749 -0.2948  1.0802 -1.1696
 4514SOL    HW225179   2.976   3.814   1.641  0.5958 -0.4461 -0.4556
 4515SOL     OW25180   1.563   3.781   2.875 -0.2254  0.9817 -0.0220
 4515SOL    HW125181   1.487   3.750   2.922 -1.1781 -1.2735 -3.0758
 4515SOL    HW225182   1.577   3.862   2.925  4.0887 -0.6390  1.4390
 4516SOL     OW25183   1.101   0.206   4.613  0.0823  0.8176 -0.7928
 4516SOL    HW125184   1.083   0.180   4.704  2.6199  0.3993 -0.4118
 4516SOL    HW225185   1.013   0.196   4.576 -0.0267 -1.8641  0.1753
 4517SOL     OW25186   1.328   0.559   3.354  0.1764 -0.2830  0.1535
 4517SOL    HW125187   1.288   0.636   3.395  0.3528 -0.4934  0.7228
 4517SOL    HW225188   1.249   0.507   3.344 -1.4077  1.7359  2.1018
 4518SOL     OW25189   3.192   0.543   3.183  0.7799  0.1946  0.3590
 4518SOL    HW125190   3.157   0.631   3.165  1.8474  0.7599  1.0686
 4518SOL    HW225191   3.116   0.485   3.181 -0.0958  1.3101  0.7584
 4519SOL     OW25192   0.962   2.169   3.517  0.2663 -0.2171 -0.2298
 4519SOL    HW125193   0.961   2.197   3.609 -0.6392  1.5967 -0.8129
 4519SOL    HW225194   0.934   2.244   3.466 -3.2066  0.5303  2.7751
 4520SOL     OW25195   1.976   3.176   3.047  0.4921  0.0749  0.3410
 4520SOL    HW125196   2.036   3.239   3.088  0.5265  0.2440  0.0275
 4520SOL    HW225197   1.913   3.231   3.000  0.0324 -0.9928 -0.2909
 4521SOL     OW25198   1.581   1.851   8.282  0.3111 -0.0113 -0.9238
 4521SOL    HW125199   1.647   1.782   8.285  0.1844 -0.1969 -2.1505
 4521SOL    HW225200   1.532   1.836   8.363  1.9764 -2.0807 -0.2837
 4522SOL     OW25201   0.480   0.994   5.323 -0.0167  0.4088  0.0984
 4522SOL    HW125202   0.465   0.947   5.405  2.6259  1.6860  1.2984
 4522SOL    HW225203   0.513   1.077   5.357  1.2275 -0.2068  0.4003
 4523SOL     OW25204   1.336   4.172   7.241 -0.0175 -0.0067  0.1608
 4523SOL    HW125205   1.381   4.218   7.312  0.4433  0.6927 -0.5953
 4523SOL    HW225206   1.255   4.141   7.282 -0.3524  0.3268 -0.2451
 4524SOL     OW25207   2.545   2.927   6.165 -0.4413 -0.3995 -0.0308
 4524SOL    HW125208   2.540   3.004   6.222 -0.7378  0.2925 -0.9935
 4524SOL    HW225209   2.606   2.956   6.098  0.8435 -0.9048  0.9217
 4525SOL     OW25210   3.404   0.749  17.447 -0.0831 -0.7633  0.1599
 4525SOL    HW125211   3.372   0.826  17.400 -0.9774 -0.7821  0.7481
 4525SOL    HW225212   3.338   0.682  17.429 -1.6661  0.5559  1.1013
 4526SOL     OW25213   0.466   2.751   4.870 -0.2558  0.1106  0.0397
 4526SOL    HW125214   0.529   2.761   4.798  1.1857 -0.8096  1.1729
 4526SOL    HW225215   0.519   2.737   4.948 -0.6629 -1.4908  0.0280
 4527SOL     OW25216   2.091   3.605  16.320  0.1435  0.3606 -0.3266
 4527SOL    HW125217   2.178   3.578  16.348 -1.1793 -1.7774  1.7155
 4527SOL    HW225218   2.064   3.649  16.400  0.5462 -2.2753  1.2458
 4528SOL     OW25219   3.579   4.288   7.503  0.0080  0.8777 -0.0494
 4528SOL    HW125220   3.633   4.210   7.489 -1.2228  0.3194 -1.6619
 4528SOL    HW225221   3.648   4.354   7.509  1.3637 -0.5917  0.9894
 4529SOL     OW25222   2.416   2.930   6.652 -0.5206  0.5077  0.2122
 4529SOL    HW125223   2.359   3.007   6.645 -0.7137  0.2708 -0.9192
 4529SOL    HW225224   2.499   2.977   6.648 -1.1132  1.6259  0.9963
 4530SOL     OW25225   1.436   2.289   7.282  0.3912  0.1223  0.0395
 4530SOL    HW125226   1.366   2.246   7.330 -0.1629 -0.7402 -1.5205
 4530SOL    HW225227   1.428   2.371   7.331 -1.4821 -1.4083  2.2884
 4531SOL     OW25228   0.352   0.919  14.827  0.2522  0.9004  0.5386
 4531SOL    HW125229   0.308   0.984  14.772 -2.3136 -0.9663  0.3467
 4531SOL    HW225230   0.318   0.837  14.791 -0.3932  0.9934  0.9293
 4532SOL     OW25231   0.414   0.972   8.873  0.4583  0.5536 -0.1080
 4532SOL    HW125232   0.457   0.889   8.853 -1.6613 -0.2265 -1.5102
 4532SOL    HW225233   0.323   0.943   8.879  0.9800 -1.1680 -0.3217
 4533SOL     OW25234   3.276   3.248   1.557 -0.2400 -0.2435  0.4598
 4533SOL    HW125235   3.333   3.270   1.630  0.5572  0.2030 -0.2888
 4533SOL    HW225236   3.267   3.333   1.514 -1.1502 -0.6083 -0.0620
 4534SOL     OW25237   2.699   2.970   5.952  0.3326  0.0101  0.5037
 4534SOL    HW125238   2.746   3.041   5.907 -1.3511 -0.2455 -1.6632
 4534SOL    HW225239   2.676   2.905   5.885 -0.0782 -0.4970  1.1287
 4535SOL     OW25240   1.181   1.193  15.896 -0.2570 -0.7534  0.4921
 4535SOL    HW125241   1.225   1.187  15.811  0.4850 -2.7812  1.0355
 4535SOL    HW225242   1.101   1.240  15.872 -0.2853 -0.3790  1.3497
 4536SOL     OW25243   4.274   2.374   2.315  0.0773 -0.3099  0.2769
 4536SOL    HW125244   4.360   2.347   2.283  0.6137  3.0907 -1.2446
 4536SOL    HW225245   4.273   2.455   2.263  1.3862  0.3269  1.2464
 4537SOL     OW25246   2.173   0.095  15.505  0.5795  0.2235  0.0185
 4537SOL    HW125247   2.252   0.133  15.542  0.8125 -0.8169  0.5834
 4537SOL    HW225248   2.184   0.113  15.412  0.1602  0.9299  0.1005
 4538SOL     OW25249   2.170   4.104   2.239 -0.1282  0.2062  0.5699
 4538SOL    HW125250   2.262   4.131   2.240 -0.4847  1.5421 -2.0935
 4538SOL    HW225251   2.144   4.171   2.175 -0.5326 -0.8569 -0.3836
 4539SOL     OW25252   4.483   2.254   8.257  0.6599 -0.2671  0.1752
 4539SOL    HW125253   4.482   2.162   8.231 -0.3249  0.6548 -3.1070
 4539SOL    HW225254   4.481   2.301   8.174  1.2475  1.9626  1.4099
 4540SOL     OW25255   2.804   0.224  11.330  0.1591 -0.3153  0.0585
 4540SOL    HW125256   2.895   0.220  11.303 -1.0537 -1.1438 -3.8889
 4540SOL    HW225257   2.766   0.299  11.283 -0.9923 -0.3825  0.8539
 4541SOL     OW25258   4.273   2.011   9.910 -0.6295  0.3433 -0.2018
 4541SOL    HW125259   4.248   2.052   9.993 -1.4377 -1.6362  0.5426
 4541SOL    HW225260   4.211   1.939   9.902  1.3203 -1.1561 -1.9869
 4542SOL     OW25261   3.983   1.394  15.725 -0.3405 -0.7047  0.2700
 4542SOL    HW125262   4.026   1.479  15.734 -1.1704 -0.1331 -1.2143
 4542SOL    HW225263   3.901   1.421  15.766 -2.0316 -0.0339 -3.5515
 4543SOL     OW25264   1.351   1.894   4.050  0.5577 -0.3146 -0.0435
 4543SOL    HW125265   1.304   1.977   4.045 -1.1839 -1.1335  2.4031
 4543SOL    HW225266   1.404   1.917   4.126 -0.1939  0.4127  0.2545
 4544SOL     OW25267   0.678   2.970   3.480  0.6245  0.0851  0.2423
 4544SOL    HW125268   0.614   3.021   3.429 -0.3358 -0.3411  1.0235
 4544SOL    HW225269   0.724   3.045   3.519 -1.2852  1.2969  0.1943
 4545SOL     OW25270   0.301   0.987  11.175 -0.3988  1.1018  0.3318
 4545SOL    HW125271   0.266   1.019  11.258 -0.9652 -0.7971  0.8247
 4545SOL    HW225272   0.247   1.030  11.108 -0.7792  0.6169  0.3240
 4546SOL     OW25273   0.312   2.994   1.353  0.2489 -0.2407 -0.0835
 4546SOL    HW125274   0.306   3.067   1.291 -1.5360 -0.5939 -0.3325
 4546SOL    HW225275   0.220   2.983   1.379  0.5236 -1.0344  0.5736
 4547SOL     OW25276   1.337   2.742  10.469  0.2625 -0.0970 -0.7675
 4547SOL    HW125277   1.370   2.728  10.558  1.0564 -1.5488 -1.2777
 4547SOL    HW225278   1.296   2.828  10.477 -0.1543 -0.3136 -0.5879
 4548SOL     OW25279   2.097   0.005   5.840 -0.5324 -0.1173  0.2137
 4548SOL    HW125280   2.180   4.695   5.845 -0.1524  0.8048  2.5864
 4548SOL    HW225281   2.142   0.087   5.816 -2.7592  1.1071  0.2404
 4549SOL     OW25282   3.125   1.454   8.594 -0.5095 -0.1893 -0.1844
 4549SOL    HW125283   3.182   1.436   8.669 -0.1089  0.6466 -0.2806
 4549SOL    HW225284   3.137   1.548   8.580 -2.3647  0.0815  0.0896
 4550SOL     OW25285   2.652   3.554   5.128 -0.2980 -0.2786  0.1111
 4550SOL    HW125286   2.682   3.574   5.040  0.5566 -0.6073  0.3259
 4550SOL    HW225287   2.728   3.588   5.174  0.5820 -1.0950 -0.7518
 4551SOL     OW25288   3.797   2.586   4.821  0.2082 -0.0473  0.1835
 4551SOL    HW125289   3.866   2.652   4.819  1.7689 -1.7288 -1.9635
 4551SOL    HW225290   3.837   2.505   4.853 -0.2804 -0.5430 -0.4678
 4552SOL     OW25291   2.914   4.729   7.248 -0.2969 -0.0985  0.6965
 4552SOL    HW125292   2.858   0.018   7.174  2.3806  0.7664 -1.0482
 4552SOL    HW225293   2.857   4.729   7.325  0.5976  0.7235  1.3549
 4553SOL     OW25294   1.052   0.042   3.589 -0.4422  0.1278  0.4224
 4553SOL    HW125295   1.051   0.082   3.502 -0.9003 -0.2879  0.2372
 4553SOL    HW225296   0.987   0.092   3.639  1.2523  2.1906  0.5640
 4554SOL     OW25297   3.179   2.780   2.723 -0.2139 -0.2775  0.2347
 4554SOL    HW125298   3.203   2.777   2.631  1.2787 -0.2378  0.6220
 4554SOL    HW225299   3.172   2.688   2.750 -2.1057 -0.4136 -0.7272
 4555SOL     OW25300   4.549   4.351   5.991  0.2346 -0.0514  0.6843
 4555SOL    HW125301   4.466   4.397   6.004  0.8437  1.4850 -0.8291
 4555SOL    HW225302   4.590   4.357   6.077  0.6946 -1.4516  0.5552
 4556SOL     OW25303   0.929   1.529   1.914  0.8266 -0.0414  0.1890
 4556SOL    HW125304   0.868   1.550   1.986  1.1579  1.2645  0.0905
 4556SOL    HW225305   0.890   1.586   1.848  1.8416 -1.0368 -1.2629
 4557SOL     OW25306   2.583   2.326  14.503 -0.4816 -0.2887 -0.0984
 4557SOL    HW125307   2.497   2.358  14.530 -0.6186 -0.3558 -0.4598
 4557SOL    HW225308   2.559   2.285  14.420  0.8940  1.2975 -1.2850
 4558SOL     OW25309   1.287   1.409   0.452  0.1348  0.8452 -0.1606
 4558SOL    HW125310   1.255   1.325   0.417 -0.9178  2.1679 -2.3410
 4558SOL    HW225311   1.377   1.399   0.422  0.5791  1.2627  1.0502
 4559SOL     OW25312   3.767   1.010   9.406  0.6272 -0.0093  0.3695
 4559SOL    HW125313   3.849   0.967   9.380  1.2926  0.9511  0.8601
 4559SOL    HW225314   3.706   0.936   9.406  0.8356 -0.1810 -0.0859
 4560SOL     OW25315   2.547   4.068   6.440 -0.1704  0.2417 -0.0799
 4560SOL    HW125316   2.570   4.141   6.383  2.9673 -0.6088  0.0947
 4560SOL    HW225317   2.546   3.993   6.380 -0.2307 -0.3397  0.6517
 4561SOL     OW25318   4.159   2.441   1.946 -0.2615  0.0710 -0.0281
 4561SOL    HW125319   4.242   2.401   1.972  2.3054  3.7581 -2.5205
 4561SOL    HW225320   4.148   2.398   1.861  2.1557  0.0879 -0.3549
 4562SOL     OW25321   0.884   4.229   8.779 -0.6443 -0.2687 -0.4949
 4562SOL    HW125322   0.848   4.172   8.712 -1.4683 -1.8110  1.2807
 4562SOL    HW225323   0.971   4.242   8.741  0.2413 -0.3069  1.5260
 4563SOL     OW25324   3.339   4.217   5.492  0.2269  0.7224  0.9781
 4563SOL    HW125325   3.246   4.196   5.479  0.9469  0.0271 -3.1147
 4563SOL    HW225326   3.327   4.303   5.533 -0.6164  2.0778 -2.0578
 4564SOL     OW25327   2.323   4.268   7.787  0.0836  0.2016 -0.2800
 4564SOL    HW125328   2.262   4.282   7.859  0.2761  2.7891 -0.5978
 4564SOL    HW225329   2.410   4.263   7.827  0.8729  1.1556 -1.8448
 4565SOL     OW25330   3.539   3.195   5.406 -0.1450  0.3822  0.1731
 4565SOL    HW125331   3.499   3.135   5.343 -0.6438  0.5023  0.3772
 4565SOL    HW225332   3.493   3.178   5.488  3.2258 -2.3671  1.4881
 4566SOL     OW25333   0.799   4.185   7.920 -0.6592 -0.1626 -0.1353
 4566SOL    HW125334   0.731   4.203   7.984 -1.3930 -0.7267 -0.7518
 4566SOL    HW225335   0.768   4.098   7.893 -0.3940 -1.2568  3.1191
 4567SOL     OW25336   4.054   3.550   6.275 -0.4623  0.2324  0.4155
 4567SOL    HW125337   4.036   3.485   6.207  0.3010 -1.0377  1.4491
 4567SOL    HW225338   4.002   3.624   6.243  1.2662  0.0967 -2.7438
 4568SOL     OW25339   0.332   0.529   5.530 -0.1344 -0.0484  0.1972
 4568SOL    HW125340   0.260   0.473   5.559  0.2808 -0.7366 -0.1022
 4568SOL    HW225341   0.279   0.584   5.472 -0.9620 -1.4665 -0.3907
 4569SOL     OW25342   1.511   2.744  11.731  0.2196  0.4066  0.4677
 4569SOL    HW125343   1.550   2.663  11.763  0.2893  0.9717  1.8335
 4569SOL    HW225344   1.442   2.698  11.683  0.9651  1.4750 -1.6291
 4570SOL     OW25345   2.619   2.823   7.347 -0.3355  0.5235  0.3729
 4570SOL    HW125346   2.578   2.905   7.374 -1.2218  0.1317  0.2212
 4570SOL    HW225347   2.710   2.851   7.359  0.6837 -2.0926 -1.2869
 4571SOL     OW25348   0.194   2.377  16.171  0.2631  0.7689  0.4097
 4571SOL    HW125349   0.177   2.335  16.087 -0.1951 -0.4280  1.1123
 4571SOL    HW225350   0.151   2.316  16.231 -0.4304  0.8269 -0.0277
 4572SOL     OW25351   0.025   0.832   8.178  0.1236 -0.6935 -0.0162
 4572SOL    HW125352   0.033   0.779   8.257  2.2764 -0.8943 -0.3794
 4572SOL    HW225353   4.712   0.910   8.201  0.8875 -0.0527 -0.5282
 4573SOL     OW25354   0.638   3.664  10.609 -0.6712  0.4330  0.2944
 4573SOL    HW125355   0.563   3.724  10.605 -0.9376 -0.0794 -2.7467
 4573SOL    HW225356   0.600   3.577  10.596 -2.2054  1.7273 -4.0203
 4574SOL     OW25357   0.157   4.465   1.562 -0.9480 -0.0007  0.3245
 4574SOL    HW125358   0.122   4.431   1.480 -1.3946 -2.6375  1.6042
 4574SOL    HW225359   0.114   4.416   1.633 -2.2436 -0.6512 -0.9037
 4575SOL     OW25360   0.931   2.078   6.926  0.8322  0.0167 -0.1254
 4575SOL    HW125361   0.983   2.156   6.946  0.1953  1.5191 -4.2122
 4575SOL    HW225362   0.947   2.020   7.001  2.0836 -0.8168 -1.0482
 4576SOL     OW25363   2.654   1.600   7.089  0.1302  0.6220  0.2185
 4576SOL    HW125364   2.654   1.641   7.176 -1.0520 -1.2910  1.0985
 4576SOL    HW225365   2.682   1.673   7.033 -1.1101  1.3102  0.4930
 4577SOL     OW25366   1.534   4.137   0.749  0.2822  0.4523 -0.9029
 4577SOL    HW125367   1.459   4.108   0.697  1.3506 -0.7925 -1.7603
 4577SOL    HW225368   1.578   4.195   0.686  0.7991  0.0886 -0.8710
 4578SOL     OW25369   1.456   4.411   5.888  0.5642  0.0291 -0.0170
 4578SOL    HW125370   1.462   4.320   5.858  3.2918  0.1803  0.0809
 4578SOL    HW225371   1.373   4.417   5.936  0.9164 -0.2892  0.6311
 4579SOL     OW25372   1.773   0.615   7.646  0.1132  0.1740 -0.0844
 4579SOL    HW125373   1.730   0.649   7.567 -3.2959 -2.5474  0.5910
 4579SOL    HW225374   1.853   0.574   7.613  0.4002  0.1743  0.6180
 4580SOL     OW25375   3.792   2.874  12.442 -0.0909  0.0303  0.4319
 4580SOL    HW125376   3.832   2.916  12.518  2.0419 -0.1426 -0.5754
 4580SOL    HW225377   3.710   2.848  12.483  0.1114  0.8149  1.3499
 4581SOL     OW25378   1.682   0.031   4.693 -0.1647 -0.9382 -0.2876
 4581SOL    HW125379   1.778   0.026   4.691 -0.2274 -1.5536 -1.6426
 4581SOL    HW225380   1.670   0.080   4.612  1.0379  0.3471  0.3252
 4582SOL     OW25381   1.680   1.831   5.496  0.1195 -0.2133  0.4566
 4582SOL    HW125382   1.602   1.826   5.551 -0.4847  1.9384 -0.2271
 4582SOL    HW225383   1.743   1.797   5.559  0.9884  2.7093  1.1260
 4583SOL     OW25384   2.660   0.981   8.264 -0.6334  0.1133  0.1938
 4583SOL    HW125385   2.685   0.948   8.350 -2.0616  0.8226  0.8881
 4583SOL    HW225386   2.742   1.024   8.238  0.6331 -0.0908  3.8963
 4584SOL     OW25387   0.883   1.052   1.882  0.1900  0.1492 -0.1484
 4584SOL    HW125388   0.813   1.082   1.824 -0.5726 -0.2479  0.5802
 4584SOL    HW225389   0.959   1.106   1.860  1.6716 -1.4143  1.1899
 4585SOL     OW25390   3.577   2.309   1.688 -0.1040  0.0401  0.4877
 4585SOL    HW125391   3.638   2.287   1.618  1.1071  2.8488  0.6501
 4585SOL    HW225392   3.490   2.282   1.660  0.7677 -1.4304 -0.7293
 4586SOL     OW25393   0.639   0.921   4.301 -0.4843  0.2480 -0.7876
 4586SOL    HW125394   0.568   0.901   4.362 -0.7806 -0.1990 -1.2750
 4586SOL    HW225395   0.658   1.006   4.340  3.2381 -0.4374 -1.1650
 4587SOL     OW25396   0.781   4.057  10.699 -0.2027 -0.0237  0.2219
 4587SOL    HW125397   0.816   4.098  10.620 -0.8683 -0.0284 -0.0771
 4587SOL    HW225398   0.686   4.056  10.688  0.0205 -0.0324 -1.7022
 4588SOL     OW25399   3.439   2.707   6.745  0.6538 -0.7214  0.3116
 4588SOL    HW125400   3.477   2.679   6.828 -2.7091 -0.8004  1.8305
 4588SOL    HW225401   3.388   2.629   6.724  0.3408 -0.1204 -1.1707
 4589SOL     OW25402   1.912   4.244   8.304  0.2092  0.2552  0.1172
 4589SOL    HW125403   1.856   4.226   8.228 -0.7547  1.0312  0.6467
 4589SOL    HW225404   1.934   4.336   8.293  1.1081 -0.2301 -2.1209
 4590SOL     OW25405   3.368   2.051   0.906 -0.4142  0.5766  0.3645
 4590SOL    HW125406   3.405   1.966   0.885 -2.8889 -0.2594 -0.5228
 4590SOL    HW225407   3.337   2.083   0.822 -3.3978  0.3566  1.3948
 4591SOL     OW25408   1.527   3.780   3.897  0.1764 -0.1016  0.0144
 4591SOL    HW125409   1.533   3.769   3.992 -0.4625 -0.6628 -0.0085
 4591SOL    HW225410   1.434   3.798   3.881  0.4949  0.1316 -1.6138
 4592SOL     OW25411   3.610   3.530   4.100 -0.0388 -0.2507 -0.2970
 4592SOL    HW125412   3.625   3.514   4.007  0.3160  1.6709 -0.5684
 4592SOL    HW225413   3.701   3.531   4.130 -0.7540  2.1586  1.7570
 4593SOL     OW25414   2.019   0.201   7.667  0.4745  0.1083 -0.6816
 4593SOL    HW125415   2.035   0.158   7.583 -0.7888 -1.3882 -0.1686
 4593SOL    HW225416   1.924   0.213   7.659  0.4385 -0.1880 -0.7071
 4594SOL     OW25417   3.367   3.195   0.397 -0.2495  0.0114 -0.1520
 4594SOL    HW125418   3.319   3.143   0.333 -0.0190  0.4094 -0.6528
 4594SOL    HW225419   3.411   3.253   0.335 -2.2144  1.6255 -0.0418
 4595SOL     OW25420   3.761   2.486   5.234  0.1801 -0.1523 -0.8069
 4595SOL    HW125421   3.765   2.581   5.221  0.2627 -0.1691 -0.9049
 4595SOL    HW225422   3.797   2.446   5.155  0.9894  2.8046 -1.9490
 4596SOL     OW25423   3.192   1.487   7.069  0.5215  0.3775 -0.4292
 4596SOL    HW125424   3.170   1.568   7.115 -0.0893  0.9991 -1.8273
 4596SOL    HW225425   3.126   1.431   7.110  0.4252  0.4057 -0.5440
 4597SOL     OW25426   4.463   3.338   2.441 -0.1333 -1.1697 -0.3161
 4597SOL    HW125427   4.412   3.335   2.360 -0.0400  1.0796 -0.4603
 4597SOL    HW225428   4.457   3.247   2.470  0.7890 -0.4463  2.1422
 4598SOL     OW25429   0.874   1.277  11.436  1.0400 -0.8286  0.0489
 4598SOL    HW125430   0.924   1.309  11.510  0.3840  2.0345 -0.7690
 4598SOL    HW225431   0.830   1.200  11.474  0.2841 -0.4401 -0.0456
 4599SOL     OW25432   4.413   4.690  16.395  0.4461  0.4857  0.0429
 4599SOL    HW125433   4.365   4.608  16.382  2.0256 -0.3831 -0.3473
 4599SOL    HW225434   4.493   4.656  16.353 -0.0771 -0.7798  0.0709
 4600SOL     OW25435   2.632   3.349   6.005  0.3128 -0.7045  0.3648
 4600SOL    HW125436   2.572   3.378   6.073  1.3773 -0.9733  1.4254
 4600SOL    HW225437   2.684   3.285   6.055 -0.1602 -1.0585  0.4092
 4601SOL     OW25438   1.162   3.066   8.810 -0.2342 -0.4038  0.3332
 4601SOL    HW125439   1.076   3.029   8.791  0.5362 -1.8024 -0.4535
 4601SOL    HW225440   1.207   3.081   8.727  0.7314 -0.5143  0.8261
 4602SOL     OW25441   0.570   2.561   5.344 -0.9394  0.3257  0.1208
 4602SOL    HW125442   0.547   2.547   5.435 -0.6664  0.7420  0.2538
 4602SOL    HW225443   0.663   2.578   5.356 -1.0898  2.1145 -1.1058
 4603SOL     OW25444   4.222   3.624   1.009  0.3045  0.5118 -0.0761
 4603SOL    HW125445   4.280   3.644   0.935  1.4143  1.4141  1.0481
 4603SOL    HW225446   4.243   3.693   1.072 -1.7241  0.2204  0.9154
 4604SOL     OW25447   0.467   0.533   0.758  0.7447 -0.1601 -0.3567
 4604SOL    HW125448   0.542   0.505   0.810  1.0130  0.9701 -0.1223
 4604SOL    HW225449   0.471   0.463   0.693  0.7818  1.0093 -1.6353
 4605SOL     OW25450   0.203   3.609   1.389  0.3219 -0.4215 -0.5397
 4605SOL    HW125451   0.153   3.689   1.372  0.7953 -0.0927 -0.3848
 4605SOL    HW225452   0.287   3.642   1.420  0.2980 -0.0475 -0.8743
 4606SOL     OW25453   4.212   3.455   3.632 -0.2524 -0.3432 -0.4017
 4606SOL    HW125454   4.171   3.427   3.550 -1.3681 -1.2682  0.4826
 4606SOL    HW225455   4.301   3.481   3.605 -0.4647  0.1629 -0.6099
 4607SOL     OW25456   2.581   3.536   2.039  0.6124 -0.3596 -0.5549
 4607SOL    HW125457   2.625   3.460   2.076  2.3680  1.6611  1.4525
 4607SOL    HW225458   2.543   3.589   2.108  0.9925 -0.7296 -0.0617
 4608SOL     OW25459   3.099   3.893   1.179 -0.1258  0.1991 -0.5305
 4608SOL    HW125460   3.064   3.893   1.090 -0.7569  1.7443 -0.2667
 4608SOL    HW225461   3.135   3.804   1.187  1.5902  0.9189 -0.2084
 4609SOL     OW25462   0.000   3.438   7.550 -0.1805 -0.3201  0.3287
 4609SOL    HW125463   0.047   3.436   7.467  0.7583 -2.0233  0.8782
 4609SOL    HW225464   4.732   3.347   7.580  1.6919 -1.3077 -2.4354
 4610SOL     OW25465   3.408   3.484   5.441  0.6231 -0.0135  0.0500
 4610SOL    HW125466   3.503   3.482   5.456  0.6220 -2.2515 -0.2523
 4610SOL    HW225467   3.403   3.576   5.415  0.9096 -0.1024 -0.3142
 4611SOL     OW25468   3.857   1.513   3.352  0.4600 -0.1327  0.4059
 4611SOL    HW125469   3.905   1.574   3.408  2.1917 -0.0208 -1.1652
 4611SOL    HW225470   3.791   1.573   3.318 -0.4683 -0.8830  0.8950
 4612SOL     OW25471   4.581   2.716   4.174  0.0730  1.0590 -0.5784
 4612SOL    HW125472   4.630   2.634   4.182 -0.9738  0.7872  2.9660
 4612SOL    HW225473   4.548   2.712   4.084  1.3801  1.9439 -1.0952
 4613SOL     OW25474   3.787   3.476   8.144  0.3550 -0.2293 -0.2210
 4613SOL    HW125475   3.849   3.424   8.093  0.9616  0.9098 -0.6430
 4613SOL    HW225476   3.826   3.563   8.152  3.8995 -1.6489 -2.2938
 4614SOL     OW25477   2.238   2.257   1.861  0.0611 -0.0561 -0.2192
 4614SOL    HW125478   2.267   2.326   1.921 -3.3351  1.2229  0.0033
 4614SOL    HW225479   2.150   2.234   1.892 -0.0513  0.6118 -0.0289
 4615SOL     OW25480   3.808   4.474  15.411  0.2026  0.3846  0.9726
 4615SOL    HW125481   3.762   4.397  15.377  2.0486  0.3389 -1.4716
 4615SOL    HW225482   3.757   4.538  15.360 -0.4621  2.1959  3.9044
 4616SOL     OW25483   0.888   4.430   3.897  0.1461 -0.0627  0.3176
 4616SOL    HW125484   0.842   4.514   3.898  2.6479  1.3629 -2.7087
 4616SOL    HW225485   0.862   4.399   3.984  0.4405  0.8022  0.7174
 4617SOL     OW25486   1.289   3.008   2.670  0.4086 -0.0608  0.7442
 4617SOL    HW125487   1.329   2.935   2.717  2.7510 -0.3678 -1.6941
 4617SOL    HW225488   1.259   2.962   2.591  0.9530 -0.1644  0.5948
 4618SOL     OW25489   4.717   3.387  14.732  0.0809  0.1277  0.0758
 4618SOL    HW125490   4.720   3.346  14.818 -0.7214  0.0600  0.0756
 4618SOL    HW225491   0.039   3.462  14.745 -0.3826  0.5448 -0.2213
 4619SOL     OW25492   2.794   0.488   3.439  0.4446  0.0138  0.1081
 4619SOL    HW125493   2.704   0.515   3.425  1.1692  2.9812  1.0367
 4619SOL    HW225494   2.789   0.401   3.399  0.5350 -1.0067  2.2982
 4620SOL     OW25495   2.016   3.789   4.977  0.2332 -1.0066 -0.0241
 4620SOL    HW125496   2.042   3.730   4.907 -0.9175 -2.1373  0.5151
 4620SOL    HW225497   1.938   3.833   4.944 -0.4935 -2.4539 -0.2238
 4621SOL     OW25498   3.691   0.963   9.764 -0.3471  0.1480 -0.1957
 4621SOL    HW125499   3.722   0.876   9.737  0.9453  0.6825 -0.4424
 4621SOL    HW225500   3.670   1.005   9.681 -2.3201 -0.5542 -0.0596
 4622SOL     OW25501   0.374   1.247   2.570 -0.3297  0.1587  0.1135
 4622SOL    HW125502   0.431   1.320   2.542 -0.9846  0.7284  0.2773
 4622SOL    HW225503   0.350   1.274   2.658  0.5150  1.1776  0.0350
 4623SOL     OW25504   4.022   0.591   3.692 -0.1993 -0.0467 -0.4792
 4623SOL    HW125505   4.001   0.521   3.754  2.3112 -0.0634  0.3777
 4623SOL    HW225506   3.952   0.655   3.697 -0.9571 -0.8215 -1.2352
 4624SOL     OW25507   2.546   0.465   5.397 -0.5365 -0.1444 -0.1421
 4624SOL    HW125508   2.521   0.557   5.403 -5.1467 -1.4471  1.3509
 4624SOL    HW225509   2.617   0.476   5.334  0.1888  0.1682  0.7345
 4625SOL     OW25510   4.048   2.974   5.020  0.2552  0.2054  0.3427
 4625SOL    HW125511   3.966   2.987   5.068 -0.6463 -0.8945 -0.9159
 4625SOL    HW225512   4.108   2.974   5.095 -0.1885  1.7940  0.6860
 4626SOL     OW25513   3.578   2.952   8.460 -0.4685  0.1192  0.0804
 4626SOL    HW125514   3.539   2.894   8.395  2.5056  0.3462 -1.8998
 4626SOL    HW225515   3.503   2.983   8.510  1.4484  0.3117  2.8662
 4627SOL     OW25516   1.234   0.012  13.671 -0.4529  0.3269  0.7131
 4627SOL    HW125517   1.194   0.097  13.652  2.0194  1.4307  0.3282
 4627SOL    HW225518   1.203   4.695  13.598  1.6774 -0.5781  0.4467
 4628SOL     OW25519   0.627   3.151  13.173  0.1866  0.0660  0.9942
 4628SOL    HW125520   0.691   3.209  13.214  1.3542  0.6385 -1.6149
 4628SOL    HW225521   0.540   3.188  13.189  0.0421  0.3953 -0.5303
 4629SOL     OW25522   4.291   3.292  16.598  0.5166 -0.6883  0.9846
 4629SOL    HW125523   4.315   3.263  16.686 -0.2370  2.0287  2.1000
 4629SOL    HW225524   4.226   3.223  16.593  1.4571 -1.3709 -1.4843
 4630SOL     OW25525   0.902   1.144   5.510  0.3245 -0.2823 -0.2405
 4630SOL    HW125526   0.818   1.187   5.498  1.1979  1.6625  0.6000
 4630SOL    HW225527   0.946   1.142   5.425  1.8001  0.4257  0.5043
 4631SOL     OW25528   3.905   3.006   6.800  0.3745  0.4369 -0.2387
 4631SOL    HW125529   3.948   3.060   6.735  0.7812 -0.5024 -0.7483
 4631SOL    HW225530   3.945   3.032   6.883  0.3469  1.5018 -0.5575
 4632SOL     OW25531   1.809   4.629   7.369  0.1533 -0.4618 -0.5404
 4632SOL    HW125532   1.767   4.637   7.455  0.5013 -1.8354 -0.2397
 4632SOL    HW225533   1.723   4.627   7.329  0.3359 -1.3634 -0.8941
 4633SOL     OW25534   4.011   2.098  12.138 -0.3892 -0.0460 -0.4077
 4633SOL    HW125535   3.918   2.099  12.113 -0.2211  0.5813 -0.9977
 4633SOL    HW225536   4.015   2.132  12.228  1.7408 -0.9528 -0.1571
 4634SOL     OW25537   3.127   4.367   7.944 -0.1042 -0.3097  0.1231
 4634SOL    HW125538   3.121   4.433   8.014 -1.4145 -0.2735 -0.0175
 4634SOL    HW225539   3.172   4.419   7.877  3.4320 -1.4189  1.6554
 4635SOL     OW25540   2.159   2.412  13.879 -0.4543  0.3747  0.2298
 4635SOL    HW125541   2.137   2.444  13.967 -1.2233  0.0791  0.1505
 4635SOL    HW225542   2.078   2.440  13.836  0.8915  1.9320 -1.3070
 4636SOL     OW25543   2.538   3.287   1.399  0.5202  0.1899 -0.7860
 4636SOL    HW125544   2.632   3.285   1.381  0.8674 -1.6409  1.3001
 4636SOL    HW225545   2.508   3.373   1.369 -1.6133  0.0889  1.0386
 4637SOL     OW25546   0.981   3.556   8.444 -0.2335 -1.0194 -0.1474
 4637SOL    HW125547   0.941   3.566   8.530 -0.3841  1.2029 -0.4746
 4637SOL    HW225548   0.909   3.550   8.382 -0.2340  1.0453 -0.3541
 4638SOL     OW25549   4.536   0.394   0.050  0.3473  0.4935  0.2661
 4638SOL    HW125550   4.461   0.445   0.082  1.2256  1.9589 -0.0338
 4638SOL    HW225551   4.610   0.435   0.094 -1.3516  3.0285  0.7680
 4639SOL     OW25552   0.984   3.839   0.656  0.1805  0.3558 -0.5415
 4639SOL    HW125553   0.974   3.922   0.704 -2.3259 -0.1383 -0.2020
 4639SOL    HW225554   1.031   3.792   0.725 -0.7592 -0.3194 -0.3725
 4640SOL     OW25555   1.510   4.272   7.464 -0.0689 -0.2241  0.1183
 4640SOL    HW125556   1.467   4.201   7.511 -0.0892 -0.4167 -0.1961
 4640SOL    HW225557   1.518   4.337   7.535  0.2917  1.7655 -1.7476
 4641SOL     OW25558   3.350   2.186   7.369  0.0019  0.6451  0.4795
 4641SOL    HW125559   3.280   2.121   7.369  1.5180 -1.0095 -1.4879
 4641SOL    HW225560   3.312   2.264   7.409  0.6111  1.4361 -0.4899
 4642SOL     OW25561   2.979   0.937   5.237 -0.0407  0.0141 -0.2851
 4642SOL    HW125562   2.915   0.876   5.272 -0.7917  2.1856  2.0909
 4642SOL    HW225563   2.925   0.962   5.162  0.1228  0.1439 -0.3597
 4643SOL     OW25564   4.706   2.446  12.311  0.4447 -0.3452 -0.0781
 4643SOL    HW125565   0.058   2.432  12.344  0.6077  0.4165 -0.1733
 4643SOL    HW225566   4.701   2.541  12.296 -0.2229 -0.3058  0.4091
 4644SOL     OW25567   4.662   3.028   2.904  0.6322  0.9038  0.4470
 4644SOL    HW125568   4.632   3.021   2.995 -0.0273 -1.0375  0.0588
 4644SOL    HW225569   4.650   3.122   2.885  0.0883  0.7423 -0.0014
 4645SOL     OW25570   0.700   2.091  14.382 -0.0631 -0.4982 -0.2857
 4645SOL    HW125571   0.789   2.115  14.409 -0.4222  1.2394 -0.6465
 4645SOL    HW225572   0.717   1.997  14.386 -0.9419 -0.7117 -1.7105
 4646SOL     OW25573   3.996   2.687   1.898 -0.3295  0.3033  0.1565
 4646SOL    HW125574   3.915   2.681   1.949 -0.6533  1.4486 -0.2385
 4646SOL    HW225575   4.041   2.608   1.927 -1.9282 -0.5854  0.2420
 4647SOL     OW25576   1.883   4.004   3.339  1.0700 -0.4106  0.1828
 4647SOL    HW125577   1.902   3.979   3.249 -1.3238 -4.6446  0.8249
 4647SOL    HW225578   1.860   4.096   3.323 -1.7323 -1.1751 -0.2855
 4648SOL     OW25579   2.940   0.076  10.224  0.4427 -0.6065 -0.5903
 4648SOL    HW125580   2.857   0.032  10.242 -0.7547  0.8546 -2.5434
 4648SOL    HW225581   2.954   0.115  10.311 -2.8068  1.2458 -0.8773
 4649SOL     OW25582   3.657   3.293   4.799 -0.3823  0.3818  0.0045
 4649SOL    HW125583   3.623   3.220   4.849  0.1115  1.0101  1.2603
 4649SOL    HW225584   3.751   3.282   4.814  0.2273  2.3522 -2.2473
 4650SOL     OW25585   1.727   3.400   4.675  0.2868  0.4263  0.3283
 4650SOL    HW125586   1.724   3.313   4.635 -3.4463  0.7055 -0.0395
 4650SOL    HW225587   1.788   3.444   4.616  0.9437 -1.9248 -0.7735
 4651SOL     OW25588   1.307   3.468   3.423  0.0566 -0.0367 -0.1726
 4651SOL    HW125589   1.352   3.452   3.506 -0.9067  0.4164  0.4227
 4651SOL    HW225590   1.368   3.530   3.382 -1.0316  2.0227  1.3534
 4652SOL     OW25591   1.314   2.334   5.352  0.0391  0.6012 -0.2635
 4652SOL    HW125592   1.318   2.336   5.256  0.5179 -0.8577 -0.2744
 4652SOL    HW225593   1.403   2.311   5.381 -0.5413 -0.6561  0.4960
 4653SOL     OW25594   1.554   3.204   7.899  0.2416  0.5872 -0.5010
 4653SOL    HW125595   1.562   3.227   7.991 -0.9070 -1.4991  0.1215
 4653SOL    HW225596   1.576   3.111   7.907 -2.1979  0.1775  1.2914
 4654SOL     OW25597   1.664   1.556   4.102 -0.1690 -0.1402 -0.4499
 4654SOL    HW125598   1.700   1.645   4.103  1.1959 -0.6829 -1.6815
 4654SOL    HW225599   1.574   1.572   4.073 -0.5658 -0.8283  0.3963
 4655SOL     OW25600   4.287   0.158   8.583  0.5607  0.3259 -0.6886
 4655SOL    HW125601   4.272   0.197   8.497 -1.1406 -1.4292 -1.1870
 4655SOL    HW225602   4.199   0.181   8.614  0.5728  1.7040 -1.6418
 4656SOL     OW25603   3.185   0.711   2.526  0.1269 -0.7298 -0.2053
 4656SOL    HW125604   3.196   0.662   2.607  1.1993 -1.1174 -0.5878
 4656SOL    HW225605   3.236   0.658   2.466 -1.4855 -1.3478 -1.0462
 4657SOL     OW25606   0.465   2.844  11.290 -0.5005  0.4111 -0.5062
 4657SOL    HW125607   0.494   2.754  11.275 -0.4599  0.3859 -0.2811
 4657SOL    HW225608   0.377   2.838  11.253 -0.0010 -1.5904 -1.3572
 4658SOL     OW25609   1.852   0.088  15.002 -0.2282 -0.3748 -0.0588
 4658SOL    HW125610   1.925   0.041  14.960  0.8031 -1.0691  2.5081
 4658SOL    HW225611   1.804   0.116  14.924  1.1275 -0.2634 -0.8675
 4659SOL     OW25612   3.279   0.664   6.913  0.6706 -0.8288  0.2407
 4659SOL    HW125613   3.186   0.682   6.902  0.8388 -0.2021 -0.1407
 4659SOL    HW225614   3.315   0.720   6.845 -1.2730 -0.7649 -0.7275
 4660SOL     OW25615   2.985   3.396   6.234 -0.4900 -0.2847  0.2619
 4660SOL    HW125616   3.058   3.449   6.202 -1.1657 -0.5090 -1.6870
 4660SOL    HW225617   3.015   3.373   6.322 -1.3397  1.3829  0.9829
 4661SOL     OW25618   4.707   0.519   6.642  0.2676  0.6280 -0.0854
 4661SOL    HW125619   0.002   0.495   6.555  0.8584  2.2949 -0.3354
 4661SOL    HW225620   4.615   0.542   6.626  0.3735  0.9086 -0.3034
 4662SOL     OW25621   3.403   0.405   3.293 -0.2055 -0.0981  0.2215
 4662SOL    HW125622   3.351   0.338   3.337 -1.4543 -0.3108 -1.5434
 4662SOL    HW225623   3.336   0.471   3.272 -3.1622 -2.3698  2.5359
 4663SOL     OW25624   0.118   3.954   2.677  0.2877  0.8155 -0.6117
 4663SOL    HW125625   0.160   3.903   2.608  1.3913  2.6560 -1.2870
 4663SOL    HW225626   0.025   3.935   2.661  0.6934  0.0839 -2.1173
 4664SOL     OW25627   2.570   3.719  13.137  0.7178 -0.3878 -0.0947
 4664SOL    HW125628   2.570   3.735  13.042 -1.1946 -4.9583 -0.8710
 4664SOL    HW225629   2.636   3.783  13.164 -0.0592 -0.0717  1.0230
 4665SOL     OW25630   0.046   0.541   2.846  0.0471  0.4583 -0.2546
 4665SOL    HW125631   0.105   0.613   2.866  0.6332 -0.2346  0.5626
 4665SOL    HW225632   4.698   0.565   2.884  0.1499 -0.0084  0.2880
 4666SOL     OW25633   3.505   4.473   3.027  0.1806  0.3058  0.1013
 4666SOL    HW125634   3.492   4.484   2.932 -2.2105 -1.9544  0.1644
 4666SOL    HW225635   3.502   4.563   3.059  2.9123  0.0294  1.1285
 4667SOL     OW25636   3.658   4.242   2.944 -0.3219 -0.2839  0.0451
 4667SOL    HW125637   3.580   4.269   2.895 -1.1078  1.2221  2.1181
 4667SOL    HW225638   3.662   4.317   3.003  2.2046 -0.9537  0.7311
 4668SOL     OW25639   4.039   0.560  16.002  0.4098 -0.4875  0.4852
 4668SOL    HW125640   3.997   0.601  15.926  1.2535  0.7494  0.6827
 4668SOL    HW225641   4.119   0.612  16.015  1.2868 -1.6003 -0.5177
 4669SOL     OW25642   1.162   3.557   4.875  0.1737 -0.2159 -0.1821
 4669SOL    HW125643   1.109   3.478   4.863  0.0743 -0.0380 -0.8931
 4669SOL    HW225644   1.143   3.578   4.967  0.5369 -0.7530  0.0140
 4670SOL     OW25645   4.706   4.317   8.897  0.0085 -0.1145 -0.2409
 4670SOL    HW125646   4.657   4.397   8.878 -1.0602 -0.2884  1.7586
 4670SOL    HW225647   4.674   4.252   8.834  1.5826 -1.6911  0.5577
 4671SOL     OW25648   1.417   1.496   7.788 -0.3942 -0.3160 -0.3005
 4671SOL    HW125649   1.421   1.469   7.880  3.8849 -0.8018 -0.6526
 4671SOL    HW225650   1.359   1.572   7.784  0.1823  0.1353 -0.0265
 4672SOL     OW25651   4.229   2.807   2.860 -0.2809 -0.3673  0.2261
 4672SOL    HW125652   4.310   2.851   2.885  0.1390 -0.0259 -1.6870
 4672SOL    HW225653   4.169   2.879   2.880 -1.1661 -1.7391  2.5168
 4673SOL     OW25654   1.299   3.737   4.722 -0.0519 -0.1693  0.2576
 4673SOL    HW125655   1.264   3.709   4.638  0.3822  0.4325 -0.1231
 4673SOL    HW225656   1.247   3.680   4.779 -0.0331 -1.3053 -0.8875
 4674SOL     OW25657   3.213   2.528  11.122 -0.2906  0.2156 -0.2886
 4674SOL    HW125658   3.254   2.476  11.053 -0.6823 -2.2183  1.3488
 4674SOL    HW225659   3.142   2.471  11.151 -0.3635  0.0573 -0.7696
 4675SOL     OW25660   0.910   2.049   1.454  0.1378  0.5736 -0.2245
 4675SOL    HW125661   0.892   2.042   1.360 -1.7214 -0.9623  0.2397
 4675SOL    HW225662   0.908   2.142   1.476 -0.7380  0.2359  1.0922
 4676SOL     OW25663   4.337   3.593   8.201 -0.0873  0.0303 -0.0358
 4676SOL    HW125664   4.413   3.619   8.149  1.6574 -1.1564  1.9252
 4676SOL    HW225665   4.275   3.663   8.179 -0.2312  0.0982  0.5693
 4677SOL     OW25666   3.067   0.629  13.076  1.0283  1.1665  0.5660
 4677SOL    HW125667   2.987   0.645  13.025  0.4396 -1.8599  0.5643
 4677SOL    HW225668   3.109   0.554  13.035 -0.1191  0.7229  0.2082
 4678SOL     OW25669   1.171   1.285   3.436  0.2264 -0.2179 -0.2501
 4678SOL    HW125670   1.107   1.308   3.503  2.1393  0.1193  1.4594
 4678SOL    HW225671   1.171   1.367   3.388  1.6337 -0.2606 -0.3424
 4679SOL     OW25672   3.121   3.942   8.719 -0.4085  0.1389 -0.1884
 4679SOL    HW125673   3.179   3.895   8.779  0.6538  2.5368  0.6463
 4679SOL    HW225674   3.054   3.968   8.782 -0.6479 -0.2694 -0.2738
 4680SOL     OW25675   3.307   0.544   5.212 -0.2999  0.4087  0.6044
 4680SOL    HW125676   3.288   0.603   5.139  1.6731 -2.2688 -2.1042
 4680SOL    HW225677   3.390   0.583   5.239  0.7123 -0.3347 -1.4185
 4681SOL     OW25678   2.002   0.089   7.411  0.3401  0.5856  0.1911
 4681SOL    HW125679   1.961   0.011   7.373  1.4131  0.3701 -0.5433
 4681SOL    HW225680   1.976   0.150   7.343 -0.7415  1.4590  1.3735
 4682SOL     OW25681   3.457   1.471   3.455 -0.4157  0.1568  0.3738
 4682SOL    HW125682   3.488   1.465   3.545  1.4728 -1.3256 -0.3903
 4682SOL    HW225683   3.400   1.397   3.436  0.7668 -0.8148  0.6294
 4683SOL     OW25684   0.577   0.470   6.526  0.2218  0.1427 -0.6629
 4683SOL    HW125685   0.508   0.486   6.590  0.9433 -0.7292  0.3389
 4683SOL    HW225686   0.653   0.467   6.584 -0.1539  2.2384 -0.0698
 4684SOL     OW25687   3.853   0.246   8.315 -0.8503  0.4011 -0.1007
 4684SOL    HW125688   3.868   0.198   8.395 -0.6173  0.5735 -0.0415
 4684SOL    HW225689   3.763   0.230   8.286 -1.5247 -0.0075  2.2507
 4685SOL     OW25690   4.390   4.573   7.467 -0.1253 -0.3017 -0.2817
 4685SOL    HW125691   4.474   4.543   7.502 -0.1302  0.8521  0.7143
 4685SOL    HW225692   4.416   4.617   7.387  2.4677 -2.3479 -0.5305
 4686SOL     OW25693   3.751   1.422  15.907  0.3009  0.1977 -0.0217
 4686SOL    HW125694   3.697   1.344  15.918  2.0258 -1.4420 -3.1002
 4686SOL    HW225695   3.798   1.428  15.990 -1.2980  2.1036  0.7688
 4687SOL     OW25696   2.769   3.194   6.197  0.5943 -0.3909  0.0274
 4687SOL    HW125697   2.832   3.125   6.175 -1.3101 -2.2721  0.3705
 4687SOL    HW225698   2.823   3.271   6.213 -0.0714  0.3158 -1.1993
 4688SOL     OW25699   2.989   0.909   3.464 -0.2444 -0.1508  0.2936
 4688SOL    HW125700   2.941   0.950   3.536  0.5721  1.0824  0.1411
 4688SOL    HW225701   2.918   0.915   3.400  0.9449  2.6337 -0.7348
 4689SOL     OW25702   3.539   1.393  16.504  0.2817 -0.0809 -0.0580
 4689SOL    HW125703   3.538   1.301  16.477 -0.3865 -0.0375 -0.1785
 4689SOL    HW225704   3.550   1.433  16.418 -3.1346 -1.2565 -1.0507
 4690SOL     OW25705   1.324   4.318   1.258 -0.1043  0.1770  0.2425
 4690SOL    HW125706   1.394   4.360   1.208  0.8047  1.5289  2.6612
 4690SOL    HW225707   1.361   4.308   1.346 -0.7070 -0.7725  0.3800
 4691SOL     OW25708   0.091   2.540   7.424 -0.5257  0.2077 -0.2959
 4691SOL    HW125709   0.004   2.579   7.416  0.4641  2.6796  0.8961
 4691SOL    HW225710   0.130   2.593   7.494  1.6407 -1.7866  0.0159
 4692SOL     OW25711   2.552   4.321   6.603 -0.2777  0.1454  0.3021
 4692SOL    HW125712   2.504   4.240   6.588 -0.0076 -0.2913  1.8746
 4692SOL    HW225713   2.609   4.290   6.672 -1.3181 -0.9946  0.6544
 4693SOL     OW25714   4.654   2.048   7.389  0.2402 -0.0329 -1.0244
 4693SOL    HW125715   4.639   2.069   7.297  1.4875 -0.3954 -1.3096
 4693SOL    HW225716   4.703   2.123   7.424 -0.0771 -0.3542  0.1059
 4694SOL     OW25717   4.141   1.556   1.463  0.0857  0.4232 -0.1390
 4694SOL    HW125718   4.237   1.564   1.458  0.2510 -1.8066 -0.6166
 4694SOL    HW225719   4.114   1.563   1.372  0.0145  0.7434 -0.0945
 4695SOL     OW25720   0.726   1.434   8.710  0.5643 -0.0285  0.2491
 4695SOL    HW125721   0.798   1.389   8.665 -0.3778 -0.7029 -0.5771
 4695SOL    HW225722   0.742   1.424   8.804 -2.0695  3.1353  0.9958
 4696SOL     OW25723   2.296   3.658  15.308  0.0678  0.7482  0.5872
 4696SOL    HW125724   2.233   3.619  15.368  0.0095 -1.8150 -1.1687
 4696SOL    HW225725   2.356   3.583  15.307 -1.6941 -0.6404 -1.4665
 4697SOL     OW25726   0.218   3.949   2.200  0.3403  0.7209 -0.1564
 4697SOL    HW125727   0.194   4.042   2.196 -2.4896 -0.0921 -2.2352
 4697SOL    HW225728   0.132   3.914   2.222 -0.3526  2.0572 -0.7052
 4698SOL     OW25729   3.717   0.284   7.508  0.6037 -0.9379 -0.2009
 4698SOL    HW125730   3.791   0.338   7.537 -1.6190  0.8011  2.1797
 4698SOL    HW225731   3.749   0.257   7.422 -0.1467  2.9330 -1.7105
 4699SOL     OW25732   3.501   1.993   2.923 -0.3409 -0.4198  0.0652
 4699SOL    HW125733   3.524   1.934   2.851  1.3033 -1.0413  1.1232
 4699SOL    HW225734   3.547   1.946   2.992  1.1284  0.7506 -0.1309
 4700SOL     OW25735   4.255   3.240   1.496 -0.2871  0.0438 -0.2422
 4700SOL    HW125736   4.188   3.266   1.433 -0.4083 -0.4814 -0.3274
 4700SOL    HW225737   4.315   3.315   1.504  1.0454 -1.0295 -0.2103
 4701SOL     OW25738   3.553   1.019   4.027 -0.6915 -0.1503  0.0416
 4701SOL    HW125739   3.544   0.926   4.007 -4.7235  0.0457  1.0632
 4701SOL    HW225740   3.474   1.061   3.994 -1.2644  0.2684  1.9377
 4702SOL     OW25741   0.989   3.414  16.082  0.0810  0.2355 -0.6110
 4702SOL    HW125742   1.076   3.448  16.061 -0.0637  1.3263  0.5539
 4702SOL    HW225743   1.009   3.352  16.153  0.4225 -1.3340 -2.0800
 4703SOL     OW25744   2.874   1.056   9.310 -0.5232 -0.4378  0.2805
 4703SOL    HW125745   2.959   1.099   9.321 -0.2827 -0.4342 -1.5613
 4703SOL    HW225746   2.829   1.079   9.391 -1.9138 -1.0564 -0.3132
 4704SOL     OW25747   3.377   2.132   5.394 -0.1921 -0.1294 -0.0145
 4704SOL    HW125748   3.346   2.221   5.413  1.7135  0.4138  0.5081
 4704SOL    HW225749   3.438   2.147   5.321  0.9612 -0.9587  0.7897
 4705SOL     OW25750   3.422   1.382   3.948 -0.1083  0.2237  0.2084
 4705SOL    HW125751   3.401   1.296   3.911  0.3195  1.0760 -2.0093
 4705SOL    HW225752   3.334   1.393   3.984  0.3586 -1.1928  1.8156
 4706SOL     OW25753   3.284   0.898   9.458  0.2903  0.0685 -0.0487
 4706SOL    HW125754   3.248   0.908   9.370  0.7884  3.3016  0.0869
 4706SOL    HW225755   3.360   0.853   9.421  0.5283  0.4219  0.0106
 4707SOL     OW25756   2.612   1.063  10.097 -0.7401  0.3292 -0.1665
 4707SOL    HW125757   2.629   1.141  10.044 -1.5354  1.0128  0.6044
 4707SOL    HW225758   2.603   1.003  10.022 -0.3200 -0.0563  0.0915
 4708SOL     OW25759   2.905   1.797  11.890 -0.2636  0.2184 -0.5301
 4708SOL    HW125760   2.920   1.878  11.938  1.6071 -0.2600 -0.3206
 4708SOL    HW225761   2.880   1.742  11.964 -0.9103  2.2428  0.7577
 4709SOL     OW25762   4.306   0.348   1.738 -0.4726  0.5625 -0.4923
 4709SOL    HW125763   4.250   0.403   1.793 -1.7943 -0.4520 -0.7972
 4709SOL    HW225764   4.392   0.365   1.774 -0.6121 -3.5454  1.7894
 4710SOL     OW25765   3.851   0.638   8.903  0.2617  0.1114 -0.3470
 4710SOL    HW125766   3.945   0.638   8.885  0.9497  0.4273  3.1851
 4710SOL    HW225767   3.845   0.733   8.911  0.8154  0.2221 -1.3132
 4711SOL     OW25768   1.499   1.160   5.368 -0.2978 -0.2402  0.2749
 4711SOL    HW125769   1.445   1.122   5.299  3.0355  0.2282 -2.6093
 4711SOL    HW225770   1.572   1.179   5.309  1.0592  0.9401  2.2956
 4712SOL     OW25771   0.033   2.630   6.691  0.5602  0.1624  0.7477
 4712SOL    HW125772   4.726   2.550   6.721  0.0609  0.7719  1.6649
 4712SOL    HW225773   4.732   2.631   6.603 -2.6874 -0.5184  2.1006
 4713SOL     OW25774   3.865   2.201   6.896  0.2253  0.4628  1.1450
 4713SOL    HW125775   3.773   2.224   6.908 -0.2977 -1.3819  0.7131
 4713SOL    HW225776   3.874   2.219   6.802 -1.1191  0.4808  1.0190
 4714SOL     OW25777   1.935   3.859   5.251 -0.7257 -0.1257 -0.2783
 4714SOL    HW125778   1.982   3.939   5.230  2.7870 -1.5282  2.2587
 4714SOL    HW225779   1.961   3.809   5.174 -1.5979  1.4354 -1.5772
 4715SOL     OW25780   3.483   3.696   7.100 -0.5906  0.0656  0.5866
 4715SOL    HW125781   3.493   3.631   7.031 -0.4074 -0.9984  1.6044
 4715SOL    HW225782   3.389   3.691   7.117 -0.3579 -3.1474  0.8714
 4716SOL     OW25783   0.838   4.196  14.490 -0.2081 -0.3043 -0.0727
 4716SOL    HW125784   0.800   4.270  14.444  0.9114  0.3207  0.0158
 4716SOL    HW225785   0.913   4.241  14.527  0.9205 -1.0657 -1.4288
 4717SOL     OW25786   2.684   4.485   4.879 -0.2086  0.1993  0.5033
 4717SOL    HW125787   2.606   4.443   4.841  0.6231  0.0421 -1.0450
 4717SOL    HW225788   2.662   4.576   4.862 -0.7123 -0.7159 -3.9444
 4718SOL     OW25789   4.164   1.885  10.424  0.0991 -0.6160 -0.6936
 4718SOL    HW125790   4.078   1.903  10.384 -0.5236 -2.3284 -0.1116
 4718SOL    HW225791   4.131   1.843  10.503  1.3294 -0.0339  0.1311
 4719SOL     OW25792   1.841   2.593   4.856  0.4184 -0.4816 -0.2926
 4719SOL    HW125793   1.881   2.679   4.870  0.2592 -0.1990 -1.6086
 4719SOL    HW225794   1.910   2.535   4.888  2.3360  1.6220 -0.5954
 4720SOL     OW25795   4.654   0.002   6.020  0.4014  0.3217 -0.6517
 4720SOL    HW125796   4.656   4.736   5.925 -1.4983 -1.0156 -0.6500
 4720SOL    HW225797   4.714   0.075   6.035  0.7033 -0.1337  0.3902
 4721SOL     OW25798   0.504   4.078  11.550 -0.1215  0.0792  0.3535
 4721SOL    HW125799   0.544   4.011  11.606 -1.2891 -1.0972 -0.2132
 4721SOL    HW225800   0.577   4.131  11.517  0.5735  1.0330  3.5157
 4722SOL     OW25801   4.093   2.718   1.607  0.4840  0.3218 -0.4091
 4722SOL    HW125802   4.054   2.691   1.690  2.6230  0.1038  0.5232
 4722SOL    HW225803   4.045   2.673   1.537 -0.0932  0.0610  0.1528
 4723SOL     OW25804   0.638   0.117   6.499  0.0259 -0.1521 -0.7239
 4723SOL    HW125805   0.707   0.183   6.499  1.1131 -1.2457 -4.2131
 4723SOL    HW225806   0.661   0.086   6.411  0.4976  0.9185 -0.9834
 4724SOL     OW25807   2.207   4.587  14.089  0.2315 -0.2736  0.1914
 4724SOL    HW125808   2.194   4.556  14.178  0.1953  1.8824  0.9346
 4724SOL    HW225809   2.161   4.515  14.045 -0.5523 -0.5417  1.4366
 4725SOL     OW25810   3.844   0.675  15.805  0.2554 -0.4902  0.3545
 4725SOL    HW125811   3.776   0.715  15.751 -2.0882 -0.4221  3.3473
 4725SOL    HW225812   3.911   0.655  15.740 -0.3202  0.8526 -0.6334
 4726SOL     OW25813   2.457   2.426   5.236  0.1677 -0.2696  0.1588
 4726SOL    HW125814   2.486   2.399   5.324 -0.2263 -0.1288  0.3312
 4726SOL    HW225815   2.488   2.516   5.233  0.2554 -0.3156 -0.3133
 4727SOL     OW25816   1.395   2.574   4.005  0.1801 -0.4069 -0.1536
 4727SOL    HW125817   1.437   2.631   3.941 -0.0528 -0.7461 -0.6055
 4727SOL    HW225818   1.365   2.643   4.065 -1.2547 -0.2980 -0.9958
 4728SOL     OW25819   2.904   4.105  15.110  0.3892 -0.7221  0.1875
 4728SOL    HW125820   2.812   4.095  15.134  0.6104  1.6150  1.9996
 4728SOL    HW225821   2.901   4.073  15.020  0.3577  0.9583 -0.3974
 4729SOL     OW25822   2.098   2.438   2.727  0.8476 -0.5973 -0.0086
 4729SOL    HW125823   2.048   2.370   2.771 -1.3110  0.5634 -0.6778
 4729SOL    HW225824   2.149   2.382   2.669  0.4774 -0.7386 -0.1979
 4730SOL     OW25825   2.347   1.522   5.008 -0.7556  0.7595  0.5945
 4730SOL    HW125826   2.295   1.589   5.052 -2.1127  0.1701 -0.1327
 4730SOL    HW225827   2.428   1.570   4.993 -0.1670  0.2409  2.0787
 4731SOL     OW25828   1.183   2.450   5.725  0.5359  0.6524 -0.9014
 4731SOL    HW125829   1.200   2.478   5.815  0.3203 -1.0310 -0.3388
 4731SOL    HW225830   1.162   2.536   5.688 -3.5368  0.3686  0.6870
 4732SOL     OW25831   2.596   4.418   7.543  0.4914 -0.1025  0.0754
 4732SOL    HW125832   2.572   4.328   7.567  0.1320 -0.4388 -1.5450
 4732SOL    HW225833   2.522   4.465   7.581  1.3548  1.9296 -0.7404
 4733SOL     OW25834   0.150   0.187  13.076 -0.0855  0.2914  0.0121
 4733SOL    HW125835   0.072   0.165  13.025  0.2350 -0.3276 -0.2070
 4733SOL    HW225836   0.189   0.237  13.004 -0.4584 -2.9248 -2.3981
 4734SOL     OW25837   1.134   3.756   0.853 -0.7805 -0.2977  0.3713
 4734SOL    HW125838   1.216   3.709   0.844 -0.8554 -0.4725  0.6255
 4734SOL    HW225839   1.118   3.734   0.944  0.2930 -0.6795  0.4594
 4735SOL     OW25840   4.529   0.643  12.865  0.1560  0.0083  0.2684
 4735SOL    HW125841   4.501   0.553  12.878  2.1974 -0.2822  2.7131
 4735SOL    HW225842   4.609   0.625  12.816 -1.0747 -1.1978 -1.2663
 4736SOL     OW25843   4.723   3.834  16.107 -0.3674 -0.0639 -0.0439
 4736SOL    HW125844   0.046   3.802  16.175  0.2105 -0.1758 -0.6016
 4736SOL    HW225845   4.638   3.800  16.135  0.1397 -0.7548  0.6681
 4737SOL     OW25846   3.345   3.373   0.860 -0.3321 -0.3305 -0.2752
 4737SOL    HW125847   3.394   3.409   0.786 -1.6562 -0.3605 -1.1923
 4737SOL    HW225848   3.394   3.294   0.882  0.2775 -0.1128 -0.8781
 4738SOL     OW25849   0.663   0.804   1.098 -0.2081 -0.6453 -0.1449
 4738SOL    HW125850   0.606   0.856   1.042 -1.4847 -0.1192  1.6417
 4738SOL    HW225851   0.629   0.844   1.178  2.3394  0.0318  0.6027
 4739SOL     OW25852   1.285   3.952  15.935 -0.4380 -0.4810 -0.1113
 4739SOL    HW125853   1.238   3.871  15.955 -0.8699 -0.2120 -0.0312
 4739SOL    HW225854   1.255   3.969  15.845 -1.2730  3.0049  0.8158
 4740SOL     OW25855   3.097   1.104   4.444  0.1580  0.0951  0.2032
 4740SOL    HW125856   3.012   1.080   4.407  0.1515 -0.9042  0.8686
 4740SOL    HW225857   3.132   1.017   4.464 -0.9644 -0.1983  0.8739
 4741SOL     OW25858   3.048   1.461  16.679  0.1745  0.3178  0.3653
 4741SOL    HW125859   2.957   1.491  16.676 -0.0995 -0.7617 -1.6172
 4741SOL    HW225860   3.064   1.504  16.764  2.3533 -0.4090  0.3311
 4742SOL     OW25861   4.716   1.865   9.008 -0.3860  0.4004 -0.3716
 4742SOL    HW125862   4.651   1.816   9.057  0.0812 -0.4524 -0.5981
 4742SOL    HW225863   0.031   1.795   8.967 -0.5496  0.2852 -0.3829
 4743SOL     OW25864   1.164   2.960  10.426  0.0294 -0.1534  0.1151
 4743SOL    HW125865   1.108   2.980  10.351 -0.2512  2.0342  0.9114
 4743SOL    HW225866   1.179   3.043  10.471  1.2425 -1.7351  2.6785
 4744SOL     OW25867   0.789   0.671   7.408 -0.3705  0.8525 -0.1327
 4744SOL    HW125868   0.721   0.632   7.463  0.5673 -0.6669 -0.0679
 4744SOL    HW225869   0.852   0.600   7.398  2.1932  3.1075  0.1547
 4745SOL     OW25870   0.016   2.220   5.347  0.0593 -0.1031  0.1266
 4745SOL    HW125871   0.003   2.126   5.354  1.4795 -0.4699 -2.1176
 4745SOL    HW225872   0.029   2.217   5.253  0.5482  1.4366  0.1443
 4746SOL     OW25873   1.954   3.953  14.741 -0.3684  0.0419  0.1851
 4746SOL    HW125874   1.915   3.902  14.812  0.5824 -0.5023  0.3240
 4746SOL    HW225875   1.876   4.006  14.726  2.3219  2.8887 -4.0145
 4747SOL     OW25876   3.507   4.642   4.257  0.1056  0.0758  0.2187
 4747SOL    HW125877   3.435   4.688   4.301  0.0288  0.7702 -0.6291
 4747SOL    HW225878   3.460   4.604   4.182  1.9118 -2.4743  0.3960
 4748SOL     OW25879   1.097   2.441  14.027  0.2281 -0.5632  0.0704
 4748SOL    HW125880   1.109   2.402  13.940  0.8644 -0.5012  0.1308
 4748SOL    HW225881   1.003   2.456  14.027  0.4797  0.9752  1.4418
 4749SOL     OW25882   0.905   2.306   8.879  0.0473 -0.4168  0.1630
 4749SOL    HW125883   0.944   2.286   8.794  0.4683 -1.6607  0.6513
 4749SOL    HW225884   0.969   2.341   8.940 -0.7194  0.6699  0.3411
 4750SOL     OW25885   1.814   2.015   3.761  0.9017 -0.1736 -0.3119
 4750SOL    HW125886   1.889   1.961   3.736  2.9296  2.2280  0.5507
 4750SOL    HW225887   1.738   1.960   3.743 -0.2555  1.9718 -2.0360
 4751SOL     OW25888   3.228   3.850  13.587  0.7180  0.1588  0.6925
 4751SOL    HW125889   3.137   3.875  13.604  0.5301  0.2864 -0.4964
 4751SOL    HW225890   3.260   3.829  13.674  0.6206  0.9144  0.9120
 4752SOL     OW25891   1.087   4.580   0.082  0.2030 -0.3451 -0.3004
 4752SOL    HW125892   1.060   4.505   0.030  1.0659  0.5676 -2.0643
 4752SOL    HW225893   1.001   4.618   0.099 -0.4590 -2.0246  0.0885
 4753SOL     OW25894   2.343   2.048   8.858 -0.4526 -0.3038 -0.9357
 4753SOL    HW125895   2.418   2.068   8.801  0.3862  0.1127  0.3034
 4753SOL    HW225896   2.385   2.005   8.933 -0.2834  0.4019 -0.6244
 4754SOL     OW25897   2.231   3.940   3.690 -0.3408 -0.0837  0.2921
 4754SOL    HW125898   2.200   3.970   3.605 -0.5161 -1.3059 -0.0800
 4754SOL    HW225899   2.324   3.946   3.668 -0.1398  1.1034  1.4361
 4755SOL     OW25900   2.318   1.269  11.555  0.6974  0.1502 -0.2581
 4755SOL    HW125901   2.352   1.355  11.530  0.9176  1.1686  3.5843
 4755SOL    HW225902   2.377   1.203  11.521  0.2135 -0.0942 -0.6203
 4756SOL     OW25903   1.560   3.341   1.481 -0.4582  0.0679 -0.3319
 4756SOL    HW125904   1.575   3.278   1.411 -0.2732 -1.5979  1.1945
 4756SOL    HW225905   1.527   3.421   1.441 -3.0784 -2.1778 -2.6848
 4757SOL     OW25906   4.128   1.089   8.433  0.0553  0.7649 -0.5388
 4757SOL    HW125907   4.184   1.138   8.493 -0.6036  0.0384  0.6830
 4757SOL    HW225908   4.049   1.070   8.484  2.3520  1.3188  3.2770
 4758SOL     OW25909   1.184   2.041   5.052  0.0519  0.7715 -0.0252
 4758SOL    HW125910   1.231   1.990   5.118 -1.8470  0.3647  0.9939
 4758SOL    HW225911   1.115   2.077   5.107 -0.3160 -1.2330  0.8328
 4759SOL     OW25912   1.133   2.461   9.064  0.3777 -0.1062 -0.2275
 4759SOL    HW125913   1.221   2.432   9.042  1.1607  0.2642  2.4897
 4759SOL    HW225914   1.125   2.443   9.157  0.9418 -1.5577 -0.4592
 4760SOL     OW25915   2.258   3.783  11.964  0.2441 -0.2266 -0.1336
 4760SOL    HW125916   2.234   3.861  12.014 -1.0779 -0.8449  0.1907
 4760SOL    HW225917   2.171   3.745  11.957 -0.4084  0.7166  2.6122
 4761SOL     OW25918   3.494   0.094  10.806  0.3556  0.0514  0.0961
 4761SOL    HW125919   3.499   0.190  10.805 -1.0642  0.1164 -0.4364
 4761SOL    HW225920   3.510   0.094  10.900  0.6697  2.3372  0.0490
 4762SOL     OW25921   4.295   2.470  15.290 -0.2104 -0.6782  0.2220
 4762SOL    HW125922   4.262   2.403  15.350  0.2765 -1.0262  0.1026
 4762SOL    HW225923   4.390   2.456  15.298 -0.1642  0.9321  2.7449
 4763SOL     OW25924   2.685   1.407   1.837 -0.7122  0.3522  0.0832
 4763SOL    HW125925   2.630   1.339   1.797 -0.9309  0.9598 -0.6506
 4763SOL    HW225926   2.736   1.351   1.895  0.1580 -2.0681 -3.0434
 4764SOL     OW25927   1.785   3.728   1.769 -0.4900 -0.1282 -0.0581
 4764SOL    HW125928   1.728   3.781   1.713 -2.2773  0.4106  2.2901
 4764SOL    HW225929   1.768   3.639   1.737 -0.7665 -0.0497 -0.1268
 4765SOL     OW25930   2.208   0.398  13.614 -0.5026 -0.6941  0.4954
 4765SOL    HW125931   2.246   0.323  13.567  1.3960  0.2211  0.5508
 4765SOL    HW225932   2.119   0.400  13.580 -0.2055 -3.7395 -0.5039
 4766SOL     OW25933   0.167   0.267  14.820 -0.2813  0.4089 -0.2883
 4766SOL    HW125934   0.123   0.324  14.884 -1.4744 -0.1031 -0.6503
 4766SOL    HW225935   0.138   0.308  14.738 -1.5579 -2.0569 -1.0633
 4767SOL     OW25936   0.866   3.556   4.615 -0.4440 -0.3540  0.6951
 4767SOL    HW125937   0.888   3.480   4.561  1.4500  1.4687 -1.1018
 4767SOL    HW225938   0.781   3.575   4.574 -0.3050  1.5451  1.2853
 4768SOL     OW25939   1.650   1.499  14.098 -0.3699 -0.3027  0.0455
 4768SOL    HW125940   1.678   1.583  14.061 -0.2784 -0.6870 -0.7530
 4768SOL    HW225941   1.731   1.449  14.084  0.1780  0.5925 -0.0234
 4769SOL     OW25942   1.566   2.226  15.056  0.4922 -0.0456 -0.3862
 4769SOL    HW125943   1.508   2.243  15.131 -0.7380  0.5317 -1.4726
 4769SOL    HW225944   1.504   2.217  14.985  2.2158 -1.2960 -1.7212
 4770SOL     OW25945   3.064   1.510   0.370  0.0311 -0.4953 -0.1158
 4770SOL    HW125946   2.983   1.466   0.345 -0.3340  0.9336 -1.4630
 4770SOL    HW225947   3.047   1.599   0.341  0.2201 -0.7356 -0.9605
 4771SOL     OW25948   0.896   3.366   7.379 -0.6297 -0.0815 -0.3727
 4771SOL    HW125949   0.932   3.427   7.444 -0.3126 -0.9353  0.2489
 4771SOL    HW225950   0.849   3.421   7.316  0.1450  0.6887 -0.2853
 4772SOL     OW25951   2.973   2.475   4.877  0.1759 -0.3442 -0.5683
 4772SOL    HW125952   3.011   2.484   4.790 -1.8928  1.6376 -1.2521
 4772SOL    HW225953   2.987   2.380   4.876  1.2287 -0.1824 -1.1154
 4773SOL     OW25954   3.806   0.840   5.984  0.4095 -0.1530  0.8857
 4773SOL    HW125955   3.820   0.925   5.944 -1.9203  0.1418  0.6533
 4773SOL    HW225956   3.716   0.848   6.016  0.1225  2.5740 -0.6826
 4774SOL     OW25957   0.315   3.836   7.520 -0.4446 -0.3833  0.5818
 4774SOL    HW125958   0.356   3.771   7.578  2.6658  0.5997 -0.5140
 4774SOL    HW225959   0.305   3.907   7.583  0.5353  0.4954 -0.2678
 4775SOL     OW25960   3.653   1.459   4.042 -0.3140 -0.1621  0.0710
 4775SOL    HW125961   3.626   1.535   4.093  2.5974 -1.0765  3.0066
 4775SOL    HW225962   3.566   1.427   4.020 -0.0369 -0.4817 -0.5673
 4776SOL     OW25963   1.617   4.528  11.866 -0.2373  0.0084 -0.4663
 4776SOL    HW125964   1.654   4.476  11.794  2.6571  3.0169 -1.1426
 4776SOL    HW225965   1.602   4.613  11.824 -1.2561 -0.1728 -0.4527
 4777SOL     OW25966   3.613   0.600  10.769  0.1767 -0.2525 -0.8963
 4777SOL    HW125967   3.520   0.614  10.753 -0.0065  0.3082  0.6510
 4777SOL    HW225968   3.627   0.684  10.813 -1.8623 -0.1235 -0.4859
 4778SOL     OW25969   2.888   0.470  15.583 -0.9287 -0.5942  0.2579
 4778SOL    HW125970   2.881   0.410  15.509 -1.5997  2.5042 -2.2122
 4778SOL    HW225971   2.896   0.557  15.544  2.2175 -0.9413  0.0997
 4779SOL     OW25972   1.523   3.832   4.880 -0.1057 -0.1125  0.2573
 4779SOL    HW125973   1.433   3.819   4.848 -0.0567  0.0350  0.0591
 4779SOL    HW225974   1.508   3.829   4.975 -1.5717 -1.0035  0.0001
 4780SOL     OW25975   4.409   0.375   4.424 -0.2418  0.7813 -0.0893
 4780SOL    HW125976   4.440   0.287   4.447  1.1861  1.6439  1.2954
 4780SOL    HW225977   4.314   0.373   4.435 -0.2216  1.4625  0.2190
 4781SOL     OW25978   2.041   2.820   1.593 -0.2173 -0.2209 -0.0339
 4781SOL    HW125979   2.053   2.914   1.583 -0.1690 -0.3655 -1.3998
 4781SOL    HW225980   2.096   2.801   1.668 -1.2391  0.3643  0.8739
 4782SOL     OW25981   0.757   3.000  10.020 -0.1590  0.2228  0.5900
 4782SOL    HW125982   0.804   2.939   9.963 -0.9107  0.1841  0.0114
 4782SOL    HW225983   0.809   3.076   9.996 -0.1152 -0.4407 -1.4610
 4783SOL     OW25984   2.255   0.304   6.640  0.0262  0.2984 -0.1884
 4783SOL    HW125985   2.272   0.287   6.547 -0.8335  1.2427 -0.5137
 4783SOL    HW225986   2.319   0.373   6.658  1.3149 -0.2974 -2.3648
 4784SOL     OW25987   1.850   2.320   8.211  0.7884  1.0797 -0.6359
 4784SOL    HW125988   1.796   2.337   8.135  1.1889 -1.2181 -1.4368
 4784SOL    HW225989   1.783   2.331   8.278  0.7989 -1.0961 -0.2428
 4785SOL     OW25990   1.241   1.555   6.960 -0.3644  0.0289 -0.0996
 4785SOL    HW125991   1.304   1.620   6.991 -1.6138  1.1022  0.2353
 4785SOL    HW225992   1.211   1.513   7.041  2.9394 -0.3685  0.8990
 4786SOL     OW25993   2.408   3.144   9.256  0.9992 -0.1601  0.2713
 4786SOL    HW125994   2.315   3.121   9.248  1.5550 -1.6295 -2.0994
 4786SOL    HW225995   2.439   3.059   9.287 -1.5823  0.2090  3.9243
 4787SOL     OW25996   3.217   2.399   1.675 -0.0594 -0.0973 -0.2099
 4787SOL    HW125997   3.157   2.343   1.625  2.1758  0.3703 -3.4016
 4787SOL    HW225998   3.266   2.328   1.718  0.0303 -0.1469 -0.3930
 4788SOL     OW25999   1.760   4.734   5.147 -0.3968  0.4696  0.0034
 4788SOL    HW126000   1.750   4.662   5.210  0.8371 -0.0649 -0.4222
 4788SOL    HW226001   1.789   4.693   5.066 -1.9804 -0.0598 -0.2974
 4789SOL     OW26002   1.761   1.031  16.207 -0.4026 -0.0913  0.1834
 4789SOL    HW126003   1.847   1.034  16.165 -0.0947 -3.3244  0.6012
 4789SOL    HW226004   1.763   0.949  16.257  2.8908  1.6063  2.8747
 4790SOL     OW26005   1.232   3.761   7.314 -0.4525 -0.4655  0.1665
 4790SOL    HW126006   1.160   3.747   7.376 -0.3271 -0.8619  0.2248
 4790SOL    HW226007   1.206   3.849   7.288  0.9188 -0.3522 -0.8554
 4791SOL     OW26008   4.218   4.503   9.291  0.3194 -0.0947 -0.3365
 4791SOL    HW126009   4.124   4.502   9.270  0.2300  0.0449  0.0416
 4791SOL    HW226010   4.260   4.468   9.213 -1.5791 -1.5964 -0.6800
 4792SOL     OW26011   4.288   2.580   7.832 -0.2325  0.3706  0.3399
 4792SOL    HW126012   4.322   2.557   7.919  1.6753 -0.5704 -0.6821
 4792SOL    HW226013   4.292   2.675   7.844 -1.6194  0.7440 -2.3052
 4793SOL     OW26014   1.454   2.732  17.517  0.0769 -0.4668  0.0899
 4793SOL    HW126015   1.473   2.787  17.441  0.6398 -2.8705 -1.5025
 4793SOL    HW226016   1.448   2.644  17.480  1.8332 -0.3418 -0.4626
 4794SOL     OW26017   0.529   0.088  11.235  0.0084  0.0863  0.6552
 4794SOL    HW126018   0.457   0.131  11.187 -0.9479 -3.3755 -1.0053
 4794SOL    HW226019   0.574   0.041  11.165  2.3334  2.1231  0.7962
 4795SOL     OW26020   0.875   2.758   5.980 -0.7039 -0.2553 -0.0211
 4795SOL    HW126021   0.819   2.681   5.982  0.5571 -1.1671 -0.2019
 4795SOL    HW226022   0.904   2.767   6.071 -0.5858  1.7280 -0.2426
 4796SOL     OW26023   0.026   1.214  12.905  0.5547 -0.2746 -0.0440
 4796SOL    HW126024   4.667   1.212  12.902  0.5824 -1.8552  0.3258
 4796SOL    HW226025   0.049   1.307  12.901 -0.4819  0.0584  1.9014
 4797SOL     OW26026   1.805   3.479   6.609 -0.2393  0.5097  0.3280
 4797SOL    HW126027   1.835   3.397   6.648 -2.0313  0.9107  2.5485
 4797SOL    HW226028   1.740   3.451   6.545 -0.7340 -0.0291  1.0687
 4798SOL     OW26029   0.450   0.068  10.106  0.6988  0.1463 -0.4681
 4798SOL    HW126030   0.366   0.036  10.074 -0.6370  2.6337  0.5918
 4798SOL    HW226031   0.482   4.720  10.139  1.9040  1.0891  0.8180
 4799SOL     OW26032   0.374   0.099   3.638  0.7112 -0.3934 -0.6180
 4799SOL    HW126033   0.422   0.024   3.673  0.8035 -0.5195 -1.0124
 4799SOL    HW226034   0.338   0.060   3.559  0.4319  0.6377 -0.9973
 4800SOL     OW26035   1.691   0.515   5.832  0.3111 -0.3200 -0.6257
 4800SOL    HW126036   1.735   0.578   5.775 -1.3843  0.9275 -0.5620
 4800SOL    HW226037   1.709   0.437   5.780  0.7225  0.3061 -1.4266
 4801SOL     OW26038   3.397   1.325   4.258 -0.0130 -0.3033 -0.6798
 4801SOL    HW126039   3.401   1.297   4.349 -0.0119 -0.6161 -0.7744
 4801SOL    HW226040   3.484   1.300   4.225  0.0491 -1.5128  0.4219
 4802SOL     OW26041   3.834   3.932   1.109 -0.0589 -0.4359 -0.0587
 4802SOL    HW126042   3.785   3.875   1.170 -0.6306 -0.6656 -0.7291
 4802SOL    HW226043   3.763   3.954   1.049  0.1797  2.1975  0.6234
 4803SOL     OW26044   1.555   4.669   8.260  0.4157 -0.1705  0.3411
 4803SOL    HW126045   1.525   4.719   8.336 -0.1744  2.1294 -1.4101
 4803SOL    HW226046   1.643   4.704   8.249 -0.0312  1.0574  0.6777
 4804SOL     OW26047   0.353   1.311   4.751 -0.2156  0.4947 -0.7736
 4804SOL    HW126048   0.318   1.367   4.821 -1.9149 -0.7997 -0.5857
 4804SOL    HW226049   0.354   1.373   4.678  0.0023  3.2621  1.5611
 4805SOL     OW26050   2.125   1.644   7.460 -0.2003  0.0082 -0.3769
 4805SOL    HW126051   2.038   1.604   7.457  0.7292 -1.9852 -1.0931
 4805SOL    HW226052   2.126   1.675   7.370  0.5816 -0.2725 -0.4653
 4806SOL     OW26053   3.102   2.528  10.758  0.2015 -0.1599 -0.1570
 4806SOL    HW126054   3.151   2.461  10.806  1.7130  1.0528 -0.0181
 4806SOL    HW226055   3.072   2.481  10.679  1.9002  1.3366 -1.6815
 4807SOL     OW26056   4.361   3.731  15.278  0.4734  0.6290  0.9089
 4807SOL    HW126057   4.395   3.644  15.257  0.8443  0.9179  0.3139
 4807SOL    HW226058   4.430   3.763  15.335 -0.7310  1.9801  1.5975
 4808SOL     OW26059   3.263   4.069   4.372  0.2547  0.7092 -0.1257
 4808SOL    HW126060   3.265   4.161   4.399 -3.5036  1.1314 -1.3067
 4808SOL    HW226061   3.327   4.072   4.300  1.0645  1.1552  0.6195
 4809SOL     OW26062   2.294   1.232  12.835  0.4582  0.3431  0.6675
 4809SOL    HW126063   2.363   1.263  12.895 -0.5204  1.8819  1.0138
 4809SOL    HW226064   2.215   1.253  12.885  0.9615  0.5112  1.4013
 4810SOL     OW26065   3.598   3.372   9.923 -0.1072  0.1408 -0.0486
 4810SOL    HW126066   3.524   3.421   9.960 -0.0249  0.2886 -0.0812
 4810SOL    HW226067   3.546   3.328   9.856  1.3096 -1.4360 -0.1184
 4811SOL     OW26068   2.429   1.446   3.070  0.0067  0.4917 -0.3052
 4811SOL    HW126069   2.515   1.482   3.049  0.9385 -2.3360 -1.3070
 4811SOL    HW226070   2.438   1.457   3.165  0.8832  1.0189 -0.4484
 4812SOL     OW26071   3.823   1.008  11.529 -1.0092 -0.2592 -0.5561
 4812SOL    HW126072   3.799   0.916  11.512 -1.8658 -0.1615  0.0984
 4812SOL    HW226073   3.815   1.005  11.625  1.6419  0.5293 -0.3191
 4813SOL     OW26074   3.113   4.202   7.659  0.2659 -0.1658  0.0153
 4813SOL    HW126075   3.137   4.251   7.738  0.9592 -0.6391  0.0911
 4813SOL    HW226076   3.173   4.231   7.591  0.0526  0.4336  0.0804
 4814SOL     OW26077   2.186   2.198   2.925 -0.1023  0.3908 -0.3002
 4814SOL    HW126078   2.277   2.225   2.938  0.3566 -0.9375 -0.7998
 4814SOL    HW226079   2.195   2.107   2.897  0.7212  0.3120  0.2139
 4815SOL     OW26080   0.077   2.014  15.231 -0.4532 -0.1091 -0.4215
 4815SOL    HW126081   0.013   2.007  15.160 -0.4214 -3.9121 -0.0631
 4815SOL    HW226082   0.151   2.014  15.170  0.2670 -1.7273  0.4603
 4816SOL     OW26083   4.494   0.986   9.809  0.1072 -0.2073 -0.4395
 4816SOL    HW126084   4.536   0.916   9.758 -0.8255 -0.8459 -0.3350
 4816SOL    HW226085   4.502   0.956   9.899 -1.9644 -0.1134 -0.2226
 4817SOL     OW26086   4.455   1.589   5.148  0.5006 -0.2918  0.6776
 4817SOL    HW126087   4.406   1.517   5.108  0.6332 -0.2365  0.4172
 4817SOL    HW226088   4.387   1.647   5.181  2.0263  2.5230 -1.1121
 4818SOL     OW26089   2.687   1.030   5.144 -0.1142  0.4451 -0.2178
 4818SOL    HW126090   2.714   1.112   5.185  0.7361  0.0576 -0.0095
 4818SOL    HW226091   2.592   1.040   5.144 -0.2504 -0.9300 -0.7401
 4819SOL     OW26092   1.509   3.297   8.481  0.2668  0.2157 -0.1407
 4819SOL    HW126093   1.469   3.310   8.567 -2.5001 -0.1138 -1.3625
 4819SOL    HW226094   1.510   3.388   8.450  0.2353  0.9346  1.9654
 4820SOL     OW26095   3.137   1.464   5.683 -0.6409 -0.0781 -0.2296
 4820SOL    HW126096   3.088   1.460   5.600 -0.4481  1.2539 -0.4036
 4820SOL    HW226097   3.068   1.478   5.748 -0.8426 -0.7320 -0.3004
 4821SOL     OW26098   3.357   0.328   2.592  0.6193  0.5100  0.2110
 4821SOL    HW126099   3.450   0.333   2.615  0.3280  2.3291  0.9660
 4821SOL    HW226100   3.323   0.397   2.649 -2.3969  0.4067 -1.4781
 4822SOL     OW26101   2.303   4.652   4.436 -0.0630 -0.0883  0.4208
 4822SOL    HW126102   2.296   4.599   4.356  0.8361  1.9536 -1.0244
 4822SOL    HW226103   2.255   4.597   4.498 -0.3752 -1.4208 -1.0146
 4823SOL     OW26104   2.550   0.525   3.950  1.1657 -0.1199  0.5771
 4823SOL    HW126105   2.606   0.549   3.877 -0.3796  0.1353 -0.5325
 4823SOL    HW226106   2.592   0.598   3.996  1.7291 -1.0845  1.5927
 4824SOL     OW26107   1.073   4.681  10.903 -0.1706 -0.1434  0.6746
 4824SOL    HW126108   1.138   4.722  10.959 -1.3696  0.9498  1.2564
 4824SOL    HW226109   1.036   0.016  10.852 -0.8285 -2.4084 -2.0550
 4825SOL     OW26110   0.018   0.446   4.386 -0.5808 -0.0323  0.1765
 4825SOL    HW126111   0.076   0.431   4.461  0.3973 -1.2110 -0.8107
 4825SOL    HW226112   0.043   0.534   4.361  0.3470 -0.5262 -0.6139
 4826SOL     OW26113   2.202   1.976   1.717  0.5467  0.3104 -0.2976
 4826SOL    HW126114   2.259   2.024   1.657  0.0264 -0.4853 -1.4441
 4826SOL    HW226115   2.183   2.043   1.782  0.1211  0.5197 -0.6347
 4827SOL     OW26116   1.265   0.494  13.516  0.0630  0.0463  0.2146
 4827SOL    HW126117   1.268   0.520  13.608 -0.6230  1.5161 -0.1814
 4827SOL    HW226118   1.323   0.558  13.476 -1.6671  1.3196 -0.2724
 4828SOL     OW26119   1.068   1.909   9.030  0.2499  0.5684 -0.4290
 4828SOL    HW126120   1.117   1.827   9.033  0.0169  0.4547  0.2653
 4828SOL    HW226121   1.034   1.918   9.119  1.8093 -0.9497  0.3180
 4829SOL     OW26122   2.778   0.312   7.012 -0.3117  0.5316 -0.2148
 4829SOL    HW126123   2.862   0.271   6.989  0.7394  2.6563 -0.1650
 4829SOL    HW226124   2.728   0.233   6.995 -0.5478  0.3493  1.3468
 4830SOL     OW26125   1.927   0.267   3.437  0.0029 -0.4901 -0.1540
 4830SOL    HW126126   1.836   0.242   3.453 -0.0339 -2.2888 -2.9570
 4830SOL    HW226127   1.954   0.311   3.517  1.9476  0.9784 -1.6295
 4831SOL     OW26128   1.157   2.338  14.263  0.7621 -0.1126  0.2421
 4831SOL    HW126129   1.137   2.388  14.184  0.7545 -0.4432  0.0350
 4831SOL    HW226130   1.138   2.401  14.332  0.2942 -0.3616  0.3419
 4832SOL     OW26131   0.270   2.596   4.218 -0.4525  0.1799  0.3080
 4832SOL    HW126132   0.278   2.685   4.252 -0.3092  0.2856 -0.0143
 4832SOL    HW226133   0.199   2.568   4.277  0.4046  0.2119  1.3599
 4833SOL     OW26134   1.538   3.619  16.250 -0.1868 -0.3662  0.0896
 4833SOL    HW126135   1.544   3.551  16.183 -0.6355  0.8924 -1.1982
 4833SOL    HW226136   1.619   3.612  16.301  0.2049  0.0809 -0.4753
 4834SOL     OW26137   1.133   3.930   6.715 -0.1539  0.2206 -0.3261
 4834SOL    HW126138   1.218   3.972   6.727  0.3736 -0.6672 -0.8955
 4834SOL    HW226139   1.077   4.007   6.716 -0.7396 -0.1709 -2.3146
 4835SOL     OW26140   2.872   4.292   7.967  0.6719 -0.1875  0.4115
 4835SOL    HW126141   2.850   4.280   7.874  1.6628 -1.9451  0.4123
 4835SOL    HW226142   2.958   4.333   7.966 -0.3321  1.9283 -0.9173
 4836SOL     OW26143   0.481   2.749   2.398 -0.1963  0.1735 -1.0299
 4836SOL    HW126144   0.549   2.811   2.371 -0.4079  0.9218  0.1774
 4836SOL    HW226145   0.413   2.783   2.339 -1.1333 -0.1453 -0.1144
 4837SOL     OW26146   3.659   1.864   6.138 -0.0064 -0.2819  0.5311
 4837SOL    HW126147   3.619   1.927   6.199 -1.2245 -0.9037  0.3775
 4837SOL    HW226148   3.616   1.785   6.171 -1.0702  0.9667  2.1261
 4838SOL     OW26149   2.883   3.971   4.646  0.6089  0.1419  0.2935
 4838SOL    HW126150   2.941   3.955   4.572  1.1207  2.0733  0.2787
 4838SOL    HW226151   2.884   4.065   4.661  3.8469 -0.0070  0.9772
 4839SOL     OW26152   0.579   4.416   3.251 -0.4094 -0.6942  0.7912
 4839SOL    HW126153   0.602   4.487   3.311  1.1845 -0.4627 -0.0921
 4839SOL    HW226154   0.648   4.430   3.186 -1.4040  1.3914  0.2092
 4840SOL     OW26155   1.727   3.852   8.768 -0.1778 -0.1485  0.4442
 4840SOL    HW126156   1.791   3.896   8.712  1.9276 -2.6657  0.8701
 4840SOL    HW226157   1.776   3.781   8.810  2.8055  1.9109  0.4609
 4841SOL     OW26158   3.787   2.433  12.502  0.0423 -0.9090  0.1099
 4841SOL    HW126159   3.828   2.471  12.579 -0.7441 -1.5190  0.8338
 4841SOL    HW226160   3.747   2.509  12.460  1.2306 -1.0996 -1.3820
 4842SOL     OW26161   2.901   4.568  13.328 -0.3021 -0.0326  1.2236
 4842SOL    HW126162   2.872   4.615  13.250 -2.1111  1.6576  2.9136
 4842SOL    HW226163   2.898   4.644  13.386  1.2973  1.6252 -0.9013
 4843SOL     OW26164   1.832   0.380  16.077  0.1933 -0.6015 -0.2228
 4843SOL    HW126165   1.837   0.331  15.995 -0.5179 -1.9451  0.5401
 4843SOL    HW226166   1.837   0.304  16.136  1.8719 -0.6607 -0.4584
 4844SOL     OW26167   1.658   0.456   8.516  0.3794 -0.1382 -0.1961
 4844SOL    HW126168   1.605   0.443   8.438  0.6729 -0.3867 -0.3552
 4844SOL    HW226169   1.745   0.434   8.483 -0.0585 -0.6502 -1.0005
 4845SOL     OW26170   3.742   4.252   8.206  0.4143  0.5539 -0.4461
 4845SOL    HW126171   3.729   4.166   8.246 -0.7930 -0.0962 -2.2271
 4845SOL    HW226172   3.819   4.276   8.258 -0.9771  1.2491  1.2672
 4846SOL     OW26173   3.450   2.848   5.973 -0.3859 -0.0530 -0.3482
 4846SOL    HW126174   3.402   2.830   6.054  1.2691 -2.0534  0.1884
 4846SOL    HW226175   3.540   2.814   5.980 -0.1988  0.1997 -1.6734
 4847SOL     OW26176   1.025   0.956  16.346  0.4301  0.7426 -0.4076
 4847SOL    HW126177   0.973   1.009  16.286  1.0248  0.9710 -0.7217
 4847SOL    HW226178   0.971   0.963  16.425  0.5075  0.2808 -0.3114
 4848SOL     OW26179   1.750   2.075   9.666  0.1002  0.1498  0.2521
 4848SOL    HW126180   1.784   2.124   9.591 -1.8659 -0.2161 -0.8686
 4848SOL    HW226181   1.699   2.140   9.713  0.6241  0.3768  0.5107
 4849SOL     OW26182   3.548   3.936   3.764 -0.3392  0.5901 -0.7896
 4849SOL    HW126183   3.601   3.923   3.843 -1.2240  0.5562 -0.2052
 4849SOL    HW226184   3.581   4.020   3.733  0.0252  1.1940  1.2742
 4850SOL     OW26185   0.076   1.354   2.199  0.4936 -0.1188  0.4737
 4850SOL    HW126186   0.171   1.352   2.184  0.2801 -3.4882 -0.2889
 4850SOL    HW226187   0.055   1.406   2.121  1.3007 -0.5082 -0.0011
 4851SOL     OW26188   1.049   1.803   6.554  0.5925  0.3886  0.0847
 4851SOL    HW126189   1.140   1.834   6.556  1.1343 -1.0651 -2.1010
 4851SOL    HW226190   1.018   1.809   6.644 -2.0615 -1.6976 -0.7021
 4852SOL     OW26191   4.005   3.804   2.768  0.0395 -0.4286  0.0001
 4852SOL    HW126192   4.045   3.831   2.685 -1.0981 -0.0610 -0.4280
 4852SOL    HW226193   3.931   3.747   2.750 -1.7072  0.9545  2.8879
 4853SOL     OW26194   1.748   1.768   4.996  0.4988 -0.6541 -0.3708
 4853SOL    HW126195   1.784   1.691   4.951  0.8772 -1.1957  0.8600
 4853SOL    HW226196   1.691   1.726   5.060 -1.7018 -0.1149 -2.0031
 4854SOL     OW26197   3.467   0.725   7.520  0.4958 -0.4893  0.1687
 4854SOL    HW126198   3.562   0.712   7.531  0.8743 -1.1458 -3.8316
 4854SOL    HW226199   3.426   0.644   7.550 -1.2180  1.3970  2.8482
 4855SOL     OW26200   0.145   1.608   5.549  0.3936 -0.0448  0.2348
 4855SOL    HW126201   0.075   1.617   5.485 -0.6443  1.1638  1.5413
 4855SOL    HW226202   0.193   1.691   5.540  1.0140 -0.4261 -0.0111
 4856SOL     OW26203   2.998   3.796   8.192  0.5755 -0.2030 -0.1201
 4856SOL    HW126204   2.989   3.890   8.176 -2.1254 -0.4801 -0.2376
 4856SOL    HW226205   3.023   3.797   8.285 -0.0928 -0.0441  0.0585
 4857SOL     OW26206   4.345   3.763   6.884 -0.2433  0.4772  0.2017
 4857SOL    HW126207   4.338   3.821   6.960  2.0404 -0.8382  1.3984
 4857SOL    HW226208   4.260   3.719   6.887 -0.4128  0.7117 -1.2581
 4858SOL     OW26209   0.673   1.267  13.425 -0.5695 -0.2582  0.0031
 4858SOL    HW126210   0.663   1.286  13.518  2.1697  2.2171 -0.1849
 4858SOL    HW226211   0.646   1.349  13.384 -0.0609  0.4651  1.0993
 4859SOL     OW26212   3.603   1.914   7.489 -0.1885  0.0622 -0.1515
 4859SOL    HW126213   3.593   1.914   7.584 -1.0811 -0.1020 -0.2505
 4859SOL    HW226214   3.698   1.929   7.488  0.3228 -3.1794  0.5747
 4860SOL     OW26215   4.690   0.764  12.425  0.0202  0.3344  0.0163
 4860SOL    HW126216   4.710   0.731  12.337  2.8751 -1.5582  1.3902
 4860SOL    HW226217   4.632   0.698  12.464 -0.5379  1.0329  0.3814
 4861SOL     OW26218   4.441   2.578   0.807  0.0191  0.2090 -0.1657
 4861SOL    HW126219   4.363   2.565   0.861  1.9710 -1.5758  2.2206
 4861SOL    HW226220   4.477   2.491   0.823 -2.3773 -0.5820  0.9688
 4862SOL     OW26221   0.882   1.198  11.754  0.8211 -0.1444  0.4178
 4862SOL    HW126222   0.826   1.133  11.796  0.9360 -1.3042 -1.2242
 4862SOL    HW226223   0.874   1.277  11.807  1.6084 -0.1052  0.4839
 4863SOL     OW26224   3.297   3.535   1.460  0.1863  0.0838  0.0710
 4863SOL    HW126225   3.296   3.612   1.518  1.3857 -0.2003  0.4748
 4863SOL    HW226226   3.391   3.517   1.451  0.4861  2.3386 -1.5094
 4864SOL     OW26227   3.686   2.792  11.629 -0.0323 -0.1110  0.0268
 4864SOL    HW126228   3.733   2.709  11.628 -0.6834 -0.4957  1.1569
 4864SOL    HW226229   3.641   2.801  11.714 -1.0610  1.7633 -0.7201
 4865SOL     OW26230   2.660   4.534   5.893 -0.1548  0.7961  0.0433
 4865SOL    HW126231   2.646   4.605   5.955 -1.4451  0.1985  0.4545
 4865SOL    HW226232   2.649   4.578   5.809  2.7550 -0.0455 -0.7675
 4866SOL     OW26233   2.369   1.683  14.348  0.2411 -0.0936  0.4139
 4866SOL    HW126234   2.423   1.664  14.271 -3.2292 -0.5315 -1.9099
 4866SOL    HW226235   2.377   1.597  14.391 -1.5044 -0.9340 -0.9886
 4867SOL     OW26236   2.338   2.612   1.273 -0.5526  0.0203  0.0196
 4867SOL    HW126237   2.292   2.579   1.196  1.6458 -0.7787 -0.9451
 4867SOL    HW226238   2.274   2.597   1.343  1.5690 -0.7310  1.8027
 4868SOL     OW26239   4.373   4.119   1.670 -0.3743 -0.3127 -0.4859
 4868SOL    HW126240   4.344   4.128   1.761 -1.0679 -1.0606 -0.6393
 4868SOL    HW226241   4.347   4.200   1.626  1.9748  0.7065 -0.0157
 4869SOL     OW26242   2.803   1.200   9.534 -0.1539 -0.2976  0.4658
 4869SOL    HW126243   2.864   1.266   9.565 -0.4663  0.2445 -0.0653
 4869SOL    HW226244   2.712   1.220   9.557 -0.4754  0.8110 -1.7532
 4870SOL     OW26245   2.857   3.673   4.528  0.0158 -0.5665 -0.2937
 4870SOL    HW126246   2.897   3.730   4.594 -1.6470 -1.0052  1.1105
 4870SOL    HW226247   2.920   3.601   4.518  0.2181 -0.5698  1.0026
 4871SOL     OW26248   4.354   1.423   4.309 -0.5395 -0.3247  0.3793
 4871SOL    HW126249   4.315   1.463   4.231  1.1897  0.9307  0.1502
 4871SOL    HW226250   4.274   1.400   4.355 -1.1821 -1.2577 -1.2077
 4872SOL     OW26251   3.702   0.414  11.010 -0.2521 -0.8018  0.2590
 4872SOL    HW126252   3.792   0.440  11.031 -0.3821  0.4928 -0.7701
 4872SOL    HW226253   3.705   0.403  10.915 -1.4946  1.5690 -0.0790
 4873SOL     OW26254   4.132   2.854   9.669 -0.2347 -0.1156 -0.0394
 4873SOL    HW126255   4.136   2.762   9.643  1.6106  0.2420 -1.0360
 4873SOL    HW226256   4.187   2.902   9.607  0.0221  0.4917  0.6605
 4874SOL     OW26257   2.555   0.526  10.387 -0.5209  0.3564 -0.0597
 4874SOL    HW126258   2.636   0.576  10.371 -0.3209  0.1197  0.2126
 4874SOL    HW226259   2.489   0.595  10.390  0.5951  1.2679  3.0324
 4875SOL     OW26260   3.771   1.055   3.885  0.4197  0.0621  0.0423
 4875SOL    HW126261   3.728   1.112   3.821  2.0454  2.5635  1.1913
 4875SOL    HW226262   3.699   1.048   3.948  1.4335  1.4753  1.3525
 4876SOL     OW26263   4.277   2.101  12.113 -0.1332  0.1734  0.4022
 4876SOL    HW126264   4.283   2.149  12.030  1.0225  0.8444  0.8711
 4876SOL    HW226265   4.182   2.093  12.107 -0.1225  0.1182  0.3115
 4877SOL     OW26266   3.600   4.311   9.410  0.1521  0.3981  1.3445
 4877SOL    HW126267   3.580   4.404   9.414 -0.7693  0.2536  0.2191
 4877SOL    HW226268   3.511   4.277   9.402 -0.1188  1.5701 -0.6356
 4878SOL     OW26269   3.432   3.518   8.246  0.4878  0.4935  0.1832
 4878SOL    HW126270   3.358   3.551   8.195  0.2111  3.0519  2.2757
 4878SOL    HW226271   3.500   3.511   8.179  0.1133  0.9134 -0.2447
 4879SOL     OW26272   0.368   1.156  11.775 -0.7934 -0.0337  0.4970
 4879SOL    HW126273   0.307   1.229  11.768 -0.0191  0.4122 -1.4388
 4879SOL    HW226274   0.450   1.204  11.787  0.5490 -1.8781 -1.4067
 4880SOL     OW26275   2.013   1.103   1.661  0.2830  0.0112 -0.0080
 4880SOL    HW126276   2.080   1.040   1.687 -0.3291 -1.5192 -2.1966
 4880SOL    HW226277   1.938   1.045   1.669  0.1160  0.1477 -0.5826
 4881SOL     OW26278   1.060   4.200   0.166  0.1990 -0.0167 -0.3306
 4881SOL    HW126279   1.112   4.276   0.140  1.2832 -0.6242  0.0869
 4881SOL    HW226280   0.975   4.243   0.179 -0.4333 -0.5824 -2.6800
 4882SOL     OW26281   0.353   0.084   6.608 -0.2043 -0.7481 -0.1521
 4882SOL    HW126282   0.405   0.111   6.683  1.4944 -2.3858 -0.7325
 4882SOL    HW226283   0.422   0.097   6.543  0.8108  0.9549  1.2820
 4883SOL     OW26284   2.561   4.154   5.263 -0.2059  0.0987 -0.5876
 4883SOL    HW126285   2.486   4.121   5.213 -2.7485  1.8102  2.0827
 4883SOL    HW226286   2.613   4.193   5.194  0.2422  2.5990  1.1750
 4884SOL     OW26287   0.560   0.792   4.072  0.1399 -0.2692 -0.0844
 4884SOL    HW126288   0.580   0.838   4.154 -0.2605 -0.5597  0.1768
 4884SOL    HW226289   0.526   0.869   4.027  0.6204  1.6308  2.7673
 4885SOL     OW26290   0.353   1.567   4.890  0.3680 -0.1033 -0.6120
 4885SOL    HW126291   0.420   1.583   4.823  0.4627 -0.8094 -0.6860
 4885SOL    HW226292   0.312   1.654   4.897  0.7359  0.2337 -2.5922
 4886SOL     OW26293   3.150   3.443  12.365 -0.3647  0.2982  0.0426
 4886SOL    HW126294   3.186   3.524  12.329  0.1370  1.2484  2.6929
 4886SOL    HW226295   3.111   3.480  12.445  0.6226  1.8717 -0.1897
 4887SOL     OW26296   0.791   3.693   3.196 -0.2199  0.2552  0.1605
 4887SOL    HW126297   0.827   3.624   3.141 -0.3986 -0.8049  1.3676
 4887SOL    HW226298   0.787   3.764   3.132  1.1339  1.8188  1.8045
 4888SOL     OW26299   2.086   3.271   4.967 -0.4940  0.1260  0.1772
 4888SOL    HW126300   2.033   3.336   4.921 -1.5804 -1.0682 -0.2691
 4888SOL    HW226301   2.175   3.295   4.944 -0.2888  1.0499  1.9579
 4889SOL     OW26302   3.383   2.459   7.683 -0.3728  0.5118  0.6964
 4889SOL    HW126303   3.307   2.424   7.637  1.3179 -2.4957  0.1470
 4889SOL    HW226304   3.357   2.548   7.704  0.6417  0.6239  1.4881
 4890SOL     OW26305   4.559   0.700   7.630 -0.0658 -0.1486  0.2995
 4890SOL    HW126306   4.543   0.652   7.712  1.5065 -0.8797  0.1812
 4890SOL    HW226307   4.518   0.782   7.659 -1.2260  0.2135 -2.3919
 4891SOL     OW26308   4.029   3.023  13.465  0.3237 -0.4144 -0.3289
 4891SOL    HW126309   4.102   3.040  13.524  1.8035 -1.8392 -1.7656
 4891SOL    HW226310   3.987   3.108  13.454 -0.8409 -0.7970  0.9895
 4892SOL     OW26311   1.421   1.966   7.474 -0.3460  0.6571  0.2238
 4892SOL    HW126312   1.470   1.990   7.396 -0.2432 -1.0022 -0.2250
 4892SOL    HW226313   1.383   2.046   7.511 -0.5338 -0.2135  1.9206
 4893SOL     OW26314   4.225   1.118   2.848  0.1838 -0.5318 -0.1389
 4893SOL    HW126315   4.163   1.176   2.805  1.2595 -0.4117 -1.5437
 4893SOL    HW226316   4.177   1.115   2.931 -0.0436 -2.0469 -0.3270
 4894SOL     OW26317   3.737   3.769   6.637  0.3977  0.2650  0.6807
 4894SOL    HW126318   3.766   3.857   6.658 -1.4596  1.3099 -1.0499
 4894SOL    HW226319   3.804   3.723   6.586 -0.5971 -0.8526  0.3744
 4895SOL     OW26320   3.104   3.400  14.558  0.0615  0.2803  0.6122
 4895SOL    HW126321   3.056   3.321  14.534  2.0627 -1.2104  1.5907
 4895SOL    HW226322   3.151   3.414  14.476 -1.2231  1.7528  0.1187
 4896SOL     OW26323   0.762   1.583   6.239 -0.0302  0.3608 -0.4506
 4896SOL    HW126324   0.764   1.498   6.195  1.5087  1.4979 -2.5301
 4896SOL    HW226325   0.673   1.616   6.227  0.3065  1.2709 -0.3708
 4897SOL     OW26326   2.400   0.085   3.203 -1.1730  0.4004 -0.6566
 4897SOL    HW126327   2.353   0.147   3.148  0.1590  0.4465 -1.7453
 4897SOL    HW226328   2.446   0.143   3.264  1.6856 -3.1506  0.6429
 4898SOL     OW26329   4.558   0.228   7.564 -0.0911 -0.9034 -0.1420
 4898SOL    HW126330   4.638   0.234   7.512  1.0111  0.9774  1.7950
 4898SOL    HW226331   4.507   0.309   7.569  1.4137  0.1492 -1.8504
 4899SOL     OW26332   3.051   3.894   5.742  0.0243  0.8205  0.0757
 4899SOL    HW126333   3.030   3.983   5.715 -1.6438  0.9313  1.7353
 4899SOL    HW226334   3.136   3.877   5.701  0.0636  1.9535 -0.3177
 4900SOL     OW26335   0.887   0.610   1.077  0.9186  0.2112 -0.1775
 4900SOL    HW126336   0.798   0.645   1.073  0.5911 -0.5596  0.3641
 4900SOL    HW226337   0.897   0.576   1.166 -0.8077 -2.2061 -0.9221
 4901SOL     OW26338   0.510   1.797   8.140  0.1663 -0.7284 -0.7500
 4901SOL    HW126339   0.554   1.718   8.171  0.9923 -0.3117 -0.8661
 4901SOL    HW226340   0.434   1.752   8.104  0.0818  1.0624 -2.7942
 4902SOL     OW26341   0.941   0.988  11.478 -0.1416 -0.1717 -0.3578
 4902SOL    HW126342   0.952   0.921  11.545  0.8356 -0.7745 -1.1088
 4902SOL    HW226343   1.017   1.040  11.501  0.6243 -1.1639 -0.6259
 4903SOL     OW26344   0.308   0.333   4.868 -0.0810  0.0388 -0.0624
 4903SOL    HW126345   0.387   0.279   4.876  0.2214  0.5166  0.1733
 4903SOL    HW226346   0.249   0.301   4.937 -2.4939 -0.6819 -2.4916
 4904SOL     OW26347   1.694   4.538   5.814 -0.1761 -0.2154  0.0574
 4904SOL    HW126348   1.615   4.499   5.852  0.0310 -0.4805  0.2133
 4904SOL    HW226349   1.720   4.451   5.785 -1.4277 -0.9545  1.1604
 4905SOL     OW26350   0.353   2.031   6.251 -0.1168 -0.3351 -0.0279
 4905SOL    HW126351   0.442   2.017   6.283 -0.6247  0.3787  1.7016
 4905SOL    HW226352   0.310   1.947   6.268 -1.1003  0.5387  1.8426
 4906SOL     OW26353   2.561   3.700  13.736  0.5256 -0.3932 -0.5342
 4906SOL    HW126354   2.518   3.670  13.656 -3.3118 -2.4594  2.2715
 4906SOL    HW226355   2.591   3.788  13.714 -1.2919  0.3399 -0.0806
 4907SOL     OW26356   2.771   1.332   7.472 -1.0722 -0.0646  0.3122
 4907SOL    HW126357   2.773   1.274   7.395 -0.8852 -2.3286  2.0422
 4907SOL    HW226358   2.682   1.317   7.502 -0.9320 -1.3447  0.0965
 4908SOL     OW26359   3.684   2.182   8.911 -0.1893  0.3949 -0.8096
 4908SOL    HW126360   3.727   2.256   8.954 -0.6037  0.1985 -0.0595
 4908SOL    HW226361   3.592   2.211   8.910 -0.5271 -0.6698  0.9083
 4909SOL     OW26362   3.875   0.622   5.848 -0.4001 -0.1258  0.3345
 4909SOL    HW126363   3.934   0.681   5.801 -1.2781  1.0614  0.7382
 4909SOL    HW226364   3.827   0.685   5.901  2.1080  0.6935  1.6181
 4910SOL     OW26365   2.869   4.191   6.051 -0.6944  0.0755 -0.4421
 4910SOL    HW126366   2.879   4.214   5.959 -2.2805  0.9944 -0.3958
 4910SOL    HW226367   2.959   4.172   6.076 -0.3151  0.5459 -1.4694
 4911SOL     OW26368   2.750   0.484   6.265 -0.0481 -0.1276  0.0400
 4911SOL    HW126369   2.757   0.443   6.179 -1.1389 -1.5680  0.6397
 4911SOL    HW226370   2.818   0.445   6.321  0.2784 -0.8522 -0.8597
 4912SOL     OW26371   1.723   2.270   3.618 -0.3319  0.3030 -0.4057
 4912SOL    HW126372   1.740   2.231   3.532 -0.5466  0.5482 -0.5579
 4912SOL    HW226373   1.744   2.190   3.666 -0.7172  0.9773  0.8995
 4913SOL     OW26374   3.496   1.115  16.375 -0.7289  0.7891  0.3173
 4913SOL    HW126375   3.519   1.050  16.442  0.6678  1.0470  0.0827
 4913SOL    HW226376   3.582   1.110  16.333 -0.1540 -0.5354  1.6614
 4914SOL     OW26377   1.746   1.372   6.283  0.2923  0.4567 -0.2618
 4914SOL    HW126378   1.775   1.456   6.247 -3.1569  1.4191 -0.7976
 4914SOL    HW226379   1.794   1.314   6.224 -0.6447  0.9769 -1.5176
 4915SOL     OW26380   2.290   0.315   3.617  0.0565 -0.0360  1.2495
 4915SOL    HW126381   2.363   0.324   3.555  0.2302  1.6785  1.6905
 4915SOL    HW226382   2.240   0.245   3.576  1.2129  0.5206 -1.1554
 4916SOL     OW26383   1.259   0.793   6.232 -0.2491 -0.0081 -0.0222
 4916SOL    HW126384   1.302   0.782   6.317  1.1897  1.1530 -0.6006
 4916SOL    HW226385   1.243   0.701   6.210  0.0897  0.3347 -1.7079
 4917SOL     OW26386   2.419   3.374   1.814 -0.3239 -0.3734  0.7917
 4917SOL    HW126387   2.370   3.431   1.873 -3.3576 -0.4220 -1.6287
 4917SOL    HW226388   2.508   3.390   1.844  0.5662 -3.2753 -0.3144
 4918SOL     OW26389   2.245   3.984  12.475  0.9069 -0.2170 -0.4227
 4918SOL    HW126390   2.222   4.072  12.443  0.4856 -1.3898 -3.3219
 4918SOL    HW226391   2.190   3.932  12.417 -1.3186  5.0700 -3.1138
 4919SOL     OW26392   1.185   1.881   4.471 -0.0087 -0.5888 -0.3405
 4919SOL    HW126393   1.107   1.913   4.425  0.5846  0.2922 -0.7385
 4919SOL    HW226394   1.224   1.964   4.499 -0.9534  0.2658 -1.5113
 4920SOL     OW26395   0.465   1.536   8.738 -0.0650  0.2471 -0.3362
 4920SOL    HW126396   0.550   1.494   8.732  1.6206  3.6958 -0.3763
 4920SOL    HW226397   0.404   1.465   8.715 -0.3977  0.0342  1.1779
 4921SOL     OW26398   4.394   0.651   0.041 -0.1058 -0.4632 -0.0235
 4921SOL    HW126399   4.333   0.642   0.114 -1.4901  0.1957 -1.1018
 4921SOL    HW226400   4.459   0.709   0.079  2.4061 -2.3165 -1.5298
 4922SOL     OW26401   2.055   4.023  16.746 -0.4537  0.4171 -0.1286
 4922SOL    HW126402   2.074   4.046  16.837  0.5380  0.2461 -0.2897
 4922SOL    HW226403   2.134   4.050  16.701 -0.7267  1.4310  0.0122
 4923SOL     OW26404   0.533   1.595   8.358 -0.2461 -0.9084 -0.7931
 4923SOL    HW126405   0.628   1.588   8.347  0.1437  0.3181  1.6958
 4923SOL    HW226406   0.511   1.505   8.381 -1.4170  0.2334  2.5519
 4924SOL     OW26407   1.768   2.288   1.052 -0.2296  0.0093 -0.3539
 4924SOL    HW126408   1.691   2.313   1.102 -0.8269  1.1139 -1.8209
 4924SOL    HW226409   1.800   2.214   1.103 -0.1531  1.7466  2.1204
 4925SOL     OW26410   0.380   4.145   7.059  0.0061  0.2657  0.5917
 4925SOL    HW126411   0.426   4.184   7.133  1.9752 -0.2171 -0.3823
 4925SOL    HW226412   0.331   4.076   7.104 -1.1810  1.1213  0.6264
 4926SOL     OW26413   0.848   0.555   7.752 -0.0711  0.1726  0.2155
 4926SOL    HW126414   0.854   0.624   7.686 -0.3897 -0.6694 -0.6747
 4926SOL    HW226415   0.764   0.514   7.733 -0.1610  0.1746  0.6070
 4927SOL     OW26416   3.253   3.723   5.561 -0.2850 -0.4323 -0.1785
 4927SOL    HW126417   3.290   3.733   5.473  0.0079 -0.6841 -0.0847
 4927SOL    HW226418   3.303   3.790   5.607 -1.4503 -0.2479  0.8388
 4928SOL     OW26419   0.603   4.560   5.068  0.0608 -0.3217  0.4051
 4928SOL    HW126420   0.638   4.564   5.157 -0.4006  0.9736  0.5302
 4928SOL    HW226421   0.527   4.617   5.081  0.6781  0.5131  0.2710
 4929SOL     OW26422   4.110   0.136   7.483  0.0730  0.4168  0.0583
 4929SOL    HW126423   4.034   0.121   7.540 -0.3863  0.5226 -0.5301
 4929SOL    HW226424   4.133   0.053   7.441 -3.0053  0.4048 -1.6161
 4930SOL     OW26425   4.644   0.496   1.153 -0.2661 -0.0004 -0.4693
 4930SOL    HW126426   4.604   0.411   1.134  0.7713 -0.4229 -0.7320
 4930SOL    HW226427   4.698   0.507   1.075 -1.4667 -1.3152 -1.4954
 4931SOL     OW26428   0.067   4.492   7.747  0.1293 -0.4181 -0.2503
 4931SOL    HW126429   0.020   4.568   7.713 -0.8235  0.3869  2.8237
 4931SOL    HW226430   0.074   4.542   7.828 -0.2583 -0.8490  0.0478
 4932SOL     OW26431   3.663   1.650  15.444  0.0614 -0.0164 -0.1476
 4932SOL    HW126432   3.704   1.735  15.428  0.9051 -0.2335  0.8535
 4932SOL    HW226433   3.731   1.615  15.502 -0.4680 -1.1997 -0.2491
 4933SOL     OW26434   2.122   3.950   3.449  0.0135  0.2304  0.1095
 4933SOL    HW126435   2.033   3.962   3.415  0.0669 -0.1424 -0.1597
 4933SOL    HW226436   2.162   3.961   3.363  1.6438  1.6312  1.0540
 4934SOL     OW26437   4.402   1.145   3.827 -0.7266  0.1642 -0.2832
 4934SOL    HW126438   4.422   1.079   3.761  2.1399  0.4179  0.3625
 4934SOL    HW226439   4.449   1.113   3.904  0.9294  3.6955  0.2147
 4935SOL     OW26440   1.704   4.406   6.274 -0.3626 -0.2274 -0.2137
 4935SOL    HW126441   1.724   4.493   6.308  2.0294 -0.4174 -1.1739
 4935SOL    HW226442   1.757   4.390   6.196  2.3982 -0.7747  1.7852
 4936SOL     OW26443   0.129   4.656   4.348 -0.6659  0.8400  0.1364
 4936SOL    HW126444   0.202   4.694   4.397 -0.6492  0.9214  0.0474
 4936SOL    HW226445   0.156   4.570   4.318  0.2713  1.2013 -0.0825
 4937SOL     OW26446   1.564   2.591   0.992  0.2975 -0.8583  0.5241
 4937SOL    HW126447   1.588   2.537   0.917 -0.2636 -0.8450  0.3381
 4937SOL    HW226448   1.470   2.582   1.005 -0.0170 -0.5375 -1.6230
 4938SOL     OW26449   4.381   1.013   8.018  0.1222  0.3292  0.4584
 4938SOL    HW126450   4.344   1.095   8.050 -0.6214  0.0776  0.2599
 4938SOL    HW226451   4.306   0.960   7.991  0.3846  1.0355 -1.7128
 4939SOL     OW26452   0.798   1.166   6.776  0.2306 -0.4991  0.1266
 4939SOL    HW126453   0.713   1.209   6.774 -0.1729 -1.3271 -0.3517
 4939SOL    HW226454   0.816   1.145   6.684  0.8394  1.0791 -0.1040
 4940SOL     OW26455   4.284   3.431   2.943  0.0964 -0.3986  0.0925
 4940SOL    HW126456   4.309   3.432   2.851 -1.8012  2.2899 -0.4038
 4940SOL    HW226457   4.265   3.521   2.969  0.7482  0.4673 -2.4940
 4941SOL     OW26458   2.779   4.507   3.794  0.0158  0.4462 -0.4571
 4941SOL    HW126459   2.705   4.555   3.832 -0.3339 -0.6143  0.1822
 4941SOL    HW226460   2.721   4.445   3.749 -1.5092  1.0648  0.6337
 4942SOL     OW26461   0.789   3.933   6.241  0.5378 -1.0457 -0.0988
 4942SOL    HW126462   0.779   3.985   6.321  2.0991  0.9766 -1.2082
 4942SOL    HW226463   0.815   3.998   6.176 -1.3631 -0.0287  0.1759
 4943SOL     OW26464   3.431   1.272   5.157 -0.1957  0.0319  0.5184
 4943SOL    HW126465   3.482   1.200   5.194 -1.6167 -1.9115 -1.2696
 4943SOL    HW226466   3.374   1.227   5.095 -0.2155  2.1157 -1.0025
 4944SOL     OW26467   3.689   2.912   9.151 -0.1064 -0.1302  0.0885
 4944SOL    HW126468   3.625   2.975   9.118 -1.6389 -2.5680 -1.5359
 4944SOL    HW226469   3.666   2.836   9.098 -0.5552  1.6106 -2.1934
 4945SOL     OW26470   4.568   2.766   2.937  0.7799  1.0816  0.8725
 4945SOL    HW126471   4.649   2.715   2.924  1.4258  1.5689  2.9668
 4945SOL    HW226472   4.592   2.852   2.904 -0.0232 -0.1097 -2.8409
 4946SOL     OW26473   2.847   0.677   6.686 -0.2829 -0.3077  0.3709
 4946SOL    HW126474   2.782   0.612   6.711  1.5318 -2.0943  0.4443
 4946SOL    HW226475   2.916   0.649   6.746 -0.2738 -1.8346 -0.3325
 4947SOL     OW26476   2.835   0.933  10.808 -0.4875  0.2423  0.3778
 4947SOL    HW126477   2.766   0.877  10.772  0.5975  0.9366 -2.8278
 4947SOL    HW226478   2.825   0.916  10.902 -1.6378  0.0861  0.2336
 4948SOL     OW26479   0.229   3.924   9.282 -0.0978  0.0108 -0.4981
 4948SOL    HW126480   0.192   3.979   9.213 -1.5162 -1.3833 -0.8388
 4948SOL    HW226481   0.183   3.959   9.358 -1.5243  0.8298 -1.7363
 4949SOL     OW26482   2.771   3.373  13.137 -0.3615 -0.2543 -0.2530
 4949SOL    HW126483   2.726   3.431  13.199 -1.3979  0.3396 -1.5680
 4949SOL    HW226484   2.729   3.385  13.052 -0.5450 -1.3451 -0.3254
 4950SOL     OW26485   0.068   4.504   3.836 -0.3057 -0.1796 -0.4486
 4950SOL    HW126486   0.066   4.567   3.764 -1.7848  0.2569 -0.0114
 4950SOL    HW226487   4.727   4.449   3.827 -0.5126  0.1280 -0.5596
 4951SOL     OW26488   2.861   0.086   9.252 -0.5716  0.2412 -0.2006
 4951SOL    HW126489   2.777   0.077   9.208 -1.6664 -0.1884  1.9534
 4951SOL    HW226490   2.860   0.012   9.313  1.7449 -0.5896 -1.1624
 4952SOL     OW26491   2.060   2.054   8.899 -0.0490 -0.6993 -0.3831
 4952SOL    HW126492   2.044   1.989   8.968  1.4034 -0.5877  0.0667
 4952SOL    HW226493   2.155   2.046   8.888  0.0074  3.4065 -2.8663
 4953SOL     OW26494   4.375   1.764  11.055  0.2163  0.3795  0.0424
 4953SOL    HW126495   4.286   1.734  11.042 -1.2922  3.3526  3.3229
 4953SOL    HW226496   4.375   1.822  10.979  2.1823  1.4589  0.8512
 4954SOL     OW26497   1.501   3.715   2.263 -0.6924 -0.1936  0.0858
 4954SOL    HW126498   1.544   3.696   2.180 -1.3133 -0.9159 -0.0783
 4954SOL    HW226499   1.422   3.661   2.266 -0.3748 -0.6394  0.3863
 4955SOL     OW26500   2.328   1.970   5.101  0.2221 -0.2359  0.5806
 4955SOL    HW126501   2.398   1.940   5.160  0.1732 -1.7387 -0.1073
 4955SOL    HW226502   2.256   1.969   5.164  1.1510 -3.2356  1.6198
 4956SOL     OW26503   1.282   1.946  11.910 -0.5631  0.4329 -0.5434
 4956SOL    HW126504   1.365   1.912  11.944 -1.4251 -1.2514 -0.1669
 4956SOL    HW226505   1.263   1.870  11.855 -1.2759 -0.6346  1.1725
 4957SOL     OW26506   0.051   3.000   4.208 -0.0139  0.0649 -0.4963
 4957SOL    HW126507   0.034   3.092   4.228 -0.0375  0.2384 -1.3428
 4957SOL    HW226508   0.077   2.995   4.116 -1.1544  1.0269 -0.8777
 4958SOL     OW26509   1.742   2.082  14.915  0.2136  0.1724 -0.3180
 4958SOL    HW126510   1.668   2.116  14.965  0.7060 -0.7996  1.0427
 4958SOL    HW226511   1.751   2.155  14.853  1.1357 -0.0477 -0.4355
 4959SOL     OW26512   3.539   1.431   6.612 -0.6340 -0.0423 -0.4252
 4959SOL    HW126513   3.447   1.409   6.599  0.1327 -3.6420  0.1260
 4959SOL    HW226514   3.533   1.520   6.647 -1.1523 -0.7129  1.1958
 4960SOL     OW26515   4.210   2.077   9.025 -0.2299  0.2336  0.3696
 4960SOL    HW126516   4.121   2.099   8.999  0.0947 -0.4302 -1.2999
 4960SOL    HW226517   4.241   2.165   9.046  2.3856 -0.2087 -1.6468
 4961SOL     OW26518   4.073   3.937   2.262  0.2279  0.2651 -0.2278
 4961SOL    HW126519   4.005   3.994   2.226 -0.8477 -0.4632  0.6044
 4961SOL    HW226520   4.155   3.965   2.222  0.8056 -2.3596 -0.9043
 4962SOL     OW26521   2.388   4.067  15.013  0.1543 -0.1150  0.5152
 4962SOL    HW126522   2.334   3.989  15.029 -1.1804  0.5545 -0.6660
 4962SOL    HW226523   2.316   4.125  14.989  1.3845  2.4806  3.1001
 4963SOL     OW26524   1.003   4.425   5.139  0.2806  0.3855  0.0357
 4963SOL    HW126525   0.935   4.393   5.198  1.9108 -0.2621  1.5292
 4963SOL    HW226526   1.083   4.421   5.192 -0.6804 -0.6069  1.4136
 4964SOL     OW26527   0.012   2.040   9.359 -0.6530 -0.1233  0.0332
 4964SOL    HW126528   4.703   1.961   9.389  2.9925 -0.4067  4.7473
 4964SOL    HW226529   4.671   2.075   9.315  0.2170 -0.0830 -1.4472
 4965SOL     OW26530   0.633   1.391   4.562  0.2369  0.1011  0.0992
 4965SOL    HW126531   0.668   1.468   4.606 -1.6649  0.3663  1.1103
 4965SOL    HW226532   0.551   1.427   4.530  0.2326  0.6408  0.7363
 4966SOL     OW26533   3.328   4.289   7.241  0.0136  0.2041  0.1441
 4966SOL    HW126534   3.289   4.351   7.180  1.4148  1.9668  1.0353
 4966SOL    HW226535   3.263   4.219   7.248  1.9078 -1.3832  1.9002
 4967SOL     OW26536   0.511   0.055   5.656 -0.3990 -0.5004  0.7401
 4967SOL    HW126537   0.566   0.068   5.733 -2.7717  2.8665  1.8440
 4967SOL    HW226538   0.526   0.141   5.616  0.3244  0.1109  2.3315
 4968SOL     OW26539   0.735   3.472   2.676 -0.5229 -0.1633  0.4273
 4968SOL    HW126540   0.810   3.530   2.659 -0.4007 -1.0013 -1.7880
 4968SOL    HW226541   0.662   3.510   2.627 -0.9959 -0.1511  1.1521
 4969SOL     OW26542   1.344   2.295   8.974 -0.5162 -0.7088 -0.4903
 4969SOL    HW126543   1.330   2.336   8.889 -2.8875  1.4949  0.9529
 4969SOL    HW226544   1.385   2.213   8.947  0.2048 -0.0942 -1.2660
 4970SOL     OW26545   2.805   0.680  12.975  0.5550 -0.2148 -0.3562
 4970SOL    HW126546   2.829   0.697  12.884  3.2131  0.3672  0.4489
 4970SOL    HW226547   2.716   0.714  12.962  0.2536 -1.0730 -0.5293
 4971SOL     OW26548   2.237   0.745   8.507 -0.3467 -0.1016  0.2937
 4971SOL    HW126549   2.233   0.657   8.544 -0.2467 -0.4327 -0.4753
 4971SOL    HW226550   2.282   0.727   8.424  0.7349  3.0479  0.1759
 4972SOL     OW26551   1.927   4.106   7.868  0.6606  0.1046  0.2420
 4972SOL    HW126552   1.853   4.141   7.918  1.0467 -2.0708  2.3387
 4972SOL    HW226553   1.899   4.129   7.780 -1.0716 -1.2419  0.4563
 4973SOL     OW26554   0.960   0.759   8.796  0.7434 -0.7761  0.0352
 4973SOL    HW126555   0.951   0.673   8.754  1.9574 -0.1001 -1.6073
 4973SOL    HW226556   1.049   0.785   8.773  0.4109 -0.2559 -0.6218
 4974SOL     OW26557   0.164   3.033  16.390  0.2923  0.4286  0.2422
 4974SOL    HW126558   0.172   2.938  16.395 -0.7685  0.2541 -1.3581
 4974SOL    HW226559   0.180   3.056  16.482 -1.3032 -4.5744  1.7808
 4975SOL     OW26560   2.066   1.260   3.253 -0.1193  0.2761  0.1393
 4975SOL    HW126561   1.982   1.214   3.261 -0.4354  1.4063  3.0532
 4975SOL    HW226562   2.061   1.325   3.322  0.2390  0.7663 -0.2920
 4976SOL     OW26563   2.965   3.518  14.223  0.0424 -0.1683 -0.6255
 4976SOL    HW126564   3.027   3.465  14.172 -0.0594  0.8323 -1.8050
 4976SOL    HW226565   2.876   3.508  14.190  0.2784 -0.2643 -1.2362
 4977SOL     OW26566   2.770   2.028   8.937  0.2288  0.5181  0.2670
 4977SOL    HW126567   2.726   2.109   8.962 -2.7589 -0.6789 -1.0631
 4977SOL    HW226568   2.820   2.048   8.858 -1.5115  1.0750 -0.7085
 4978SOL     OW26569   0.329   1.828  15.223  0.5035 -0.2437 -0.8700
 4978SOL    HW126570   0.244   1.805  15.259  1.5941 -1.6754  0.7883
 4978SOL    HW226571   0.295   1.870  15.144  2.1356  0.1700 -1.3507
 4979SOL     OW26572   4.178   1.995   7.427 -0.3086 -0.2181  0.5488
 4979SOL    HW126573   4.215   2.084   7.423 -2.1070  0.5777  1.6922
 4979SOL    HW226574   4.189   1.979   7.520 -1.8226 -0.5423  0.6732
 4980SOL     OW26575   3.834   2.806  13.504 -0.2010  0.3409  0.5514
 4980SOL    HW126576   3.790   2.890  13.519  0.7637  0.8210  0.7074
 4980SOL    HW226577   3.919   2.833  13.468 -0.5410  0.2080 -0.3411
 4981SOL     OW26578   1.514   0.229   3.185  0.2049 -0.4477  0.3705
 4981SOL    HW126579   1.606   0.204   3.183  0.5788  1.1269 -1.8890
 4981SOL    HW226580   1.500   0.250   3.278  0.7415  1.0832  0.1095
 4982SOL     OW26581   1.568   0.456   4.608  0.3592 -0.5281 -0.3145
 4982SOL    HW126582   1.552   0.463   4.514  1.6222  1.5380 -0.3908
 4982SOL    HW226583   1.529   0.371   4.627  0.6574 -0.4085  0.8985
 4983SOL     OW26584   1.102   3.358  14.212 -0.3879  0.4490 -0.3516
 4983SOL    HW126585   1.094   3.270  14.249 -1.7657 -0.0328 -1.7620
 4983SOL    HW226586   1.180   3.341  14.159 -1.0627  0.3225 -1.3236
 4984SOL     OW26587   0.364   0.431   4.411  0.0055  0.2122 -0.0701
 4984SOL    HW126588   0.302   0.501   4.392  1.0163  1.5632  1.5837
 4984SOL    HW226589   0.417   0.472   4.479  2.1184 -0.2619 -1.4537
 4985SOL     OW26590   0.014   2.660   5.582  0.4247 -0.4136  0.5494
 4985SOL    HW126591   4.692   2.711   5.638 -1.1182 -1.9869  0.3535
 4985SOL    HW226592   4.712   2.574   5.571  3.3044 -1.7082  0.5247
 4986SOL     OW26593   4.450   2.687   3.207 -0.5046  0.2598 -0.1943
 4986SOL    HW126594   4.482   2.726   3.126  0.5471  2.4511  1.2758
 4986SOL    HW226595   4.514   2.621   3.233  0.8865  1.9928  0.8122
 4987SOL     OW26596   1.018   0.971  11.208  0.4518  0.7308  0.1053
 4987SOL    HW126597   1.015   1.059  11.246 -0.8767  0.5114  0.5275
 4987SOL    HW226598   0.980   0.930  11.285  3.2576 -1.2252  0.3990
 4988SOL     OW26599   2.249   1.290   8.488  0.7734 -0.7170  0.0452
 4988SOL    HW126600   2.332   1.280   8.441  0.4998 -0.7915 -0.4229
 4988SOL    HW226601   2.195   1.228   8.440  3.0678 -4.0900  1.8477
 4989SOL     OW26602   2.593   4.354  13.034  0.4810  0.8758 -0.1784
 4989SOL    HW126603   2.656   4.407  12.985  0.9302 -0.0776 -0.6403
 4989SOL    HW226604   2.507   4.370  12.996  0.6122  1.9040 -0.0241
 4990SOL     OW26605   2.128   0.525   6.844 -0.0170  0.7624 -0.3025
 4990SOL    HW126606   2.061   0.458   6.863 -1.5454  1.9094 -1.5742
 4990SOL    HW226607   2.162   0.524   6.933 -0.8187 -2.0757 -0.0207
 4991SOL     OW26608   0.911   0.721   6.483 -0.2588  0.3737 -0.4294
 4991SOL    HW126609   1.004   0.696   6.490 -0.1374  1.3554  1.5715
 4991SOL    HW226610   0.876   0.664   6.552  1.4215  1.3587  1.2393
 4992SOL     OW26611   4.149   1.229  14.276  0.0595  0.3324  0.2506
 4992SOL    HW126612   4.094   1.297  14.235 -2.2299 -0.9726  1.1453
 4992SOL    HW226613   4.100   1.226  14.358  2.8309  0.6776  1.8945
 4993SOL     OW26614   2.686   1.950   5.722 -0.8377 -0.4049 -0.0599
 4993SOL    HW126615   2.710   1.947   5.815  2.3721  2.5637 -0.7884
 4993SOL    HW226616   2.770   1.945   5.677 -0.1719  0.0099  1.1253
 4994SOL     OW26617   3.374   1.784   0.756 -0.0472  0.7766 -0.1333
 4994SOL    HW126618   3.459   1.779   0.713  1.3078  0.4910  2.6156
 4994SOL    HW226619   3.322   1.736   0.691  2.1257  1.2020 -2.1963
 4995SOL     OW26620   2.080   3.754   9.155 -0.4327  0.8668  0.0989
 4995SOL    HW126621   2.077   3.735   9.062 -1.9684  0.8084  0.1642
 4995SOL    HW226622   2.143   3.826   9.153  0.6550 -0.1845 -2.5050
 4996SOL     OW26623   3.166   4.236   6.905 -0.6482 -1.1593  0.0102
 4996SOL    HW126624   3.106   4.238   6.829 -0.9722 -0.2061  0.2900
 4996SOL    HW226625   3.167   4.143   6.927 -0.1061 -0.6245  2.1656
 4997SOL     OW26626   3.365   4.099  13.855  0.0441 -0.1924  0.0060
 4997SOL    HW126627   3.311   4.175  13.837 -1.6626 -0.9481  2.0138
 4997SOL    HW226628   3.421   4.089  13.777  0.3575 -4.4555  0.7713
 4998SOL     OW26629   1.600   4.091   4.625  0.1481  0.3138  0.0191
 4998SOL    HW126630   1.686   4.098   4.585 -0.2352  1.3339 -0.6377
 4998SOL    HW226631   1.556   4.015   4.587 -2.5797  2.0000 -0.2400
 4999SOL     OW26632   3.201   4.081   1.989 -0.1912  0.0949  0.3144
 4999SOL    HW126633   3.153   4.160   2.014 -0.1375 -0.7260  3.0071
 4999SOL    HW226634   3.134   4.038   1.936  1.7701 -0.8323 -1.4553
 5000SOL     OW26635   1.340   1.963   3.325  0.7550 -0.0227 -0.4081
 5000SOL    HW126636   1.328   1.901   3.397  1.5760  0.3427  0.0396
 5000SOL    HW226637   1.301   2.036   3.373 -1.2643 -1.1732 -0.3106
 5001SOL     OW26638   3.150   2.622   1.860 -0.0055 -0.6454  0.1054
 5001SOL    HW126639   3.151   2.549   1.798 -1.2886  0.8754 -1.7039
 5001SOL    HW226640   3.180   2.696   1.807 -0.6559 -0.4241  0.0472
 5002SOL     OW26641   2.153   1.739   6.521 -0.3865 -0.2004 -0.6785
 5002SOL    HW126642   2.058   1.740   6.535 -0.1179  2.6489  1.0079
 5002SOL    HW226643   2.169   1.645   6.509  1.8535  0.0742  0.1387
 5003SOL     OW26644   0.748   3.408   2.220  0.5491  0.2233  0.2906
 5003SOL    HW126645   0.663   3.367   2.233  0.7182 -1.2491 -3.1759
 5003SOL    HW226646   0.722   3.488   2.175 -1.4810  0.0168  1.0906
 5004SOL     OW26647   3.893   0.751  16.800  0.6519  0.0871  0.6001
 5004SOL    HW126648   3.963   0.734  16.737 -2.5042  0.4377 -2.9602
 5004SOL    HW226649   3.951   0.740  16.875 -0.2838  0.7625  1.4151
 5005SOL     OW26650   4.429   1.831   5.385 -0.2697 -0.0470 -0.5312
 5005SOL    HW126651   4.387   1.769   5.444 -0.1419 -0.0062 -0.3974
 5005SOL    HW226652   4.358   1.890   5.360 -0.0111  0.2159 -0.6575
 5006SOL     OW26653   4.717   3.888  17.024  0.5289 -0.3692 -0.2455
 5006SOL    HW126654   4.663   3.921  17.096  1.8400 -0.3446  0.7301
 5006SOL    HW226655   4.653   3.846  16.967 -0.6517  1.2739 -0.1284
 5007SOL     OW26656   3.246   4.516   6.593  0.1331  0.1204 -0.6856
 5007SOL    HW126657   3.198   4.585   6.547 -0.2048  1.4455  1.6740
 5007SOL    HW226658   3.204   4.444   6.546  2.1728 -0.0492 -2.2711
 5008SOL     OW26659   4.274   3.978   3.296 -0.3515 -0.0001  0.4315
 5008SOL    HW126660   4.268   3.891   3.335  0.7940 -0.5750 -0.6795
 5008SOL    HW226661   4.368   3.972   3.279 -0.8256 -0.5650 -2.0301
 5009SOL     OW26662   0.365   2.906  17.453  0.3435 -0.4718 -0.7151
 5009SOL    HW126663   0.434   2.955  17.498  1.3106 -0.7694 -1.8913
 5009SOL    HW226664   0.410   2.821  17.450 -1.1986 -1.3445  0.5345
 5010SOL     OW26665   0.224   3.153   9.164  0.4435 -0.6301 -0.3536
 5010SOL    HW126666   0.253   3.078   9.113 -1.2350 -1.6976  0.2851
 5010SOL    HW226667   0.129   3.142   9.168  0.2965  0.2992 -1.4726
 5011SOL     OW26668   2.887   0.287  16.002  0.0769 -0.1563 -0.0052
 5011SOL    HW126669   2.852   0.360  16.053  0.4830 -0.2016  0.3377
 5011SOL    HW226670   2.852   0.315  15.918  0.7665 -0.5001 -0.4045
 5012SOL     OW26671   4.208   2.347   6.137 -0.0647 -0.3593  0.5424
 5012SOL    HW126672   4.210   2.385   6.225  0.1721 -0.6087  0.6429
 5012SOL    HW226673   4.124   2.383   6.107  0.4536  0.8402  0.5477
 5013SOL     OW26674   4.050   4.569  15.257 -0.1292 -0.4142 -0.1705
 5013SOL    HW126675   4.001   4.531  15.330  0.9717 -0.4643  0.5449
 5013SOL    HW226676   4.017   4.659  15.256 -0.6348 -0.6018  0.4152
 5014SOL     OW26677   1.546   1.540   1.966 -0.0352 -0.3938 -0.3683
 5014SOL    HW126678   1.509   1.495   2.042  0.6189  1.1530  0.8614
 5014SOL    HW226679   1.613   1.478   1.938  0.8654 -0.0723  1.1104
 5015SOL     OW26680   3.777   3.035   9.756  1.0874  0.3255  0.1148
 5015SOL    HW126681   3.705   2.990   9.800 -0.9785  2.2395 -1.3259
 5015SOL    HW226682   3.777   2.995   9.669 -0.6290  0.8163 -0.1080
 5016SOL     OW26683   2.777   0.166   6.328 -0.3375  0.2846 -0.2007
 5016SOL    HW126684   2.818   0.080   6.336  0.7181  0.8374  0.4008
 5016SOL    HW226685   2.762   0.167   6.233 -0.9489  0.0852 -0.1059
 5017SOL     OW26686   1.676   0.770  15.841 -0.1227  0.0772 -0.1343
 5017SOL    HW126687   1.602   0.827  15.864 -0.2182 -0.4374  0.8437
 5017SOL    HW226688   1.686   0.719  15.921  1.7054 -2.1021 -1.7453
 5018SOL     OW26689   4.032   1.119   5.515 -0.1221 -0.0767 -0.9946
 5018SOL    HW126690   3.990   1.176   5.451  0.3237  2.5691  1.0933
 5018SOL    HW226691   3.958   1.112   5.574  1.0025 -2.6249  0.1229
 5019SOL     OW26692   2.627   4.392   1.987 -0.3309 -0.0696 -0.3404
 5019SOL    HW126693   2.615   4.433   1.901  0.7890  2.4683  0.6854
 5019SOL    HW226694   2.663   4.469   2.031  0.2209  0.1800 -1.2239
 5020SOL     OW26695   0.029   4.734  14.678 -0.2464  0.2001  0.1967
 5020SOL    HW126696   0.002   0.055  14.606 -1.5105 -1.4515 -0.6462
 5020SOL    HW226697   0.095   0.057  14.714  1.8320 -3.2617  2.1504
 5021SOL     OW26698   2.288   0.962   6.488 -0.1634  0.1397 -0.4331
 5021SOL    HW126699   2.298   0.996   6.577  2.0084  2.8213 -1.6740
 5021SOL    HW226700   2.258   0.874   6.510 -1.8136  1.0412  0.9452
 5022SOL     OW26701   4.509   1.541   8.661 -0.5413 -0.5936 -0.2104
 5022SOL    HW126702   4.569   1.602   8.618 -0.0285  1.0794  2.8694
 5022SOL    HW226703   4.554   1.525   8.744 -0.6858 -0.5023 -0.1150
 5023SOL     OW26704   0.009   0.611   1.986  0.3354 -0.3789  0.3631
 5023SOL    HW126705   0.083   0.635   1.930  1.5757 -2.3799  1.0997
 5023SOL    HW226706   4.732   0.519   1.962 -0.4037 -0.3929  0.8444
 5024SOL     OW26707   0.934   4.223   2.736 -0.0863 -0.3013 -0.2909
 5024SOL    HW126708   0.932   4.295   2.798 -0.5998 -0.8921  0.3929
 5024SOL    HW226709   0.923   4.255   2.647 -0.2805  0.2488 -0.0651
 5025SOL     OW26710   2.216   2.263   5.251  0.2950  0.1521 -0.6625
 5025SOL    HW126711   2.303   2.304   5.246  0.2419 -0.0468 -3.1587
 5025SOL    HW226712   2.183   2.290   5.165 -0.7097  1.2990  0.0877
 5026SOL     OW26713   2.042   2.799   4.846  0.5139  0.3273 -0.1074
 5026SOL    HW126714   2.135   2.777   4.843  0.1625 -1.3193  0.6187
 5026SOL    HW226715   2.043   2.869   4.911 -1.6203  1.0424 -0.8409
 5027SOL     OW26716   3.488   3.354   0.213  0.4624  0.4264 -0.4261
 5027SOL    HW126717   3.457   3.333   0.125  0.9406 -0.5074 -0.3684
 5027SOL    HW226718   3.469   3.448   0.215  1.6826  0.7296 -3.2278
 5028SOL     OW26719   1.150   3.036   1.647 -0.2378 -0.0965  0.0860
 5028SOL    HW126720   1.132   3.002   1.734 -1.6545 -0.5169 -0.3694
 5028SOL    HW226721   1.075   2.998   1.601 -0.0921 -0.0003 -0.2322
 5029SOL     OW26722   0.898   2.772  14.820  0.1498  0.6082  0.1183
 5029SOL    HW126723   0.845   2.713  14.767 -0.2611 -0.3199  1.5586
 5029SOL    HW226724   0.906   2.715  14.897 -1.1297 -0.0803 -0.2716
 5030SOL     OW26725   1.196   0.163   7.364  0.5029 -0.3765  0.3769
 5030SOL    HW126726   1.260   0.096   7.388  2.1226  0.4456 -1.7063
 5030SOL    HW226727   1.258   0.236   7.360  1.5387 -1.2196  1.0054
 5031SOL     OW26728   3.668   1.557  14.285 -0.0807 -0.2103 -0.4918
 5031SOL    HW126729   3.598   1.613  14.254  0.1474  0.4742  0.2423
 5031SOL    HW226730   3.735   1.616  14.319  0.5240 -0.5737 -1.0377
 5032SOL     OW26731   3.514   4.340  11.403  0.0426 -0.5135 -0.4573
 5032SOL    HW126732   3.581   4.402  11.432  0.9667 -1.0074 -1.5356
 5032SOL    HW226733   3.511   4.353  11.308  1.5906  0.2929 -0.3935
 5033SOL     OW26734   2.435   2.394   0.828 -0.6407  0.4014 -0.5034
 5033SOL    HW126735   2.516   2.425   0.789 -0.2512  1.7716  1.3967
 5033SOL    HW226736   2.407   2.466   0.885 -1.1208  0.3437 -0.6665
 5034SOL     OW26737   0.138   3.076   5.034 -0.2325  0.0962  0.0817
 5034SOL    HW126738   0.234   3.075   5.030 -0.2044  0.7566  0.5113
 5034SOL    HW226739   0.126   3.170   5.049 -0.5744  0.4291 -2.3608
 5035SOL     OW26740   3.192   3.752   5.976  0.1021 -0.2973 -0.0180
 5035SOL    HW126741   3.193   3.718   5.887 -0.8919  0.1750 -0.2006
 5035SOL    HW226742   3.207   3.845   5.963 -4.3026 -0.0627 -3.3794
 5036SOL     OW26743   4.425   0.799   5.656 -0.4488  0.6700 -0.5443
 5036SOL    HW126744   4.417   0.721   5.710  2.2478  1.5091  1.0480
 5036SOL    HW226745   4.515   0.826   5.674 -0.1109 -0.8567  0.0124
 5037SOL     OW26746   4.693   0.795   5.750 -0.1633  0.3657  0.1937
 5037SOL    HW126747   4.736   0.734   5.810  0.5333  0.0209 -0.6608
 5037SOL    HW226748   4.713   0.879   5.791 -0.4549  0.4863  0.0911
 5038SOL     OW26749   4.035   2.694   5.176  0.3140  0.3895 -0.2260
 5038SOL    HW126750   4.095   2.643   5.230 -1.9249  1.9435  3.8026
 5038SOL    HW226751   4.075   2.665   5.094  3.1069  1.3724  0.8159
 5039SOL     OW26752   0.698   3.912  12.108  0.1315  0.5798 -0.5230
 5039SOL    HW126753   0.691   4.002  12.138 -1.4364  0.6894 -1.2328
 5039SOL    HW226754   0.639   3.911  12.032  2.2629  3.1154 -2.2189
 5040SOL     OW26755   3.324   2.138   1.693  0.0350  0.3321  0.0051
 5040SOL    HW126756   3.332   2.122   1.598 -0.6232 -0.4570  0.0758
 5040SOL    HW226757   3.308   2.048   1.721  0.9790 -0.3032 -1.4763
 5041SOL     OW26758   0.062   4.013   3.684 -0.6574  0.1813  0.0533
 5041SOL    HW126759   0.003   4.019   3.759 -1.6891 -1.8043 -0.6019
 5041SOL    HW226760   0.118   3.941   3.713 -0.9229  0.3741  1.0369
 5042SOL     OW26761   0.106   0.728   7.626  0.3037  0.2779 -0.2876
 5042SOL    HW126762   0.018   0.694   7.646 -0.0692  0.8615 -0.9487
 5042SOL    HW226763   0.113   0.745   7.532  1.5390  0.8598 -0.0877
 5043SOL     OW26764   0.451   2.585   3.696  0.0837 -0.2268  0.0121
 5043SOL    HW126765   0.518   2.618   3.755  1.0943  0.1455 -1.3292
 5043SOL    HW226766   0.393   2.557   3.767  0.4265  0.1053  0.4213
 5044SOL     OW26767   1.235   2.585  11.055  0.2017 -0.1160  0.1350
 5044SOL    HW126768   1.319   2.610  11.094  1.2115  0.4171 -2.4023
 5044SOL    HW226769   1.205   2.523  11.123  0.0549 -0.8551 -0.6047
 5045SOL     OW26770   0.548   2.021   9.136  0.2996  0.0266  0.2309
 5045SOL    HW126771   0.528   1.955   9.070  1.1498 -0.3503  0.3547
 5045SOL    HW226772   0.642   2.027   9.124  0.5786 -1.6953  1.5580
 5046SOL     OW26773   3.876   1.360   1.409 -0.5696  0.4512  0.2398
 5046SOL    HW126774   3.907   1.425   1.472  0.0796 -1.8547  2.2626
 5046SOL    HW226775   3.812   1.416   1.364 -0.1447 -0.9653 -2.1386
 5047SOL     OW26776   1.660   2.178  12.571 -0.1009 -0.2959 -0.1231
 5047SOL    HW126777   1.723   2.179  12.499  1.2784  0.9254  1.0893
 5047SOL    HW226778   1.720   2.193  12.644  1.2185 -2.3225 -0.8067
 5048SOL     OW26779   1.896   0.697  15.282  0.0103  0.4709  0.3790
 5048SOL    HW126780   1.990   0.684  15.273 -0.3945 -0.5272 -2.2782
 5048SOL    HW226781   1.870   0.686  15.191  1.9958  1.2237 -0.2657
 5049SOL     OW26782   3.648   2.521  10.092 -0.0610  0.2932  0.7444
 5049SOL    HW126783   3.661   2.616  10.083 -2.4561  0.4905 -0.5746
 5049SOL    HW226784   3.720   2.497  10.150 -1.0956 -3.2581  0.5102
 5050SOL     OW26785   3.616   2.591   4.576  0.2160  0.0044 -0.3107
 5050SOL    HW126786   3.695   2.610   4.627  0.1774  0.4177 -0.4009
 5050SOL    HW226787   3.568   2.674   4.576 -1.4607 -0.9392  1.7928
 5051SOL     OW26788   3.652   2.322   3.767  0.1273  0.7196 -0.0105
 5051SOL    HW126789   3.709   2.399   3.774 -0.1977  0.9663 -0.0724
 5051SOL    HW226790   3.572   2.362   3.800 -1.1829 -1.1339 -0.9415
 5052SOL     OW26791   1.908   0.494   0.686 -0.1955  0.3204 -0.1775
 5052SOL    HW126792   1.829   0.503   0.633  0.3460 -1.3148 -1.2480
 5052SOL    HW226793   1.886   0.526   0.774  1.4563 -1.8829  1.0133
 5053SOL     OW26794   1.990   3.387   1.966 -0.6100  0.2740 -0.3221
 5053SOL    HW126795   2.079   3.352   1.962 -1.4126 -1.7120 -0.9301
 5053SOL    HW226796   1.937   3.311   1.993 -0.3288 -0.1857 -1.0493
 5054SOL     OW26797   4.094   1.865  11.670 -0.0315  0.1550 -0.0240
 5054SOL    HW126798   4.041   1.795  11.632  0.7630 -1.8625  2.5703
 5054SOL    HW226799   4.048   1.872  11.753  0.9960 -0.7304  0.6114
 5055SOL     OW26800   2.097   1.206   9.298  0.1322 -0.1102 -0.2447
 5055SOL    HW126801   2.009   1.198   9.261  1.3265 -2.7008 -2.6238
 5055SOL    HW226802   2.110   1.300   9.289  2.3943 -0.5008 -1.0777
 5056SOL     OW26803   2.665   2.019   6.604  0.4403  0.0020  0.3440
 5056SOL    HW126804   2.571   2.008   6.613  0.2766  1.8666  0.9122
 5056SOL    HW226805   2.693   1.943   6.552 -0.1942 -0.2015  0.2996
 5057SOL     OW26806   2.872   2.477  15.665 -0.6006 -0.0559  0.4599
 5057SOL    HW126807   2.898   2.478  15.757 -2.0323  1.3209  0.8400
 5057SOL    HW226808   2.924   2.547  15.626 -2.0296  0.0828 -1.1379
 5058SOL     OW26809   2.844   2.896   4.209 -0.5205  0.6253 -0.0654
 5058SOL    HW126810   2.888   2.835   4.150 -0.3371 -0.3106  1.0510
 5058SOL    HW226811   2.753   2.867   4.201 -0.4517  0.9035 -1.9963
 5059SOL     OW26812   1.715   1.605   9.628 -0.5036  0.2637 -0.2579
 5059SOL    HW126813   1.716   1.519   9.670  1.9052  0.9297  1.0908
 5059SOL    HW226814   1.770   1.593   9.551  0.9987  2.5092  0.4697
 5060SOL     OW26815   0.953   2.391   7.379 -0.0384  0.2757  0.0016
 5060SOL    HW126816   0.895   2.398   7.454  0.6487 -2.1021  0.7604
 5060SOL    HW226817   0.895   2.344   7.320  0.8148 -0.8482  0.0509
 5061SOL     OW26818   2.458   2.468   3.534  0.0792  0.3853 -0.1837
 5061SOL    HW126819   2.422   2.463   3.622 -0.0238  1.2878 -0.1711
 5061SOL    HW226820   2.466   2.560   3.508  1.7674  0.2177 -0.2882
 5062SOL     OW26821   0.842   0.190   8.182  0.0287  0.0057  0.1681
 5062SOL    HW126822   0.884   0.271   8.211  0.3175 -0.5570  1.3120
 5062SOL    HW226823   0.869   0.194   8.090  1.9867  0.6930  0.7818
 5063SOL     OW26824   0.898   2.061   8.657 -0.4181  0.5950 -0.0967
 5063SOL    HW126825   0.816   2.086   8.699 -1.1843  0.8830 -1.7808
 5063SOL    HW226826   0.864   2.023   8.576 -0.3835 -0.2412  0.2764
 5064SOL     OW26827   0.324   2.897   1.880  0.2736  0.9622 -0.0510
 5064SOL    HW126828   0.240   2.929   1.910  0.3394  1.6406 -0.5997
 5064SOL    HW226829   0.343   2.958   1.808  1.0848  0.8016  0.0214
 5065SOL     OW26830   1.884   2.652   6.176  0.2452  0.0711  0.2445
 5065SOL    HW126831   1.811   2.712   6.193 -0.3877 -1.4280  2.8106
 5065SOL    HW226832   1.969   2.693   6.190  0.4453 -0.0548 -0.6714
 5066SOL     OW26833   0.172   0.840   8.888 -0.4102  0.1158 -0.1855
 5066SOL    HW126834   0.209   0.754   8.909 -1.7257 -0.6927 -1.1814
 5066SOL    HW226835   0.096   0.848   8.946  0.5937 -0.9979  1.2811
 5067SOL     OW26836   4.299   2.150  11.100 -0.5194  0.0524 -0.0312
 5067SOL    HW126837   4.379   2.099  11.113 -1.8313 -1.3856  2.4124
 5067SOL    HW226838   4.323   2.224  11.155 -2.9268 -0.8774  2.2468
 5068SOL     OW26839   0.357   2.665   2.895  0.1871 -0.0285 -0.3956
 5068SOL    HW126840   0.422   2.661   2.825  1.6362 -0.1191  0.9700
 5068SOL    HW226841   0.411   2.712   2.959 -0.3268 -0.3427  0.2700
 5069SOL     OW26842   2.494   3.809   3.282 -0.2526 -0.4718 -0.3105
 5069SOL    HW126843   2.433   3.761   3.340  1.8206 -1.3965  1.1214
 5069SOL    HW226844   2.572   3.801   3.338 -1.5861 -0.4507  1.5753
 5070SOL     OW26845   3.265   1.389   6.563 -0.1585 -0.3095  0.4806
 5070SOL    HW126846   3.243   1.468   6.612 -0.2084  0.5097 -0.8645
 5070SOL    HW226847   3.181   1.350   6.539  0.7221 -3.5828  2.6739
 5071SOL     OW26848   0.192   2.699   1.323  0.1900  0.7050  0.4939
 5071SOL    HW126849   0.236   2.783   1.313 -0.4697  1.0871  0.8121
 5071SOL    HW226850   0.251   2.657   1.386  0.5824  0.8954  0.2536
 5072SOL     OW26851   1.976   3.331   6.105 -0.2163  0.4633 -0.4071
 5072SOL    HW126852   1.903   3.363   6.158 -1.2463 -0.8627 -1.0391
 5072SOL    HW226853   1.993   3.245   6.144 -3.0650  0.9426  1.9856
 5073SOL     OW26854   4.280   0.390   6.233 -0.4597 -0.1950 -0.2954
 5073SOL    HW126855   4.222   0.340   6.175 -1.6846  0.1540  0.6198
 5073SOL    HW226856   4.230   0.471   6.223 -0.8585 -0.5740 -1.3080
 5074SOL     OW26857   2.462   4.046   6.976 -0.2340 -0.4061 -0.2597
 5074SOL    HW126858   2.549   4.076   6.953 -0.6006 -1.3832 -2.8757
 5074SOL    HW226859   2.439   3.998   6.897  0.9925  0.8257 -1.3638
 5075SOL     OW26860   3.007   1.795   2.401 -0.0394  0.3983  0.1952
 5075SOL    HW126861   2.988   1.879   2.360 -1.5169  0.9683  2.0545
 5075SOL    HW226862   3.095   1.777   2.368  1.0386  0.8080  2.8456
 5076SOL     OW26863   2.344   3.393   3.503 -0.4917 -0.1762 -0.3409
 5076SOL    HW126864   2.299   3.319   3.462  1.1643 -1.7422  0.6445
 5076SOL    HW226865   2.406   3.352   3.563  0.2764  1.9872  0.3665
 5077SOL     OW26866   1.780   1.920   0.859  0.2296 -0.6622  0.6250
 5077SOL    HW126867   1.854   1.878   0.815  0.6454 -3.1201  3.6801
 5077SOL    HW226868   1.712   1.865   0.823  0.6302  0.3069 -1.6518
 5078SOL     OW26869   4.044   4.507  12.951 -0.9843 -0.1530 -0.2331
 5078SOL    HW126870   4.097   4.428  12.963 -1.2909 -0.3510 -0.1850
 5078SOL    HW226871   3.955   4.472  12.958 -0.2699 -1.9828 -0.1595
 5079SOL     OW26872   0.708   4.617   8.536 -0.6383  0.0607  0.1456
 5079SOL    HW126873   0.729   4.701   8.495  0.7426  0.2307  1.1825
 5079SOL    HW226874   0.792   4.592   8.574  1.2018  0.6434 -3.6272
 5080SOL     OW26875   1.614   4.257   1.979  0.1016 -0.3824 -0.1229
 5080SOL    HW126876   1.673   4.325   2.011  0.9489 -1.7064  1.1278
 5080SOL    HW226877   1.565   4.229   2.056 -1.2328  0.1000 -0.7963
 5081SOL     OW26878   0.858   3.591  13.237  0.0807  0.3579 -0.3755
 5081SOL    HW126879   0.950   3.568  13.243  0.4785  2.1696  0.3741
 5081SOL    HW226880   0.821   3.511  13.200 -0.4421 -0.4916  1.9449
 5082SOL     OW26881   2.096   1.772   5.482  0.3883  0.1255 -0.0293
 5082SOL    HW126882   2.005   1.795   5.463  1.0065  2.8189  0.3138
 5082SOL    HW226883   2.130   1.859   5.499 -0.4210  0.3289  0.5528
 5083SOL     OW26884   0.385   1.003  15.269 -0.0944 -0.1394  0.0462
 5083SOL    HW126885   0.445   1.076  15.285 -0.5171  0.1588  0.2666
 5083SOL    HW226886   0.418   0.937  15.330 -1.0826  2.1645  3.0843
 5084SOL     OW26887   2.555   3.731   7.858 -0.2087 -0.2704 -0.6747
 5084SOL    HW126888   2.638   3.687   7.842  0.1718  0.1461  0.1296
 5084SOL    HW226889   2.524   3.688   7.938  1.0831 -1.5659 -0.8827
 5085SOL     OW26890   0.388   3.544   7.588  0.1491 -0.0864 -0.2441
 5085SOL    HW126891   0.478   3.535   7.618  0.8829  3.2707 -1.4432
 5085SOL    HW226892   0.388   3.477   7.519 -2.1214  1.0173 -1.3029
 5086SOL     OW26893   2.777   3.640   7.769  0.0049 -0.1414 -0.3933
 5086SOL    HW126894   2.848   3.578   7.752 -0.0102 -0.4468  0.6602
 5086SOL    HW226895   2.822   3.718   7.804  0.5506 -0.4553 -0.3960
 5087SOL     OW26896   2.604   1.243   4.345  0.4210 -0.5278 -0.4475
 5087SOL    HW126897   2.553   1.219   4.268 -0.8953 -0.6385  0.4612
 5087SOL    HW226898   2.534   1.263   4.408  0.6171 -0.6531 -0.1873
 5088SOL     OW26899   1.545   1.385  16.524 -0.2634  0.4862  0.0878
 5088SOL    HW126900   1.611   1.401  16.591  0.6903 -1.3138 -0.4260
 5088SOL    HW226901   1.592   1.424  16.450 -1.5010  1.8116  0.0018
 5089SOL     OW26902   2.360   4.397   2.079  0.0352 -0.2303 -0.5099
 5089SOL    HW126903   2.440   4.436   2.045 -0.6289 -0.7120 -2.5875
 5089SOL    HW226904   2.361   4.422   2.172  0.5145  0.9353 -0.8269
 5090SOL     OW26905   0.701   4.474   7.441 -0.0518 -0.5551  0.0279
 5090SOL    HW126906   0.670   4.521   7.363  0.3210  1.4941  1.1294
 5090SOL    HW226907   0.795   4.491   7.434 -0.5566  0.8792 -3.1760
 5091SOL     OW26908   0.809   1.723   1.368  0.2489  0.7016  0.1237
 5091SOL    HW126909   0.826   1.692   1.279  0.4315 -0.0477  0.4179
 5091SOL    HW226910   0.719   1.755   1.363 -0.0973 -0.1772  0.6409
 5092SOL     OW26911   0.278   1.712   8.321 -0.3579 -0.1510 -0.0309
 5092SOL    HW126912   0.270   1.804   8.343  0.5447 -0.3492  1.1142
 5092SOL    HW226913   0.371   1.694   8.328 -0.2785  1.0765  2.0936
 5093SOL     OW26914   3.917   1.672  10.365  0.8389  0.3617  0.7352
 5093SOL    HW126915   3.892   1.639  10.451 -0.2687  0.4157  0.4326
 5093SOL    HW226916   3.838   1.683  10.311  0.7141 -1.4482  0.5156
 5094SOL     OW26917   0.336   2.207   1.498 -0.0325 -0.6841 -0.5446
 5094SOL    HW126918   0.288   2.156   1.433  1.0347 -0.9177 -1.1605
 5094SOL    HW226919   0.287   2.201   1.579  0.5720  3.8472  0.1824
 5095SOL     OW26920   1.147   2.017   5.491 -0.2638  0.3622 -0.2810
 5095SOL    HW126921   1.136   2.107   5.520 -1.1832  0.5560 -1.2637
 5095SOL    HW226922   1.063   1.974   5.508  1.1926 -1.7830  1.5108
 5096SOL     OW26923   4.119   2.595   9.580 -0.5581  0.2495  0.0101
 5096SOL    HW126924   4.069   2.515   9.594 -0.1122  0.1143  0.8136
 5096SOL    HW226925   4.209   2.561   9.572 -0.8363 -0.6172  0.5251
 5097SOL     OW26926   2.384   1.275   5.797 -0.3987 -0.3782  0.3508
 5097SOL    HW126927   2.385   1.355   5.744  2.2641  0.0184  1.0004
 5097SOL    HW226928   2.474   1.280   5.830 -0.6075  2.8904  0.4696
 5098SOL     OW26929   4.417   1.358   6.513  0.0613  0.3557 -0.0902
 5098SOL    HW126930   4.413   1.420   6.586  0.5325  0.8212 -0.4573
 5098SOL    HW226931   4.467   1.417   6.456  0.6418 -0.0303  0.0209
 5099SOL     OW26932   3.283   2.631   2.393  0.1159 -0.7263  0.3785
 5099SOL    HW126933   3.327   2.605   2.312 -0.9929  0.1160 -0.5062
 5099SOL    HW226934   3.331   2.586   2.462 -1.1431 -2.0970  0.3617
 5100SOL     OW26935   0.659   1.249   2.829  1.1278  0.5601 -0.0841
 5100SOL    HW126936   0.736   1.229   2.776  0.1150 -0.3761 -1.1939
 5100SOL    HW226937   0.665   1.345   2.826 -1.3058  0.7259  0.4583
 5101SOL     OW26938   0.541   0.806   8.534 -0.4966 -0.5917 -0.4581
 5101SOL    HW126939   0.464   0.855   8.506  0.1874  0.2240 -0.9328
 5101SOL    HW226940   0.590   0.867   8.590 -1.0616  0.3716 -1.0103
 5102SOL     OW26941   2.939   0.977  11.321 -0.1019  0.2294  0.5746
 5102SOL    HW126942   3.008   1.044  11.322 -2.0650  2.2939 -1.3833
 5102SOL    HW226943   2.989   0.895  11.312 -1.9386 -0.7369 -0.7217
 5103SOL     OW26944   3.598   4.295   1.899 -0.0042 -0.2157 -0.0515
 5103SOL    HW126945   3.510   4.322   1.924  0.0177 -1.3756  1.2705
 5103SOL    HW226946   3.600   4.206   1.934 -1.1291  0.1381  0.9151
 5104SOL     OW26947   4.256   4.468   3.677 -0.0591  0.0935  0.2739
 5104SOL    HW126948   4.315   4.395   3.659  0.5488  1.0632 -1.6566
 5104SOL    HW226949   4.181   4.424   3.717  0.0077 -1.4916 -1.3360
 5105SOL     OW26950   2.713   0.746  16.331  0.0354 -0.1178  0.3047
 5105SOL    HW126951   2.681   0.658  16.349  1.1613 -0.3702  1.0562
 5105SOL    HW226952   2.649   0.802  16.374  0.5935  1.9894 -1.5969
 5106SOL     OW26953   4.561   1.405   0.954 -0.8685  0.3276 -0.0120
 5106SOL    HW126954   4.467   1.389   0.966 -1.1117  1.1992 -0.7555
 5106SOL    HW226955   4.564   1.428   0.861  0.8967 -0.4189 -0.1365
 5107SOL     OW26956   3.372   0.618  10.650  0.5271  0.2186  0.1895
 5107SOL    HW126957   3.331   0.703  10.663 -0.6585 -0.2028 -0.7931
 5107SOL    HW226958   3.291   0.567  10.638  0.2708 -0.0594  3.1641
 5108SOL     OW26959   1.660   1.836   1.743  0.2053  0.3589  0.0181
 5108SOL    HW126960   1.636   1.815   1.834 -2.6743  1.4424 -0.4759
 5108SOL    HW226961   1.671   1.931   1.750  1.9360  0.0769  1.0750
 5109SOL     OW26962   2.229   1.764   7.684  0.2870  0.2418  0.4237
 5109SOL    HW126963   2.191   1.717   7.609  1.1749  2.8926 -1.6431
 5109SOL    HW226964   2.152   1.796   7.731 -0.0798 -0.4374  0.2958
 5110SOL     OW26965   2.884   2.789   9.583  0.1152 -0.4265  0.0171
 5110SOL    HW126966   2.942   2.718   9.555  0.2984  0.0068 -0.6987
 5110SOL    HW226967   2.799   2.746   9.591 -0.2484  0.3568  0.3830
 5111SOL     OW26968   1.353   2.711   5.789  0.3814  0.0606 -0.2877
 5111SOL    HW126969   1.260   2.715   5.765  0.2419  0.7342  0.3877
 5111SOL    HW226970   1.393   2.716   5.702  0.7231 -0.6752 -0.1781
 5112SOL     OW26971   0.568   1.909   6.435 -0.3577 -0.3141  0.1746
 5112SOL    HW126972   0.658   1.904   6.401 -0.9250 -1.9330 -1.1534
 5112SOL    HW226973   0.564   2.002   6.453  0.9621 -0.0051 -1.1220
 5113SOL     OW26974   4.387   1.758  14.319  0.5895 -0.3141 -0.4028
 5113SOL    HW126975   4.341   1.827  14.368 -1.0523 -1.1267 -0.8041
 5113SOL    HW226976   4.306   1.710  14.303  0.2217  0.6207 -1.3546
 5114SOL     OW26977   2.094   3.523   7.154 -0.1661 -0.0810 -0.0907
 5114SOL    HW126978   1.999   3.529   7.170 -0.0447 -0.1835  0.6897
 5114SOL    HW226979   2.103   3.589   7.086 -1.0941 -0.1986 -0.3338
 5115SOL     OW26980   0.129   0.216   8.666  0.3821  0.4462  0.2933
 5115SOL    HW126981   0.053   0.177   8.623  1.3060 -0.2267 -0.7233
 5115SOL    HW226982   0.104   0.200   8.757  3.5845  2.2662  1.4717
 5116SOL     OW26983   0.219   0.408  11.388  0.4593  0.1950  0.3681
 5116SOL    HW126984   0.308   0.406  11.423  0.4886 -1.5125  0.2205
 5116SOL    HW226985   0.190   0.497  11.408 -2.6834 -1.3426  2.6892
 5117SOL     OW26986   1.059   3.584  10.753 -0.2747 -0.2284  0.9286
 5117SOL    HW126987   1.013   3.501  10.767  0.7972 -1.1531 -0.9638
 5117SOL    HW226988   0.994   3.648  10.725  1.5145  1.8237  1.4276
 5118SOL     OW26989   2.161   0.972   6.885 -0.2149  0.0145 -0.3689
 5118SOL    HW126990   2.229   0.973   6.817  1.4545  1.3888  1.3313
 5118SOL    HW226991   2.212   0.925   6.950 -0.0271 -0.2879 -0.7325
 5119SOL     OW26992   3.470   2.252   1.065 -0.5799 -0.0225 -0.1197
 5119SOL    HW126993   3.421   2.179   1.027 -2.4137  1.5112 -0.7047
 5119SOL    HW226994   3.405   2.306   1.109 -1.1543 -0.6185 -0.2372
 5120SOL     OW26995   0.596   1.488   8.978  0.1979  0.3121  0.4263
 5120SOL    HW126996   0.546   1.407   8.985 -0.2432  0.5506  0.0494
 5120SOL    HW226997   0.556   1.537   8.906 -1.2805  0.5301  1.3854
 5121SOL     OW26998   1.527   3.712   4.174  0.1986 -0.1295 -0.7502
 5121SOL    HW126999   1.588   3.640   4.157  0.0867 -0.2311 -0.7264
 5121SOL    HW227000   1.572   3.764   4.240  1.9490 -3.4153  0.6829
 5122SOL     OW27001   1.764   3.149   4.557  0.1049 -0.1512  0.0543
 5122SOL    HW127002   1.739   3.064   4.522  0.6178 -0.4022  0.2971
 5122SOL    HW227003   1.850   3.120   4.588 -0.6744 -0.5286  1.8705
 5123SOL     OW27004   0.461   0.409   0.498 -0.7206 -0.3867 -0.0292
 5123SOL    HW127005   0.397   0.339   0.509 -0.3297 -0.5775  1.0437
 5123SOL    HW227006   0.527   0.359   0.451  0.2992 -0.9789  2.0404
 5124SOL     OW27007   3.978   3.100   4.556 -0.0070  0.1452 -0.4084
 5124SOL    HW127008   4.048   3.054   4.602  0.5857  0.7088 -0.7498
 5124SOL    HW227009   3.901   3.092   4.612  1.6301 -0.1220  1.7939
 5125SOL     OW27010   4.594   3.344   6.892 -0.0103  0.0595  0.1972
 5125SOL    HW127011   4.671   3.333   6.837 -0.3492 -0.1117 -0.2466
 5125SOL    HW227012   4.609   3.429   6.933 -0.2977 -1.1996  2.9623
 5126SOL     OW27013   1.113   2.854   4.674 -0.2231 -0.0866 -0.4929
 5126SOL    HW127014   1.193   2.884   4.717 -0.8351  0.7637  0.0535
 5126SOL    HW227015   1.074   2.786   4.730 -0.2619 -1.6661 -2.4468
 5127SOL     OW27016   4.180   0.271   8.367 -0.1670  0.5269  0.0424
 5127SOL    HW127017   4.089   0.298   8.378 -0.5026  0.4497 -2.6572
 5127SOL    HW227018   4.216   0.360   8.368  0.9321  0.0898 -1.0855
 5128SOL     OW27019   3.226   2.309   7.939  0.2234 -0.2805 -0.4507
 5128SOL    HW127020   3.261   2.397   7.924 -0.4975  0.1931  0.6864
 5128SOL    HW227021   3.162   2.319   8.009 -0.4952  1.3598 -1.3356
 5129SOL     OW27022   0.950   2.566   1.872  0.1262 -0.2610  0.0657
 5129SOL    HW127023   0.950   2.600   1.962  0.0805 -1.6799  0.6049
 5129SOL    HW227024   0.943   2.471   1.882 -1.3449  0.0310  1.8154
 5130SOL     OW27025   4.211   1.022   5.703 -0.5233  0.2661  0.0144
 5130SOL    HW127026   4.288   0.974   5.673  0.7694  2.0401  0.5148
 5130SOL    HW227027   4.179   1.041   5.615  0.7067  0.1917 -0.4443
 5131SOL     OW27028   3.157   0.639   4.881  0.5324  0.5261  0.6699
 5131SOL    HW127029   3.078   0.630   4.828 -0.1091  0.5855  1.6280
 5131SOL    HW227030   3.128   0.611   4.967 -0.6249  0.5413  0.2831
 5132SOL     OW27031   3.283   4.717   6.345  0.0849  0.1112 -0.4224
 5132SOL    HW127032   3.350   4.722   6.277  0.2995 -1.7160 -0.3639
 5132SOL    HW227033   3.318   0.026   6.422  0.9730 -1.8030  0.3138
 5133SOL     OW27034   1.539   2.238   6.173 -0.1172 -0.1383 -0.6282
 5133SOL    HW127035   1.460   2.228   6.119  1.1392 -0.0931 -2.4809
 5133SOL    HW227036   1.607   2.275   6.117  0.0363 -0.5454 -0.7087
 5134SOL     OW27037   3.155   2.617  15.220  0.4470 -0.1145  0.1860
 5134SOL    HW127038   3.093   2.578  15.159  0.5992  1.2764 -0.8511
 5134SOL    HW227039   3.149   2.562  15.299 -2.0661  0.6301  0.5019
 5135SOL     OW27040   1.685   4.724  13.609  0.0144 -0.0047 -0.2417
 5135SOL    HW127041   1.606   4.713  13.661  1.2172  0.9282  1.7764
 5135SOL    HW227042   1.746   4.669  13.658  0.6004  1.3235  0.5125
 5136SOL     OW27043   0.505   1.853   4.120  0.8384 -0.7307  0.3168
 5136SOL    HW127044   0.587   1.896   4.096  0.2598 -0.0511 -0.4259
 5136SOL    HW227045   0.497   1.789   4.050  0.5181 -2.3089  1.8040
 5137SOL     OW27046   3.596   2.937   1.617  0.6796  0.0830 -0.2163
 5137SOL    HW127047   3.516   2.892   1.591 -0.3732  0.2026  2.8986
 5137SOL    HW227048   3.601   3.006   1.551  0.3872  1.3903  1.1592
 5138SOL     OW27049   0.008   1.385   3.433 -0.1487 -0.0225 -0.3496
 5138SOL    HW127050   4.709   1.312   3.381 -3.4960  0.5640  1.0976
 5138SOL    HW227051   4.719   1.461   3.382  1.8294 -1.5119 -3.5526
 5139SOL     OW27052   1.897   1.622   6.265  0.7877  0.0869  0.0488
 5139SOL    HW127053   1.920   1.571   6.343  1.1794  1.0617  0.5598
 5139SOL    HW227054   1.905   1.712   6.296 -1.8745  0.2942  0.1305
 5140SOL     OW27055   3.589   1.105   9.125  0.2627 -0.5091 -0.1491
 5140SOL    HW127056   3.585   1.011   9.107 -0.8334 -0.3910 -0.5720
 5140SOL    HW227057   3.678   1.115   9.093 -0.5444  1.0808 -1.9439
 5141SOL     OW27058   3.839   3.044   7.284  0.2629 -0.6426 -0.3870
 5141SOL    HW127059   3.757   3.091   7.295 -0.5250 -1.4723 -2.6872
 5141SOL    HW227060   3.820   2.951   7.298  0.3023 -0.4266  1.1316
 5142SOL     OW27061   2.437   3.690   4.443 -0.0009  0.0298 -0.0022
 5142SOL    HW127062   2.404   3.771   4.404 -1.1837 -0.6106 -0.3405
 5142SOL    HW227063   2.414   3.695   4.536  1.0918 -1.1630  0.3419
 5143SOL     OW27064   3.831   0.233   0.125  0.6035 -0.1659  0.1264
 5143SOL    HW127065   3.903   0.232   0.189 -1.4955 -2.6134  2.4607
 5143SOL    HW227066   3.839   0.169   0.054  0.2220  0.1144 -0.1643
 5144SOL     OW27067   1.831   4.613   7.988 -0.2583  0.2269 -0.3384
 5144SOL    HW127068   1.775   4.651   7.920  1.8392  1.7504 -1.2361
 5144SOL    HW227069   1.901   4.678   7.993 -0.0078 -0.2718  2.2675
 5145SOL     OW27070   0.169   4.395   3.528 -0.0161  0.0488  0.1571
 5145SOL    HW127071   0.116   4.470   3.552  2.2685  1.6142  0.2885
 5145SOL    HW227072   0.224   4.430   3.458  0.0435  2.7175  1.5481
 5146SOL     OW27073   0.396   4.723   2.158  0.4034  0.8823  0.3867
 5146SOL    HW127074   0.354   0.054   2.210  1.8707  0.9504  1.4732
 5146SOL    HW227075   0.326   4.658   2.158 -0.3336  1.6696 -0.6920
 5147SOL     OW27076   3.924   2.228   8.524 -0.0333 -0.1424 -0.4937
 5147SOL    HW127077   3.968   2.177   8.455  0.0262 -0.9068  0.1040
 5147SOL    HW227078   3.860   2.168   8.563  1.6341 -1.2494  0.5035
 5148SOL     OW27079   3.598   2.826  14.149  0.1046  0.0723  0.3130
 5148SOL    HW127080   3.540   2.846  14.223 -0.1699 -1.2086  0.4490
 5148SOL    HW227081   3.641   2.742  14.164  0.9097  0.3993 -0.1830
 5149SOL     OW27082   4.728   0.422   5.028  0.1952 -0.1041  0.0513
 5149SOL    HW127083   4.679   0.381   5.099 -0.5854  0.2574 -0.2880
 5149SOL    HW227084   4.684   0.505   5.008 -0.4419 -1.0253 -2.4205
 5150SOL     OW27085   3.719   4.053   3.216 -0.6472  0.6101 -0.0677
 5150SOL    HW127086   3.753   4.143   3.214  0.8343  0.0502  0.3799
 5150SOL    HW227087   3.764   4.002   3.149 -1.9565 -0.8461  0.1730
 5151SOL     OW27088   0.924   3.722   4.179 -0.2277 -0.3044  0.2779
 5151SOL    HW127089   1.014   3.705   4.150  0.3069  0.8339  1.2291
 5151SOL    HW227090   0.884   3.778   4.113 -1.1841  0.2924  1.3518
 5152SOL     OW27091   4.679   3.515   2.475  0.1187  0.2132  0.6553
 5152SOL    HW127092   4.705   3.514   2.568  0.7895 -0.2120  0.4634
 5152SOL    HW227093   4.604   3.455   2.471  0.9387 -0.6895 -0.9523
 5153SOL     OW27094   0.874   1.680   4.555 -0.4057  0.1291 -0.1055
 5153SOL    HW127095   0.900   1.746   4.490  0.8487  2.0514  2.3567
 5153SOL    HW227096   0.954   1.682   4.608 -0.7557  2.5523  0.3476
 5154SOL     OW27097   0.372   1.796  16.195 -0.6553  0.0804 -0.0248
 5154SOL    HW127098   0.339   1.727  16.252  1.5400  0.0609  1.2178
 5154SOL    HW227099   0.450   1.758  16.156 -0.4629 -0.6811  1.1233
 5155SOL     OW27100   3.165   1.025  16.409 -0.4401 -0.7355 -0.1589
 5155SOL    HW127101   3.206   0.939  16.399 -1.0491 -1.2325  1.6019
 5155SOL    HW227102   3.081   0.994  16.445 -2.5542  0.4296 -4.0824
 5156SOL     OW27103   2.480   3.275  16.010  0.0985  0.7653  0.6675
 5156SOL    HW127104   2.385   3.275  16.023 -0.0742  1.2991 -0.5724
 5156SOL    HW227105   2.488   3.233  15.925 -0.9623 -1.6716  1.7508
 5157SOL     OW27106   2.159   0.665   2.441 -0.4335 -0.0400 -0.0559
 5157SOL    HW127107   2.198   0.581   2.466 -1.1953  0.0662  1.5340
 5157SOL    HW227108   2.070   0.637   2.417 -0.7455  0.1395  0.8857
 5158SOL     OW27109   3.341   4.461   5.292 -0.5604  0.0737  0.1933
 5158SOL    HW127110   3.249   4.446   5.271 -0.8910  1.7529  0.4034
 5158SOL    HW227111   3.326   4.473   5.386  0.4027  2.2738  0.0596
 5159SOL     OW27112   4.543   4.459   9.997 -0.6694  0.1453 -0.1542
 5159SOL    HW127113   4.606   4.396   9.962  0.6540  0.7636  1.1252
 5159SOL    HW227114   4.480   4.408  10.048 -2.7046  0.5605 -2.2028
 5160SOL     OW27115   3.083   3.283   4.958 -0.1387  0.2624  0.0645
 5160SOL    HW127116   2.989   3.298   4.945 -0.2577 -0.7880 -0.3144
 5160SOL    HW227117   3.128   3.332   4.889 -0.5727  2.1799  1.1395
 5161SOL     OW27118   1.021   1.297   1.795 -0.4088  0.6984 -0.1855
 5161SOL    HW127119   1.116   1.301   1.807 -0.3240 -1.3409 -0.2049
 5161SOL    HW227120   0.988   1.374   1.840 -2.2640 -2.2909  3.5008
 5162SOL     OW27121   0.039   0.259   9.104 -0.2022  0.2594 -0.1563
 5162SOL    HW127122   4.719   0.194   9.063  1.4398 -0.8767 -0.6248
 5162SOL    HW227123   0.065   0.328   9.043  3.7938 -1.3312 -0.2137
 5163SOL     OW27124   2.848   0.111   5.011 -0.3453  0.3732  0.1711
 5163SOL    HW127125   2.942   0.098   4.998 -0.2846 -0.6110  1.6349
 5163SOL    HW227126   2.843   0.090   5.104 -2.6981 -0.0851 -0.0511
 5164SOL     OW27127   4.661   3.649   1.808  0.4363 -0.1655 -0.0020
 5164SOL    HW127128   4.648   3.611   1.721  0.4427 -1.3993  0.5382
 5164SOL    HW227129   4.650   3.742   1.788 -1.2469 -0.8125 -2.0315
 5165SOL     OW27130   4.342   3.173   5.909  0.2154 -0.6597 -0.1743
 5165SOL    HW127131   4.276   3.240   5.892 -0.1230 -1.2485 -1.1891
 5165SOL    HW227132   4.294   3.091   5.925  0.1320 -0.4499  0.6474
 5166SOL     OW27133   1.640   3.782   1.002 -0.6012  0.1078  0.3594
 5166SOL    HW127134   1.548   3.809   1.001 -0.5876  0.1145 -0.4690
 5166SOL    HW227135   1.671   3.859   0.954 -1.1191  0.6095  0.8193
 5167SOL     OW27136   2.071   1.257   5.586 -0.1947  0.2690 -0.5253
 5167SOL    HW127137   2.120   1.311   5.648 -0.9202 -0.3379  0.5945
 5167SOL    HW227138   2.102   1.167   5.591 -1.0033 -0.0354 -0.9635
 5168SOL     OW27139   4.634   1.049   6.797 -0.3532 -0.2862  0.1204
 5168SOL    HW127140   4.718   1.056   6.751 -1.0894 -1.8195 -1.4560
 5168SOL    HW227141   4.576   1.082   6.729 -0.6353  0.4073  0.7069
 5169SOL     OW27142   1.518   2.528   9.032 -0.0269 -0.3803  0.1881
 5169SOL    HW127143   1.452   2.593   9.054 -0.2252  0.8758 -4.1155
 5169SOL    HW227144   1.477   2.455   9.078 -0.0696  1.1325  2.5654
 5170SOL     OW27145   0.671   3.804   1.474  0.0104 -0.5368  0.1898
 5170SOL    HW127146   0.664   3.860   1.397 -1.1443 -1.9385 -0.7110
 5170SOL    HW227147   0.716   3.726   1.440 -1.7187 -1.5979  0.3492
 5171SOL     OW27148   3.778   3.287   8.411  0.1058 -0.4468 -0.0628
 5171SOL    HW127149   3.779   3.347   8.337 -0.0974 -0.7385 -0.3001
 5171SOL    HW227150   3.683   3.282   8.423  0.2177 -1.0409  0.5977
 5172SOL     OW27151   2.653   3.977   7.976 -0.2030  0.3169  0.3880
 5172SOL    HW127152   2.741   3.946   7.953 -0.3302  1.6552 -1.8937
 5172SOL    HW227153   2.603   3.898   7.958  0.6212 -0.3314  0.9182
 5173SOL     OW27154   3.312   2.917   0.966 -0.2196 -0.3907 -0.0467
 5173SOL    HW127155   3.272   2.998   0.933  0.6142 -0.4952 -1.2896
 5173SOL    HW227156   3.356   2.889   0.886  0.5575  3.3056 -0.9098
 5174SOL     OW27157   0.411   0.633   8.084 -0.2186  0.9996  0.7116
 5174SOL    HW127158   0.373   0.658   8.168 -3.1284  3.1880 -1.2259
 5174SOL    HW227159   0.344   0.648   8.016  0.7293  1.5404 -0.1010
 5175SOL     OW27160   3.109   3.032   3.390  0.3355 -0.1324 -0.8797
 5175SOL    HW127161   3.156   2.972   3.447  0.2217  2.6698  2.1507
 5175SOL    HW227162   3.017   3.023   3.414  0.8582 -0.7394  0.9212
 5176SOL     OW27163   4.334   0.879   3.997  0.1111 -0.4627  0.0036
 5176SOL    HW127164   4.338   0.824   4.076  0.3240 -0.8931 -0.3078
 5176SOL    HW227165   4.315   0.819   3.925 -3.1559  0.4953  0.0748
 5177SOL     OW27166   3.248   2.321   5.157 -0.1559  0.1901 -0.1283
 5177SOL    HW127167   3.211   2.240   5.194 -0.0540  0.3318  0.2821
 5177SOL    HW227168   3.277   2.356   5.241  0.8953  0.9126 -0.8022
 5178SOL     OW27169   4.732   0.800   9.397 -0.0980  0.3534  0.0644
 5178SOL    HW127170   0.062   0.753   9.347 -0.3202  0.7079 -0.5686
 5178SOL    HW227171   4.677   0.849   9.336 -1.8309 -1.1448  0.4616
 5179SOL     OW27172   2.086   1.941  17.077 -0.2059  0.0895  0.4568
 5179SOL    HW127173   2.120   2.015  17.027 -1.0234 -0.6193 -1.1618
 5179SOL    HW227174   2.015   1.913  17.020 -2.3001  1.1249  2.5323
 5180SOL     OW27175   1.945   0.717   4.794  0.5580 -0.1369  0.0390
 5180SOL    HW127176   1.948   0.687   4.703  2.3342  2.0294 -0.6030
 5180SOL    HW227177   1.858   0.679   4.809  0.6864 -0.5883 -0.3807
 5181SOL     OW27178   0.225   4.059  12.776  0.1331 -0.1133  0.3770
 5181SOL    HW127179   0.139   4.059  12.735 -0.0811 -1.8396  0.7985
 5181SOL    HW227180   0.270   3.992  12.724  0.0062  0.8953 -1.0225
 5182SOL     OW27181   0.444   4.632  15.792 -0.3452 -0.3393  0.1245
 5182SOL    HW127182   0.432   4.657  15.701 -2.2603  0.9144  0.6991
 5182SOL    HW227183   0.380   4.561  15.799  0.7494 -1.3987 -0.6803
 5183SOL     OW27184   1.024   2.347   4.864  0.0007  0.1279 -0.0402
 5183SOL    HW127185   0.974   2.273   4.828 -0.8003  0.3223  0.6809
 5183SOL    HW227186   1.114   2.317   4.860 -0.4910 -1.3372 -0.4297
 5184SOL     OW27187   0.791   3.214   3.539 -0.5334 -0.1717 -0.4493
 5184SOL    HW127188   0.878   3.197   3.577 -0.6323 -0.4830 -0.3607
 5184SOL    HW227189   0.799   3.230   3.445 -0.4535 -0.3295 -0.4697
 5185SOL     OW27190   4.403   2.083   7.170 -0.1265 -0.6418  0.0636
 5185SOL    HW127191   4.471   2.020   7.147 -0.9375 -1.2229 -0.7588
 5185SOL    HW227192   4.399   2.073   7.265  2.2422 -0.6411  0.1611
 5186SOL     OW27193   4.176   0.198   3.032 -0.3705 -0.2675 -0.4041
 5186SOL    HW127194   4.238   0.194   2.960  0.4182  0.2560  0.2403
 5186SOL    HW227195   4.113   0.262   3.000 -1.4247 -2.1944 -2.1467
 5187SOL     OW27196   4.290   0.153  17.392 -0.0456  0.0057  0.7534
 5187SOL    HW127197   4.349   0.227  17.399  0.8488 -0.5980 -0.3266
 5187SOL    HW227198   4.336   0.084  17.440 -1.4290 -1.4005  0.0568
 5188SOL     OW27199   2.302   4.481   4.222 -0.9209 -0.0224 -0.7817
 5188SOL    HW127200   2.301   4.398   4.269 -0.7040  1.6577  2.1980
 5188SOL    HW227201   2.225   4.473   4.166 -0.4009 -1.8773 -1.2130
 5189SOL     OW27202   2.972   3.628  16.921  1.2305  0.1925 -0.6480
 5189SOL    HW127203   2.986   3.547  16.873  2.4388  0.3074 -0.4846
 5189SOL    HW227204   3.054   3.660  16.958  0.0434 -0.6980  2.7600
 5190SOL     OW27205   1.489   0.961   3.218 -0.3126  0.3372 -0.2456
 5190SOL    HW127206   1.582   0.941   3.224 -0.9516 -2.4796  0.4216
 5190SOL    HW227207   1.457   0.875   3.248  2.5752 -0.8235 -0.5662
 5191SOL     OW27208   3.218   4.072  14.259 -0.5275 -0.3374 -0.0256
 5191SOL    HW127209   3.302   4.106  14.228 -0.5724  0.8134  1.1379
 5191SOL    HW227210   3.167   4.076  14.178 -0.9281  2.4962  0.3950
 5192SOL     OW27211   1.945   2.955   7.250 -0.0250  0.3748  0.5387
 5192SOL    HW127212   1.973   3.027   7.307  0.6702  0.5357 -0.0142
 5192SOL    HW227213   1.851   2.974   7.256 -0.4700 -1.9168  1.0577
 5193SOL     OW27214   4.309   3.738   3.411  0.1436  0.0825 -0.0535
 5193SOL    HW127215   4.328   3.712   3.501  0.5330  2.1704  0.4579
 5193SOL    HW227216   4.395   3.725   3.372  0.7615  0.9075  1.0294
 5194SOL     OW27217   1.658   3.957   1.571 -0.7033  0.4694 -0.7091
 5194SOL    HW127218   1.647   3.990   1.660  0.8347 -0.9533  0.0134
 5194SOL    HW227219   1.703   4.030   1.528 -0.6516  0.6216 -0.3925
 5195SOL     OW27220   2.619   0.541   7.133  0.0112 -0.0257  0.4980
 5195SOL    HW127221   2.672   0.535   7.213 -1.8926 -1.2982  1.6606
 5195SOL    HW227222   2.629   0.458   7.086 -0.1730  0.5577 -0.5724
 5196SOL     OW27223   2.038   2.011   6.141  0.0225 -0.0359  0.2532
 5196SOL    HW127224   1.982   1.962   6.202  0.3798  0.1293  0.7099
 5196SOL    HW227225   2.100   2.056   6.199 -1.2554 -0.2932  1.8431
 5197SOL     OW27226   2.870   3.186   6.540  0.4281  0.1058 -0.2848
 5197SOL    HW127227   2.789   3.230   6.513  0.4238  0.5785  0.4752
 5197SOL    HW227228   2.935   3.240   6.496  0.9117 -0.8130 -0.6965
 5198SOL     OW27229   3.540   1.460   9.111 -0.2918  0.4067  0.0780
 5198SOL    HW127230   3.599   1.533   9.129 -1.0639  0.9803  0.2771
 5198SOL    HW227231   3.535   1.416   9.196 -0.4506 -0.1326 -0.2093
 5199SOL     OW27232   2.525   3.153   6.290  0.0576  0.1643 -0.2367
 5199SOL    HW127233   2.523   3.200   6.373 -0.3631 -2.2130  1.1107
 5199SOL    HW227234   2.610   3.183   6.256  0.8841  0.6323  2.2677
 5200SOL     OW27235   4.542   3.129   7.057 -0.0432 -0.1683 -0.2074
 5200SOL    HW127236   4.552   3.213   7.013  0.3831 -0.6768 -1.0861
 5200SOL    HW227237   4.632   3.096   7.059  0.8631  2.4867  1.8777
 5201SOL     OW27238   3.590   1.222  12.120  0.0940  0.0700  0.0548
 5201SOL    HW127239   3.509   1.272  12.133  0.2563  0.3110  0.1415
 5201SOL    HW227240   3.628   1.267  12.196  0.0246 -0.5263  0.4451
 5202SOL     OW27241   2.940   1.517   2.984 -0.4935  0.0149  0.6413
 5202SOL    HW127242   3.034   1.536   2.977 -0.7020  1.3323  1.3578
 5202SOL    HW227243   2.941   1.423   2.969  0.9321  0.3002 -0.9983
 5203SOL     OW27244   1.977   4.680  15.581 -0.6040 -0.4291 -0.4879
 5203SOL    HW127245   2.024   0.026  15.569 -0.6426 -0.4114 -0.5148
 5203SOL    HW227246   1.884   4.695  15.568 -0.3396  0.5887 -1.1851
 5204SOL     OW27247   0.800   3.162   7.107  0.4179 -0.5108 -0.1950
 5204SOL    HW127248   0.891   3.188   7.094  0.0575  1.2376  0.7927
 5204SOL    HW227249   0.763   3.248   7.087  1.4217  0.1000  0.5499
 5205SOL     OW27250   0.435   0.699   5.804  0.6378  0.4276  0.1930
 5205SOL    HW127251   0.400   0.634   5.743 -0.1242  2.5442 -1.5997
 5205SOL    HW227252   0.417   0.783   5.762  4.5074 -0.1614 -2.5710
 5206SOL     OW27253   2.107   2.928   0.123  0.7552  0.0560  0.2902
 5206SOL    HW127254   2.051   2.887   0.189 -0.5062 -1.7449 -1.9067
 5206SOL    HW227255   2.107   2.861   0.054  1.2116  1.3223 -0.9495
 5207SOL     OW27256   3.036   4.541   3.095 -0.2085  0.3408  0.4452
 5207SOL    HW127257   3.068   4.540   3.005  0.3001  2.0380  0.6140
 5207SOL    HW227258   3.117   4.542   3.146  1.0840  4.2397 -1.7400
 5208SOL     OW27259   0.225   2.537   5.869 -0.0804 -0.2774 -0.5655
 5208SOL    HW127260   0.150   2.481   5.846 -1.0706  0.1166  1.7628
 5208SOL    HW227261   0.193   2.619   5.831  1.1285 -1.2902 -3.7880
 5209SOL     OW27262   0.659   3.638   2.097  0.0799 -0.2872  0.0685
 5209SOL    HW127263   0.745   3.680   2.099 -0.6348  1.0972  1.6262
 5209SOL    HW227264   0.624   3.648   2.009 -0.3915  1.0512  0.4098
 5210SOL     OW27265   2.065   3.412   2.333  0.2693  0.2123  0.1655
 5210SOL    HW127266   1.996   3.476   2.318  0.7419  0.5885 -0.3753
 5210SOL    HW227267   2.050   3.392   2.426  0.9543  1.6461  0.5809
 5211SOL     OW27268   4.691   0.581   3.905 -0.3039  0.5596  0.0914
 5211SOL    HW127269   4.722   0.492   3.924  0.3302  0.1603 -2.8479
 5211SOL    HW227270   0.028   0.634   3.935  0.8331 -0.5320 -0.8080
 5212SOL     OW27271   4.336   3.992   5.732 -0.2421 -0.2983  0.3275
 5212SOL    HW127272   4.407   3.991   5.667  0.2656  0.8451  0.8537
 5212SOL    HW227273   4.310   4.083   5.720 -0.8682 -0.5699 -0.3232
 5213SOL     OW27274   3.854   0.176   4.429 -0.1971  0.6962 -0.1174
 5213SOL    HW127275   3.872   0.135   4.514 -0.2759  1.9692  0.5020
 5213SOL    HW227276   3.910   0.124   4.370 -1.8538 -2.0722  0.7768
 5214SOL     OW27277   2.301   0.385  16.412  0.5787 -0.9150  0.2625
 5214SOL    HW127278   2.226   0.406  16.357 -1.2124 -0.6365  2.7611
 5214SOL    HW227279   2.314   0.291  16.395 -1.1186 -1.2265  0.6420
 5215SOL     OW27280   1.697   3.857   6.180  0.0849  0.1952  0.0057
 5215SOL    HW127281   1.603   3.857   6.163 -0.2981  2.8208  2.0201
 5215SOL    HW227282   1.724   3.803   6.105  1.0644 -0.1860  0.6288
 5216SOL     OW27283   2.800   1.054   6.897 -0.2806  0.6303 -0.2679
 5216SOL    HW127284   2.737   1.011   6.839  1.0378 -0.5785 -0.7913
 5216SOL    HW227285   2.745   1.038   6.974 -0.4211 -1.1396 -0.7429
 5217SOL     OW27286   0.479   0.333   5.684  0.4895  0.2860 -0.2514
 5217SOL    HW127287   0.568   0.360   5.706 -0.1024  2.0462 -0.0431
 5217SOL    HW227288   0.443   0.405   5.632 -0.9809 -0.9657 -0.9552
 5218SOL     OW27289   3.346   4.023   1.030 -0.0325  0.3741  0.0469
 5218SOL    HW127290   3.264   3.991   0.992  0.7940 -2.1354  0.3464
 5218SOL    HW227291   3.327   4.116   1.036 -0.9064  0.1532  0.6474
 5219SOL     OW27292   0.541   2.225   4.888  0.1383 -0.0994  0.0630
 5219SOL    HW127293   0.616   2.284   4.896 -0.0756  0.3287 -1.0709
 5219SOL    HW227294   0.546   2.178   4.971  4.4811 -0.8711 -0.6314
 5220SOL     OW27295   4.614   4.147  12.075  0.2243  0.0508  0.1100
 5220SOL    HW127296   4.577   4.059  12.084 -2.1581  1.0615  0.3061
 5220SOL    HW227297   4.632   4.147  11.981 -0.3560  1.7091  0.0011
 5221SOL     OW27298   1.706   0.941   5.406 -0.3280 -0.0728  0.7294
 5221SOL    HW127299   1.719   1.026   5.365  2.9903 -1.0773 -0.2664
 5221SOL    HW227300   1.626   0.914   5.360 -0.0149  0.0389  0.1244
 5222SOL     OW27301   2.725   2.097   7.939 -0.0595  1.0069  0.5504
 5222SOL    HW127302   2.714   2.022   7.997 -0.6134  1.1298  0.6059
 5222SOL    HW227303   2.780   2.064   7.868 -0.2178  1.0935  0.3890
 5223SOL     OW27304   3.009   0.202  11.887 -0.2696 -0.1689 -0.2259
 5223SOL    HW127305   2.978   0.293  11.884  1.4607  0.4747  1.5888
 5223SOL    HW227306   3.030   0.188  11.794  1.2693 -0.4883  0.1677
 5224SOL     OW27307   4.136   3.132   3.726  0.2037 -0.1971 -0.3213
 5224SOL    HW127308   4.043   3.123   3.708  0.1798  1.6629 -1.1492
 5224SOL    HW227309   4.170   3.136   3.636  0.2195 -3.3428 -0.4299
 5225SOL     OW27310   2.611   2.918  13.445 -1.0092  0.0510 -0.1112
 5225SOL    HW127311   2.628   3.007  13.415 -3.2899  0.7558  0.6433
 5225SOL    HW227312   2.650   2.914  13.533  0.0718  0.3555 -0.5830
 5226SOL     OW27313   0.754   1.024   2.143  0.1703 -0.1086 -0.4255
 5226SOL    HW127314   0.792   1.021   2.055 -1.1746 -0.2704 -0.9955
 5226SOL    HW227315   0.676   1.078   2.128  0.6974  0.6982 -0.2380
 5227SOL     OW27316   0.329   4.634   3.939 -0.6105 -0.3145 -0.3265
 5227SOL    HW127317   0.353   4.606   4.027 -0.3374 -0.6152 -0.4982
 5227SOL    HW227318   0.298   4.547   3.911 -0.3480 -1.1625  1.9854
 5228SOL     OW27319   3.421   2.193  11.938  0.2051 -0.1383  0.0750
 5228SOL    HW127320   3.434   2.275  11.984 -1.5661  1.0341 -1.4918
 5228SOL    HW227321   3.345   2.162  11.988  1.0815 -2.7677 -0.2562
 5229SOL     OW27322   1.874   4.652   4.900  0.3057 -0.1248 -0.0636
 5229SOL    HW127323   1.925   4.681   4.825  1.4330 -5.1632 -1.2339
 5229SOL    HW227324   1.944   4.610   4.950  1.7671 -0.5325 -2.4517
 5230SOL     OW27325   3.952   1.755  13.647 -0.5523 -0.1452 -0.2501
 5230SOL    HW127326   4.023   1.701  13.613 -2.8839 -2.2893 -1.6856
 5230SOL    HW227327   4.008   1.833  13.639  0.9282 -1.2351 -0.4766
 5231SOL     OW27328   1.332   2.206  11.791 -0.1634  0.5772 -0.6185
 5231SOL    HW127329   1.396   2.224  11.859 -2.1467  1.1178  1.1250
 5231SOL    HW227330   1.300   2.121  11.822  2.0097  0.9409  2.5491
 5232SOL     OW27331   0.181   1.153   9.018 -0.1382 -0.0186  0.1504
 5232SOL    HW127332   0.204   1.070   9.058 -0.1113 -0.5949 -1.0605
 5232SOL    HW227333   0.133   1.196   9.089 -0.6950 -2.7256  1.3772
 5233SOL     OW27334   0.238   3.606  10.162 -0.2418 -0.2404 -0.0680
 5233SOL    HW127335   0.177   3.635  10.094  2.7066  1.6541 -1.8881
 5233SOL    HW227336   0.220   3.661  10.238 -0.8483  0.0374 -0.4146
 5234SOL     OW27337   3.545   1.912  12.570  0.1218  0.4405  0.9313
 5234SOL    HW127338   3.608   1.839  12.573 -0.1181  0.2074  0.3659
 5234SOL    HW227339   3.589   1.966  12.504  0.6828 -1.3745 -0.1782
 5235SOL     OW27340   3.935   4.071   2.052  0.4602 -0.0598  0.4219
 5235SOL    HW127341   3.839   4.071   2.045  0.4797  0.0685  0.1488
 5235SOL    HW227342   3.965   3.991   2.010  1.1689  0.4590 -0.0760
 5236SOL     OW27343   4.158   0.933   6.892  0.2400  0.1080 -0.4220
 5236SOL    HW127344   4.165   0.837   6.894 -1.0879 -0.0240 -2.3121
 5236SOL    HW227345   4.144   0.950   6.799 -1.1681  1.8428  0.1282
 5237SOL     OW27346   2.480   4.148   5.681 -0.1643 -1.0131 -0.1009
 5237SOL    HW127347   2.438   4.074   5.637  0.3816 -1.5889  0.3469
 5237SOL    HW227348   2.511   4.210   5.616  1.0394 -0.4818  0.9712
 5238SOL     OW27349   0.384   2.489   1.803 -0.0215  0.5378  0.4157
 5238SOL    HW127350   0.357   2.398   1.798 -2.2232  1.2626 -0.7636
 5238SOL    HW227351   0.323   2.533   1.863 -0.3658  2.2506 -1.1615
 5239SOL     OW27352   4.112   1.601   2.744  0.3330 -0.0672 -0.4424
 5239SOL    HW127353   4.087   1.563   2.660  0.7973 -1.9107  0.2622
 5239SOL    HW227354   4.053   1.553   2.802  1.3744 -1.5212 -0.6017
 5240SOL     OW27355   2.054   3.399  11.965 -0.4229 -0.2939 -0.3822
 5240SOL    HW127356   2.105   3.417  11.887  0.0342  1.4617  0.3141
 5240SOL    HW227357   2.123   3.379  12.028  0.5327  4.0213 -0.0490
 5241SOL     OW27358   4.554   3.628   3.304  0.1114 -0.1077  0.5809
 5241SOL    HW127359   4.571   3.595   3.216 -1.8924  1.6889 -0.4706
 5241SOL    HW227360   4.588   3.557   3.358 -0.1896  0.3889  1.4214
 5242SOL     OW27361   4.613   0.665   3.136  0.3868  0.0894  0.1379
 5242SOL    HW127362   4.611   0.572   3.113  1.8987 -0.0752  0.6425
 5242SOL    HW227363   4.593   0.661   3.229  1.3507  0.6599  0.3691
 5243SOL     OW27364   2.685   0.153  17.008 -0.6136  1.2134 -0.5911
 5243SOL    HW127365   2.645   0.083  17.059 -0.9638  1.4158 -0.5889
 5243SOL    HW227366   2.611   0.178  16.952 -2.5838  1.6163  2.1897
 5244SOL     OW27367   3.828   4.278   6.420 -0.6101  0.2083  0.0093
 5244SOL    HW127368   3.799   4.256   6.331 -0.0968 -1.0841  0.1707
 5244SOL    HW227369   3.751   4.316   6.461 -1.4710 -2.1990  0.5655
 5245SOL     OW27370   0.589   0.233   7.537  0.1174 -0.0534  0.7810
 5245SOL    HW127371   0.628   0.277   7.613 -0.2825  1.0862  0.3259
 5245SOL    HW227372   0.609   0.144   7.566  0.3322 -0.9351 -2.1482
 5246SOL     OW27373   0.326   4.312   1.825 -0.0327 -0.2700  0.0143
 5246SOL    HW127374   0.238   4.327   1.790 -0.8051  1.2185  2.5556
 5246SOL    HW227375   0.316   4.236   1.882  0.9422  0.6431  1.4003
 5247SOL     OW27376   1.205   2.178  12.870 -0.4681 -0.8694 -0.0360
 5247SOL    HW127377   1.242   2.248  12.817  0.2804 -0.7407  0.6666
 5247SOL    HW227378   1.147   2.139  12.804  0.2187  0.0671 -1.2003
 5248SOL     OW27379   3.509   2.470   3.015 -0.2139 -0.0735 -0.3636
 5248SOL    HW127380   3.554   2.460   2.930 -0.0225  3.3011 -0.6723
 5248SOL    HW227381   3.451   2.394   3.011  0.6085 -0.6475 -1.4820
 5249SOL     OW27382   2.104   4.003   7.088 -0.6437 -0.0921 -0.4364
 5249SOL    HW127383   2.112   3.945   7.164  1.7666  0.3274 -0.3807
 5249SOL    HW227384   2.089   4.092   7.120 -0.3704 -0.7139  1.4422
 5250SOL     OW27385   1.243   3.009   3.775 -0.3653 -0.3840 -0.1760
 5250SOL    HW127386   1.285   2.995   3.690  1.2103 -0.7746  0.6753
 5250SOL    HW227387   1.260   3.103   3.781  3.1183 -1.1691  2.0767
 5251SOL     OW27388   1.472   0.523   8.888 -0.2976  0.3522 -0.9360
 5251SOL    HW127389   1.489   0.590   8.822 -0.4538  0.5929 -0.7305
 5251SOL    HW227390   1.555   0.516   8.935 -1.2164  0.0944  0.6448
 5252SOL     OW27391   0.518   3.263   5.805 -0.2831  0.5730  0.0667
 5252SOL    HW127392   0.527   3.319   5.882 -2.0113  1.4286 -0.3496
 5252SOL    HW227393   0.483   3.319   5.736 -2.6526 -0.0638  0.7252
 5253SOL     OW27394   1.488   2.044   3.709 -0.3697  0.3561  0.0143
 5253SOL    HW127395   1.488   1.961   3.660 -1.3126  1.0774 -1.2087
 5253SOL    HW227396   1.409   2.026   3.760  0.2824  2.1629  1.6463
 5254SOL     OW27397   0.088   2.457   3.477 -0.0253 -0.4024  0.5896
 5254SOL    HW127398   0.056   2.369   3.493  0.7695 -0.6902  0.5792
 5254SOL    HW227399   0.026   2.495   3.415 -0.6598 -0.0667  1.4173
 5255SOL     OW27400   2.189   0.061   0.506  0.1069 -0.0033  0.0480
 5255SOL    HW127401   2.208   0.055   0.599 -1.1399 -1.1304  0.2198
 5255SOL    HW227402   2.136   0.141   0.500  0.3808  0.2147  0.5043
 5256SOL     OW27403   3.771   3.725   7.184 -0.0860 -0.2986 -0.0307
 5256SOL    HW127404   3.779   3.705   7.091  0.1885 -0.8621  0.1165
 5256SOL    HW227405   3.852   3.692   7.223 -1.2697  0.4270  3.0013
 5257SOL     OW27406   1.676   2.765   5.900  0.0414 -0.0467 -0.0149
 5257SOL    HW127407   1.595   2.725   5.933 -0.0955 -1.6805 -2.3086
 5257SOL    HW227408   1.702   2.837   5.957 -1.0831 -0.4382  0.9944
 5258SOL     OW27409   0.204   4.414  10.520  0.0847 -0.1926 -0.0865
 5258SOL    HW127410   0.152   4.360  10.579  2.5561 -2.2380  0.1804
 5258SOL    HW227411   0.133   4.478  10.507  0.8643  0.6607 -0.1234
 5259SOL     OW27412   1.845   2.144   3.113 -0.2831 -0.3913  0.4454
 5259SOL    HW127413   1.885   2.076   3.169  1.4045 -0.1152 -0.4302
 5259SOL    HW227414   1.762   2.100   3.093 -0.9904  1.3753 -0.4836
 5260SOL     OW27415   0.509   4.217   5.885 -0.0784 -0.2310 -0.2555
 5260SOL    HW127416   0.417   4.196   5.867  0.2719 -0.2049 -2.0800
 5260SOL    HW227417   0.513   4.199   5.978 -0.0969  1.3513  0.0587
 5261SOL     OW27418   1.056   2.976   2.124  0.2605 -0.3966 -0.1145
 5261SOL    HW127419   1.121   2.978   2.194  1.1756  2.3329 -1.0004
 5261SOL    HW227420   1.009   3.059   2.135 -0.7557 -1.0747  0.6047
 5262SOL     OW27421   4.247   2.764  16.661  0.2009  0.3367  0.5216
 5262SOL    HW127422   4.188   2.715  16.603 -0.0765 -0.2409  1.3012
 5262SOL    HW227423   4.245   2.714  16.742 -2.0896  0.5109  0.5578
 5263SOL     OW27424   1.439   3.456   8.073 -0.1772  0.2219  0.9937
 5263SOL    HW127425   1.493   3.516   8.125  1.6792 -2.6656  2.3817
 5263SOL    HW227426   1.465   3.376   8.119 -1.2242  0.3599  1.8330
 5264SOL     OW27427   4.113   1.999   5.704  0.3892 -0.1837 -0.1826
 5264SOL    HW127428   4.130   2.051   5.625 -2.3970  0.9118 -0.0435
 5264SOL    HW227429   4.096   1.913   5.665  0.1062 -0.9473  1.6035
 5265SOL     OW27430   4.195   4.168   1.905 -0.1853  0.2923 -0.3588
 5265SOL    HW127431   4.130   4.105   1.937 -0.1134  1.2331  1.6146
 5265SOL    HW227432   4.148   4.248   1.884  0.6083  1.2635  1.6001
 5266SOL     OW27433   2.674   3.318   2.411  0.3314  0.1117  0.3656
 5266SOL    HW127434   2.750   3.371   2.436  2.1567 -2.4933  0.3619
 5266SOL    HW227435   2.605   3.381   2.390 -0.9320 -0.8963  1.4697
 5267SOL     OW27436   0.166   2.455  15.769 -0.9340  0.3465  0.1460
 5267SOL    HW127437   0.099   2.397  15.733  1.5588 -0.8826 -2.5643
 5267SOL    HW227438   0.239   2.395  15.785  0.5036  2.1711  0.3799
 5268SOL     OW27439   3.627   3.245   3.421 -0.8666 -0.4291  0.2013
 5268SOL    HW127440   3.597   3.165   3.465  0.7596 -1.1305  0.0251
 5268SOL    HW227441   3.663   3.188   3.353  0.1414  0.6538 -0.1730
 5269SOL     OW27442   3.324   1.631   7.715 -0.7815  0.4144 -0.2382
 5269SOL    HW127443   3.269   1.563   7.676 -0.4409 -0.6326  1.1133
 5269SOL    HW227444   3.271   1.710   7.703  0.1847  1.0548 -0.2503
 5270SOL     OW27445   4.540   1.033   4.027  0.0933 -0.3801 -0.3079
 5270SOL    HW127446   4.460   0.981   4.023 -0.0866 -0.3754  3.3308
 5270SOL    HW227447   4.558   1.026   4.121  1.1031  1.0554 -0.3837
 5271SOL     OW27448   0.617   3.619   4.526 -0.2806  0.2543 -0.4065
 5271SOL    HW127449   0.548   3.659   4.578 -0.1732  0.3921 -0.3695
 5271SOL    HW227450   0.562   3.596   4.451 -2.1409  1.0613  0.7115
 5272SOL     OW27451   0.694   3.428   3.238  0.1521 -0.2381 -0.0770
 5272SOL    HW127452   0.633   3.412   3.310 -0.6451  1.8546 -0.2874
 5272SOL    HW227453   0.713   3.522   3.240  0.2260 -0.2411 -0.6654
 5273SOL     OW27454   0.994   4.710   5.950  0.0539 -0.1748  0.3231
 5273SOL    HW127455   1.062   4.643   5.947 -1.1337 -1.4456  1.6252
 5273SOL    HW227456   0.961   4.704   6.040  2.1277 -0.1368  1.0862
 5274SOL     OW27457   3.428   0.570   8.576  0.1151 -0.1279  0.9571
 5274SOL    HW127458   3.363   0.504   8.600 -2.3206  1.1588 -2.1095
 5274SOL    HW227459   3.505   0.514   8.575 -1.2805 -2.0040  0.1133
 5275SOL     OW27460   0.946   2.888   8.886  0.6805  0.0959 -0.0226
 5275SOL    HW127461   0.979   2.800   8.867 -0.3055  0.4481 -3.4207
 5275SOL    HW227462   0.869   2.851   8.930  0.5436  0.2241 -0.1530
 5276SOL     OW27463   2.534   1.165   9.657 -0.3399  0.0393 -0.0912
 5276SOL    HW127464   2.510   1.241   9.709 -0.5978  0.5961 -1.0276
 5276SOL    HW227465   2.467   1.167   9.588  0.6793  2.3382 -1.0224
 5277SOL     OW27466   0.725   3.555   8.316 -0.2696 -0.2127  0.5278
 5277SOL    HW127467   0.658   3.590   8.258  2.0376  1.0508 -1.3400
 5277SOL    HW227468   0.686   3.471   8.342  1.2971 -1.5315 -1.3613
 5278SOL     OW27469   2.880   1.263   3.974 -0.1688 -0.1324  0.1888
 5278SOL    HW127470   2.937   1.332   3.938  0.6621 -0.4949  0.8067
 5278SOL    HW227471   2.874   1.301   4.062  0.3601  1.6809 -0.5543
 5279SOL     OW27472   4.674   2.334  15.992 -0.0025 -0.4734  0.2772
 5279SOL    HW127473   4.648   2.295  15.908  1.6242 -0.2217 -0.3266
 5279SOL    HW227474   4.616   2.410  15.991  0.0713 -0.3811  4.5481
 5280SOL     OW27475   0.249   1.723  12.431  0.1405  0.6571  0.3961
 5280SOL    HW127476   0.221   1.698  12.343 -3.9177  2.3578  1.2223
 5280SOL    HW227477   0.188   1.788  12.465 -0.2372  0.3885  0.2309
 5281SOL     OW27478   2.830   4.471   2.456  0.0382 -0.2772  0.1942
 5281SOL    HW127479   2.832   4.540   2.390  0.7024  0.5303  1.0504
 5281SOL    HW227480   2.742   4.479   2.492 -0.1332 -3.1562  0.3854
 5282SOL     OW27481   2.004   1.393   7.805  0.4130 -0.3940 -0.1154
 5282SOL    HW127482   1.945   1.332   7.850  0.9957  0.0464  1.2351
 5282SOL    HW227483   2.090   1.354   7.821  0.1758 -1.0204 -0.3616
 5283SOL     OW27484   2.052   1.377  14.748  0.2288  0.4704  0.6979
 5283SOL    HW127485   2.113   1.306  14.726  0.2479  0.4121  0.9392
 5283SOL    HW227486   1.986   1.372  14.679  0.8467 -1.6536  0.2577
 5284SOL     OW27487   4.173   0.855   7.964 -0.4542 -0.5218 -0.0448
 5284SOL    HW127488   4.182   0.766   7.929  1.3326 -0.5095  0.3991
 5284SOL    HW227489   4.130   0.835   8.047  1.6081 -1.9475  0.6751
 5285SOL     OW27490   3.778   3.567   5.244 -0.8754 -0.2706 -0.5533
 5285SOL    HW127491   3.761   3.535   5.332  0.8026 -2.6543 -1.0971
 5285SOL    HW227492   3.708   3.632   5.238  0.2117  0.9643  0.4516
 5286SOL     OW27493   1.731   3.547   5.669 -0.0813 -0.0877  0.8669
 5286SOL    HW127494   1.741   3.468   5.615  2.4788 -0.2752  1.6049
 5286SOL    HW227495   1.799   3.599   5.626 -0.1960  0.3966  1.2770
 5287SOL     OW27496   1.828   1.347   7.557  0.2654  0.2002 -0.2742
 5287SOL    HW127497   1.851   1.378   7.645  1.0210  1.6689 -0.9855
 5287SOL    HW227498   1.734   1.355   7.544 -0.2928 -0.5604  3.2399
 5288SOL     OW27499   0.373   3.956  13.496 -0.2017  0.5034  0.1906
 5288SOL    HW127500   0.300   3.897  13.477  1.0248 -0.2055 -2.3126
 5288SOL    HW227501   0.382   3.929  13.587 -2.3994  0.3817  0.3866
 5289SOL     OW27502   2.709   2.939  13.707  0.1603 -0.1035 -0.3843
 5289SOL    HW127503   2.728   2.845  13.702  2.8466  0.4197 -0.0683
 5289SOL    HW227504   2.746   2.965  13.792 -2.1278 -0.0291  0.6032
 5290SOL     OW27505   3.224   1.638  16.542  0.1571  0.9254  0.3676
 5290SOL    HW127506   3.167   1.567  16.571  0.2782  0.3960 -0.6744
 5290SOL    HW227507   3.189   1.711  16.593  0.6354  1.1892  0.3104
 5291SOL     OW27508   4.088   4.370   5.223  0.0620  0.6334 -0.6659
 5291SOL    HW127509   4.104   4.454   5.266  1.0710  0.9444 -1.6539
 5291SOL    HW227510   4.165   4.316   5.243  0.5981  0.4118 -3.2999
 5292SOL     OW27511   1.400   3.687  14.282 -0.2322 -0.2686  0.1566
 5292SOL    HW127512   1.472   3.656  14.337  0.6636 -0.8874 -1.3620
 5292SOL    HW227513   1.328   3.631  14.310 -0.3175  0.5820  1.6148
 5293SOL     OW27514   0.383   2.229   4.357  0.4239 -0.0302 -0.6284
 5293SOL    HW127515   0.357   2.294   4.291 -0.0515 -0.3814 -0.7922
 5293SOL    HW227516   0.446   2.274   4.413 -1.1499 -0.4024  1.4618
 5294SOL     OW27517   0.634   0.332   3.662 -0.1265 -0.2057 -0.0928
 5294SOL    HW127518   0.730   0.328   3.665 -0.1354  0.7315  1.1832
 5294SOL    HW227519   0.621   0.425   3.676 -1.6618 -0.6019  1.1323
 5295SOL     OW27520   0.261   0.911   4.198  0.1199 -0.1574  0.0386
 5295SOL    HW127521   0.216   0.988   4.234 -0.0659 -1.5221  2.6571
 5295SOL    HW227522   0.340   0.958   4.172 -0.7157  0.6643 -1.0414
 5296SOL     OW27523   1.873   3.631   0.891  0.1546 -0.2925 -0.2510
 5296SOL    HW127524   1.799   3.666   0.941 -0.8725 -2.9232  0.0509
 5296SOL    HW227525   1.947   3.632   0.951  1.0043  0.6802 -1.3207
 5297SOL     OW27526   0.691   3.997   8.199  0.1297  0.3413  0.2742
 5297SOL    HW127527   0.638   3.979   8.276  0.8570  1.0199  0.9323
 5297SOL    HW227528   0.638   4.057   8.148  2.4606  1.1753 -1.1797
 5298SOL     OW27529   1.823   4.002   2.511  0.0822  0.3099 -0.2703
 5298SOL    HW127530   1.740   4.046   2.529 -1.3931 -1.6195 -2.2694
 5298SOL    HW227531   1.778   3.924   2.479  0.5347  0.1047 -0.4126
 5299SOL     OW27532   0.957   2.856   9.847  0.4377  0.1911  0.1404
 5299SOL    HW127533   1.014   2.931   9.834 -1.9758  1.8415 -0.8770
 5299SOL    HW227534   1.011   2.803   9.906  0.6312  0.3862  0.1342
 5300SOL     OW27535   0.772   2.204   6.720  0.4829  0.3064  0.3735
 5300SOL    HW127536   0.846   2.167   6.768  0.2638  0.9176  1.1710
 5300SOL    HW227537   0.710   2.132   6.731  1.1579 -0.5376 -1.2423
 5301SOL     OW27538   2.045   3.903   2.616 -0.6286  0.0096  0.5008
 5301SOL    HW127539   2.065   3.843   2.544 -0.1870  0.3459  0.3428
 5301SOL    HW227540   1.960   3.938   2.589 -0.3377  1.3330  1.3013
 5302SOL     OW27541   2.675   3.399  12.886  0.3146 -0.5380 -0.0591
 5302SOL    HW127542   2.604   3.462  12.871  0.7652  0.3417  1.6024
 5302SOL    HW227543   2.715   3.395  12.799  2.6882  3.4435  0.8804
 5303SOL     OW27544   2.083   3.037   2.837  0.4939  0.3613  0.5204
 5303SOL    HW127545   2.036   3.038   2.920  1.2401 -3.4942  0.9671
 5303SOL    HW227546   2.128   3.122   2.843  0.8881  0.1764  0.2353
 5304SOL     OW27547   4.536   0.113   3.130  0.4421 -0.6763  0.2118
 5304SOL    HW127548   4.457   0.081   3.088  0.8170 -0.2067 -0.8417
 5304SOL    HW227549   4.516   0.132   3.222 -0.6963  2.8430 -0.8008
 5305SOL     OW27550   2.848   2.668   8.291  0.2576 -0.2346  0.4399
 5305SOL    HW127551   2.832   2.620   8.209 -1.1911  1.1618 -0.0924
 5305SOL    HW227552   2.817   2.601   8.352  1.4814 -0.6461  0.6214
 5306SOL     OW27553   3.575   3.251  10.511 -0.6414 -0.4877  0.0539
 5306SOL    HW127554   3.499   3.249  10.569  0.1118  0.7385  1.0934
 5306SOL    HW227555   3.645   3.300  10.554  0.4285 -0.8195 -1.3018
 5307SOL     OW27556   1.739   0.268   7.980 -0.2643  0.1826  0.6154
 5307SOL    HW127557   1.663   0.290   7.927  0.0038 -2.6133 -0.9214
 5307SOL    HW227558   1.765   0.353   8.015  2.7066  0.4490 -2.2618
 5308SOL     OW27559   0.220   2.781  16.457  0.1673 -0.1101  0.0240
 5308SOL    HW127560   0.313   2.790  16.476  0.0720 -0.6544  0.7461
 5308SOL    HW227561   0.216   2.701  16.406 -0.5652 -0.9145  1.3345
 5309SOL     OW27562   1.584   1.838   8.915 -0.1374 -0.0750 -0.3581
 5309SOL    HW127563   1.540   1.773   8.861  0.2450  1.7237 -2.8382
 5309SOL    HW227564   1.652   1.868   8.855  0.5701 -3.3870 -1.1872
 5310SOL     OW27565   0.935   2.212   2.148  0.1694  0.2972 -0.3480
 5310SOL    HW127566   0.954   2.119   2.133  3.2515  0.9495 -0.4715
 5310SOL    HW227567   0.963   2.253   2.066  3.6117 -0.2770  0.5264
 5311SOL     OW27568   3.459   0.690   3.363  0.2618  0.5413 -0.0859
 5311SOL    HW127569   3.553   0.672   3.356  0.1425 -1.0211  2.3183
 5311SOL    HW227570   3.418   0.672   3.279 -0.6414 -0.7536  0.6243
 5312SOL     OW27571   4.463   3.234  15.861  0.2191  0.5630 -0.2840
 5312SOL    HW127572   4.461   3.301  15.792 -2.3014 -0.5478 -1.2762
 5312SOL    HW227573   4.454   3.292  15.937 -1.8617 -1.1483  0.7464
 5313SOL     OW27574   4.568   1.212   3.321 -0.0686 -0.0389 -0.0815
 5313SOL    HW127575   4.511   1.189   3.248  0.0215 -1.2252  0.2154
 5313SOL    HW227576   4.592   1.122   3.343  2.7022  0.4209 -1.1597
 5314SOL     OW27577   1.185   3.275  17.481  0.4093  0.2365 -0.1707
 5314SOL    HW127578   1.211   3.189  17.448  0.0330 -1.1638  3.1434
 5314SOL    HW227579   1.154   3.260  17.570  0.5183 -1.8092 -0.4729
 5315SOL     OW27580   2.265   1.035   5.840  0.2252  0.1920  0.1959
 5315SOL    HW127581   2.310   1.116   5.814  0.6021 -0.5061 -1.3197
 5315SOL    HW227582   2.341   1.007   5.892 -1.5825 -1.7898  1.7543
 5316SOL     OW27583   3.576   1.327   6.959 -0.3485 -0.2680  0.7292
 5316SOL    HW127584   3.562   1.353   7.050  1.1827 -2.2881  1.5353
 5316SOL    HW227585   3.555   1.234   6.966  1.8006 -0.6879  1.6995
 5317SOL     OW27586   2.094   1.432   5.911  0.0535 -0.3510  0.0171
 5317SOL    HW127587   2.000   1.429   5.889 -0.0561 -0.5612  0.5159
 5317SOL    HW227588   2.136   1.364   5.859  0.9076  0.1212  0.0997
 5318SOL     OW27589   2.626   1.557   3.939  0.0713 -0.7307 -0.1640
 5318SOL    HW127590   2.704   1.551   3.993  0.0185 -0.3610 -0.0462
 5318SOL    HW227591   2.552   1.539   3.997  0.9373  1.3044  1.5605
 5319SOL     OW27592   4.329   2.652   7.509  0.6233 -0.4664 -0.2408
 5319SOL    HW127593   4.307   2.683   7.597  1.1793 -0.5053 -0.0866
 5319SOL    HW227594   4.309   2.733   7.462  0.2031  0.4781  1.5492
 5320SOL     OW27595   1.770   0.681  10.168 -0.9504  0.0290  0.0570
 5320SOL    HW127596   1.765   0.586  10.161 -3.5599  0.1613  0.0222
 5320SOL    HW227597   1.771   0.696  10.074 -2.2841 -2.5148 -0.3725
 5321SOL     OW27598   2.141   1.683  11.422  0.5474 -0.7128  0.4283
 5321SOL    HW127599   2.226   1.724  11.437  0.8179 -1.2358  0.3067
 5321SOL    HW227600   2.087   1.735  11.483  0.0251  1.3420 -1.7919
 5322SOL     OW27601   0.258   0.026  14.984 -0.7849  0.3347  0.3275
 5322SOL    HW127602   0.319   4.689  14.983 -1.6257 -0.3857  1.6063
 5322SOL    HW227603   0.231   0.022  15.076  0.7387 -1.1661  0.7197
 5323SOL     OW27604   4.268   4.724   9.765  0.1792 -0.3881  0.2438
 5323SOL    HW127605   4.191   0.044   9.762  0.3527 -0.1109  1.0911
 5323SOL    HW227606   4.233   4.639   9.741 -0.0154  0.3821 -2.1795
 5324SOL     OW27607   2.977   0.525   3.654  0.3009  0.3313 -0.5503
 5324SOL    HW127608   3.016   0.612   3.647 -2.3990  1.4711 -1.3152
 5324SOL    HW227609   2.930   0.516   3.571 -0.5770 -0.9916  0.0902
 5325SOL     OW27610   4.694   4.343   6.545  0.4864 -0.0581 -0.3440
 5325SOL    HW127611   4.641   4.295   6.609 -0.1198  0.8541 -0.1501
 5325SOL    HW227612   4.660   4.311   6.462 -0.1065  0.2196 -0.2068
 5326SOL     OW27613   4.300   2.391   4.053 -0.5174  0.0724  0.3536
 5326SOL    HW127614   4.254   2.365   3.973  0.3780  0.9621 -0.4517
 5326SOL    HW227615   4.304   2.302   4.088 -0.8768  0.6754  1.8967
 5327SOL     OW27616   1.220   3.252  14.516 -0.3212 -0.4926  0.6505
 5327SOL    HW127617   1.134   3.221  14.487 -0.9981  0.3425  1.7223
 5327SOL    HW227618   1.225   3.196  14.593 -2.1757 -0.2658  0.9381
 5328SOL     OW27619   0.129   2.637   2.190 -0.4976 -0.1645  0.3846
 5328SOL    HW127620   0.041   2.644   2.228  0.1979  2.5022  1.4465
 5328SOL    HW227621   0.166   2.581   2.259 -0.6718 -0.1060  0.5285
 5329SOL     OW27622   1.944   1.210   6.152 -0.3292 -0.3615  0.0109
 5329SOL    HW127623   2.021   1.250   6.193  1.7686  0.0819 -4.3539
 5329SOL    HW227624   1.979   1.159   6.079 -1.1261  0.9864 -1.3027
 5330SOL     OW27625   1.798   2.784   9.962 -0.0349  0.4978 -0.1128
 5330SOL    HW127626   1.800   2.818  10.051 -0.4944 -0.6033  0.3175
 5330SOL    HW227627   1.888   2.752   9.972 -1.0523 -1.9926  0.9811
 5331SOL     OW27628   2.135   3.875  11.068 -0.6265 -0.3806 -0.2738
 5331SOL    HW127629   2.098   3.963  11.078 -0.4290 -0.1504 -1.6308
 5331SOL    HW227630   2.146   3.879  10.974 -0.6912 -1.8493 -0.3453
 5332SOL     OW27631   1.814   3.112   6.226  0.2872  0.1811  0.0569
 5332SOL    HW127632   1.776   3.028   6.254 -0.9435  0.7636  0.1603
 5332SOL    HW227633   1.810   3.155   6.312 -1.4972  2.1861 -1.0205
 5333SOL     OW27634   4.656   1.496   2.974 -0.8770  0.3878  0.4748
 5333SOL    HW127635   4.669   1.564   2.907 -0.9442 -0.9213 -0.8743
 5333SOL    HW227636   4.576   1.455   2.941 -0.2223 -0.1242 -0.4805
 5334SOL     OW27637   0.711   0.508  16.233  1.3565  0.2638  0.1110
 5334SOL    HW127638   0.801   0.520  16.263  1.2004 -1.6973  1.3563
 5334SOL    HW227639   0.674   0.470  16.313  1.9059 -0.6531 -0.0754
 5335SOL     OW27640   0.717   2.952   2.019  0.4036 -0.1566 -0.0109
 5335SOL    HW127641   0.632   2.957   2.063 -0.0564  2.5223 -1.2410
 5335SOL    HW227642   0.711   2.891   1.946 -2.1968  1.5678 -1.2411
 5336SOL     OW27643   3.288   1.098   7.273 -0.0778 -0.1000 -0.1516
 5336SOL    HW127644   3.197   1.121   7.295  0.4751 -0.6709  2.7130
 5336SOL    HW227645   3.278   1.010   7.236  0.2591 -0.9502  1.8140
 5337SOL     OW27646   2.494   1.909  13.345  0.6040 -0.2538  0.0885
 5337SOL    HW127647   2.422   1.846  13.341  0.6194 -0.2323 -0.6385
 5337SOL    HW227648   2.475   1.957  13.425  2.8961 -2.3344  1.8606
 5338SOL     OW27649   3.957   1.521   1.867  0.3008 -0.9880 -0.2484
 5338SOL    HW127650   3.911   1.488   1.944 -0.4535  0.2866 -0.1528
 5338SOL    HW227651   4.030   1.570   1.906 -0.5969  0.3426 -0.2448
 5339SOL     OW27652   1.810   1.512   1.263  0.5700  0.0899 -0.2121
 5339SOL    HW127653   1.733   1.569   1.262  2.5621  2.7492 -1.2684
 5339SOL    HW227654   1.823   1.498   1.169 -1.0591  2.3902 -0.7817
 5340SOL     OW27655   4.204   0.078   4.535 -0.0389  0.9639  0.2182
 5340SOL    HW127656   4.186   0.015   4.466 -0.3693 -0.3276  1.4859
 5340SOL    HW227657   4.195   0.029   4.616  0.9573  2.5195  1.2868
 5341SOL     OW27658   1.343   4.274  13.079 -0.2553  0.2172 -1.0118
 5341SOL    HW127659   1.262   4.265  13.130  1.2284  3.6658  1.9386
 5341SOL    HW227660   1.375   4.184  13.084 -1.8891 -0.3043  0.0751
 5342SOL     OW27661   1.106   0.773   5.770 -0.2762  0.3462  0.0476
 5342SOL    HW127662   1.061   0.727   5.841  0.5499 -1.4819 -0.6174
 5342SOL    HW227663   1.038   0.832   5.739 -0.8243 -0.2518  0.1142
 5343SOL     OW27664   4.522   2.042   2.191  0.1192  0.2468  0.0693
 5343SOL    HW127665   4.545   1.959   2.233 -1.2232 -0.2020 -0.0761
 5343SOL    HW227666   4.613   2.056   2.162 -0.1078  2.3730  0.4192
 5344SOL     OW27667   2.075   4.076   5.098 -0.0016 -0.3252 -0.2302
 5344SOL    HW127668   2.058   4.033   5.014 -1.9486  0.7329 -0.3702
 5344SOL    HW227669   2.164   4.045   5.114  0.7971  1.7130 -0.7266
 5345SOL     OW27670   1.676   3.529   9.159  0.2965  0.2522 -0.2867
 5345SOL    HW127671   1.600   3.480   9.127  0.8958  0.3190 -1.8130
 5345SOL    HW227672   1.644   3.619   9.154  1.1266  0.5794  0.2889
 5346SOL     OW27673   3.831   1.392   0.880 -0.0931  0.1606  0.0216
 5346SOL    HW127674   3.847   1.413   0.788  1.0929 -0.4538  0.0810
 5346SOL    HW227675   3.749   1.439   0.896 -0.3254  0.1577 -1.1206
 5347SOL     OW27676   4.406   2.092   3.194  0.3754 -0.1786 -0.2478
 5347SOL    HW127677   4.498   2.064   3.198  0.7020  1.0021  0.3595
 5347SOL    HW227678   4.389   2.142   3.114  1.6496 -1.5744 -1.4152
 5348SOL     OW27679   1.993   2.727  13.823 -0.0009 -0.5024  0.1091
 5348SOL    HW127680   2.029   2.813  13.802 -0.0461 -0.1129  1.6335
 5348SOL    HW227681   2.031   2.680  13.749  1.3081 -1.2646  1.2591
 5349SOL     OW27682   1.273   4.382   3.133  0.1473 -0.3518 -0.3932
 5349SOL    HW127683   1.295   4.345   3.047  0.6821  1.7046 -1.1376
 5349SOL    HW227684   1.180   4.400   3.120 -0.2473 -1.1366  1.2442
 5350SOL     OW27685   3.658   1.696   9.775 -0.0057  0.3733  0.5611
 5350SOL    HW127686   3.721   1.651   9.720 -1.1187 -0.6836  0.1435
 5350SOL    HW227687   3.628   1.756   9.707  2.8215  0.0488 -0.9645
 5351SOL     OW27688   2.398   1.802   2.439  0.2325 -0.0802  0.0588
 5351SOL    HW127689   2.361   1.723   2.399  0.9441 -0.5111  0.2527
 5351SOL    HW227690   2.477   1.813   2.386 -0.6311  0.4628 -1.1085
 5352SOL     OW27691   2.157   4.218   1.992  0.6630 -0.4553  1.0211
 5352SOL    HW127692   2.095   4.263   1.934 -0.1251 -1.5788  0.9818
 5352SOL    HW227693   2.236   4.272   1.984  0.2040 -0.1572 -1.4984
 5353SOL     OW27694   2.945   2.716   0.894  0.2382 -0.4979 -0.1005
 5353SOL    HW127695   2.919   2.713   0.802 -2.1929 -0.5257  0.5891
 5353SOL    HW227696   2.919   2.807   0.912  0.3669  0.0556 -2.7505
 5354SOL     OW27697   1.950   3.357  16.882 -0.0481 -0.0780 -0.2496
 5354SOL    HW127698   1.873   3.375  16.828 -0.6805 -1.6660  0.1402
 5354SOL    HW227699   2.015   3.345  16.813 -1.1394 -1.3738 -1.0280
 5355SOL     OW27700   0.266   3.760   2.503  0.4677 -0.1711 -0.1615
 5355SOL    HW127701   0.341   3.730   2.452  0.0627 -2.3566  0.5423
 5355SOL    HW227702   0.201   3.788   2.439  1.1221  0.3492 -0.6006
 5356SOL     OW27703   1.564   1.462   4.960 -0.0292 -0.0294  0.4174
 5356SOL    HW127704   1.493   1.520   4.932  1.4332  0.5095 -2.2193
 5356SOL    HW227705   1.540   1.443   5.051 -2.7965 -1.9199 -0.7120
 5357SOL     OW27706   3.689   0.956   6.353  0.0481  0.2032  0.2324
 5357SOL    HW127707   3.628   0.997   6.291 -1.2519 -1.6932  0.2523
 5357SOL    HW227708   3.762   1.016   6.369  0.7619 -0.9109  1.1140
 5358SOL     OW27709   2.538   1.706  11.887  0.0722 -0.1827  0.2373
 5358SOL    HW127710   2.594   1.671  11.818 -0.0979 -0.9822  0.5028
 5358SOL    HW227711   2.559   1.646  11.959  3.2557  0.6078 -0.0550
 5359SOL     OW27712   0.515   2.495  17.066 -0.2537 -0.6003  0.1207
 5359SOL    HW127713   0.527   2.584  17.099  4.0611 -1.2515  0.2520
 5359SOL    HW227714   0.604   2.463  17.055  0.8040  1.2790  3.2835
 5360SOL     OW27715   3.971   0.866   0.624 -0.2354 -0.1769  0.1431
 5360SOL    HW127716   4.019   0.895   0.702  1.4835 -2.1577 -0.2127
 5360SOL    HW227717   3.886   0.865   0.669  0.9280 -0.4842  2.2910
 5361SOL     OW27718   4.472   3.470   7.536  0.0254 -1.2349 -0.2149
 5361SOL    HW127719   4.473   3.426   7.451 -0.2971  2.3505 -2.0620
 5361SOL    HW227720   4.564   3.463   7.562  0.8247  2.0643 -2.1350
 5362SOL     OW27721   1.561   3.164   3.118  0.3176  0.3248  0.0894
 5362SOL    HW127722   1.621   3.154   3.044  1.8623 -0.3345  1.4019
 5362SOL    HW227723   1.476   3.167   3.076 -0.6898 -0.7228  2.0325
 5363SOL     OW27724   1.925   3.355  12.872  0.3569 -0.5863 -0.2319
 5363SOL    HW127725   1.924   3.448  12.849  0.1890 -0.7911 -1.0716
 5363SOL    HW227726   1.978   3.356  12.952  3.7492  2.0208 -2.5246
 5364SOL     OW27727   0.602   4.300   1.809 -0.0005  0.0518  0.0094
 5364SOL    HW127728   0.620   4.377   1.756 -2.3595  1.4708  1.3010
 5364SOL    HW227729   0.506   4.302   1.807 -0.0727 -2.0756  1.9237
 5365SOL     OW27730   3.261   1.669  15.307  0.3349 -0.2422 -0.1300
 5365SOL    HW127731   3.339   1.617  15.325  0.1740 -1.0030 -1.6171
 5365SOL    HW227732   3.187   1.612  15.329  0.6825 -0.1495  1.2243
 5366SOL     OW27733   3.631   4.059   2.044  0.2771 -0.1373  0.3033
 5366SOL    HW127734   3.653   4.075   2.136 -0.8400  0.5551  0.4512
 5366SOL    HW227735   3.669   3.971   2.048 -2.3211 -1.2115  1.3904
 5367SOL     OW27736   1.592   0.756   1.691  0.7117 -0.7574  0.0544
 5367SOL    HW127737   1.610   0.675   1.642 -2.0589 -1.1870 -0.2516
 5367SOL    HW227738   1.513   0.739   1.743 -0.2847  2.8568 -0.2864
 5368SOL     OW27739   1.289   3.518   9.845  0.0075 -0.0219 -0.0193
 5368SOL    HW127740   1.382   3.530   9.866 -0.9696  3.2968  2.3596
 5368SOL    HW227741   1.310   3.499   9.753 -0.3444 -1.6163  0.2289
 5369SOL     OW27742   2.900   0.667  12.449  0.1297  0.0798  0.2224
 5369SOL    HW127743   2.927   0.578  12.424  1.1497 -0.1089  1.9105
 5369SOL    HW227744   2.869   0.703  12.367 -1.0566 -1.1094  0.1487
 5370SOL     OW27745   3.807   0.723   9.730 -0.0911 -1.0777 -0.2187
 5370SOL    HW127746   3.868   0.729   9.803 -0.3371  2.2438 -0.2792
 5370SOL    HW227747   3.765   0.640   9.753 -0.5551 -1.5206 -2.6270
 5371SOL     OW27748   3.070   0.575   8.504  0.1578 -0.3375  0.1074
 5371SOL    HW127749   2.981   0.561   8.471  1.1932 -0.5702 -2.5951
 5371SOL    HW227750   3.095   0.494   8.548 -1.5915 -1.5340 -1.0698
 5372SOL     OW27751   1.776   2.675  11.837 -0.4501 -0.7663  0.0861
 5372SOL    HW127752   1.829   2.631  11.904 -0.3856  0.6528  0.9477
 5372SOL    HW227753   1.721   2.600  11.813 -1.5523  0.7272 -1.9924
 5373SOL     OW27754   0.383   2.103   0.333 -0.2071 -0.3819 -0.1651
 5373SOL    HW127755   0.356   2.090   0.242 -1.4455  1.3082 -0.0295
 5373SOL    HW227756   0.430   2.184   0.313  2.3708 -1.5352  1.2408
 5374SOL     OW27757   0.526   0.194   4.915  0.1079  0.9519  0.0795
 5374SOL    HW127758   0.605   0.204   4.967 -0.0385  0.5132  0.3901
 5374SOL    HW227759   0.556   0.178   4.825  2.3291 -0.5379  1.0897
 5375SOL     OW27760   0.570   3.576   9.142  0.0539  0.1757 -0.1588
 5375SOL    HW127761   0.550   3.637   9.212  0.4116  1.0456 -0.8076
 5375SOL    HW227762   0.511   3.502   9.155 -1.0679  0.9953 -0.5706
 5376SOL     OW27763   2.417   1.522   3.324 -0.6226 -0.5072 -0.6150
 5376SOL    HW127764   2.369   1.475   3.392  1.7753 -2.0998 -0.0369
 5376SOL    HW227765   2.384   1.612   3.317  1.2851  0.2722  0.3849
 5377SOL     OW27766   3.370   2.657   8.437 -0.1261  0.1961  0.5469
 5377SOL    HW127767   3.430   2.698   8.373  2.9717 -4.4755  0.4835
 5377SOL    HW227768   3.343   2.577   8.392 -1.3927  0.0359  1.5965
 5378SOL     OW27769   1.981   2.656  12.700 -0.5751 -0.7774  0.0647
 5378SOL    HW127770   2.050   2.602  12.661  2.2305  0.8841  2.7928
 5378SOL    HW227771   1.926   2.592  12.747 -0.9821 -0.6760 -0.2707
 5379SOL     OW27772   0.283   4.579   6.522 -0.2108 -0.1347 -0.1142
 5379SOL    HW127773   0.301   4.669   6.547  0.1058 -0.8615  2.2005
 5379SOL    HW227774   0.188   4.583   6.508 -0.3013 -0.3927  0.4522
 5380SOL     OW27775   0.176   1.392   7.730 -0.6094  0.1600 -0.0051
 5380SOL    HW127776   0.103   1.449   7.707 -1.1989 -1.0859 -1.2174
 5380SOL    HW227777   0.175   1.407   7.825  2.8164 -1.0686  0.2163
 5381SOL     OW27778   2.210   3.146  13.344 -0.4341  0.2575  1.1059
 5381SOL    HW127779   2.206   3.053  13.367 -1.5262  0.2286  0.7936
 5381SOL    HW227780   2.297   3.159  13.305 -0.6311 -1.5658  0.0908
 5382SOL     OW27781   4.074   2.002   1.506  0.2840 -0.2324 -0.3119
 5382SOL    HW127782   4.115   2.087   1.520 -1.6874  0.5892  0.3947
 5382SOL    HW227783   4.091   1.951   1.585  0.4394 -0.5700 -0.5641
 5383SOL     OW27784   2.213   2.966   4.580  0.2528 -0.3032 -0.4186
 5383SOL    HW127785   2.133   3.020   4.581 -0.7894 -1.8859  0.1968
 5383SOL    HW227786   2.255   3.001   4.501  2.0597 -1.8066 -0.1204
 5384SOL     OW27787   0.585   2.061   1.451  0.0548 -0.4112  0.0036
 5384SOL    HW127788   0.668   2.104   1.475 -0.8014  1.8254 -1.0287
 5384SOL    HW227789   0.524   2.134   1.443 -1.3602 -1.5755  0.3905
 5385SOL     OW27790   3.359   4.697   7.976  0.2857  0.1376 -0.1187
 5385SOL    HW127791   3.293   0.017   7.937 -0.6151 -0.0019  1.1911
 5385SOL    HW227792   3.394   4.655   7.897  1.4964  0.7301  0.0991
 5386SOL     OW27793   4.520   2.546   2.566  0.0427  0.1765 -0.0719
 5386SOL    HW127794   4.568   2.466   2.543 -1.7870 -1.4452  1.8215
 5386SOL    HW227795   4.497   2.511   2.652  2.3929 -2.2395 -0.4123
 5387SOL     OW27796   4.526   1.309   4.573 -0.1760  0.2102  0.0381
 5387SOL    HW127797   4.494   1.230   4.615  0.1557  0.0393 -0.0336
 5387SOL    HW227798   4.450   1.339   4.523 -2.2158 -2.2684  1.6613
 5388SOL     OW27799   3.462   2.455   9.554 -0.1693  0.4073 -0.0734
 5388SOL    HW127800   3.515   2.473   9.477 -0.2912  0.0526 -0.2425
 5388SOL    HW227801   3.376   2.440   9.516  0.9778 -0.6551 -2.2519
 5389SOL     OW27802   1.862   0.330   4.961  0.0597 -0.7294 -0.0327
 5389SOL    HW127803   1.817   0.361   4.882  2.7433 -0.5846 -1.4967
 5389SOL    HW227804   1.940   0.290   4.922 -2.0483 -2.4034 -2.5103
 5390SOL     OW27805   2.656   2.436  11.350 -0.5815 -0.0451 -0.0214
 5390SOL    HW127806   2.654   2.418  11.256 -1.3840  0.3639 -0.0795
 5390SOL    HW227807   2.742   2.475  11.370 -0.5429 -0.3941  0.4804
 5391SOL     OW27808   2.491   1.920  14.243  0.3541 -0.2659  0.4545
 5391SOL    HW127809   2.474   1.883  14.330  0.1977  0.9934  0.9608
 5391SOL    HW227810   2.412   1.897  14.195 -0.7237  0.1371  2.0216
 5392SOL     OW27811   4.159   0.879   2.641 -0.1377  0.1041  0.8302
 5392SOL    HW127812   4.134   0.849   2.729  1.8693  0.4218  1.5154
 5392SOL    HW227813   4.156   0.974   2.649 -0.3448  0.2861 -1.6746
 5393SOL     OW27814   4.295   3.014  15.833  0.3774 -0.3052 -0.3065
 5393SOL    HW127815   4.367   3.073  15.811  0.9982 -0.9907 -0.1133
 5393SOL    HW227816   4.224   3.076  15.850  0.2115 -1.0960  1.9456
 5394SOL     OW27817   3.018   3.293   1.236  0.3758  0.0608 -0.2315
 5394SOL    HW127818   3.053   3.206   1.254  2.9767  1.0394 -0.5646
 5394SOL    HW227819   3.058   3.308   1.151 -1.5558  0.3902 -1.0746
 5395SOL     OW27820   3.150   4.686   6.867 -0.9693  0.4382  0.0840
 5395SOL    HW127821   3.187   4.736   6.939  0.6978  0.3449 -0.7201
 5395SOL    HW227822   3.233   4.649   6.838 -0.5551  0.8059  0.8304
 5396SOL     OW27823   1.716   0.729   9.905  0.5867 -0.0858  0.4791
 5396SOL    HW127824   1.796   0.683   9.879  0.2156  0.8287 -2.2235
 5396SOL    HW227825   1.736   0.822   9.902 -0.4299  0.1390  0.6772
 5397SOL     OW27826   2.658   4.023   8.647 -0.1041  0.2193  0.2700
 5397SOL    HW127827   2.651   3.999   8.739 -1.4939 -0.1494  0.0655
 5397SOL    HW227828   2.738   3.972   8.630 -0.0573  0.6944 -0.9431
 5398SOL     OW27829   2.375   2.491   4.605 -0.5684 -0.7106 -0.5259
 5398SOL    HW127830   2.328   2.437   4.541 -0.1229  0.6592 -1.9939
 5398SOL    HW227831   2.436   2.428   4.642 -0.4489 -0.8133 -0.8933
 5399SOL     OW27832   1.616   2.077  14.629 -0.3944  0.2552  0.5074
 5399SOL    HW127833   1.654   2.059  14.543 -0.6292 -0.1465  0.4857
 5399SOL    HW227834   1.523   2.055  14.625  0.2066 -1.6769 -2.6231
 5400SOL     OW27835   4.009   0.778   4.861 -0.3221 -0.0200 -0.4939
 5400SOL    HW127836   4.035   0.750   4.949  0.8507 -1.1732 -1.2095
 5400SOL    HW227837   4.044   0.709   4.805  1.7281  1.5442 -1.1541
 5401SOL     OW27838   1.941   0.156   2.653  1.0298 -0.2895  0.1070
 5401SOL    HW127839   1.955   0.174   2.560 -0.4357  3.8525  0.6753
 5401SOL    HW227840   1.848   0.178   2.662  1.1071  0.0916 -0.0498
 5402SOL     OW27841   1.876   2.485   0.889 -0.5381  0.3173 -0.1478
 5402SOL    HW127842   1.799   2.515   0.841 -1.2268 -1.1776  0.0218
 5402SOL    HW227843   1.839   2.445   0.968  1.4758  0.1278  0.7224
 5403SOL     OW27844   2.540   3.641   0.064 -0.3241  0.5628 -0.3634
 5403SOL    HW127845   2.570   3.646  17.718  0.5212 -1.9152 -0.2082
 5403SOL    HW227846   2.533   3.736   0.075  0.0398  0.6420 -0.7722
 5404SOL     OW27847   0.953   0.382  11.955 -0.2133  0.3015  0.1051
 5404SOL    HW127848   0.972   0.430  12.035  0.3057  2.3165 -1.2333
 5404SOL    HW227849   1.002   0.427  11.886  2.0010 -0.7620  0.9864
 5405SOL     OW27850   1.702   0.518   9.004  0.3450 -0.2122 -0.4657
 5405SOL    HW127851   1.719   0.608   9.033 -0.6841  0.1995 -1.1546
 5405SOL    HW227852   1.783   0.471   9.027  0.5238  0.5968  0.5492
 5406SOL     OW27853   4.601   1.561   0.449 -0.5205 -0.4173  0.2029
 5406SOL    HW127854   4.593   1.635   0.389  0.5362  0.7390  1.4911
 5406SOL    HW227855   4.660   1.501   0.403 -0.2032 -1.2339  1.6489
 5407SOL     OW27856   3.420   2.003   6.320 -0.1195  0.0315 -0.2593
 5407SOL    HW127857   3.497   2.009   6.377  0.0370  1.4290 -0.6314
 5407SOL    HW227858   3.373   2.086   6.320  0.9186  0.6269 -0.8850
 5408SOL     OW27859   2.041   1.109   0.373 -0.2966  0.1507  0.0484
 5408SOL    HW127860   2.121   1.062   0.398 -0.3286  0.3357  0.4861
 5408SOL    HW227861   2.073   1.199   0.374  0.4076 -0.1051  0.8313
 5409SOL     OW27862   3.013   4.369  10.702 -0.3031 -0.5078  0.1212
 5409SOL    HW127863   2.924   4.375  10.667 -0.4893  0.1881  0.7158
 5409SOL    HW227864   3.009   4.324  10.786 -1.3426  0.3278  0.5186
 5410SOL     OW27865   0.352   4.266   4.502 -0.2698  1.0267 -0.4113
 5410SOL    HW127866   0.274   4.279   4.448 -0.5769  2.3735  0.3475
 5410SOL    HW227867   0.380   4.181   4.468 -1.1215 -0.0928  1.6436
 5411SOL     OW27868   3.605   0.309  11.385  0.1179  0.3369  0.7699
 5411SOL    HW127869   3.645   0.331  11.469  2.0923 -1.7615  0.4085
 5411SOL    HW227870   3.549   0.386  11.377  0.2595  0.2449 -1.2041
 5412SOL     OW27871   3.956   0.425   7.502 -0.0409  0.5647  0.1901
 5412SOL    HW127872   4.033   0.413   7.447 -0.5130  1.4960 -0.6781
 5412SOL    HW227873   4.000   0.423   7.586 -1.8817 -1.7446  1.1156
 5413SOL     OW27874   4.207   1.204   1.978  0.4907  0.0958  0.0740
 5413SOL    HW127875   4.252   1.120   1.976 -0.3363 -0.4352  3.8613
 5413SOL    HW227876   4.191   1.215   1.884 -0.4139  1.3478  0.3692
 5414SOL     OW27877   0.932   3.492   7.630 -0.4257 -0.2309  0.1746
 5414SOL    HW127878   0.886   3.421   7.676  1.6756 -0.3764  2.0859
 5414SOL    HW227879   0.991   3.518   7.701 -0.6944 -0.4592  0.4807
 5415SOL     OW27880   2.559   0.529   4.740 -0.3711  0.1325  0.3533
 5415SOL    HW127881   2.587   0.556   4.827  1.0577 -0.4967  0.0979
 5415SOL    HW227882   2.590   0.438   4.735  0.8641  0.4119  2.7689
 5416SOL     OW27883   0.871   1.709  13.027  0.2081  0.3412 -0.4282
 5416SOL    HW127884   0.793   1.752  12.993  1.5026  0.8185 -2.8494
 5416SOL    HW227885   0.858   1.681  13.117  1.6898 -1.1845 -0.6852
 5417SOL     OW27886   2.652   2.652  13.325 -0.5242 -0.4903  0.0878
 5417SOL    HW127887   2.627   2.733  13.368  2.3772  1.0513 -1.1456
 5417SOL    HW227888   2.735   2.669  13.281  0.9988 -2.6717  2.1153
 5418SOL     OW27889   3.997   0.148   7.085  0.1949 -0.7207 -0.2196
 5418SOL    HW127890   3.927   0.168   7.023  2.1168 -4.0141 -3.4769
 5418SOL    HW227891   3.959   0.072   7.130 -1.7109  1.2007  1.3794
 5419SOL     OW27892   1.354   1.111   6.202  0.1404  0.1648 -0.4260
 5419SOL    HW127893   1.372   1.030   6.154 -0.1277 -0.1048 -0.0734
 5419SOL    HW227894   1.378   1.090   6.292  0.5713  0.3540 -0.4959
 5420SOL     OW27895   2.114   1.747  14.298  0.3676 -0.1033  0.0375
 5420SOL    HW127896   2.100   1.653  14.285  1.7654 -0.1082 -1.4285
 5420SOL    HW227897   2.208   1.749  14.313  0.3817  1.6256 -0.3381
 5421SOL     OW27898   1.615   0.536   3.689  0.2076  0.2542 -0.1061
 5421SOL    HW127899   1.555   0.463   3.678  0.1089 -0.0839  2.8486
 5421SOL    HW227900   1.618   0.545   3.784 -2.0000  0.9922 -0.1207
 5422SOL     OW27901   4.571   2.574  13.904  0.5797 -0.1538 -0.0490
 5422SOL    HW127902   4.498   2.515  13.922  0.3031 -0.2404 -1.4825
 5422SOL    HW227903   4.527   2.633  13.843  1.4420  1.0133  0.4530
 5423SOL     OW27904   3.989   0.625   9.510 -0.0915  0.2762  0.3723
 5423SOL    HW127905   3.927   0.658   9.575  2.3096  2.7558  1.3976
 5423SOL    HW227906   4.070   0.648   9.556  0.5107 -0.2694 -0.4075
 5424SOL     OW27907   1.831   3.896  16.723 -0.3230 -0.1990 -0.1939
 5424SOL    HW127908   1.864   3.868  16.638  0.2136 -0.1454 -0.0039
 5424SOL    HW227909   1.911   3.942  16.749  0.7801 -2.1261 -0.1789
 5425SOL     OW27910   1.300   0.393   2.320  0.0052  0.3907  0.7729
 5425SOL    HW127911   1.335   0.315   2.277 -2.3260 -0.4827  0.4904
 5425SOL    HW227912   1.339   0.460   2.263 -1.2210  2.2241  2.0704
 5426SOL     OW27913   3.758   0.389   8.800 -0.8705 -0.3817 -0.3047
 5426SOL    HW127914   3.841   0.355   8.832  0.7185  1.2090 -2.7491
 5426SOL    HW227915   3.727   0.464   8.852  1.0041  0.7533 -0.8163
 5427SOL     OW27916   1.299   1.921  14.159 -0.0592 -0.2283 -0.0245
 5427SOL    HW127917   1.332   1.902  14.247  0.2705 -0.7732 -0.2722
 5427SOL    HW227918   1.242   1.846  14.141  0.4719 -0.9352  1.2675
 5428SOL     OW27919   4.231   1.985   5.278  0.1544  0.0221  0.1615
 5428SOL    HW127920   4.285   2.045   5.227 -1.2601  0.7109 -0.5300
 5428SOL    HW227921   4.195   2.047   5.342  1.6214  2.3805 -1.3330
 5429SOL     OW27922   1.019   0.295   7.687  0.5225  0.0476  0.0916
 5429SOL    HW127923   0.975   0.210   7.681  1.6737 -0.6150  1.2833
 5429SOL    HW227924   0.968   0.338   7.755 -0.1755  0.1684 -0.4984
 5430SOL     OW27925   4.373   2.595   6.707  0.0068  0.2962  0.4755
 5430SOL    HW127926   4.385   2.553   6.622 -1.4895 -1.1910  1.0048
 5430SOL    HW227927   4.278   2.587   6.716 -0.0337  1.0164  0.7531
 5431SOL     OW27928   1.612   2.462   8.784 -0.2215  0.5412  0.0263
 5431SOL    HW127929   1.610   2.455   8.879  3.4021 -0.9797  0.0151
 5431SOL    HW227930   1.523   2.432   8.766  0.7626 -3.5171  1.9325
 5432SOL     OW27931   0.997   2.513  12.846 -0.0927 -0.5782 -0.2935
 5432SOL    HW127932   0.973   2.512  12.753 -1.3066  1.2626 -0.0144
 5432SOL    HW227933   0.912   2.540  12.882 -0.8688 -1.2490 -1.6053
 5433SOL     OW27934   4.116   0.711   5.127 -0.8920  0.2658  0.3346
 5433SOL    HW127935   4.073   0.780   5.176  0.4862  1.8117 -0.6490
 5433SOL    HW227936   4.054   0.639   5.139  0.8947 -1.0177  1.8108
 5434SOL     OW27937   4.362   3.682  10.911  0.1518  0.0474  0.1651
 5434SOL    HW127938   4.449   3.663  10.946 -0.0794 -2.0993 -0.4302
 5434SOL    HW227939   4.299   3.667  10.982 -0.2321 -0.5049 -0.2916
 5435SOL     OW27940   2.341   4.291   3.508  0.5014 -0.5546  0.1743
 5435SOL    HW127941   2.275   4.358   3.487 -0.6027 -1.5989  0.3096
 5435SOL    HW227942   2.385   4.291   3.424  0.0546  0.4030 -0.0690
 5436SOL     OW27943   3.365   3.560  13.765  0.2229 -0.0731  0.3574
 5436SOL    HW127944   3.460   3.568  13.775  0.3607 -0.1237 -0.9717
 5436SOL    HW227945   3.344   3.505  13.841 -1.0547 -0.1329 -0.0308
 5437SOL     OW27946   1.259   1.608   8.323 -0.1368 -0.0824  0.5328
 5437SOL    HW127947   1.171   1.613   8.362 -0.1965  1.3084  0.1909
 5437SOL    HW227948   1.309   1.599   8.404 -1.9656 -1.6023  1.4931
 5438SOL     OW27949   1.834   1.047   2.652 -0.0318 -0.4880 -0.1246
 5438SOL    HW127950   1.779   0.971   2.637  0.7907 -1.0905 -0.0835
 5438SOL    HW227951   1.918   1.005   2.633  1.0473  1.9770 -0.9159
 5439SOL     OW27952   0.844   0.751   5.153 -0.2760 -0.1369  0.0035
 5439SOL    HW127953   0.823   0.822   5.092  1.3144 -1.1014 -1.6627
 5439SOL    HW227954   0.886   0.820   5.205  0.5532 -2.0333  1.8263
 5440SOL     OW27955   2.440   3.538  12.882 -0.7860 -0.1565 -0.9315
 5440SOL    HW127956   2.426   3.631  12.902 -0.4374 -0.2531 -0.2589
 5440SOL    HW227957   2.390   3.497  12.952 -0.6457 -0.9138 -1.2701
 5441SOL     OW27958   4.079   0.181   0.750  0.2827  0.8239 -0.5332
 5441SOL    HW127959   4.045   0.238   0.682 -0.8658  1.8698  0.9155
 5441SOL    HW227960   4.116   0.123   0.683  1.0677  0.9486 -0.2055
 5442SOL     OW27961   4.622   0.721   0.410  0.3460  0.2688 -0.5212
 5442SOL    HW127962   4.695   0.734   0.470 -0.5919  0.7808  0.5196
 5442SOL    HW227963   4.558   0.669   0.459  2.5189 -1.4630  0.4637
 5443SOL     OW27964   3.765   2.043   8.692  0.2027  0.2587 -0.0313
 5443SOL    HW127965   3.802   1.970   8.742 -0.2150  0.1278  0.0802
 5443SOL    HW227966   3.723   2.093   8.762  0.9438 -0.5055  0.9509
 5444SOL     OW27967   2.272   1.789   3.773 -0.6157 -0.4594 -0.1294
 5444SOL    HW127968   2.304   1.877   3.793 -0.7011 -0.9783  2.2800
 5444SOL    HW227969   2.249   1.746   3.855 -0.6721  0.3141  0.2652
 5445SOL     OW27970   2.753   2.875   7.813 -0.7392 -0.4941  0.2817
 5445SOL    HW127971   2.767   2.928   7.735 -1.5458  0.3714  0.7359
 5445SOL    HW227972   2.767   2.791   7.768 -0.3096 -0.3010  0.0548
 5446SOL     OW27973   3.291   2.483   3.328  0.0015 -0.1130  0.1292
 5446SOL    HW127974   3.348   2.554   3.300 -1.3849  0.5896 -0.9373
 5446SOL    HW227975   3.208   2.495   3.282  0.7283 -4.3542 -2.3069
 5447SOL     OW27976   2.729   4.506   6.417 -0.2851  0.1815  0.3749
 5447SOL    HW127977   2.681   4.434   6.460 -0.1655  0.1669  0.4841
 5447SOL    HW227978   2.670   4.580   6.432  1.2236  1.1779  1.3551
 5448SOL     OW27979   2.875   3.104   0.059 -0.7446  0.0747  0.8796
 5448SOL    HW127980   2.890   3.196   0.079 -0.1424  0.7778 -2.7867
 5448SOL    HW227981   2.780   3.106   0.075 -1.4324  1.0381 -3.1246
 5449SOL     OW27982   4.676   0.284   6.112  0.2706 -0.3385 -0.2030
 5449SOL    HW127983   4.637   0.332   6.185 -0.1514  2.6662 -2.3831
 5449SOL    HW227984   0.031   0.292   6.138  0.5068 -0.1930 -1.0847
 5450SOL     OW27985   1.844   1.892  16.378  0.0047  0.3822 -0.0731
 5450SOL    HW127986   1.908   1.822  16.396  0.5568  0.5197 -1.5063
 5450SOL    HW227987   1.791   1.849  16.311  1.5776 -1.0794 -0.3974
 5451SOL     OW27988   2.612   3.978   2.698 -0.2936  0.0251 -0.4144
 5451SOL    HW127989   2.647   3.894   2.727  1.9518  1.0091 -0.2891
 5451SOL    HW227990   2.685   4.036   2.720 -1.3100  0.2407  2.4971
 5452SOL     OW27991   1.726   0.203   0.336 -0.0407  0.1975 -0.4364
 5452SOL    HW127992   1.659   0.208   0.268  0.1284  1.4839 -0.5159
 5452SOL    HW227993   1.680   0.166   0.412  0.7506 -2.0673 -1.0674
 5453SOL     OW27994   3.419   3.337   7.166  0.1764  0.7696 -0.3713
 5453SOL    HW127995   3.405   3.408   7.103  0.6542  0.9802 -0.2424
 5453SOL    HW227996   3.510   3.356   7.190  0.6051 -1.7014 -0.0169
 5454SOL     OW27997   1.185   4.140   6.963  0.0002  0.3362 -0.1240
 5454SOL    HW127998   1.199   4.102   7.049  2.7452  0.5549 -0.4741
 5454SOL    HW227999   1.172   4.233   6.983 -3.3931 -0.1376 -0.1340
 5455SOL     OW28000   0.708   1.133   4.687 -0.2020 -0.0415 -0.3262
 5455SOL    HW128001   0.724   1.067   4.619  0.1019 -2.6083  2.2582
 5455SOL    HW228002   0.703   1.219   4.644  0.9094 -0.7019 -1.7773
 5456SOL     OW28003   3.352   3.568  11.772 -0.2231  0.3641  0.1865
 5456SOL    HW128004   3.294   3.642  11.793  1.7048  1.4218  1.7782
 5456SOL    HW228005   3.293   3.492  11.775  0.4692 -0.2165 -1.1942
 5457SOL     OW28006   4.252   4.142  17.503 -0.2913 -0.3481 -0.4259
 5457SOL    HW128007   4.264   4.236  17.497  2.7756 -0.5597  2.1016
 5457SOL    HW228008   4.231   4.129  17.411  0.4989  3.2286 -1.0955
 5458SOL     OW28009   1.095   0.951   5.072  0.0721  0.1809  0.2982
 5458SOL    HW128010   1.113   0.918   4.983  1.3124  1.9571 -0.1169
 5458SOL    HW228011   1.029   1.014   5.046  0.8224  1.5076  1.6039
 5459SOL     OW28012   0.982   0.619   4.767  0.4753 -0.1526 -0.9712
 5459SOL    HW128013   0.938   0.534   4.767 -0.5061  0.3438 -1.3568
 5459SOL    HW228014   1.029   0.612   4.850 -0.4608 -1.7922 -0.5795
 5460SOL     OW28015   2.623   0.386   0.099  0.2943 -0.5426 -0.1127
 5460SOL    HW128016   2.558   0.334   0.147  1.2666  2.6795  4.7289
 5460SOL    HW228017   2.703   0.350   0.137  2.4036  3.3274 -0.9460
 5461SOL     OW28018   2.314   2.440   2.052 -0.2824 -0.1954 -0.2302
 5461SOL    HW128019   2.227   2.471   2.076 -0.5310 -2.9717  2.4912
 5461SOL    HW228020   2.362   2.522   2.064  0.7363 -1.0452  1.4097
 5462SOL     OW28021   3.398   2.796   9.403  0.1065 -0.1318  0.3674
 5462SOL    HW128022   3.484   2.778   9.364 -0.2532  0.5227 -0.7185
 5462SOL    HW228023   3.340   2.775   9.330 -0.2832  1.4355  0.2219
 5463SOL     OW28024   0.228   1.036   5.003 -0.0772  0.0436 -0.0573
 5463SOL    HW128025   0.318   1.007   5.018  0.1980  0.9519  0.0647
 5463SOL    HW228026   0.225   1.041   4.907 -3.5668 -1.4682 -0.0339
 5464SOL     OW28027   3.314   4.327   7.524 -0.1936  0.3610 -0.1041
 5464SOL    HW128028   3.410   4.322   7.529 -0.2424  0.6375  1.0199
 5464SOL    HW228029   3.306   4.338   7.429 -2.5084  0.6832  0.1331
 5465SOL     OW28030   3.904   2.793   2.264  0.0980 -0.1293 -0.5757
 5465SOL    HW128031   3.943   2.712   2.233 -1.9384 -1.2688 -0.1532
 5465SOL    HW228032   3.851   2.770   2.340  1.2307 -0.3838  0.1399
 5466SOL     OW28033   4.035   3.961   2.538  0.6821 -0.1143  0.4133
 5466SOL    HW128034   4.043   3.950   2.443 -1.8400  0.4448  0.1387
 5466SOL    HW228035   3.980   4.038   2.553  1.9865  1.0760 -0.9624
 5467SOL     OW28036   1.854   4.486  12.008 -0.0250  0.2102 -0.4088
 5467SOL    HW128037   1.797   4.499  11.932 -0.8824 -1.7018 -0.1146
 5467SOL    HW228038   1.812   4.410  12.050  0.1444 -0.4497 -1.4292
 5468SOL     OW28039   3.995   4.304   4.523 -0.2555 -0.1011  0.4831
 5468SOL    HW128040   3.953   4.367   4.465 -0.2875 -1.2629 -0.7382
 5468SOL    HW228041   3.919   4.249   4.541 -0.6925  0.1622 -0.5577
 5469SOL     OW28042   0.664   1.523   2.898  0.0889 -0.1120 -0.0450
 5469SOL    HW128043   0.725   1.553   2.832  0.7707  1.9128  1.5109
 5469SOL    HW228044   0.575   1.551   2.876 -0.4023 -0.5739  1.2975
 5470SOL     OW28045   2.401   0.947   2.523 -0.1243  0.7515  0.3918
 5470SOL    HW128046   2.327   0.924   2.466 -0.6581  1.4563  0.7956
 5470SOL    HW228047   2.453   1.003   2.466 -1.4389  2.0670  0.4773
 5471SOL     OW28048   0.001   1.489   9.187  0.0485 -0.3820 -0.3396
 5471SOL    HW128049   4.722   1.448   9.272 -0.8704 -1.3028 -0.9416
 5471SOL    HW228050   4.669   1.555   9.182  0.0574 -0.3370  0.1425
 5472SOL     OW28051   1.372   3.981   8.204  0.0317  0.2260 -0.2596
 5472SOL    HW128052   1.325   4.060   8.178 -0.5687 -0.1496 -0.3265
 5472SOL    HW228053   1.316   3.945   8.273  0.7940  1.6085  1.0671
 5473SOL     OW28054   3.624   3.225  12.879  0.1329 -0.3192 -0.0062
 5473SOL    HW128055   3.708   3.180  12.888  1.4448  2.0165 -0.7653
 5473SOL    HW228056   3.655   3.312  12.903  1.2084 -1.1801  1.7983
 5474SOL     OW28057   4.094   2.100  16.094  0.4125  0.5390  0.1446
 5474SOL    HW128058   4.119   2.165  16.028  2.4094 -0.0630  0.2917
 5474SOL    HW228059   4.107   2.134  16.182 -0.6578  0.2485  0.4183
 5475SOL     OW28060   3.932   2.219   7.462 -0.0014  0.3816  0.4769
 5475SOL    HW128061   4.004   2.273   7.430  0.0603  0.1805  0.2763
 5475SOL    HW228062   3.869   2.246   7.396  0.1644 -1.4600 -0.4376
 5476SOL     OW28063   2.196   2.847   8.255 -0.2808  0.2272  0.6231
 5476SOL    HW128064   2.143   2.912   8.301 -0.2498  0.4088  0.4028
 5476SOL    HW228065   2.217   2.894   8.174 -3.1284 -0.7535 -0.6850
 5477SOL     OW28066   3.368   3.185   1.249  0.6927 -0.0814  0.3565
 5477SOL    HW128067   3.321   3.112   1.290 -2.1831  1.1303 -0.7974
 5477SOL    HW228068   3.441   3.194   1.311  1.5260  0.6959 -0.7211
 5478SOL     OW28069   0.689   2.101   2.203  0.7437 -0.0151 -0.2954
 5478SOL    HW128070   0.754   2.169   2.191 -1.7151  2.3224 -0.3806
 5478SOL    HW228071   0.674   2.103   2.298  1.3182 -4.5982 -0.1211
 5479SOL     OW28072   1.085   4.030   5.558  0.1694 -0.1496  0.5413
 5479SOL    HW128073   1.063   3.950   5.510 -2.3716  0.2902  0.9877
 5479SOL    HW228074   1.113   4.086   5.486 -0.2035  0.7417  1.0858
 5480SOL     OW28075   0.563   2.053   7.792  0.1896 -0.3694 -0.1829
 5480SOL    HW128076   0.612   2.133   7.774  2.0773 -1.4034  0.3874
 5480SOL    HW228077   0.581   2.045   7.886 -0.8168 -0.4170  0.0095
 5481SOL     OW28078   1.006   1.759   3.052 -0.6234 -0.2783 -0.5237
 5481SOL    HW128079   1.101   1.756   3.057 -0.7190 -2.1065 -0.0803
 5481SOL    HW228080   0.991   1.703   2.976  3.7996  1.5236 -2.7118
 5482SOL     OW28081   1.391   4.025  12.612 -0.2656 -0.0828 -0.0939
 5482SOL    HW128082   1.350   4.007  12.696 -0.3255 -0.3814 -0.1878
 5482SOL    HW228083   1.464   3.964  12.608  0.6046  1.0144 -1.2115
 5483SOL     OW28084   4.307   3.508  16.450 -0.0764 -0.1376 -0.0967
 5483SOL    HW128085   4.301   3.424  16.495  4.8878  0.7202  2.1608
 5483SOL    HW228086   4.376   3.487  16.387 -0.2740 -1.2948  0.0626
 5484SOL     OW28087   0.958   4.155   6.709  0.4855  0.2569 -0.7383
 5484SOL    HW128088   0.865   4.135   6.703  0.3638  0.9557 -1.2009
 5484SOL    HW228089   0.975   4.135   6.801 -1.5881  0.1056 -0.4000
 5485SOL     OW28090   4.512   2.312   2.224  0.3630  0.3014  0.3822
 5485SOL    HW128091   4.522   2.218   2.206  0.6695  0.3320  0.3881
 5485SOL    HW228092   4.582   2.323   2.288 -0.2835  3.1191  0.6206
 5486SOL     OW28093   0.163   1.549  12.690  0.0492 -0.1429 -0.1292
 5486SOL    HW128094   0.142   1.642  12.688 -0.9280 -0.3817 -0.6834
 5486SOL    HW228095   0.108   1.526  12.765  1.3188  2.0940  1.4944
 5487SOL     OW28096   4.163   2.595   8.909 -0.0774  0.4232  0.2770
 5487SOL    HW128097   4.220   2.519   8.897 -3.6601 -2.1534 -0.0604
 5487SOL    HW228098   4.215   2.643   8.974 -1.0956 -0.0225  1.4291
 5488SOL     OW28099   0.246   3.312   3.288 -0.6580  0.3110 -0.4125
 5488SOL    HW128100   0.263   3.261   3.209 -1.3822 -0.2287 -0.2135
 5488SOL    HW228101   0.269   3.400   3.258  2.9415  0.0802  1.6729
 5489SOL     OW28102   3.809   3.513   6.533 -0.1109 -0.0261 -0.2343
 5489SOL    HW128103   3.889   3.467   6.508  0.3739  1.4175 -1.3549
 5489SOL    HW228104   3.807   3.477   6.622  0.1192  1.3366  0.3305
 5490SOL     OW28105   2.392   1.769   8.654  0.5446 -0.5053 -0.0562
 5490SOL    HW128106   2.369   1.858   8.682 -1.2732 -0.3390 -2.0971
 5490SOL    HW228107   2.479   1.760   8.695  0.4181  3.0012  0.9968
 5491SOL     OW28108   1.511   1.198   3.944  0.3507 -0.1475 -0.1270
 5491SOL    HW128109   1.505   1.215   3.850 -0.8714  0.0337 -0.0191
 5491SOL    HW228110   1.601   1.218   3.969 -0.5305  1.1210  2.0128
 5492SOL     OW28111   0.332   2.228   9.950 -0.2354  0.6187 -0.2691
 5492SOL    HW128112   0.333   2.323   9.962 -3.0217  0.5178  0.6670
 5492SOL    HW228113   0.246   2.210   9.987 -0.7503  1.5853 -1.0005
 5493SOL     OW28114   0.111   1.169  11.052 -0.1310 -0.2793  0.4068
 5493SOL    HW128115   0.016   1.163  11.050 -0.2045  1.2355 -1.4401
 5493SOL    HW228116   0.140   1.119  10.976  1.5900 -3.0732  2.8995
 5494SOL     OW28117   2.860   0.272   2.058 -0.3689 -0.8507 -0.0978
 5494SOL    HW128118   2.887   0.268   2.150  0.5503 -0.4285 -0.3526
 5494SOL    HW228119   2.849   0.365   2.041  2.8397 -0.7925 -1.7592
 5495SOL     OW28120   2.981   2.202   7.856 -0.0671  0.2573  0.5726
 5495SOL    HW128121   2.971   2.178   7.948 -0.0241 -2.4522 -0.1523
 5495SOL    HW228122   3.053   2.265   7.862 -1.1911  1.4981  1.0578
 5496SOL     OW28123   0.468   0.955   5.063 -0.2220  0.0379 -0.4080
 5496SOL    HW128124   0.560   0.930   5.064 -0.3275 -0.2609  0.7615
 5496SOL    HW228125   0.449   0.979   5.153 -0.5150 -0.0020 -0.4567
 5497SOL     OW28126   2.617   1.626   5.029  0.0056 -0.4721 -0.2737
 5497SOL    HW128127   2.666   1.646   5.109  1.2686  2.8384 -1.8576
 5497SOL    HW228128   2.625   1.710   4.983  0.9346  0.3005  1.2962
 5498SOL     OW28129   1.362   1.318   9.781  0.3929 -0.5460 -0.2391
 5498SOL    HW128130   1.352   1.254   9.852  0.7124 -0.2478  0.0751
 5498SOL    HW228131   1.271   1.346   9.771  0.8602  1.1232  0.3093
 5499SOL     OW28132   4.583   1.832   2.325 -0.0070  0.5422  0.3738
 5499SOL    HW128133   4.623   1.763   2.272  1.0309 -1.0530  3.1972
 5499SOL    HW228134   4.556   1.777   2.399  0.4299  0.4146  0.4392
 5500SOL     OW28135   2.488   2.993   4.701 -0.6874 -0.1361  0.3892
 5500SOL    HW128136   2.544   2.999   4.624 -0.9869 -1.1710  0.0943
 5500SOL    HW228137   2.408   2.954   4.666 -0.2781 -0.4742 -0.1526
 5501SOL     OW28138   0.133   0.989  10.853  0.1617  0.0253  0.3724
 5501SOL    HW128139   0.174   0.965  10.770  2.3649  2.6483  0.6706
 5501SOL    HW228140   0.074   0.914  10.850 -0.7901  0.7844  0.0639
 5502SOL     OW28141   3.107   1.100  13.381 -0.4124  0.5699  0.2724
 5502SOL    HW128142   3.048   1.034  13.418  1.6831 -1.0750  0.6744
 5502SOL    HW228143   3.082   1.094  13.289  1.4889 -0.3548 -0.1696
 5503SOL     OW28144   1.636   3.213   4.941  0.0492 -0.1591 -0.2774
 5503SOL    HW128145   1.656   3.136   4.887 -0.8745  0.7744 -1.9546
 5503SOL    HW228146   1.605   3.273   4.873 -0.7427  2.2580  2.2320
 5504SOL     OW28147   1.775   2.588   9.102  0.1009  0.2303 -0.5561
 5504SOL    HW128148   1.681   2.579   9.085 -0.0452  0.5284  0.0728
 5504SOL    HW228149   1.772   2.677   9.138 -1.6693 -0.1818  0.2970
 5505SOL     OW28150   1.469   4.173   7.003  0.0732 -0.1200 -0.3568
 5505SOL    HW128151   1.422   4.194   7.085 -0.1835 -0.6139 -0.3754
 5505SOL    HW228152   1.397   4.136   6.952  0.5305  1.6232 -2.2595
 5506SOL     OW28153   3.917   1.558   1.586 -1.1488 -0.1857 -0.5153
 5506SOL    HW128154   4.004   1.580   1.553 -0.9214 -3.4074 -2.0784
 5506SOL    HW228155   3.919   1.567   1.681  1.3034 -1.3941 -0.4496
 5507SOL     OW28156   4.619   3.221   1.867  0.1263 -0.5043 -0.1821
 5507SOL    HW128157   4.654   3.188   1.784  1.5058 -3.5512  1.6196
 5507SOL    HW228158   4.533   3.180   1.874 -1.0209  1.6955 -1.4280
 5508SOL     OW28159   2.557   1.194   2.941  0.1185  0.6089 -0.4874
 5508SOL    HW128160   2.481   1.141   2.918 -0.6242  1.5492 -0.2078
 5508SOL    HW228161   2.515   1.280   2.951 -0.9942 -0.0053  0.0950
 5509SOL     OW28162   1.924   1.012   6.333  0.0392  0.6664  0.0884
 5509SOL    HW128163   1.927   1.072   6.259 -0.7532 -0.0773 -0.5570
 5509SOL    HW228164   2.001   1.043   6.379 -0.2194  2.6069 -0.7601
 5510SOL     OW28165   1.011   1.829   2.595  0.3622 -0.5208  0.2309
 5510SOL    HW128166   1.063   1.820   2.516  0.3123  0.2543  0.1036
 5510SOL    HW228167   1.005   1.923   2.615  0.4480 -0.3059 -0.8008
 5511SOL     OW28168   3.329   1.641   0.995  0.0749  0.0437  0.3699
 5511SOL    HW128169   3.263   1.573   0.982  0.4618  0.0804 -1.8305
 5511SOL    HW228170   3.335   1.688   0.911 -1.5828  1.3159  0.9698
 5512SOL     OW28171   2.620   2.186  17.024  0.4436 -0.1879  0.0017
 5512SOL    HW128172   2.636   2.226  16.939  0.9426 -0.9777 -0.2741
 5512SOL    HW228173   2.568   2.109  17.003 -1.6491  0.9291  1.0500
 5513SOL     OW28174   3.577   2.352   2.050  0.2425 -0.3608  0.1948
 5513SOL    HW128175   3.491   2.388   2.070  0.5320  0.3243  0.1933
 5513SOL    HW228176   3.596   2.284   2.115 -0.0621 -0.8029 -0.1805
 5514SOL     OW28177   1.006   3.700   6.300 -0.0550 -0.2175 -0.7048
 5514SOL    HW128178   1.015   3.641   6.375  0.8217 -0.8250 -1.2918
 5514SOL    HW228179   0.945   3.769   6.328 -0.5450 -1.4191  1.2092
 5515SOL     OW28180   3.052   4.507   3.864 -0.5715  0.2301  0.6320
 5515SOL    HW128181   2.959   4.492   3.845 -0.7350  2.4934 -0.4407
 5515SOL    HW228182   3.050   4.603   3.853  2.0455  0.0571 -1.2345
 5516SOL     OW28183   3.536   2.947   0.797  0.0328  0.2020 -0.0419
 5516SOL    HW128184   3.561   2.995   0.877 -0.6403 -0.1712  0.3891
 5516SOL    HW228185   3.541   3.015   0.730 -2.0436 -0.5500 -0.9488
 5517SOL     OW28186   1.397   2.182  13.545 -0.6961 -0.7671  0.1542
 5517SOL    HW128187   1.416   2.223  13.630 -0.8079  2.5247 -1.4252
 5517SOL    HW228188   1.472   2.125  13.531  0.1280  0.8005 -1.7029
 5518SOL     OW28189   2.787   3.329   4.020 -0.0247  0.5200  0.3984
 5518SOL    HW128190   2.838   3.268   4.072 -0.3495 -0.5342 -0.5194
 5518SOL    HW228191   2.784   3.407   4.076 -1.6308  0.1084  0.8978
 5519SOL     OW28192   1.812   3.208   8.877  0.3182  0.0649  0.6082
 5519SOL    HW128193   1.716   3.214   8.881  0.3016 -0.3124  0.7014
 5519SOL    HW228194   1.846   3.221   8.789 -1.6236  0.5563 -0.0788
 5520SOL     OW28195   3.245   3.827   6.703  0.1266  0.0285 -0.2930
 5520SOL    HW128196   3.217   3.844   6.613 -0.4481 -0.4422 -0.2011
 5520SOL    HW228197   3.306   3.753   6.697  0.1048  0.1299 -1.8525
 5521SOL     OW28198   4.610   3.787  13.406  0.3957 -0.3078  0.0946
 5521SOL    HW128199   4.700   3.764  13.432  0.2692 -2.6154 -1.5499
 5521SOL    HW228200   4.630   3.877  13.380 -1.5105 -0.1147 -0.6646
 5522SOL     OW28201   4.418   1.630  10.003  0.0416  0.5671  0.0204
 5522SOL    HW128202   4.367   1.691  10.055 -1.1178 -0.1863 -0.2328
 5522SOL    HW228203   4.445   1.564  10.067 -1.1595 -1.2052 -1.3012
 5523SOL     OW28204   1.819   2.434  16.210 -0.0216 -0.2482  0.1306
 5523SOL    HW128205   1.845   2.349  16.175 -1.1353 -0.3828 -0.3685
 5523SOL    HW228206   1.747   2.447  16.149 -1.6211 -0.3921  2.0102
 5524SOL     OW28207   0.507   3.609   4.246  0.4274  1.0674  0.1057
 5524SOL    HW128208   0.417   3.622   4.277  0.8111  1.4379  1.0405
 5524SOL    HW228209   0.489   3.570   4.160  0.6280  0.2150  0.4588
 5525SOL     OW28210   4.231   2.879   7.449  0.4749  0.1075  0.4517
 5525SOL    HW128211   4.158   2.936   7.473  0.0888 -0.8397  1.5348
 5525SOL    HW228212   4.288   2.947   7.413  2.0788 -0.8179  1.2542
 5526SOL     OW28213   0.856   3.634  16.959  1.0956  0.2630 -0.6143
 5526SOL    HW128214   0.903   3.583  17.025 -0.4571 -1.6032 -0.9595
 5526SOL    HW228215   0.866   3.724  16.988  0.6732  0.2136 -0.3289
 5527SOL     OW28216   0.813   3.860   0.977  0.4402  0.4531 -0.4584
 5527SOL    HW128217   0.893   3.914   0.980  0.5306  0.2760  0.2530
 5527SOL    HW228218   0.777   3.878   1.064 -1.4610 -2.0176 -0.7471
 5528SOL     OW28219   1.574   1.367   4.304 -0.1106  0.1194 -0.4389
 5528SOL    HW128220   1.626   1.382   4.383  1.3756 -1.2972 -1.1178
 5528SOL    HW228221   1.618   1.426   4.243 -0.3365  2.7076  1.9355
 5529SOL     OW28222   0.574   2.332   9.232 -0.9633  0.1988  0.4623
 5529SOL    HW128223   0.666   2.350   9.251 -0.7274 -2.4688  1.8311
 5529SOL    HW228224   0.567   2.245   9.192  1.7809  0.8078 -1.3269
 5530SOL     OW28225   2.346   3.694   3.905 -0.0027 -0.1846 -0.6208
 5530SOL    HW128226   2.438   3.682   3.925 -0.2142 -0.0265  0.4434
 5530SOL    HW228227   2.308   3.740   3.980 -0.4799 -2.6789  0.6745
 5531SOL     OW28228   2.871   2.594   6.019  0.3300 -0.4743 -0.1486
 5531SOL    HW128229   2.853   2.501   6.024  1.6881 -0.6287  1.8843
 5531SOL    HW228230   2.803   2.635   6.072  0.6855  0.6147 -0.5281
 5532SOL     OW28231   0.934   2.759   8.304 -0.2970  0.3167 -0.0569
 5532SOL    HW128232   1.026   2.777   8.285 -0.3401  0.9117  0.3226
 5532SOL    HW228233   0.885   2.825   8.256  0.5926  2.3267  1.8327
 5533SOL     OW28234   3.749   0.534   5.427 -0.2866 -0.5212 -0.0103
 5533SOL    HW128235   3.709   0.619   5.446 -1.2109 -0.8593 -0.4025
 5533SOL    HW228236   3.669   0.483   5.414 -1.1251  0.7167  0.2162
 5534SOL     OW28237   2.667   3.150   5.566  0.1881  0.5201  0.0004
 5534SOL    HW128238   2.609   3.135   5.641 -2.2889 -0.4151 -2.1000
 5534SOL    HW228239   2.755   3.119   5.585  0.1590  0.3547 -0.1376
 5535SOL     OW28240   1.277   0.967   2.885 -0.4466  0.0400  0.1376
 5535SOL    HW128241   1.343   0.923   2.939 -1.3623 -0.1207  1.1406
 5535SOL    HW228242   1.212   0.993   2.950 -0.1070 -2.8142  1.6311
 5536SOL     OW28243   3.422   1.648   9.965  0.2896  0.0082 -0.1295
 5536SOL    HW128244   3.507   1.664   9.922  0.3019 -0.5563 -0.3150
 5536SOL    HW228245   3.422   1.552   9.961  1.4568  0.0492 -1.1994
 5537SOL     OW28246   4.296   2.857   7.827 -0.3809  0.3065 -0.3196
 5537SOL    HW128247   4.293   2.925   7.759 -1.5232 -1.4249 -1.9942
 5537SOL    HW228248   4.308   2.914   7.903  1.5250  1.3895 -1.4285
 5538SOL     OW28249   2.807   3.546   5.895  0.1374 -0.7395 -0.8199
 5538SOL    HW128250   2.790   3.508   5.809  0.8807 -1.0911 -0.8142
 5538SOL    HW228251   2.754   3.489   5.950  1.8205 -0.4247  1.1416
 5539SOL     OW28252   0.365   1.409   2.209  0.0744 -0.0044  0.0412
 5539SOL    HW128253   0.406   1.479   2.259  1.6099  0.4745 -1.8669
 5539SOL    HW228254   0.405   1.405   2.122 -1.4633  0.8718 -0.7017
 5540SOL     OW28255   3.521   3.191  15.169  0.6906 -0.1743  0.4808
 5540SOL    HW128256   3.507   3.105  15.206  1.1482 -0.8630 -0.9401
 5540SOL    HW228257   3.457   3.183  15.098  0.0916 -0.2364  1.0311
 5541SOL     OW28258   1.759   4.678   1.158 -0.4652 -0.1553 -0.0464
 5541SOL    HW128259   1.729   4.614   1.222  1.0256 -1.6351 -0.8239
 5541SOL    HW228260   1.674   4.697   1.118  0.9142  1.2870 -2.2874
 5542SOL     OW28261   3.204   3.187  14.749 -0.1177 -0.5617 -0.6669
 5542SOL    HW128262   3.116   3.221  14.731 -0.2795  0.1539  1.5636
 5542SOL    HW228263   3.204   3.121  14.679 -3.2020 -0.4203 -0.8186
 5543SOL     OW28264   2.747   1.957   7.299  1.0573 -0.4268 -0.6996
 5543SOL    HW128265   2.759   2.031   7.239  0.4942  1.9059  2.0588
 5543SOL    HW228266   2.725   2.008   7.377 -1.0973 -1.3290 -0.7311
 5544SOL     OW28267   3.903   3.675  17.374  0.0045 -0.4133 -0.2758
 5544SOL    HW128268   3.832   3.725  17.335 -1.0237 -3.2502 -2.0238
 5544SOL    HW228269   3.857   3.613  17.430  0.8166  0.2609  1.1403
 5545SOL     OW28270   3.819   4.497   3.891  0.3913  0.3539 -0.3732
 5545SOL    HW128271   3.732   4.480   3.856  1.4882 -1.2223 -2.3857
 5545SOL    HW228272   3.833   4.592   3.889 -0.6517  0.5454  3.0726
 5546SOL     OW28273   4.180   0.716   9.692  0.1397  0.5722 -0.1466
 5546SOL    HW128274   4.207   0.800   9.731  2.5054  0.0507 -0.6260
 5546SOL    HW228275   4.125   0.676   9.759 -0.6014  0.0568 -1.0675
 5547SOL     OW28276   2.633   1.284   9.238 -0.0818 -0.6172  0.0132
 5547SOL    HW128277   2.611   1.191   9.245  0.3240 -0.7431 -0.4423
 5547SOL    HW228278   2.725   1.282   9.212  0.1753 -1.0363  0.9483
 5548SOL     OW28279   3.699   2.651   4.278  0.6596  0.2908 -0.2131
 5548SOL    HW128280   3.708   2.671   4.371 -1.2829  0.0868  0.0008
 5548SOL    HW228281   3.612   2.681   4.252 -1.4828 -2.6045  3.6926
 5549SOL     OW28282   1.155   4.431  12.276  0.2373 -0.0191 -0.1485
 5549SOL    HW128283   1.195   4.351  12.242  0.3907  0.5729 -1.3774
 5549SOL    HW228284   1.064   4.410  12.253 -0.2316  0.3114  1.4363
 5550SOL     OW28285   3.359   0.774  17.702  0.3182  0.4225 -0.2161
 5550SOL    HW128286   3.380   0.773  17.608 -2.0025 -1.8259 -0.6781
 5550SOL    HW228287   3.447   0.757  17.735  0.4690  1.4713 -0.0634
 5551SOL     OW28288   1.663   3.650   7.150  0.1206  0.1739  0.1646
 5551SOL    HW128289   1.601   3.660   7.222 -1.3382  0.6169 -1.1456
 5551SOL    HW228290   1.666   3.740   7.116 -2.2093  0.0860 -0.3000
 5552SOL     OW28291   1.175   2.009   8.803 -0.2500 -0.0482 -0.4929
 5552SOL    HW128292   1.150   1.989   8.893 -0.1425  3.9751  0.4291
 5552SOL    HW228293   1.093   1.990   8.756  0.3546 -0.1749 -1.5010
 5553SOL     OW28294   3.057   3.929   4.456 -0.4343 -0.2309 -0.6999
 5553SOL    HW128295   3.131   3.987   4.438 -1.0512  0.8845  0.4308
 5553SOL    HW228296   3.067   3.870   4.381  0.2042  1.2985 -1.8333
 5554SOL     OW28297   0.076   1.624   1.609  0.2302 -0.4555  0.0039
 5554SOL    HW128298   0.139   1.690   1.582 -0.6558  0.8920  1.2373
 5554SOL    HW228299   0.039   1.679   1.678 -1.4394 -1.3840 -0.1426
 5555SOL     OW28300   1.644   2.441   5.159 -0.1081 -0.9101  0.2014
 5555SOL    HW128301   1.662   2.520   5.210 -5.1479 -0.1205  0.7771
 5555SOL    HW228302   1.717   2.382   5.177  0.4180 -1.1385 -2.6317
 5556SOL     OW28303   2.811   2.811  14.914  0.0072 -0.1160 -0.1386
 5556SOL    HW128304   2.773   2.724  14.906 -0.6526  0.1413  0.2407
 5556SOL    HW228305   2.887   2.814  14.856 -0.3252 -0.0330 -0.5667
 5557SOL     OW28306   1.257   1.685   3.064  0.5493  0.0400 -0.0049
 5557SOL    HW128307   1.309   1.627   3.009 -0.9898 -2.0809  0.7745
 5557SOL    HW228308   1.328   1.743   3.092 -1.4046  0.5304  3.9907
 5558SOL     OW28309   2.056   2.391   5.976  0.4901  0.4233 -0.2177
 5558SOL    HW128310   2.013   2.367   6.059 -1.4857 -0.1386 -1.3950
 5558SOL    HW228311   2.057   2.306   5.933 -1.2297 -1.1797  2.8679
 5559SOL     OW28312   4.686   2.041   2.492  0.2955  0.1601  0.1472
 5559SOL    HW128313   4.644   2.014   2.574  0.3753  0.6062  0.3369
 5559SOL    HW228314   4.665   1.975   2.426 -3.9941 -0.3856  2.0796
 5560SOL     OW28315   0.323   3.427   4.611  0.3441  0.1591  0.1394
 5560SOL    HW128316   0.297   3.455   4.524 -0.6693  1.3362  0.8362
 5560SOL    HW228317   0.344   3.509   4.655 -1.7779  1.0570 -0.5330
 5561SOL     OW28318   0.116   3.319   8.583 -0.1525  0.2466  0.9657
 5561SOL    HW128319   0.066   3.378   8.640  0.9104  0.7920  1.3397
 5561SOL    HW228320   0.048   3.287   8.523 -0.5288  3.9482 -0.6486
 5562SOL     OW28321   4.331   0.286   3.720  0.3993  0.1130  0.1434
 5562SOL    HW128322   4.244   0.300   3.759 -0.5335 -1.4542 -1.4076
 5562SOL    HW228323   4.350   0.203   3.764  1.2329 -1.0584 -2.4734
 5563SOL     OW28324   1.690   1.670   7.710 -0.3809 -0.2945 -0.4044
 5563SOL    HW128325   1.633   1.687   7.636 -0.5385  1.1638  0.0578
 5563SOL    HW228326   1.629   1.658   7.783  1.7638 -1.8629  1.1438
 5564SOL     OW28327   1.401   2.693   9.407  0.5475  0.0773  0.2595
 5564SOL    HW128328   1.405   2.623   9.342 -1.8835 -0.1659  0.3841
 5564SOL    HW228329   1.382   2.771   9.355 -2.7695 -0.8554  0.1168
 5565SOL     OW28330   3.450   3.277   9.309 -0.6564 -0.0699  0.1968
 5565SOL    HW128331   3.459   3.210   9.241 -2.2399 -0.1216  0.0482
 5565SOL    HW228332   3.532   3.260   9.356 -0.8579  1.1020  0.9572
 5566SOL     OW28333   0.358   3.388   9.143  0.5561  0.1004 -0.0785
 5566SOL    HW128334   0.308   3.430   9.073  0.1211  0.5323  0.4877
 5566SOL    HW228335   0.322   3.300   9.153 -0.5779  0.5382 -0.3782
 5567SOL     OW28336   4.198   4.572   5.375 -0.0548  0.3061 -0.8024
 5567SOL    HW128337   4.241   4.644   5.420  0.3653 -0.2552 -0.2963
 5567SOL    HW228338   4.280   4.532   5.346 -0.2065 -0.2858 -0.4313
 5568SOL     OW28339   3.923   3.052  10.734 -0.2461 -0.2192 -0.2897
 5568SOL    HW128340   3.828   3.051  10.730 -0.1340  1.3799 -4.1371
 5568SOL    HW228341   3.945   3.049  10.640 -0.9299  0.4307 -0.4649
 5569SOL     OW28342   0.537   0.912   7.840 -0.2923  0.0966 -0.2045
 5569SOL    HW128343   0.596   0.903   7.765 -0.3818 -2.0398 -0.0261
 5569SOL    HW228344   0.579   0.982   7.890  3.9900 -1.7057 -1.2625
 5570SOL     OW28345   4.227   3.540  12.365 -0.1387 -0.2795  0.1163
 5570SOL    HW128346   4.188   3.473  12.308 -0.1202  0.6255 -0.9628
 5570SOL    HW228347   4.304   3.550  12.310 -1.0572 -1.8469 -1.4613
 5571SOL     OW28348   3.502   4.070   4.548 -0.2816 -0.5526  0.4621
 5571SOL    HW128349   3.496   3.975   4.558 -1.4942 -0.4912  0.3282
 5571SOL    HW228350   3.418   4.083   4.503  0.4576 -1.2091 -1.1033
 5572SOL     OW28351   3.712   4.315  13.310  0.7641 -0.4213  0.1646
 5572SOL    HW128352   3.667   4.273  13.237  0.9601 -3.9144  2.0430
 5572SOL    HW228353   3.696   4.248  13.376  0.2768  0.5885  1.0650
 5573SOL     OW28354   2.601   1.893   9.255  0.5313  0.8121  0.0656
 5573SOL    HW128355   2.671   1.829   9.262 -1.2418 -1.1558 -0.0226
 5573SOL    HW228356   2.651   1.974   9.260  0.2644  0.9698  0.2316
 5574SOL     OW28357   0.127   2.752  15.477  0.1929  0.2846 -0.0097
 5574SOL    HW128358   0.181   2.795  15.543  1.0958 -0.7923 -0.0371
 5574SOL    HW228359   0.192   2.694  15.436 -1.0891 -2.3049  1.6263
 5575SOL     OW28360   1.986   3.052   8.499 -0.3697 -0.5119 -0.0289
 5575SOL    HW128361   1.895   3.082   8.509 -0.4309 -0.7650  0.1566
 5575SOL    HW228362   1.978   2.976   8.556 -1.2108 -1.6450 -1.6510
 5576SOL     OW28363   1.302   4.725  14.673  0.5843  0.0037 -0.1941
 5576SOL    HW128364   1.213   4.717  14.637 -0.6003  0.0774  2.6852
 5576SOL    HW228365   1.341   4.688  14.594  0.2632  0.0023 -0.3538
 5577SOL     OW28366   1.305   0.883   4.159  0.4253 -0.0202  0.1257
 5577SOL    HW128367   1.340   0.964   4.196  0.2308 -0.2231  0.7679
 5577SOL    HW228368   1.271   0.847   4.241 -0.3945  0.0574 -0.1838
 5578SOL     OW28369   1.979   0.246   2.228 -0.4786  0.3784  0.5447
 5578SOL    HW128370   1.975   0.151   2.225 -2.5369  0.5152 -1.2280
 5578SOL    HW228371   1.928   0.260   2.148 -1.6504 -0.9406  1.0715
 5579SOL     OW28372   0.795   2.309   9.668  0.3251  0.1776 -0.0411
 5579SOL    HW128373   0.703   2.298   9.693  0.1123  0.8350 -0.5216
 5579SOL    HW228374   0.802   2.236   9.606 -1.9898  0.2820 -0.4333
 5580SOL     OW28375   3.594   2.575   9.278 -0.1294 -0.1468  0.2917
 5580SOL    HW128376   3.576   2.600   9.188 -1.0424 -0.7679  0.3103
 5580SOL    HW228377   3.631   2.488   9.265 -0.4050 -0.2339  0.0909
 5581SOL     OW28378   0.549   1.146  14.324 -0.2094 -0.6344 -0.4003
 5581SOL    HW128379   0.581   1.235  14.310  0.7288 -0.9467 -0.2816
 5581SOL    HW228380   0.576   1.106  14.242  1.1262  1.1219 -0.8117
 5582SOL     OW28381   0.524   2.478   4.525  0.1356  1.1775  0.2642
 5582SOL    HW128382   0.501   2.569   4.542 -0.2646  1.0839  0.2317
 5582SOL    HW228383   0.598   2.486   4.465 -1.7802  3.0769 -1.8199
 5583SOL     OW28384   0.453   2.044  10.112  0.1331  0.1970  0.5428
 5583SOL    HW128385   0.442   1.960  10.068 -3.1541  0.2262  1.2640
 5583SOL    HW228386   0.426   2.110  10.048 -1.1226  1.4650  2.3857
 5584SOL     OW28387   1.206   3.986  15.635  0.1238  0.3462  0.2303
 5584SOL    HW128388   1.197   3.897  15.599 -1.5028 -0.0666  1.6693
 5584SOL    HW228389   1.154   4.033  15.570 -2.6000 -1.7866  0.8776
 5585SOL     OW28390   1.731   3.639   5.923 -0.9669  0.7607  0.1157
 5585SOL    HW128391   1.650   3.599   5.957 -0.0924 -1.0130  0.1159
 5585SOL    HW228392   1.735   3.598   5.837 -0.8998 -1.5178  1.1928
 5586SOL     OW28393   4.317   0.433   4.954  0.2658  0.3655  0.6014
 5586SOL    HW128394   4.362   0.419   4.871 -0.9120  0.3343 -0.0328
 5586SOL    HW228395   4.241   0.478   4.917  2.7819  1.7572 -2.9529
 5587SOL     OW28396   4.224   2.568   4.275 -0.2359  0.3532 -0.2137
 5587SOL    HW128397   4.221   2.657   4.238 -4.3793  0.6667  0.9217
 5587SOL    HW228398   4.239   2.511   4.200 -2.5573 -2.2962  1.3636
 5588SOL     OW28399   4.034   1.196   8.892 -0.4545  0.4765  0.5542
 5588SOL    HW128400   4.124   1.202   8.923 -0.3094  3.4879 -0.3595
 5588SOL    HW228401   4.026   1.270   8.831  1.7658 -0.0253 -0.3511
 5589SOL     OW28402   4.161   2.569  15.804 -0.3167 -0.2489  0.5216
 5589SOL    HW128403   4.141   2.622  15.727  1.7232  0.4845  0.4989
 5589SOL    HW228404   4.210   2.633  15.856 -1.5390  1.9527 -1.0216
 5590SOL     OW28405   1.658   0.261   6.732  0.6065  0.0012 -0.0255
 5590SOL    HW128406   1.650   0.170   6.707  1.8779  0.0178 -0.4715
 5590SOL    HW228407   1.587   0.304   6.684  1.3646  2.1070  0.6956
 5591SOL     OW28408   2.493   3.999   6.685  0.0580  0.0379  0.8407
 5591SOL    HW128409   2.531   4.034   6.604  0.7853 -0.5165  0.9370
 5591SOL    HW228410   2.402   4.008   6.656 -0.4032  0.2141  2.3334
 5592SOL     OW28411   0.131   2.923   7.458 -0.0816  0.3447  1.0908
 5592SOL    HW128412   0.040   2.920   7.487  0.1063  0.9755  1.7772
 5592SOL    HW228413   0.122   2.901   7.365 -1.9029  1.3589  1.0346
 5593SOL     OW28414   2.559   2.040   8.694 -0.7223 -0.1488  0.1314
 5593SOL    HW128415   2.611   1.995   8.627 -1.9600  0.0279 -0.9350
 5593SOL    HW228416   2.616   2.116   8.700  1.5310 -1.8761  0.9263
 5594SOL     OW28417   2.868   2.967   0.922  0.5451 -0.4940 -0.1429
 5594SOL    HW128418   2.849   2.988   1.014  1.7233  1.6152 -0.3789
 5594SOL    HW228419   2.956   3.000   0.904  0.2538  0.7456  0.6700
 5595SOL     OW28420   3.448   1.101   9.887  0.0103  0.0714  0.0314
 5595SOL    HW128421   3.512   1.075   9.821  2.4278 -0.0770  2.4700
 5595SOL    HW228422   3.389   1.026   9.889  2.2410 -1.6728 -0.1692
 5596SOL     OW28423   4.359   2.956  13.921 -0.3505  0.2094 -0.1623
 5596SOL    HW128424   4.450   2.978  13.901 -0.0555  0.3964  1.3268
 5596SOL    HW228425   4.343   3.003  14.003 -0.3726 -1.7996  0.9767
 5597SOL     OW28426   3.937   1.878  11.884 -0.0113 -0.0283  0.7100
 5597SOL    HW128427   3.931   1.952  11.943 -1.4216 -0.8507  1.6054
 5597SOL    HW228428   3.846   1.871  11.854  0.6379 -2.8238 -0.6152
 5598SOL     OW28429   4.675   2.314   2.455 -0.0168 -0.6154  0.0571
 5598SOL    HW128430   4.715   2.323   2.542  1.8394 -2.7307 -0.5958
 5598SOL    HW228431   4.669   2.219   2.461  1.0216 -0.5463  2.4860
 5599SOL     OW28432   3.778   3.497   0.540 -0.3225 -0.3552  0.3019
 5599SOL    HW128433   3.804   3.410   0.572 -1.2736 -0.5824  0.4477
 5599SOL    HW228434   3.822   3.493   0.455 -1.8169  0.9046 -0.5345
 5600SOL     OW28435   2.056   2.851   6.048 -0.5316 -0.3002  0.1960
 5600SOL    HW128436   1.973   2.895   6.028 -1.9951 -2.1197  2.2143
 5600SOL    HW228437   2.077   2.880   6.137  1.2080 -0.1395 -0.2620
 5601SOL     OW28438   3.582   3.557   4.852  0.0679  0.6353 -0.6977
 5601SOL    HW128439   3.605   3.464   4.848 -1.2941  0.3537 -2.1136
 5601SOL    HW228440   3.668   3.596   4.838  0.4936  0.5515  1.6742
 5602SOL     OW28441   2.902   2.527  11.426  0.1718 -0.0777 -0.0629
 5602SOL    HW128442   2.957   2.605  11.437 -0.3211  0.2230  0.2975
 5602SOL    HW228443   2.901   2.502  11.518 -3.5774  0.2951 -0.0254
 5603SOL     OW28444   2.007   4.395   1.789 -0.0204  0.1069  0.1749
 5603SOL    HW128445   2.045   4.336   1.724 -1.5903 -0.3411 -0.3320
 5603SOL    HW228446   1.914   4.398   1.768  0.1453  0.5631 -0.4743
 5604SOL     OW28447   1.670   1.887   4.442 -0.3893  0.3698 -0.0198
 5604SOL    HW128448   1.653   1.831   4.518  1.6961 -0.2852 -0.0372
 5604SOL    HW228449   1.674   1.969   4.491  0.1000  1.2468 -1.5617
 5605SOL     OW28450   2.884   1.776   1.854 -0.1728  0.1320  0.4124
 5605SOL    HW128451   2.807   1.746   1.806  0.3282  1.2575 -1.0825
 5605SOL    HW228452   2.953   1.724   1.812  0.6676 -0.6132  2.6993
 5606SOL     OW28453   0.606   1.819   5.436  0.4957 -0.1573  0.0678
 5606SOL    HW128454   0.586   1.756   5.367  0.5123  1.4312 -1.3515
 5606SOL    HW228455   0.519   1.843   5.465  0.1757  0.2175 -1.2309
 5607SOL     OW28456   4.640   2.736   0.939  0.0542  0.1993  0.4449
 5607SOL    HW128457   4.588   2.666   0.899 -1.2250  1.3200  0.1411
 5607SOL    HW228458   4.683   2.684   1.006  1.6372  1.2084  0.2180
 5608SOL     OW28459   2.336   3.993   5.478  0.6581  0.5039 -0.5715
 5608SOL    HW128460   2.394   4.000   5.402  2.5870 -0.3573  0.8113
 5608SOL    HW228461   2.324   3.898   5.482  2.4096  0.2551 -0.9553
 5609SOL     OW28462   2.389   1.840   1.412  0.1445 -0.0787  0.3362
 5609SOL    HW128463   2.351   1.926   1.395 -0.1833 -0.5585 -1.3812
 5609SOL    HW228464   2.369   1.799   1.328  1.6892 -0.3417  0.0951
 5610SOL     OW28465   2.785   1.225   3.416  0.3467 -0.1773 -0.5080
 5610SOL    HW128466   2.811   1.310   3.381  0.2541  0.1250  0.1527
 5610SOL    HW228467   2.784   1.163   3.343  0.7166 -0.1899 -0.5009
 5611SOL     OW28468   3.847   2.479   7.628 -0.2395  0.2017 -0.0770
 5611SOL    HW128469   3.915   2.438   7.682  0.2910  0.2791 -0.6872
 5611SOL    HW228470   3.900   2.530   7.567 -1.5662  2.8423  0.9987
 5612SOL     OW28471   4.223   1.956   7.681 -0.1547  0.4175 -0.7922
 5612SOL    HW128472   4.151   1.900   7.708 -0.4420  1.8453  1.3868
 5612SOL    HW228473   4.265   1.971   7.766 -0.0205 -2.1189 -0.4304
 5613SOL     OW28474   3.725   2.836   7.456 -0.0931  0.2314 -0.1371
 5613SOL    HW128475   3.709   2.904   7.520 -0.3932  1.1884 -1.2281
 5613SOL    HW228476   3.764   2.764   7.506  0.1903  0.9168  0.6210
 5614SOL     OW28477   0.673   4.299  11.217 -0.3292  0.1725  0.0855
 5614SOL    HW128478   0.658   4.210  11.184 -0.7269 -0.1598  1.1764
 5614SOL    HW228479   0.706   4.276  11.303  0.7322 -0.1741 -0.4194
 5615SOL     OW28480   3.404   0.650   8.285 -0.1431  0.0519 -0.3048
 5615SOL    HW128481   3.320   0.623   8.248  0.2281 -1.7850  0.1581
 5615SOL    HW228482   3.392   0.596   8.364  2.0148  0.2282  0.1371
 5616SOL     OW28483   2.313   3.330   4.660  0.3679  0.2008  0.0147
 5616SOL    HW128484   2.343   3.412   4.700  1.2004  0.4218 -1.0574
 5616SOL    HW228485   2.378   3.268   4.692 -0.2398 -0.0158  0.8286
 5617SOL     OW28486   4.569   1.632  17.381 -0.7794 -0.0168 -0.1266
 5617SOL    HW128487   4.514   1.694  17.429  0.7759 -0.9283  2.8452
 5617SOL    HW228488   4.657   1.630  17.418 -0.2552 -1.4597 -1.4703
 5618SOL     OW28489   0.998   0.072  15.343 -0.0539 -0.5386  0.0827
 5618SOL    HW128490   1.092   0.059  15.356  0.3007  1.9632  0.0346
 5618SOL    HW228491   0.981   0.162  15.370  0.2817 -0.0965 -1.1769
 5619SOL     OW28492   1.041   2.681   1.613  0.0393  0.1266 -0.2650
 5619SOL    HW128493   0.989   2.761   1.620 -1.9498 -1.2214  0.5024
 5619SOL    HW228494   1.033   2.656   1.705 -0.9001 -1.7946 -0.8668
 5620SOL     OW28495   2.092   2.764  17.574 -0.0286 -0.1162  0.2319
 5620SOL    HW128496   2.082   2.847  17.528  0.0092 -2.2053 -3.5248
 5620SOL    HW228497   2.134   2.701  17.515 -0.3510  0.5395 -0.6858
 5621SOL     OW28498   1.724   3.215   5.724  0.0065 -0.3947  0.4151
 5621SOL    HW128499   1.692   3.237   5.637  1.1310  0.0503  0.1073
 5621SOL    HW228500   1.818   3.198   5.710 -0.6961 -1.4231 -3.0668
 5622SOL     OW28501   1.162   1.466  11.308 -0.3724  0.2139 -0.0129
 5622SOL    HW128502   1.133   1.505  11.226  0.6209  0.9864  0.0006
 5622SOL    HW228503   1.105   1.519  11.363 -0.4581 -1.4602  1.5258
 5623SOL     OW28504   1.233   1.285   5.073  0.4703  0.0810 -0.9014
 5623SOL    HW128505   1.294   1.212   5.079  0.7683  0.3460 -0.7442
 5623SOL    HW228506   1.154   1.230   5.077 -0.8514  2.0542  0.5392
 5624SOL     OW28507   1.176   0.509   5.086  0.1173 -0.3395 -0.6113
 5624SOL    HW128508   1.215   0.580   5.035 -0.4417 -0.1387 -0.7674
 5624SOL    HW228509   1.246   0.444   5.086 -0.5282 -1.0398 -0.5247
 5625SOL     OW28510   3.168   2.960   9.645 -0.6181  0.4801  0.5364
 5625SOL    HW128511   3.131   3.016   9.577 -0.3529 -0.8558 -0.7044
 5625SOL    HW228512   3.252   3.005   9.641 -2.0130  3.2052  1.3623
 5626SOL     OW28513   4.237   2.301   5.594 -0.1225 -0.2312 -0.2610
 5626SOL    HW128514   4.276   2.252   5.666 -1.0456  0.4481  0.7048
 5626SOL    HW228515   4.178   2.360   5.642 -0.9378 -2.1219  1.0255
 5627SOL     OW28516   2.656   2.306   6.951 -0.3351 -0.8602 -0.0106
 5627SOL    HW128517   2.693   2.257   6.878  0.0694  0.3268 -0.5985
 5627SOL    HW228518   2.565   2.295   6.921 -0.3041 -2.1007  0.3444
 5628SOL     OW28519   4.300   3.339  14.673 -0.3511 -0.2881 -0.0775
 5628SOL    HW128520   4.388   3.321  14.642  0.5131  1.3311  1.3836
 5628SOL    HW228521   4.304   3.387  14.756 -1.6915  2.8411 -1.7949
 5629SOL     OW28522   1.745   4.094   5.214 -0.3811 -0.0451 -0.4152
 5629SOL    HW128523   1.783   4.006   5.217  2.1751  1.1165  1.5833
 5629SOL    HW228524   1.707   4.095   5.126  0.4880 -0.4552 -0.7995
 5630SOL     OW28525   0.052   3.761  11.439  0.2535 -0.9099 -0.2097
 5630SOL    HW128526   0.065   3.679  11.485  2.2666  0.0464  0.9437
 5630SOL    HW228527   0.096   3.827  11.492 -1.0667 -0.7816  0.7297
 5631SOL     OW28528   2.897   2.881   9.053  0.7251 -0.1691  0.6034
 5631SOL    HW128529   2.943   2.846   8.977 -0.4933  0.8696 -0.6164
 5631SOL    HW228530   2.975   2.902   9.105  1.9613 -0.9343 -0.9725
 5632SOL     OW28531   0.945   4.329   6.330  0.0103 -0.0557  0.1096
 5632SOL    HW128532   0.893   4.372   6.262 -2.2182 -2.8358  0.0276
 5632SOL    HW228533   1.025   4.304   6.284  0.2023 -0.6293  0.7479
 5633SOL     OW28534   3.465   3.061  11.238 -0.5116  0.2717 -0.3159
 5633SOL    HW128535   3.526   3.117  11.285 -0.3218 -0.1782 -0.0256
 5633SOL    HW228536   3.418   3.136  11.201 -1.6266 -0.0660  0.4084
 5634SOL     OW28537   4.330   1.728   3.572 -0.0133  0.4594 -0.2626
 5634SOL    HW128538   4.258   1.788   3.553  0.5236  1.3984  0.6801
 5634SOL    HW228539   4.368   1.764   3.653 -1.3454 -0.1572  0.6410
 5635SOL     OW28540   2.274   4.286   4.476 -0.0865 -0.2138 -0.5050
 5635SOL    HW128541   2.266   4.227   4.551  3.1700  1.7123  1.3512
 5635SOL    HW228542   2.226   4.237   4.409 -1.3849  0.9673 -0.4333
 5636SOL     OW28543   4.335   4.588   1.014 -0.0551 -0.5849  0.2033
 5636SOL    HW128544   4.403   4.553   0.957  1.3331  2.0609  0.2443
 5636SOL    HW228545   4.390   4.646   1.066 -1.5570  0.3879  0.7217
 5637SOL     OW28546   2.448   0.323  12.053 -0.6609 -0.1266 -0.8176
 5637SOL    HW128547   2.494   0.305  11.970 -0.1489  1.1905 -0.8095
 5637SOL    HW228548   2.476   0.256  12.116  0.9264 -0.0109 -1.3929
 5638SOL     OW28549   0.074   1.701   4.117 -0.1625 -0.5722  0.2170
 5638SOL    HW128550   0.153   1.682   4.168  0.1689  0.3480  0.0316
 5638SOL    HW228551   0.035   1.614   4.109  1.8211 -1.6088  1.7014
 5639SOL     OW28552   4.453   4.520  16.078  0.4859  0.0990  0.1094
 5639SOL    HW128553   4.472   4.614  16.076  1.0433 -0.0123  0.2575
 5639SOL    HW228554   4.389   4.519  16.149 -2.6127 -0.2312 -2.7062
 5640SOL     OW28555   2.906   1.808   8.357 -0.2113  0.8044 -0.2165
 5640SOL    HW128556   2.961   1.840   8.285 -0.6508 -1.2234 -1.4718
 5640SOL    HW228557   2.926   1.715   8.343 -1.1955  0.4778  0.5759
 5641SOL     OW28558   4.222   0.126  14.084  0.4368  0.0481 -0.2528
 5641SOL    HW128559   4.298   0.142  14.028 -0.3199 -0.0323 -1.2979
 5641SOL    HW228560   4.268   0.111  14.167 -0.2874  1.5396  0.4335
 5642SOL     OW28561   2.456   4.006   3.481  0.4580  0.2386 -0.3627
 5642SOL    HW128562   2.466   3.978   3.390 -3.1182 -2.4650  0.0530
 5642SOL    HW228563   2.398   4.082   3.471 -0.6806 -0.4806  0.7942
 5643SOL     OW28564   0.584   2.751   8.696  0.3507 -0.1231  0.5691
 5643SOL    HW128565   0.652   2.692   8.728  0.2412 -0.1032  0.8346
 5643SOL    HW228566   0.561   2.686   8.629 -0.0224 -0.3082  0.8740
 5644SOL     OW28567   1.876   2.982  15.022 -0.6020 -0.0267 -0.4096
 5644SOL    HW128568   1.780   2.975  15.013 -0.7397  0.0656  1.0602
 5644SOL    HW228569   1.901   2.993  14.930 -0.8682  1.2954 -0.3191
 5645SOL     OW28570   3.169   1.360   2.135 -0.4237 -0.0705 -0.0095
 5645SOL    HW128571   3.162   1.439   2.188  1.7176 -0.1772  0.4357
 5645SOL    HW228572   3.131   1.294   2.192  1.8768  0.4475  2.1445
 5646SOL     OW28573   0.323   2.205   2.090 -0.4602  0.3587 -0.7489
 5646SOL    HW128574   0.274   2.283   2.066 -3.3666 -0.5761  2.2150
 5646SOL    HW228575   0.346   2.221   2.182 -1.7278 -2.0514 -0.0094
 5647SOL     OW28576   0.832   1.132  12.148  0.5579  0.2813  0.3205
 5647SOL    HW128577   0.827   1.147  12.242 -0.6769  0.8658  0.1697
 5647SOL    HW228578   0.924   1.122  12.126  0.3405 -4.4776  1.7166
 5648SOL     OW28579   1.496   3.700   6.434 -0.8304  0.2236  0.0389
 5648SOL    HW128580   1.437   3.772   6.456 -1.0914 -0.8463  2.7990
 5648SOL    HW228581   1.584   3.736   6.446 -0.2840  0.5704 -5.0734
 5649SOL     OW28582   0.284   2.518   2.408  0.2886 -0.2508 -0.0875
 5649SOL    HW128583   0.249   2.529   2.496 -0.5309 -1.1924 -0.2984
 5649SOL    HW228584   0.368   2.564   2.415 -0.0682  0.8614 -2.7475
 5650SOL     OW28585   0.144   0.328   5.613 -0.0164  0.1011  0.3314
 5650SOL    HW128586   0.177   0.269   5.545  1.3977  2.0813 -0.6794
 5650SOL    HW228587   0.051   0.310   5.599  0.0862 -0.8021  0.8453
 5651SOL     OW28588   4.269   3.228  16.875 -0.4845 -0.2538  0.3271
 5651SOL    HW128589   4.280   3.135  16.892 -1.3240 -1.1197 -3.8097
 5651SOL    HW228590   4.198   3.257  16.932 -0.6600  0.4583 -0.2415
 5652SOL     OW28591   0.584   2.239   4.616 -0.7916 -0.2782  0.1153
 5652SOL    HW128592   0.558   2.326   4.587  0.2989  0.2725  0.8011
 5652SOL    HW228593   0.556   2.247   4.707  2.5950 -0.6624  1.2168
 5653SOL     OW28594   3.858   0.378   5.955 -0.4181 -0.1993  0.0918
 5653SOL    HW128595   3.945   0.340   5.940 -2.0844 -2.4750 -3.8906
 5653SOL    HW228596   3.861   0.467   5.919  0.3430 -0.4994 -0.5856
 5654SOL     OW28597   0.336   0.263   5.903 -0.3009  0.0878 -0.7288
 5654SOL    HW128598   0.402   0.218   5.956 -0.5073 -0.3488 -0.8454
 5654SOL    HW228599   0.391   0.293   5.830 -0.0267  0.0936 -0.5192
 5655SOL     OW28600   0.231   1.840   1.527  0.1168 -0.0818  0.3225
 5655SOL    HW128601   0.297   1.890   1.574  0.3900  1.9407 -2.2107
 5655SOL    HW228602   0.217   1.895   1.450  0.7764  0.1943  0.4021
 5656SOL     OW28603   2.121   0.942   3.484  0.5790 -0.3902  0.8469
 5656SOL    HW128604   2.140   1.034   3.466  3.2107 -1.1964 -0.6316
 5656SOL    HW228605   2.027   0.938   3.467  0.7278  0.4551 -0.1723
 5657SOL     OW28606   4.718   3.989  14.354 -0.0578 -0.3318 -0.3830
 5657SOL    HW128607   0.022   4.050  14.416  1.0617  0.5562 -1.9747
 5657SOL    HW228608   4.726   4.045  14.278  1.1114 -1.1762 -0.8890
 5658SOL     OW28609   0.294   3.021   5.845 -0.1164  0.4564 -0.0097
 5658SOL    HW128610   0.302   3.110   5.881 -0.5778  0.6948 -0.4995
 5658SOL    HW228611   0.301   3.042   5.752 -0.8815  0.5846 -0.0434
 5659SOL     OW28612   3.784   0.588  11.769 -0.1698  0.0280 -0.1805
 5659SOL    HW128613   3.865   0.545  11.744  1.4261  3.4089 -0.8498
 5659SOL    HW228614   3.728   0.512  11.751  0.3097 -0.2689 -0.4076
 5660SOL     OW28615   1.050   3.735   7.502  0.1950  0.3488 -0.1124
 5660SOL    HW128616   1.133   3.724   7.550  0.1140 -3.3810 -0.8389
 5660SOL    HW228617   1.002   3.670   7.553  0.9503  0.9996  1.4337
 5661SOL     OW28618   2.351   3.635   0.280 -0.3584  0.3488  0.1321
 5661SOL    HW128619   2.411   3.595   0.217 -0.2629 -1.5855  1.4605
 5661SOL    HW228620   2.292   3.660   0.209  0.9204  2.1406 -0.3215
 5662SOL     OW28621   3.738   2.668   7.791 -0.4522  0.2930  0.8867
 5662SOL    HW128622   3.816   2.725   7.790 -0.1714 -0.1005 -0.1359
 5662SOL    HW228623   3.764   2.592   7.739 -1.0946  0.3600  0.4691
 5663SOL     OW28624   4.647   1.368   7.439 -0.7279 -0.6907  0.4152
 5663SOL    HW128625   4.577   1.368   7.374  0.4184  0.5461 -0.8323
 5663SOL    HW228626   4.722   1.417   7.405 -0.6362 -1.0004  0.1606
 5664SOL     OW28627   3.062   2.838  10.103  0.2940  0.6662 -0.1265
 5664SOL    HW128628   2.995   2.903  10.124  0.9755  1.3594 -0.0458
 5664SOL    HW228629   3.049   2.840  10.009 -3.1976 -5.0187  0.2670
 5665SOL     OW28630   2.667   3.978   8.921  0.2085  0.5574  0.5003
 5665SOL    HW128631   2.749   3.933   8.937 -0.0182 -0.0765 -0.1144
 5665SOL    HW228632   2.603   3.920   8.961 -1.0400  1.2229 -0.4956
 5666SOL     OW28633   3.615   2.759   8.958 -0.0250  0.0583 -0.2265
 5666SOL    HW128634   3.569   2.816   8.898 -4.4155 -2.3352  0.8873
 5666SOL    HW228635   3.564   2.679   8.970  0.4564  0.0978  2.1091
 5667SOL     OW28636   4.243   4.295   5.966  1.1919  0.5390  0.4400
 5667SOL    HW128637   4.282   4.317   5.881  0.8174 -0.3280  0.0502
 5667SOL    HW228638   4.149   4.314   5.969  0.9645 -0.7037  0.9727
 5668SOL     OW28639   3.379   2.763  15.178  0.6353 -0.4735 -0.0922
 5668SOL    HW128640   3.379   2.754  15.083 -1.6963 -2.7077  0.0989
 5668SOL    HW228641   3.298   2.715  15.198  0.6108 -0.5019 -0.2611
 5669SOL     OW28642   2.683   1.881   8.106 -0.4784  0.0346  0.6306
 5669SOL    HW128643   2.722   1.906   8.191  1.1348  0.7954 -0.3242
 5669SOL    HW228644   2.611   1.822   8.129  1.1510 -1.5712  1.6303
 5670SOL     OW28645   1.705   0.825   4.130 -0.4071  0.6889 -0.1479
 5670SOL    HW128646   1.675   0.851   4.217  0.5421 -0.1328  0.4238
 5670SOL    HW228647   1.641   0.866   4.071  0.9696  1.0224 -1.4193
 5671SOL     OW28648   1.614   0.260   2.389 -0.2267  0.1849 -1.1247
 5671SOL    HW128649   1.547   0.252   2.458 -0.5064 -2.4785 -1.6972
 5671SOL    HW228650   1.575   0.323   2.328 -0.3087  0.5524 -0.6933
 5672SOL     OW28651   1.650   1.583   9.212 -0.7100 -0.4907  0.1309
 5672SOL    HW128652   1.601   1.665   9.203  1.4076  0.8841  0.8786
 5672SOL    HW228653   1.660   1.559   9.120  0.1853 -2.8030  0.8339
 5673SOL     OW28654   3.158   4.057  14.532 -0.2106 -0.2236 -0.4454
 5673SOL    HW128655   3.168   4.136  14.585  2.6840 -0.1721 -1.0856
 5673SOL    HW228656   3.141   4.107  14.453 -2.1725  0.0169  0.1136
 5674SOL     OW28657   4.288   3.107   7.702  0.3034  0.4619  0.3977
 5674SOL    HW128658   4.293   3.202   7.699 -1.9028  0.6554  3.7283
 5674SOL    HW228659   4.201   3.094   7.664  0.5790  0.2854 -0.1814
 5675SOL     OW28660   3.774   1.699  16.419 -0.0689  0.3235  0.6528
 5675SOL    HW128661   3.680   1.712  16.430  0.3857  2.0645  2.3731
 5675SOL    HW228662   3.771   1.603  16.417 -1.1876  0.3709  0.0218
 5676SOL     OW28663   3.479   1.721   9.439  0.0449  0.6950 -0.2214
 5676SOL    HW128664   3.530   1.790   9.483  0.0578 -0.0086  0.8791
 5676SOL    HW228665   3.546   1.659   9.413 -0.2940 -0.3916  1.5213
 5677SOL     OW28666   1.051   4.085   8.022  0.2497  0.1716  0.1714
 5677SOL    HW128667   0.991   4.121   7.957  0.4684  0.6571  0.2390
 5677SOL    HW228668   1.079   3.998   7.991  2.9391  0.5782  1.4123
 5678SOL     OW28669   3.389   3.928   2.118 -0.1427  0.4512  0.2418
 5678SOL    HW128670   3.470   3.962   2.080 -0.8157 -0.3912 -1.9534
 5678SOL    HW228671   3.326   3.975   2.063 -0.0413  1.2222  0.7908
 5679SOL     OW28672   1.431   0.022   5.455 -0.4899  0.6420  0.1123
 5679SOL    HW128673   1.337   0.012   5.442 -0.0690 -2.3507 -0.6329
 5679SOL    HW228674   1.453   0.086   5.388  0.3246  0.2855  0.0395
 5680SOL     OW28675   1.887   0.592   1.942  0.7166 -0.7222 -0.6687
 5680SOL    HW128676   1.859   0.620   1.855  2.4659 -1.9471 -1.6376
 5680SOL    HW228677   1.852   0.662   1.996  3.3376  0.7807 -0.9197
 5681SOL     OW28678   1.552   1.410   7.563 -0.1686 -0.3504  0.5174
 5681SOL    HW128679   1.483   1.438   7.503  0.7424 -2.5509 -1.5326
 5681SOL    HW228680   1.523   1.459   7.640 -0.1119 -0.9080  0.8885
 5682SOL     OW28681   1.416   3.842  12.011  0.2627 -0.4487 -0.4736
 5682SOL    HW128682   1.462   3.763  11.986  1.6069 -0.1492  1.0485
 5682SOL    HW228683   1.357   3.807  12.079  1.9717 -1.8179  0.2977
 5683SOL     OW28684   0.106   3.488  14.054 -0.3846  0.6489 -0.0075
 5683SOL    HW128685   0.131   3.435  14.130 -0.3610  0.5952 -0.0532
 5683SOL    HW228686   0.025   3.444  14.027 -1.0249  0.2025  2.6573
 5684SOL     OW28687   0.981   4.307   3.188 -0.4630 -0.5210 -0.4535
 5684SOL    HW128688   0.957   4.367   3.259 -0.0720 -0.1701 -0.6181
 5684SOL    HW228689   0.906   4.314   3.128  0.3251 -2.5975 -1.6471
 5685SOL     OW28690   0.362   3.164   6.733 -0.0920 -0.1707  0.1869
 5685SOL    HW128691   0.376   3.231   6.666 -0.5757 -0.7259 -0.4624
 5685SOL    HW228692   0.380   3.081   6.690  0.6873 -0.2286  0.6115
 5686SOL     OW28693   3.656   3.329   3.000 -0.2524 -0.0693 -0.1709
 5686SOL    HW128694   3.576   3.314   2.950  0.1578 -0.1373 -0.8112
 5686SOL    HW228695   3.633   3.413   3.040 -1.4233  0.3229 -1.6918
 5687SOL     OW28696   0.224   1.116   7.220 -0.0901  0.0817  0.8805
 5687SOL    HW128697   0.141   1.097   7.177  0.1518 -1.6849  1.2318
 5687SOL    HW228698   0.196   1.140   7.308 -0.7439 -0.2213  0.7501
 5688SOL     OW28699   2.057   3.192   3.849  0.2451 -0.3854 -0.0251
 5688SOL    HW128700   2.062   3.285   3.829 -2.2426 -0.5240 -1.2790
 5688SOL    HW228701   2.131   3.150   3.803  0.0816 -0.7366  0.0330
 5689SOL     OW28702   2.420   3.216   6.602 -0.2934  0.6318  0.0763
 5689SOL    HW128703   2.482   3.269   6.552 -0.9197  0.0049 -1.3759
 5689SOL    HW228704   2.452   3.238   6.689  0.9446  0.3422 -0.3071
 5690SOL     OW28705   4.606   0.386   3.084 -0.2162 -0.0325  0.7921
 5690SOL    HW128706   4.623   0.352   2.997 -2.4876 -0.2441  0.4306
 5690SOL    HW228707   4.535   0.324   3.102 -1.1163  0.7432 -0.0495
 5691SOL     OW28708   1.752   4.287   7.963  0.4565  0.1739  0.5297
 5691SOL    HW128709   1.787   4.372   7.990 -1.5625  0.7549  1.3128
 5691SOL    HW228710   1.683   4.263   8.025  0.3174  0.9850  0.6907
 5692SOL     OW28711   3.289   3.227   3.265  0.5724  0.1561  0.2158
 5692SOL    HW128712   3.267   3.161   3.330  3.0639 -0.3069  0.6227
 5692SOL    HW228713   3.359   3.271   3.314  1.6120  0.3197 -1.4016
 5693SOL     OW28714   2.408   0.825   9.409  0.3042  0.6030  0.0760
 5693SOL    HW128715   2.375   0.914   9.418 -0.1269  0.4433  0.0360
 5693SOL    HW228716   2.471   0.839   9.338  2.0898 -1.2823  1.2721
 5694SOL     OW28717   2.114   3.273   7.286  0.2074 -0.3946  0.1705
 5694SOL    HW128718   2.065   3.303   7.363 -0.1446 -1.7475  0.4828
 5694SOL    HW228719   2.116   3.353   7.234 -1.7426 -0.8525 -0.6176
 5695SOL     OW28720   4.064   1.507   4.076 -0.0532 -0.0387  0.5310
 5695SOL    HW128721   4.044   1.534   4.166  2.3241  3.6596 -0.0281
 5695SOL    HW228722   4.001   1.435   4.064 -0.7334  0.7895 -0.9449
 5696SOL     OW28723   4.550   0.989   0.970 -0.5235  0.0302 -0.0166
 5696SOL    HW128724   4.495   0.968   0.895  0.6724 -0.5096 -0.7360
 5696SOL    HW228725   4.483   1.027   1.028  0.2064  0.0020  0.8514
 5697SOL     OW28726   4.288   4.593  13.932  0.1575 -0.6483 -0.3140
 5697SOL    HW128727   4.217   4.616  13.872 -0.0226  1.4154  0.7118
 5697SOL    HW228728   4.307   4.678  13.972  3.0586  0.5501 -4.2677
 5698SOL     OW28729   4.041   0.424   3.171 -0.1838 -0.2642 -0.1423
 5698SOL    HW128730   3.970   0.362   3.185 -1.0924  0.7638 -0.2135
 5698SOL    HW228731   4.111   0.396   3.230  0.8993 -1.0301 -1.7844
 5699SOL     OW28732   2.608   1.309   7.060 -0.2737  0.0383  0.8891
 5699SOL    HW128733   2.589   1.402   7.072 -1.5458 -0.4250  2.5664
 5699SOL    HW228734   2.679   1.332   7.000 -2.0311  1.2923 -0.7225
 5700SOL     OW28735   0.811   3.980   8.660  1.3169  0.0373  0.2737
 5700SOL    HW128736   0.803   3.923   8.584  1.3799 -1.1046  1.1298
 5700SOL    HW228737   0.841   3.917   8.726 -0.2510 -2.7617 -1.7014
 5701SOL     OW28738   4.598   2.952   7.539  0.1990  0.1689  0.0833
 5701SOL    HW128739   4.529   2.981   7.479  0.0790 -2.2766 -0.9513
 5701SOL    HW228740   4.550   2.887   7.591  0.7568 -0.2963  0.0144
 5702SOL     OW28741   1.524   4.695   6.746  0.5719 -0.2077 -0.0653
 5702SOL    HW128742   1.612   4.669   6.719  0.4098 -1.3993  0.5204
 5702SOL    HW228743   1.473   4.692   6.665 -2.2632 -1.6896  1.7678
 5703SOL     OW28744   1.881   1.636   8.037 -0.1955 -0.1738  0.0761
 5703SOL    HW128745   1.899   1.730   8.030 -0.9922  0.0713  1.3094
 5703SOL    HW228746   1.944   1.610   7.970  0.5819 -0.4953  0.9349
 5704SOL     OW28747   2.987   3.345   9.040  0.3323  0.2959  0.4254
 5704SOL    HW128748   2.910   3.294   9.064 -0.6375  1.6267  0.0902
 5704SOL    HW228749   3.012   3.323   8.950  1.5870 -0.4629  0.9535
 5705SOL     OW28750   3.170   3.036   4.341 -0.4202 -0.0248 -0.7281
 5705SOL    HW128751   3.253   3.082   4.328  1.4910 -3.4782 -0.8626
 5705SOL    HW228752   3.171   3.013   4.434 -1.0166  0.3195 -0.6379
 5706SOL     OW28753   0.224   1.346  11.647  0.1787  0.1432 -0.2163
 5706SOL    HW128754   0.146   1.400  11.657 -0.1489 -0.2540 -0.5592
 5706SOL    HW228755   0.217   1.315  11.556 -1.5327 -1.1149  0.3389
 5707SOL     OW28756   2.362   4.438   7.068 -0.1225 -0.0536  0.2129
 5707SOL    HW128757   2.400   4.357   7.101 -0.1240 -0.1367  0.0100
 5707SOL    HW228758   2.323   4.475   7.147  0.3637  0.5042  0.1946
 5708SOL     OW28759   0.462   2.165   3.839  0.7575  0.0397 -0.6963
 5708SOL    HW128760   0.516   2.089   3.859  0.4371 -0.1016 -0.3771
 5708SOL    HW228761   0.529   2.213   3.789  1.8531 -0.0589  0.6867
 5709SOL     OW28762   3.731   3.458  17.193 -0.1097 -0.2885 -0.2074
 5709SOL    HW128763   3.750   3.372  17.230 -0.8046  0.0962  1.0569
 5709SOL    HW228764   3.772   3.451  17.107  2.6962 -2.3309  1.2906
 5710SOL     OW28765   3.098   1.470  10.784 -0.3390 -0.0240  0.2616
 5710SOL    HW128766   3.188   1.487  10.754 -0.4596  0.7529  0.3390
 5710SOL    HW228767   3.103   1.442  10.875 -1.1174  1.4941  0.7733
 5711SOL     OW28768   3.484   3.965   8.565  0.2401 -0.1064  0.2593
 5711SOL    HW128769   3.443   4.051   8.575  0.1109 -0.2926  1.3037
 5711SOL    HW228770   3.410   3.917   8.528  1.9685 -1.6792 -1.1893
 5712SOL     OW28771   0.358   2.301   0.023 -0.4651 -0.2281 -0.2128
 5712SOL    HW128772   0.357   2.355  17.688  0.1344  0.0516 -0.0302
 5712SOL    HW228773   0.357   2.214  17.729 -1.8940 -1.0260  1.6220
 5713SOL     OW28774   2.063   4.215   1.611  0.1427  1.3736 -0.3289
 5713SOL    HW128775   1.971   4.231   1.593 -0.5485 -1.5576  0.6052
 5713SOL    HW228776   2.070   4.119   1.608  1.2667  1.4833 -1.3562
 5714SOL     OW28777   0.816   0.404  15.534  0.1398  0.1248  0.1257
 5714SOL    HW128778   0.887   0.450  15.579  1.6510  0.1279 -2.2543
 5714SOL    HW228779   0.806   0.331  15.595  0.8587  0.4049  0.5828
 5715SOL     OW28780   4.369   3.421  13.951  0.5338 -0.4036 -0.1498
 5715SOL    HW128781   4.300   3.429  14.016 -1.5162 -0.4926 -2.3218
 5715SOL    HW228782   4.331   3.361  13.887  0.5781 -1.8474  1.1729
 5716SOL     OW28783   4.480   1.402   5.542 -0.2663  0.6667  0.0277
 5716SOL    HW128784   4.524   1.454   5.473  1.5817 -0.7883  0.0984
 5716SOL    HW228785   4.551   1.341   5.564 -0.4783  0.2300 -0.4943
 5717SOL     OW28786   2.428   1.014   3.618 -0.1333 -0.6873  0.2689
 5717SOL    HW128787   2.395   1.016   3.528 -0.3570  2.4964  0.3990
 5717SOL    HW228788   2.496   1.081   3.614  1.4201 -2.2257  1.1474
 5718SOL     OW28789   4.151   1.069   4.001  0.2483 -0.3337  0.1245
 5718SOL    HW128790   4.230   1.017   3.986  1.3337  1.5110 -0.5479
 5718SOL    HW228791   4.098   1.044   3.925  2.1486  0.9578 -1.6127
 5719SOL     OW28792   1.518   0.254  16.138  0.1442  0.8047 -0.0450
 5719SOL    HW128793   1.594   0.200  16.157 -0.6380  0.1496  1.2459
 5719SOL    HW228794   1.440   0.215  16.178 -0.7516  2.7465  0.1324
 5720SOL     OW28795   4.365   0.907   3.665 -0.5262 -0.0498  0.4241
 5720SOL    HW128796   4.443   0.887   3.614 -1.5025 -0.8165 -0.7865
 5720SOL    HW228797   4.384   0.840   3.730  0.2907  0.0546  0.2945
 5721SOL     OW28798   1.440   1.955  10.398  0.2835  0.4724 -0.0390
 5721SOL    HW128799   1.516   1.967  10.455 -0.1417 -1.8088  0.9858
 5721SOL    HW228800   1.494   1.956  10.319  0.3431 -2.1016 -0.0233
 5722SOL     OW28801   2.378   1.723   7.138 -0.3936 -0.2205  0.0084
 5722SOL    HW128802   2.422   1.767   7.211 -0.1573  0.5221 -0.5865
 5722SOL    HW228803   2.289   1.715   7.173  0.5346  1.0886  2.7377
 5723SOL     OW28804   3.311   2.121   8.693 -0.1503 -0.0928  0.0793
 5723SOL    HW128805   3.343   2.187   8.632 -0.3472  0.0494  0.1300
 5723SOL    HW228806   3.345   2.038   8.661  2.4260  1.2961 -0.8210
 5724SOL     OW28807   0.586   0.142  12.848 -0.2621 -0.0501  0.0771
 5724SOL    HW128808   0.581   0.065  12.905 -2.0269  0.9766  1.2975
 5724SOL    HW228809   0.630   0.107  12.771  3.2240  2.4346  0.9389
 5725SOL     OW28810   3.652   1.153   3.341 -0.0030 -0.2522 -0.8083
 5725SOL    HW128811   3.727   1.173   3.397 -0.4243 -1.4024  0.1672
 5725SOL    HW228812   3.621   1.072   3.380 -2.0351  0.6181 -0.5667
 5726SOL     OW28813   3.357   2.348   6.043  0.0085  0.0302 -0.0447
 5726SOL    HW128814   3.304   2.365   5.964  1.1385  0.4564 -0.7061
 5726SOL    HW228815   3.421   2.415   6.021  1.2300 -1.5669 -1.3452
 5727SOL     OW28816   0.417   2.613  16.325 -0.7293  0.4131 -0.4618
 5727SOL    HW128817   0.463   2.696  16.335 -0.3225  0.1793 -0.3768
 5727SOL    HW228818   0.406   2.603  16.231 -2.3546  0.2328 -0.2558
 5728SOL     OW28819   4.643   3.166  16.376 -0.3902  0.5504  0.4399
 5728SOL    HW128820   4.601   3.159  16.291  1.8597 -0.5992 -0.5794
 5728SOL    HW228821   0.000   3.155  16.359 -0.2393  1.7208  0.4707
 5729SOL     OW28822   3.405   2.278  16.516 -0.0579 -0.1715  0.1620
 5729SOL    HW128823   3.403   2.182  16.509 -1.2358 -0.2446  1.4028
 5729SOL    HW228824   3.312   2.301  16.513  0.4111  1.4312 -1.4467
 5730SOL     OW28825   2.925   0.958   7.597  0.3124 -0.1653 -0.3149
 5730SOL    HW128826   2.840   0.936   7.558 -0.9408  0.1758  2.2570
 5730SOL    HW228827   2.937   0.895   7.668  2.3202 -1.7398 -2.0576
 5731SOL     OW28828   1.615   3.436   7.740 -0.3210  0.1407  0.0303
 5731SOL    HW128829   1.709   3.417   7.733  0.0717  2.1969 -0.1438
 5731SOL    HW228830   1.583   3.355   7.781 -2.9396  1.1636 -0.0003
 5732SOL     OW28831   1.746   2.353   2.841  0.2344  0.8247 -0.1786
 5732SOL    HW128832   1.794   2.387   2.916 -0.8649  1.1361  0.3792
 5732SOL    HW228833   1.655   2.370   2.866  0.3279 -1.9658  2.1585
 5733SOL     OW28834   2.496   3.248  15.740  0.1763  0.2185 -0.4250
 5733SOL    HW128835   2.583   3.251  15.699  1.0769  1.6261  1.6092
 5733SOL    HW228836   2.446   3.209  15.668 -1.3591  2.0066 -0.3110
 5734SOL     OW28837   1.630   3.923   8.206  0.3000 -0.5096 -0.8027
 5734SOL    HW128838   1.547   3.967   8.187  1.2700  1.7534  0.2710
 5734SOL    HW228839   1.636   3.953   8.297  1.1366 -3.2374  0.0271
 5735SOL     OW28840   2.285   2.083   1.386 -0.0299 -0.0399 -0.4096
 5735SOL    HW128841   2.322   2.149   1.445  0.8251 -0.5405 -0.3939
 5735SOL    HW228842   2.239   2.149   1.333 -0.5687 -1.4030 -1.6252
 5736SOL     OW28843   1.288   0.919  16.445 -0.3600  0.7776 -0.1440
 5736SOL    HW128844   1.211   0.957  16.402 -0.9069 -1.2494 -0.9668
 5736SOL    HW228845   1.361   0.972  16.414  0.1061  0.1206 -0.1863
 5737SOL     OW28846   0.969   3.896   5.123 -0.4590  0.2094 -0.5140
 5737SOL    HW128847   1.011   3.918   5.040 -0.1974  0.6328 -0.2718
 5737SOL    HW228848   0.926   3.974   5.159  1.0840 -0.6291  3.0929
 5738SOL     OW28849   1.862   3.742   3.730 -0.0942  0.0119 -0.1632
 5738SOL    HW128850   1.815   3.813   3.686 -1.8407 -0.1866  1.4214
 5738SOL    HW228851   1.940   3.736   3.674 -1.2756  1.1918 -1.9418
 5739SOL     OW28852   0.031   0.218  12.798  0.0484 -0.1705 -0.1588
 5739SOL    HW128853   0.009   0.233  12.706 -1.2501 -0.0785  0.1655
 5739SOL    HW228854   0.126   0.229  12.790 -0.2228  1.2101 -1.6473
 5740SOL     OW28855   0.334   1.672   1.910  0.4817  0.1325  0.2971
 5740SOL    HW128856   0.343   1.593   1.857  2.0832  0.7553 -0.3431
 5740SOL    HW228857   0.367   1.742   1.854  0.5950 -0.9686 -1.0179
 5741SOL     OW28858   3.937   2.450   2.923 -0.1076  0.6683 -0.2536
 5741SOL    HW128859   3.962   2.515   2.988 -0.4063 -1.4294  1.9555
 5741SOL    HW228860   4.003   2.381   2.931  1.0893  1.8759  0.1528
 5742SOL     OW28861   0.832   2.010  15.337  0.3563 -0.0040  0.0235
 5742SOL    HW128862   0.832   1.943  15.405 -0.2588 -1.6581 -1.6114
 5742SOL    HW228863   0.920   2.048  15.337  0.4433 -0.1819  1.6556
 5743SOL     OW28864   4.003   3.733  10.060 -0.1983 -0.4190  0.0410
 5743SOL    HW128865   3.916   3.701  10.033  0.2505 -1.9105  0.3745
 5743SOL    HW228866   3.993   3.814  10.010 -0.8348 -1.0516 -0.8775
 5744SOL     OW28867   3.825   4.373  12.960 -0.5480  0.2201 -0.5725
 5744SOL    HW128868   3.808   4.366  13.054  0.5061  0.0746 -0.3993
 5744SOL    HW228869   3.735   4.361  12.927  0.4234 -0.4549 -2.9886
 5745SOL     OW28870   1.264   4.429  11.024 -0.6381 -0.0480  0.0232
 5745SOL    HW128871   1.313   4.349  11.038  0.6217  0.7430  0.1632
 5745SOL    HW228872   1.270   4.436  10.929 -0.1692  2.6384  0.2438
 5746SOL     OW28873   1.146   2.278   3.093 -0.2292  0.0383 -0.4227
 5746SOL    HW128874   1.117   2.195   3.129  0.5168 -1.4673 -3.2985
 5746SOL    HW228875   1.175   2.310   3.179  0.5069  1.0214 -1.0224
 5747SOL     OW28876   4.422   1.324  13.539 -0.3262 -0.6136 -0.0562
 5747SOL    HW128877   4.486   1.392  13.519  0.9173 -1.6478  0.4528
 5747SOL    HW228878   4.393   1.350  13.626  0.5498  0.6458 -0.1381
 5748SOL     OW28879   0.195   4.732   7.895 -0.2825 -0.4963 -0.0931
 5748SOL    HW128880   0.122   0.013   7.835  0.2625 -0.8367 -0.8590
 5748SOL    HW228881   0.193   0.072   7.951  0.4424 -1.3971  1.1624
 5749SOL     OW28882   4.321   2.735   9.076 -0.4533  0.3423 -0.2561
 5749SOL    HW128883   4.284   2.750   9.163 -1.4909 -0.0751 -0.6282
 5749SOL    HW228884   4.398   2.686   9.104 -0.5174  0.4153  0.0442
 5750SOL     OW28885   4.571   1.844   7.914  0.0549  0.6055 -0.5710
 5750SOL    HW128886   4.639   1.875   7.856  0.8365 -0.1156 -0.0323
 5750SOL    HW228887   4.572   1.751   7.894 -1.9257  0.2866  0.7775
 5751SOL     OW28888   4.169   1.850   3.926 -0.3146 -0.3961 -0.2838
 5751SOL    HW128889   4.248   1.870   3.876  0.0917 -0.2441  0.4243
 5751SOL    HW228890   4.199   1.830   4.014 -1.6026  1.0882  0.4799
 5752SOL     OW28891   0.763   2.332   7.139  0.0054 -0.1780  0.2059
 5752SOL    HW128892   0.785   2.360   7.050 -1.9028 -0.0283 -0.2130
 5752SOL    HW228893   0.675   2.369   7.145 -0.3710 -0.9444 -0.5184
 5753SOL     OW28894   3.000   2.872   1.583  0.0680  0.2607  0.3277
 5753SOL    HW128895   2.910   2.849   1.607  0.5237 -0.8368  0.9682
 5753SOL    HW228896   3.029   2.899   1.670 -1.3858  1.9124  0.3247
 5754SOL     OW28897   4.384   0.888   1.383 -0.3087  0.6791 -0.4784
 5754SOL    HW128898   4.457   0.888   1.445  0.2574 -0.0338 -1.1386
 5754SOL    HW228899   4.404   0.815   1.325 -0.8486 -1.0514  1.5353
 5755SOL     OW28900   0.712   4.049   7.211 -0.2160 -0.1980 -0.1001
 5755SOL    HW128901   0.635   4.039   7.268 -1.2773  0.1247 -1.4817
 5755SOL    HW228902   0.766   3.980   7.249  0.3316 -0.6714 -1.7556
 5756SOL     OW28903   4.165   1.131   7.421 -0.0532 -0.8702 -0.0441
 5756SOL    HW128904   4.129   1.048   7.390 -1.2630 -0.7160  0.9406
 5756SOL    HW228905   4.224   1.087   7.482  2.0354  2.1615  0.0907
 5757SOL     OW28906   0.172   1.582  13.135  0.2649 -0.4186 -0.8246
 5757SOL    HW128907   0.112   1.519  13.094 -0.0128 -1.3585  1.0588
 5757SOL    HW228908   0.159   1.561  13.227  2.6446  1.3527 -0.1018
 5758SOL     OW28909   4.457   1.840   7.334 -0.5274 -0.2168 -0.8304
 5758SOL    HW128910   4.522   1.778   7.302 -0.6699 -0.7114 -0.1580
 5758SOL    HW228911   4.514   1.908   7.373  0.9081 -0.5552 -2.3555
 5759SOL     OW28912   2.366   1.979  15.283  0.6147 -0.1374 -0.0025
 5759SOL    HW128913   2.457   1.990  15.258  0.1267  0.9587 -1.2693
 5759SOL    HW228914   2.343   1.910  15.221 -2.7705  0.4499  0.5931
 5760SOL     OW28915   4.026   1.378  10.109  0.0309 -0.1683  0.5434
 5760SOL    HW128916   4.061   1.347  10.025 -0.7067 -1.2747  0.6451
 5760SOL    HW228917   3.934   1.382  10.084  0.2635  0.2586 -0.2572
 5761SOL     OW28918   3.838   1.405  15.234  0.2204 -0.4299 -0.0923
 5761SOL    HW128919   3.926   1.392  15.271  0.5445  0.6985 -0.4899
 5761SOL    HW228920   3.785   1.413  15.313 -0.8347 -1.8628 -0.6474
 5762SOL     OW28921   3.717   3.179   4.055 -0.3612  0.4289  0.2215
 5762SOL    HW128922   3.738   3.228   4.134  0.8139  0.0856  0.1174
 5762SOL    HW228923   3.780   3.107   4.064 -0.3135  0.2647 -1.3529
 5763SOL     OW28924   3.807   4.674   3.440 -0.4667  0.3278  0.0102
 5763SOL    HW128925   3.867   4.602   3.420 -0.9182 -0.4061  1.3529
 5763SOL    HW228926   3.869   0.006   3.467 -1.0215  0.5154  0.7958
 5764SOL     OW28927   0.226   2.901   8.989  0.1539  0.3992  0.0258
 5764SOL    HW128928   0.310   2.901   8.943  1.8464  0.1964  3.1241
 5764SOL    HW228929   0.225   2.815   9.031 -0.9102  0.0490 -0.7297
 5765SOL     OW28930   0.802   1.289   7.667 -0.6094 -0.0707 -0.4609
 5765SOL    HW128931   0.861   1.234   7.718  0.7447  1.2752 -0.5614
 5765SOL    HW228932   0.817   1.260   7.578 -2.2150  1.4127 -1.2253
 5766SOL     OW28933   0.122   0.111  15.519 -0.1959  0.2001 -0.1313
 5766SOL    HW128934   0.112   0.124  15.614  0.1515  0.0351 -0.0748
 5766SOL    HW228935   0.082   0.027  15.500  1.8723 -0.5489 -1.1442
 5767SOL     OW28936   0.162   4.391   4.234  0.3842 -0.1098 -0.3704
 5767SOL    HW128937   0.082   4.384   4.287  0.1630 -0.6351 -0.7740
 5767SOL    HW228938   0.178   4.305   4.195 -0.2507 -0.1401 -0.5666
 5768SOL     OW28939   2.122   0.982   5.606 -0.3132 -0.6705  0.1609
 5768SOL    HW128940   2.173   0.994   5.686  1.5524 -0.2506 -1.0913
 5768SOL    HW228941   2.121   0.886   5.606 -1.0015 -0.6659 -0.1119
 5769SOL     OW28942   1.465   0.058  15.164 -0.7183 -0.4232  0.5589
 5769SOL    HW128943   1.520   4.720  15.142  0.1418 -0.1376  1.7475
 5769SOL    HW228944   1.442   0.093  15.078  2.2432 -1.4636 -0.6336
 5770SOL     OW28945   0.244   4.177   2.459 -0.0154  0.0554 -0.6792
 5770SOL    HW128946   0.261   4.083   2.467  0.1876  0.1858  0.4268
 5770SOL    HW228947   0.331   4.214   2.477 -0.3582  1.2157 -1.4381
 5771SOL     OW28948   2.393   1.096   2.036  0.2599 -0.2206 -0.1412
 5771SOL    HW128949   2.437   1.051   1.964 -0.6569 -0.5779 -0.4830
 5771SOL    HW228950   2.356   1.171   1.989  0.3528  0.4494  0.8638
 5772SOL     OW28951   3.967   0.594   2.842  0.3658 -0.2276  0.1250
 5772SOL    HW128952   3.913   0.623   2.915 -1.5537  3.5769 -2.8142
 5772SOL    HW228953   4.044   0.648   2.858  0.5841 -0.2545 -0.8350
 5773SOL     OW28954   4.033   0.863   7.345 -0.0010 -0.5637  0.3963
 5773SOL    HW128955   4.068   0.791   7.292 -0.4415  0.2719 -1.0429
 5773SOL    HW228956   3.940   0.841   7.343  0.0606 -0.4627 -3.4487
 5774SOL     OW28957   3.660   3.540   1.212 -0.0324  0.7054  0.0412
 5774SOL    HW128958   3.566   3.523   1.222  0.1538  0.0514  0.6713
 5774SOL    HW228959   3.679   3.506   1.124 -0.4823 -1.1009  0.6341
 5775SOL     OW28960   3.065   0.192   6.066 -0.7215  0.3950  0.3718
 5775SOL    HW128961   3.157   0.202   6.089 -0.7501 -1.7935  1.4364
 5775SOL    HW228962   3.034   0.281   6.049  0.6330  0.3392 -2.4727
 5776SOL     OW28963   3.550   1.264   5.583 -0.2455 -0.3401 -0.0373
 5776SOL    HW128964   3.484   1.306   5.639  0.2196  0.3466 -0.0106
 5776SOL    HW228965   3.503   1.184   5.559 -0.5457 -0.6821  1.6507
 5777SOL     OW28966   2.161   4.498   4.612 -0.2830 -0.0072 -0.1096
 5777SOL    HW128967   2.174   4.470   4.703  0.0643 -0.5248 -0.3204
 5777SOL    HW228968   2.193   4.414   4.577 -1.0464  0.5749 -2.2164
 5778SOL     OW28969   3.386   0.272  11.205  0.1060  0.4291  0.5288
 5778SOL    HW128970   3.432   0.245  11.285  0.2998 -1.3260 -0.1657
 5778SOL    HW228971   3.440   0.224  11.143  2.0450  3.6888 -0.3098
 5779SOL     OW28972   1.777   0.541   8.158  0.1161 -0.2860  0.0271
 5779SOL    HW128973   1.756   0.621   8.109  1.0468 -0.8663 -1.3280
 5779SOL    HW228974   1.700   0.522   8.211  1.6395  0.6168  2.5657
 5780SOL     OW28975   2.162   4.046   4.024  0.1690  0.5595 -0.0946
 5780SOL    HW128976   2.081   4.061   3.975 -0.1016 -1.9582 -0.4092
 5780SOL    HW228977   2.196   3.960   3.998 -0.1891  1.0699 -2.2426
 5781SOL     OW28978   1.630   1.709   1.383 -0.1887 -0.2322  0.4078
 5781SOL    HW128979   1.574   1.631   1.381  0.8472 -1.0220  1.6638
 5781SOL    HW228980   1.573   1.784   1.366 -0.3794  0.0970  2.4977
 5782SOL     OW28981   3.297   1.055   5.475  0.1002 -0.2811 -0.2173
 5782SOL    HW128982   3.204   1.070   5.492  0.1465 -1.2023  0.8317
 5782SOL    HW228983   3.293   1.015   5.388 -0.6914  1.2258 -0.8690
 5783SOL     OW28984   0.425   2.642  12.484  0.2297 -0.6121  0.0427
 5783SOL    HW128985   0.464   2.723  12.451  2.3389 -1.5568  0.2081
 5783SOL    HW228986   0.498   2.617  12.540 -0.1517 -0.4718  0.5969
 5784SOL     OW28987   0.857   0.057   9.809 -0.4446  0.0150 -0.3659
 5784SOL    HW128988   0.942   0.017   9.826  0.4219  1.3045 -1.6618
 5784SOL    HW228989   0.889   0.117   9.741 -0.4044  0.1815 -0.2002
 5785SOL     OW28990   3.103   3.921   3.732  0.1373 -0.0413 -0.0124
 5785SOL    HW128991   3.047   3.894   3.804  2.0331 -1.8366  0.7944
 5785SOL    HW228992   3.178   3.896   3.785 -1.3736 -1.4518  1.4364
 5786SOL     OW28993   1.881   1.596   9.403  0.3050 -0.4219 -0.1580
 5786SOL    HW128994   1.818   1.554   9.344  1.7252 -1.3239 -1.0752
 5786SOL    HW228995   1.881   1.681   9.359  0.0137 -0.8216 -0.9285
 5787SOL     OW28996   0.656   4.086  12.514 -0.1356 -0.6036 -0.0937
 5787SOL    HW128997   0.620   4.084  12.602 -2.9204 -2.1307 -1.2580
 5787SOL    HW228998   0.724   4.019  12.524 -1.1130 -1.6715 -0.6153
 5788SOL     OW28999   3.993   0.759   8.165 -0.6700 -0.0442  0.0529
 5788SOL    HW129000   3.902   0.764   8.196 -1.2920 -1.2612 -1.6029
 5788SOL    HW229001   4.022   0.679   8.209 -0.1203 -0.3121 -0.7903
 5789SOL     OW29002   2.562   2.336   3.876 -0.1517  0.1710 -0.6339
 5789SOL    HW129003   2.650   2.308   3.851  0.0609 -1.9328  2.5192
 5789SOL    HW229004   2.541   2.275   3.947 -0.2950 -1.1708 -1.8472
 5790SOL     OW29005   4.013   3.766   6.085 -0.4611  0.2500  0.0011
 5790SOL    HW129006   3.945   3.812   6.134 -0.1841 -1.0034  1.5934
 5790SOL    HW229007   4.093   3.809   6.116 -0.4997 -0.8323  1.6577
 5791SOL     OW29008   2.752   0.278   8.417  0.5650  0.6723 -0.3643
 5791SOL    HW129009   2.814   0.237   8.477 -0.0588 -0.1387 -0.2835
 5791SOL    HW229010   2.762   0.218   8.342  1.4200 -1.5731  1.5601
 5792SOL     OW29011   4.046   2.151  10.391  0.3394 -0.1711  0.6389
 5792SOL    HW129012   4.128   2.124  10.431 -0.0195  0.0882  1.5601
 5792SOL    HW229013   4.004   2.198  10.463 -0.7593 -0.3780  0.1347
 5793SOL     OW29014   2.441   3.359   2.294 -0.8690 -0.0643 -0.0005
 5793SOL    HW129015   2.506   3.289   2.292  0.9626  1.6452 -0.0992
 5793SOL    HW229016   2.368   3.333   2.238 -1.2691 -0.0680  0.5158
 5794SOL     OW29017   2.637   0.699   5.891 -0.5245 -0.0479  0.3213
 5794SOL    HW129018   2.558   0.652   5.864  0.0361 -1.7687  1.6908
 5794SOL    HW229019   2.688   0.717   5.812  0.2701 -0.1753  0.8079
 5795SOL     OW29020   4.660   1.404   2.438 -0.1403 -0.5111  0.5217
 5795SOL    HW129021   4.713   1.336   2.481  1.0298  1.6300  2.4236
 5795SOL    HW229022   0.000   1.427   2.385 -1.2537 -0.3333 -1.0061
 5796SOL     OW29023   3.840   1.642   1.087  0.8042  0.1938 -0.5428
 5796SOL    HW129024   3.757   1.627   1.042  0.8475  4.0968 -1.9026
 5796SOL    HW229025   3.810   1.636   1.178 -0.3291  2.5118 -0.7687
 5797SOL     OW29026   0.891   3.543   2.999  0.1692 -0.1069 -0.7395
 5797SOL    HW129027   0.871   3.466   2.945  2.7210  0.0656 -1.8991
 5797SOL    HW229028   0.976   3.566   2.962  0.4548  0.8878  0.5588
 5798SOL     OW29029   0.656   0.947   7.604  0.7712 -0.1453  0.3257
 5798SOL    HW129030   0.664   0.943   7.509  2.0243  0.3217  0.4135
 5798SOL    HW229031   0.626   1.038   7.602  2.8052  0.5364  0.5805
 5799SOL     OW29032   4.126   1.951  14.088  0.8448  0.5725  0.0943
 5799SOL    HW129033   4.115   2.040  14.054 -2.1969 -0.0454 -0.5874
 5799SOL    HW229034   4.220   1.936  14.080  0.4081 -0.7391 -2.4299
 5800SOL     OW29035   0.857   4.223   4.926  0.8597  0.4665  0.5920
 5800SOL    HW129036   0.927   4.264   4.976  1.3163  1.6174 -0.9897
 5800SOL    HW229037   0.901   4.162   4.867 -1.4248 -1.4351  0.8675
 5801SOL     OW29038   4.270   1.831   9.127 -0.4594  0.0065  0.5098
 5801SOL    HW129039   4.253   1.922   9.103 -0.9135 -0.1427  0.2661
 5801SOL    HW229040   4.219   1.792   9.056 -1.0937  0.1900  0.8662
 5802SOL     OW29041   0.062   2.212   9.777  0.7096  0.0974  0.4259
 5802SOL    HW129042   0.083   2.189   9.687  0.6802  1.9824 -0.0515
 5802SOL    HW229043   4.703   2.217   9.772  0.8401 -0.4616 -2.2998
 5803SOL     OW29044   3.049   4.552  10.498 -0.5139  0.2088 -0.4621
 5803SOL    HW129045   2.985   4.610  10.539 -0.4354 -1.0767  1.4715
 5803SOL    HW229046   3.065   4.489  10.568 -0.4208 -1.4639 -2.0055
 5804SOL     OW29047   0.698   1.413   3.138 -0.2839  0.1203  0.6356
 5804SOL    HW129048   0.681   1.469   3.062  1.2752 -1.3073 -0.8041
 5804SOL    HW229049   0.673   1.325   3.109 -0.4713  0.4889 -0.3130
 5805SOL     OW29050   3.545   2.251   4.144 -0.3709  0.3631  0.0554
 5805SOL    HW129051   3.523   2.164   4.111  0.6039  1.3067 -3.0331
 5805SOL    HW229052   3.533   2.304   4.066  0.6186 -0.1155 -0.4247
 5806SOL     OW29053   4.461   0.731   8.058 -0.6928  0.2830  0.1061
 5806SOL    HW129054   4.450   0.644   8.095 -2.1906  1.5161  2.5762
 5806SOL    HW229055   4.385   0.778   8.092 -0.6750  0.4030 -0.0196
 5807SOL     OW29056   3.216   3.174   9.011  0.3348 -0.0137  0.2140
 5807SOL    HW129057   3.131   3.204   9.043 -0.1288  1.2431 -2.1850
 5807SOL    HW229058   3.241   3.252   8.961 -1.4627  0.3188 -0.1979
 5808SOL     OW29059   3.877   3.856   0.543 -0.1466  0.3514 -0.2147
 5808SOL    HW129060   3.795   3.871   0.495  1.4006  1.1409 -2.6066
 5808SOL    HW229061   3.926   3.792   0.491 -0.8965  0.5831 -1.2161
 5809SOL     OW29062   4.089   4.104   7.493  0.5370 -0.2466 -0.3002
 5809SOL    HW129063   4.065   4.177   7.549 -1.1687 -0.7957 -0.3367
 5809SOL    HW229064   4.128   4.037   7.550  0.8551 -0.3258 -0.6039
 5810SOL     OW29065   3.663   1.004   2.067  0.0784  0.1603 -0.4990
 5810SOL    HW129066   3.753   0.986   2.092 -0.9725  0.5556  3.7040
 5810SOL    HW229067   3.619   0.990   2.151 -0.4336 -2.8433 -1.2785
 5811SOL     OW29068   2.674   3.144   6.764  0.1778  0.6915 -0.2540
 5811SOL    HW129069   2.744   3.209   6.769 -0.2338  1.2523 -1.8745
 5811SOL    HW229070   2.729   3.069   6.743 -1.4713 -1.1873  2.1599
 5812SOL     OW29071   1.906   0.038   9.659 -0.4785  0.3167 -0.1023
 5812SOL    HW129072   1.999   0.060   9.652 -0.3869 -0.0286  0.0250
 5812SOL    HW229073   1.854   0.072   9.587  0.2636  1.0946 -0.2751
 5813SOL     OW29074   4.124   3.606   5.521 -0.1440  0.4808 -0.4445
 5813SOL    HW129075   4.087   3.547   5.456  1.2206  1.0102 -1.7142
 5813SOL    HW229076   4.131   3.545   5.594  0.4319  1.6492  0.4733
 5814SOL     OW29077   1.813   3.731   4.592 -0.3826  0.1784  0.1288
 5814SOL    HW129078   1.764   3.651   4.573  0.5682 -0.2809 -0.4135
 5814SOL    HW229079   1.840   3.756   4.504  0.4487  3.1186  1.2183
 5815SOL     OW29080   4.613   4.057  13.284 -0.2509 -0.1137  0.0785
 5815SOL    HW129081   4.583   4.148  13.283 -0.9121 -0.3343  0.0568
 5815SOL    HW229082   4.705   4.073  13.262 -0.3707 -2.2073 -1.9572
 5816SOL     OW29083   4.186   4.527   6.818 -0.0536 -0.0482  0.8079
 5816SOL    HW129084   4.154   4.604   6.770  0.4962  0.5024  1.3277
 5816SOL    HW229085   4.207   4.560   6.905 -0.7653  1.2446  0.4948
 5817SOL     OW29086   1.694   1.440   8.031 -0.4106  0.3024 -0.0494
 5817SOL    HW129087   1.615   1.487   8.056 -1.9823 -3.2527  1.6713
 5817SOL    HW229088   1.755   1.512   8.016 -0.7589  0.7748  0.8031
 5818SOL     OW29089   1.220   3.485   6.030 -0.0260  0.5121  0.0302
 5818SOL    HW129090   1.224   3.579   6.011 -1.9633  1.0552  2.3333
 5818SOL    HW229091   1.185   3.451   5.948 -0.4387 -1.2978  0.9708
 5819SOL     OW29092   0.805   1.610   8.365 -0.3024 -0.3281 -0.2844
 5819SOL    HW129093   0.865   1.617   8.439 -1.5960  2.0155  0.5239
 5819SOL    HW229094   0.868   1.577   8.300  1.1842  1.0902  0.4425
 5820SOL     OW29095   2.542   3.086   1.992 -0.5288  0.3473  0.4814
 5820SOL    HW129096   2.601   3.062   2.063  1.0193 -0.1144 -0.9509
 5820SOL    HW229097   2.530   3.175   2.025 -0.1768  1.3842 -2.1511
 5821SOL     OW29098   4.497   0.762   9.188  0.0978 -0.0579  0.1670
 5821SOL    HW129099   4.461   0.723   9.268  0.4404 -0.2983  0.2052
 5821SOL    HW229100   4.419   0.810   9.160 -0.2278 -0.8689 -0.3027
 5822SOL     OW29101   2.751   1.170  10.670  0.0929  0.2061 -0.1023
 5822SOL    HW129102   2.827   1.228  10.660 -1.0099  1.5917 -0.5597
 5822SOL    HW229103   2.777   1.094  10.722 -0.4060  1.1672  1.5466
 5823SOL     OW29104   3.224   2.093  10.002 -1.2085 -0.7624  0.1728
 5823SOL    HW129105   3.244   2.073   9.910  0.1787  2.2610 -0.1757
 5823SOL    HW229106   3.221   2.004  10.039  0.7625 -0.7729  0.3246
 5824SOL     OW29107   4.003   2.703  14.721 -0.0016  0.3705 -0.8572
 5824SOL    HW129108   3.976   2.614  14.745 -0.6117  0.8329  0.1887
 5824SOL    HW229109   3.951   2.752  14.785  2.1402 -0.9484  1.8783
 5825SOL     OW29110   3.078   3.023   1.177  0.5008  0.5835  0.4098
 5825SOL    HW129111   3.055   2.949   1.233 -0.3442 -0.5124 -1.3775
 5825SOL    HW229112   3.156   2.997   1.128 -1.2469 -0.5273 -1.8406
 5826SOL     OW29113   1.949   2.758   0.272 -0.0278 -0.2898 -0.3472
 5826SOL    HW129114   1.859   2.757   0.305  0.9725 -4.5873  2.2458
 5826SOL    HW229115   1.943   2.711   0.189  1.6280 -0.9355 -0.1066
 5827SOL     OW29116   1.588   0.631  16.607 -0.4097  0.0791 -0.4211
 5827SOL    HW129117   1.625   0.691  16.541  1.1354  0.4526  0.7762
 5827SOL    HW229118   1.612   0.547  16.569  1.5667  0.5246 -0.1759
 5828SOL     OW29119   4.009   0.503  10.859 -0.2056  0.0311 -0.1642
 5828SOL    HW129120   4.024   0.593  10.887  0.8099 -0.2633  0.2284
 5828SOL    HW229121   3.973   0.527  10.773 -0.5166 -2.2404 -0.6798
 5829SOL     OW29122   1.048   2.032   3.056 -0.2413  0.0673  0.2116
 5829SOL    HW129123   1.020   1.942   3.043  0.6006 -0.1247 -0.2911
 5829SOL    HW229124   0.993   2.077   2.992  0.4657 -0.4741 -0.7820
 5830SOL     OW29125   1.169   3.022   7.407 -0.3237  0.1702  0.0335
 5830SOL    HW129126   1.157   2.987   7.319 -0.0725 -0.1942  0.1427
 5830SOL    HW229127   1.176   3.115   7.384 -2.0012  0.0576 -0.9035
 5831SOL     OW29128   4.386   2.699   2.275 -0.0289 -0.3917 -0.3424
 5831SOL    HW129129   4.479   2.700   2.251 -0.1131  2.0876 -0.5574
 5831SOL    HW229130   4.388   2.741   2.361  0.4155  1.2278 -1.1452
 5832SOL     OW29131   0.822   3.817   8.411 -0.1747 -0.2586  0.3654
 5832SOL    HW129132   0.796   3.728   8.385 -1.1854  0.2621 -0.3828
 5832SOL    HW229133   0.749   3.860   8.367  2.4623  0.9387 -2.8457
 5833SOL     OW29134   0.053   1.849  13.154 -0.2495  0.6799 -0.1140
 5833SOL    HW129135   0.103   1.770  13.131 -0.5633  0.4742 -0.0929
 5833SOL    HW229136   0.063   1.841  13.249  1.9842  0.7427 -0.3414
 5834SOL     OW29137   4.121   0.594   4.107 -0.6383 -0.1108 -0.2351
 5834SOL    HW129138   4.217   0.595   4.116 -0.9019 -0.4276  2.5441
 5834SOL    HW229139   4.099   0.680   4.141  1.9240  0.0094  1.1977
 5835SOL     OW29140   4.172   1.808   4.782  0.2434 -0.4217  0.3774
 5835SOL    HW129141   4.132   1.746   4.843  2.3963 -2.0918  0.1024
 5835SOL    HW229142   4.096   1.853   4.745  0.8216  1.2407  1.2135
 5836SOL     OW29143   2.024   4.223  10.881  0.2697  0.2559 -0.4036
 5836SOL    HW129144   2.118   4.242  10.878  0.8074 -2.6590 -1.4621
 5836SOL    HW229145   2.016   4.180  10.966 -0.5830 -0.2428 -0.7269
 5837SOL     OW29146   3.111   2.864  13.610  0.1243  0.0580 -0.5388
 5837SOL    HW129147   3.120   2.949  13.566 -1.8716 -1.0492 -3.0049
 5837SOL    HW229148   3.079   2.892  13.696  0.6406 -1.4612  0.1513
 5838SOL     OW29149   3.893   4.493   4.369 -0.2978 -0.0035  0.2482
 5838SOL    HW129150   3.817   4.542   4.400 -0.8926 -1.6522  1.3971
 5838SOL    HW229151   3.852   4.435   4.305  0.0890  0.3438 -0.3103
 5839SOL     OW29152   4.486   3.573   0.859 -0.1303  0.1259 -0.1116
 5839SOL    HW129153   4.501   3.667   0.850 -1.1566  0.3515  0.5422
 5839SOL    HW229154   4.575   3.541   0.876 -0.3009 -1.7727 -2.7349
 5840SOL     OW29155   2.920   3.829   7.886  0.1338  0.5416  0.0037
 5840SOL    HW129156   2.982   3.863   7.821 -0.6007  1.9465  0.0327
 5840SOL    HW229157   2.964   3.867   7.962  3.4331 -1.2715 -1.0103
 5841SOL     OW29158   3.727   3.424   0.085  0.0941  0.3831  0.8702
 5841SOL    HW129159   3.652   3.482   0.070  1.0309  0.8206 -2.1589
 5841SOL    HW229160   3.700   3.361   0.151 -0.2627 -1.0736 -0.6714
 5842SOL     OW29161   3.504   3.686   8.706 -0.3493 -0.3438  0.0979
 5842SOL    HW129162   3.595   3.676   8.679 -0.8792  0.1712 -1.8063
 5842SOL    HW229163   3.515   3.670   8.800  0.1191  3.4212  0.6865
 5843SOL     OW29164   3.660   0.345   2.623  0.2821  0.9856  0.2528
 5843SOL    HW129165   3.700   0.328   2.538  0.2096 -0.3002  0.4711
 5843SOL    HW229166   3.698   0.432   2.636  1.0136  0.4947  1.3884
 5844SOL     OW29167   2.355   2.195   7.624  0.5578 -0.4261  0.8870
 5844SOL    HW129168   2.366   2.151   7.709  0.5996  1.1168  1.6780
 5844SOL    HW229169   2.308   2.127   7.577 -1.9442  0.4434  2.1341
 5845SOL     OW29170   0.503   2.528   8.574 -0.1728 -0.1286  0.1311
 5845SOL    HW129171   0.506   2.432   8.581  0.5106 -0.0301  1.2876
 5845SOL    HW229172   0.423   2.539   8.523 -0.6145 -1.2489  0.5806
 5846SOL     OW29173   3.371   2.396  13.242  0.1020 -0.3812  0.3932
 5846SOL    HW129174   3.279   2.391  13.269 -0.0510 -2.8276 -0.6245
 5846SOL    HW229175   3.395   2.487  13.260  0.0441 -0.3540  0.3335
 5847SOL     OW29176   0.822   4.245   1.455  0.3403 -0.0992  0.0872
 5847SOL    HW129177   0.839   4.245   1.361 -1.4351  0.5328 -0.2397
 5847SOL    HW229178   0.891   4.298   1.494 -0.0202 -1.1342  2.1378
 5848SOL     OW29179   2.818   4.079   5.371 -0.1001  0.7884  0.1533
 5848SOL    HW129180   2.736   4.073   5.322  0.0865 -1.2721  0.1298
 5848SOL    HW229181   2.822   3.987   5.396 -1.1789  0.7279  0.0989
 5849SOL     OW29182   4.335   2.373  11.285  0.0516 -0.2479  0.0906
 5849SOL    HW129183   4.255   2.416  11.315  0.6754  0.3115  0.9467
 5849SOL    HW229184   4.404   2.439  11.276 -1.1183  0.7263 -1.8419
 5850SOL     OW29185   0.868   0.864   4.703  0.8712 -0.4423 -0.5262
 5850SOL    HW129186   0.869   0.838   4.611 -0.5905  1.9022 -1.2058
 5850SOL    HW229187   0.885   0.778   4.741 -0.9189 -1.0899 -1.1976
 5851SOL     OW29188   3.954   3.582   9.153 -0.5142  0.4560 -0.7202
 5851SOL    HW129189   4.025   3.552   9.096 -1.3904 -1.0607 -1.0117
 5851SOL    HW229190   4.004   3.640   9.210 -0.2295  0.4348 -0.9527
 5852SOL     OW29191   4.285   3.984  14.184  0.4101  0.4636  0.1228
 5852SOL    HW129192   4.358   3.940  14.227  0.6122  2.1044  1.4997
 5852SOL    HW229193   4.334   4.048  14.132 -0.5151 -0.2463 -1.6127
 5853SOL     OW29194   1.667   4.415   6.604 -0.2092  0.1412 -0.0270
 5853SOL    HW129195   1.728   4.488   6.599  0.0274  0.0145  1.0265
 5853SOL    HW229196   1.669   4.384   6.514  0.8285 -1.6251  0.6045
 5854SOL     OW29197   2.699   0.721   4.058  0.4513 -0.1877 -0.0631
 5854SOL    HW129198   2.789   0.752   4.050  0.8940 -1.7660 -1.3626
 5854SOL    HW229199   2.649   0.803   4.058 -1.8188 -1.5671 -0.9254
 5855SOL     OW29200   4.052   1.164   4.676  0.1119  0.1395 -0.2334
 5855SOL    HW129201   4.130   1.111   4.694  1.0466  0.9758 -1.7884
 5855SOL    HW229202   3.975   1.117   4.707  0.4492 -0.3180 -0.0876
 5856SOL     OW29203   0.520   1.686   4.385 -0.2612  0.1257  0.2841
 5856SOL    HW129204   0.527   1.779   4.408 -2.6382  0.5454 -0.6416
 5856SOL    HW229205   0.604   1.673   4.341 -1.3218 -2.0013 -1.1017
 5857SOL     OW29206   4.667   3.458  16.578 -0.1722 -0.0937  0.2320
 5857SOL    HW129207   4.647   3.368  16.606 -2.1875  0.5470  0.8539
 5857SOL    HW229208   0.016   3.463  16.620 -0.2144  3.0290 -0.0848
 5858SOL     OW29209   4.713   0.977   1.984  0.1872  0.2509  0.4311
 5858SOL    HW129210   0.024   0.972   2.067  0.0221 -0.9358  0.4548
 5858SOL    HW229211   0.017   0.897   1.950  0.2862 -0.3000  1.8612
 5859SOL     OW29212   4.366   2.506  16.385  0.2080 -0.2577 -0.4944
 5859SOL    HW129213   4.432   2.550  16.331  2.1839 -0.0572  2.0443
 5859SOL    HW229214   4.416   2.512  16.467 -1.8810 -2.1214  0.9090
 5860SOL     OW29215   2.971   3.165   6.832 -0.3327 -0.0207  0.0509
 5860SOL    HW129216   2.938   3.243   6.787  1.4349 -0.3494 -1.8108
 5860SOL    HW229217   3.029   3.129   6.765  0.6320 -0.2130  0.9906
 5861SOL     OW29218   2.302   2.303   3.787 -0.3528 -0.5692 -0.3370
 5861SOL    HW129219   2.393   2.316   3.815 -0.5511  4.3498 -1.9401
 5861SOL    HW229220   2.282   2.397   3.782  1.3903 -0.1432  0.6619
 5862SOL     OW29221   2.718   0.800   7.799  0.3931 -0.0817 -0.4972
 5862SOL    HW129222   2.704   0.726   7.739  0.0735  2.6646 -3.8132
 5862SOL    HW229223   2.770   0.762   7.870 -1.0961  0.7662  1.0726
 5863SOL     OW29224   3.250   2.996   1.475 -0.6128 -0.1437  0.3149
 5863SOL    HW129225   3.291   2.981   1.559 -1.6030  0.4161  0.9049
 5863SOL    HW229226   3.217   3.086   1.486  0.3143  0.6004 -3.0264
 5864SOL     OW29227   3.783   3.110   2.878  0.4357 -0.0127 -0.2242
 5864SOL    HW129228   3.726   3.054   2.930  0.4194  3.0720  3.0681
 5864SOL    HW229229   3.736   3.190   2.901  2.1048  0.6933  0.6927
 5865SOL     OW29230   0.712   2.752   4.228  0.4145  0.7442  0.3079
 5865SOL    HW129231   0.628   2.769   4.186  0.6393 -1.1630 -0.9101
 5865SOL    HW229232   0.768   2.829   4.226 -0.5425  1.4885  1.9284
 5866SOL     OW29233   1.347   1.330   9.401 -0.2702  0.4212  0.8906
 5866SOL    HW129234   1.392   1.398   9.452 -0.3820  1.9050 -0.9656
 5866SOL    HW229235   1.261   1.330   9.443 -1.0913 -0.9412 -0.8330
 5867SOL     OW29236   2.894   3.450   8.687  0.3988  0.1254  0.3027
 5867SOL    HW129237   2.905   3.380   8.751 -0.8090  0.2316  0.6283
 5867SOL    HW229238   2.963   3.512   8.710  0.0470  0.0138  1.6224
 5868SOL     OW29239   0.369   0.015   5.098  0.6016  0.2387  0.1292
 5868SOL    HW129240   0.409   0.102   5.086  0.0722  0.5821  0.8335
 5868SOL    HW229241   0.358   4.721   5.008  1.8031  2.6004 -0.8464
 5869SOL     OW29242   1.234   2.388  10.084 -0.2622 -0.0893 -0.5468
 5869SOL    HW129243   1.302   2.441  10.043 -1.1116  2.9855  2.0866
 5869SOL    HW229244   1.185   2.375  10.002 -1.2402 -1.4023  0.2619
 5870SOL     OW29245   3.442   0.180  14.833 -0.4595 -0.7132  0.4188
 5870SOL    HW129246   3.493   0.110  14.794 -1.1223 -1.7395  1.3653
 5870SOL    HW229247   3.357   0.148  14.803  0.2534  0.5846 -2.9808
 5871SOL     OW29248   0.548   2.299   0.208 -0.5339  0.2796 -0.4290
 5871SOL    HW129249   0.488   2.320   0.137 -0.4856  3.0611  0.3310
 5871SOL    HW229250   0.551   2.384   0.253  1.0458  0.3381 -0.6566
 5872SOL     OW29251   1.232   2.851  12.100 -0.1414 -0.2982 -0.0676
 5872SOL    HW129252   1.221   2.796  12.022 -0.1613 -1.5244  0.8094
 5872SOL    HW229253   1.218   2.784  12.167  0.0836  1.9108  2.1916
 5873SOL     OW29254   4.351   2.743   1.565 -0.3169 -0.3235  0.6212
 5873SOL    HW129255   4.369   2.751   1.659 -1.8539 -0.0033  0.8782
 5873SOL    HW229256   4.256   2.749   1.564 -0.1488  1.6344 -2.3867
 5874SOL     OW29257   4.483   1.910   9.421 -0.4517  0.5763 -0.2767
 5874SOL    HW129258   4.399   1.866   9.430  0.5344 -1.8443 -3.0195
 5874SOL    HW229259   4.524   1.860   9.492 -3.0221 -1.8100 -0.4974
 5875SOL     OW29260   2.750   3.863   9.868 -0.0817 -0.0887  0.2738
 5875SOL    HW129261   2.699   3.852   9.788 -1.2183 -1.6122  1.2174
 5875SOL    HW229262   2.830   3.815   9.845  1.9121  2.8617  1.0860
 5876SOL     OW29263   4.130   2.287  15.887  0.1121 -0.3175  0.7335
 5876SOL    HW129264   4.035   2.279  15.898  0.3536 -0.4415  2.6852
 5876SOL    HW229265   4.140   2.382  15.878 -0.2421 -0.0777  2.8330
 5877SOL     OW29266   1.742   4.270   2.730  0.0561 -0.2629  0.5618
 5877SOL    HW129267   1.758   4.303   2.642 -0.3571  0.2663  0.6826
 5877SOL    HW229268   1.781   4.183   2.739 -0.6776 -0.6261  0.2147
 5878SOL     OW29269   1.098   4.618   8.534 -0.1213  0.3205  0.1652
 5878SOL    HW129270   1.160   4.557   8.573 -0.2596 -0.8880 -1.5395
 5878SOL    HW229271   1.041   4.622   8.611  0.8236  0.5067  0.8539
 5879SOL     OW29272   2.740   0.049   6.062 -0.1345  0.0018 -0.6756
 5879SOL    HW129273   2.833   0.030   6.075 -0.1569  0.2162 -0.1905
 5879SOL    HW229274   2.744   0.104   5.984 -1.2298  0.2122 -0.5808
 5880SOL     OW29275   4.420   1.251   7.756  0.1072 -0.4120  0.5158
 5880SOL    HW129276   4.343   1.269   7.811 -0.6347  1.7245 -1.2420
 5880SOL    HW229277   4.388   1.258   7.666  0.4594  0.0278  0.4270
 5881SOL     OW29278   3.177   1.822  11.576  0.0481 -0.9450 -0.0773
 5881SOL    HW129279   3.212   1.856  11.658  1.3987  0.9462 -1.4672
 5881SOL    HW229280   3.144   1.737  11.608  2.2127 -1.4702  0.7493
 5882SOL     OW29281   0.939   0.714  11.951  0.6751  0.6314  0.6675
 5882SOL    HW129282   0.982   0.744  12.032 -1.2808 -0.4815  2.1151
 5882SOL    HW229283   0.855   0.684  11.985  1.0108 -2.0006 -0.8763
 5883SOL     OW29284   0.747   1.347   6.439 -0.1797 -0.6415  0.2031
 5883SOL    HW129285   0.789   1.261   6.430  2.3526  0.4407  1.6319
 5883SOL    HW229286   0.785   1.371   6.524  0.2492  1.0602 -0.4838
 5884SOL     OW29287   3.035   1.123  16.704 -0.0508 -0.3211 -0.3998
 5884SOL    HW129288   3.079   1.120  16.789 -0.8552 -1.6885 -0.0327
 5884SOL    HW229289   2.951   1.159  16.732  1.3988  0.7678  2.5280
 5885SOL     OW29290   2.520   3.312   3.684  0.4694 -0.1266  0.5615
 5885SOL    HW129291   2.612   3.286   3.677  0.5934  0.0326  1.6069
 5885SOL    HW229292   2.492   3.259   3.758 -0.2770  1.3583  1.3453
 5886SOL     OW29293   1.748   0.742   2.996 -0.3384  0.1944 -0.6390
 5886SOL    HW129294   1.833   0.726   2.954  1.1041  1.3613  1.8459
 5886SOL    HW229295   1.784   0.756   3.084 -1.2384  0.4932 -0.3168
 5887SOL     OW29296   1.009   3.411  10.306 -0.1092 -0.4842 -0.3394
 5887SOL    HW129297   1.083   3.364  10.344  0.2777  0.2211 -0.2158
 5887SOL    HW229298   1.035   3.420  10.214  0.3863 -0.9967 -0.2445
 5888SOL     OW29299   3.337   0.388   6.990 -0.2713 -0.4839 -0.5852
 5888SOL    HW129300   3.301   0.475   6.973  0.5663  0.1603  0.9738
 5888SOL    HW229301   3.425   0.405   7.023 -0.9252  0.9010  0.4143
 5889SOL     OW29302   2.907   2.351   5.237  0.7326 -0.0884  0.1939
 5889SOL    HW129303   2.822   2.329   5.274  0.7941 -1.0300 -0.2460
 5889SOL    HW229304   2.884   2.377   5.148  0.4694 -0.7672  0.0679
 5890SOL     OW29305   4.611   1.903   3.276 -0.4370  0.3645  0.4133
 5890SOL    HW129306   4.648   1.904   3.364 -0.4133  3.5514  0.3795
 5890SOL    HW229307   4.550   1.829   3.279  0.0404 -0.0531 -0.3171
 5891SOL     OW29308   4.668   1.225   5.663 -0.7687 -0.1848 -0.5904
 5891SOL    HW129309   4.673   1.284   5.738  0.2122 -1.8619  0.6627
 5891SOL    HW229310   4.634   1.148   5.710 -1.2670  0.0767 -0.5258
 5892SOL     OW29311   0.080   1.803   4.495 -0.0494 -0.0159  0.2165
 5892SOL    HW129312   0.137   1.793   4.418 -1.3771 -0.1667 -0.7528
 5892SOL    HW229313   4.730   1.784   4.460  0.8471 -1.3468 -1.3033
 5893SOL     OW29314   0.920   0.097  16.912 -0.0602 -0.4161  0.2197
 5893SOL    HW129315   0.940   0.009  16.944  3.8581  0.4618  0.1828
 5893SOL    HW229316   0.827   0.077  16.902  0.2203 -0.2637 -2.9353
 5894SOL     OW29317   3.652   4.364   4.237 -0.5607  0.7626 -0.1994
 5894SOL    HW129318   3.619   4.453   4.243  0.4822  1.0785  0.9246
 5894SOL    HW229319   3.581   4.334   4.181 -2.3017  1.8680  1.4205
 5895SOL     OW29320   1.444   1.415   6.074 -0.3920  0.6136 -0.3967
 5895SOL    HW129321   1.466   1.387   6.163  0.7237  2.2316 -0.1498
 5895SOL    HW229322   1.365   1.468   6.087 -1.5524 -0.6411 -2.3456
 5896SOL     OW29323   3.865   3.832   5.351 -0.0766 -0.8489 -0.3921
 5896SOL    HW129324   3.910   3.785   5.280  1.3155 -0.1114 -0.0027
 5896SOL    HW229325   3.822   3.897   5.295  2.0363  0.2095 -0.7991
 5897SOL     OW29326   0.261   1.231   6.308  0.3609  0.1508 -0.0651
 5897SOL    HW129327   0.343   1.274   6.332 -0.2374  0.0249  2.1715
 5897SOL    HW229328   0.215   1.309   6.276 -1.3833 -1.1380 -0.7135
 5898SOL     OW29329   1.845   1.267   1.389 -0.0027 -0.1037 -0.9510
 5898SOL    HW129330   1.819   1.262   1.481  3.4373  0.3931  0.0316
 5898SOL    HW229331   1.847   1.362   1.374  1.7382 -0.0536 -0.4153
 5899SOL     OW29332   2.243   4.221   6.897  0.1273  0.0222  0.2183
 5899SOL    HW129333   2.294   4.284   6.948  1.9495  0.6562 -2.3476
 5899SOL    HW229334   2.291   4.141   6.914 -0.2103  0.3866  2.9005
 5900SOL     OW29335   2.922   1.970   3.196 -0.1462 -0.3200  0.1350
 5900SOL    HW129336   2.841   2.014   3.222 -0.3756 -2.4968  3.0539
 5900SOL    HW229337   2.908   1.880   3.225 -1.6840  0.1476  0.8571
 5901SOL     OW29338   1.169   0.967   8.836  0.2013 -0.5512 -0.1803
 5901SOL    HW129339   1.207   0.898   8.890  0.2177  1.5393  2.4758
 5901SOL    HW229340   1.235   0.962   8.767  1.1294 -2.8167  0.8457
 5902SOL     OW29341   1.999   0.117   6.427  0.6254 -0.7799  0.5635
 5902SOL    HW129342   2.032   0.101   6.516  2.1289  2.5629  0.6273
 5902SOL    HW229343   2.077   0.153   6.386 -0.1757 -0.1308 -0.3917
 5903SOL     OW29344   4.612   4.280   7.717  0.4875 -0.7731  0.2148
 5903SOL    HW129345   4.542   4.327   7.762 -0.3334 -0.8653 -0.9533
 5903SOL    HW229346   4.674   4.349   7.694 -1.1328  0.7347  0.3685
 5904SOL     OW29347   2.744   0.471  15.835  0.5432 -0.2190  0.4565
 5904SOL    HW129348   2.729   0.565  15.845  1.8492 -0.1220  1.4282
 5904SOL    HW229349   2.772   0.461  15.744  3.2462  1.5638  1.0877
 5905SOL     OW29350   2.579   1.909   1.893  0.5617  0.1737  0.7075
 5905SOL    HW129351   2.572   1.897   1.798  2.0207  0.5534  0.5554
 5905SOL    HW229352   2.598   2.003   1.898 -1.4590  0.6342 -0.1474
 5906SOL     OW29353   0.155   0.995   2.792 -0.0600 -0.4170 -0.3227
 5906SOL    HW129354   0.151   1.052   2.869  1.0157 -0.0384 -0.5506
 5906SOL    HW229355   0.074   0.945   2.801 -0.4967  0.6779  1.9072
 5907SOL     OW29356   3.583   1.087  14.539 -0.0025  0.4095 -0.0299
 5907SOL    HW129357   3.574   1.182  14.530  0.3764  0.5423  0.9927
 5907SOL    HW229358   3.639   1.071  14.615  0.5310  0.6782 -0.3670
 5908SOL     OW29359   0.181   2.410  13.068  0.1833 -0.3424  0.5749
 5908SOL    HW129360   0.228   2.338  13.027  0.4890  1.2428 -1.8027
 5908SOL    HW229361   0.217   2.404  13.157  2.0615 -1.9011 -0.2980
 5909SOL     OW29362   3.626   1.912  14.393  0.2683  0.3217 -0.3322
 5909SOL    HW129363   3.695   1.975  14.370 -0.2727  0.4084 -1.7308
 5909SOL    HW229364   3.670   1.828  14.378  3.1130  1.5307  1.2765
 5910SOL     OW29365   3.572   1.114   4.865 -0.1609 -0.0743 -0.1863
 5910SOL    HW129366   3.654   1.159   4.885  0.0437 -1.5553  2.3698
 5910SOL    HW229367   3.578   1.044   4.930 -1.5511 -1.0209 -1.0842
 5911SOL     OW29368   0.911   4.119   3.975  0.1927  0.0860  0.8166
 5911SOL    HW129369   0.896   4.180   4.048  0.2626  2.2099 -0.9299
 5911SOL    HW229370   1.003   4.136   3.954 -0.1766  0.0998 -0.7836
 5912SOL     OW29371   3.456   3.046   3.562  0.0815 -0.1294 -0.6463
 5912SOL    HW129372   3.412   2.961   3.558 -0.0792 -0.2255  2.7274
 5912SOL    HW229373   3.410   3.073   3.642  1.3282  1.2461 -0.3882
 5913SOL     OW29374   1.862   0.666   5.695  0.0107  0.0306 -0.3176
 5913SOL    HW129375   1.914   0.744   5.716  0.0781  0.0072 -0.3999
 5913SOL    HW229376   1.844   0.663   5.601  0.6722  0.3531 -0.4519
 5914SOL     OW29377   1.824   2.999   5.974 -0.2166 -0.0103  0.1210
 5914SOL    HW129378   1.801   3.058   6.046 -1.0419  1.1347 -1.0793
 5914SOL    HW229379   1.819   3.056   5.897 -2.7879  0.9563  1.0196
 5915SOL     OW29380   2.449   4.570   7.928  0.0749 -0.1076 -0.2316
 5915SOL    HW129381   2.356   4.582   7.948  0.3413  2.1122 -0.3318
 5915SOL    HW229382   2.454   4.482   7.965 -0.1248  0.4159  1.0562
 5916SOL     OW29383   4.028   4.110   6.236 -0.5585 -0.2476 -0.1165
 5916SOL    HW129384   3.985   4.073   6.159 -1.3928 -3.3066  1.8235
 5916SOL    HW229385   3.950   4.127   6.289 -1.0242 -0.3087 -0.7813
 5917SOL     OW29386   2.714   2.240   0.189  0.2625 -0.3404 -0.1975
 5917SOL    HW129387   2.638   2.217   0.243  1.2909 -0.8595  1.0215
 5917SOL    HW229388   2.667   2.244   0.105 -1.8337  1.1981  1.0564
 5918SOL     OW29389   3.246   3.756  10.037 -0.0598  0.3883 -1.3034
 5918SOL    HW129390   3.273   3.848  10.030 -0.3118  0.5584 -0.0055
 5918SOL    HW229391   3.327   3.719  10.070 -1.2142  0.6735  1.7808
 5919SOL     OW29392   2.082   2.541  13.635 -0.1690 -0.3072  0.5018
 5919SOL    HW129393   2.147   2.563  13.568 -1.0406  0.9645  0.0774
 5919SOL    HW229394   2.054   2.453  13.611  0.9979 -0.4326 -0.4180
 5920SOL     OW29395   3.372   1.378  12.180  0.4831  0.1010  0.2600
 5920SOL    HW129396   3.292   1.380  12.233  0.4602  1.3175  0.1885
 5920SOL    HW229397   3.392   1.469  12.157  0.4663  0.2223  0.7249
 5921SOL     OW29398   1.842   0.338   2.966  0.6526 -0.3663  0.4437
 5921SOL    HW129399   1.790   0.302   2.894 -0.2922 -0.9013  1.3805
 5921SOL    HW229400   1.825   0.432   2.956  1.9223 -0.2758 -0.6970
 5922SOL     OW29401   0.420   1.594   1.321  0.4211  0.4788  0.7930
 5922SOL    HW129402   0.341   1.625   1.278  1.4390 -0.5942 -1.8662
 5922SOL    HW229403   0.465   1.677   1.331  0.3275  0.6658 -0.3400
 5923SOL     OW29404   1.283   1.215  15.652  0.0542  0.1829 -0.4209
 5923SOL    HW129405   1.320   1.292  15.608 -1.6733  0.4537 -1.4096
 5923SOL    HW229406   1.304   1.150  15.584 -0.2663 -0.4240  0.0606
 5924SOL     OW29407   0.872   4.695   3.230 -0.0081  0.4159 -0.5906
 5924SOL    HW129408   0.880   4.649   3.314 -0.7025 -0.0579 -0.7790
 5924SOL    HW229409   0.779   4.705   3.211 -0.1358  2.3097  1.0145
 5925SOL     OW29410   3.098   2.478   6.344  0.6788  0.1336 -0.3646
 5925SOL    HW129411   3.035   2.445   6.407  0.9045  0.1992 -0.1036
 5925SOL    HW229412   3.056   2.460   6.260  1.0231  2.3405 -1.0146
 5926SOL     OW29413   4.275   3.726   8.877  0.0425 -0.1136 -0.3576
 5926SOL    HW129414   4.238   3.642   8.904 -1.8143  0.9508  0.4166
 5926SOL    HW229415   4.267   3.718   8.782  1.5642 -2.5500 -0.2837
 5927SOL     OW29416   3.694   1.386   6.242 -0.7518 -0.0140  0.2377
 5927SOL    HW129417   3.674   1.294   6.224  1.5221 -0.4740  0.0606
 5927SOL    HW229418   3.719   1.372   6.333 -0.2641  1.8577  0.3918
 5928SOL     OW29419   0.831   1.334   6.089  0.2658  0.3605  0.1281
 5928SOL    HW129420   0.907   1.299   6.135  0.8383  3.1730  1.3235
 5928SOL    HW229421   0.767   1.264   6.101  0.7137 -0.2855 -1.2654
 5929SOL     OW29422   0.502   1.988   4.415 -0.1813 -0.8419  0.8318
 5929SOL    HW129423   0.508   1.967   4.322  0.5896 -1.2421  0.9723
 5929SOL    HW229424   0.464   2.076   4.414 -0.1356 -0.8434 -0.5865
 5930SOL     OW29425   2.781   4.219   7.334  0.3087 -0.1612 -0.7223
 5930SOL    HW129426   2.740   4.213   7.420  2.6573 -1.3644  0.3231
 5930SOL    HW229427   2.701   4.221   7.281 -1.5602 -0.4241  2.1178
 5931SOL     OW29428   2.191   3.738   2.802  0.6909  0.1323 -0.4846
 5931SOL    HW129429   2.244   3.748   2.723  0.9459 -2.8924 -0.7128
 5931SOL    HW229430   2.130   3.811   2.791 -0.5878 -0.6934  1.2120
 5932SOL     OW29431   0.597   1.422   7.770 -0.2072  0.1573  0.3122
 5932SOL    HW129432   0.655   1.366   7.719  0.9899  1.3662  0.3480
 5932SOL    HW229433   0.511   1.407   7.731 -0.5796  0.6851  0.9279
 5933SOL     OW29434   3.811   1.423   4.805 -0.2757 -0.4007  0.7748
 5933SOL    HW129435   3.773   1.377   4.880 -0.3396 -0.7321  0.5396
 5933SOL    HW229436   3.759   1.503   4.803  0.0348 -0.1841  1.2425
 5934SOL     OW29437   3.206   3.247   2.049 -0.6826 -0.3015  0.3845
 5934SOL    HW129438   3.120   3.248   2.007 -0.9365 -3.0415  0.8797
 5934SOL    HW229439   3.198   3.322   2.109  0.8833 -1.3069  1.8693
 5935SOL     OW29440   3.634   0.899   7.085 -0.5016  0.0982  0.2239
 5935SOL    HW129441   3.554   0.934   7.046  0.4385 -0.4157 -2.1578
 5935SOL    HW229442   3.583   0.872   7.161 -5.2975 -1.1439 -3.4371
 5936SOL     OW29443   1.955   0.738   6.464 -0.0979  0.1430  0.0839
 5936SOL    HW129444   1.924   0.813   6.413 -1.6069 -1.4914 -1.3842
 5936SOL    HW229445   1.969   0.683   6.387 -2.7116  0.3126 -0.5151
 5937SOL     OW29446   1.158   4.705   5.399 -0.0085  0.6339 -0.2891
 5937SOL    HW129447   1.113   4.718   5.316 -2.9285 -0.3357  1.1434
 5937SOL    HW229448   1.190   4.616   5.387 -0.2129  0.1432  2.9522
 5938SOL     OW29449   2.192   1.685   0.327  0.8596 -0.0595 -0.1331
 5938SOL    HW129450   2.160   1.744   0.395 -0.4439 -0.5438 -0.3359
 5938SOL    HW229451   2.262   1.738   0.288  0.9544 -1.1957 -1.4810
 5939SOL     OW29452   0.842   2.398   6.886 -0.2508  0.3176  0.9338
 5939SOL    HW129453   0.808   2.344   6.814  0.9895 -2.3997  2.3540
 5939SOL    HW229454   0.901   2.453   6.834  0.9986 -1.5765  0.3230
 5940SOL     OW29455   1.363   0.105  14.912  0.1704  0.1859  0.2132
 5940SOL    HW129456   1.382   0.056  14.832  0.5913  3.4281 -1.6869
 5940SOL    HW229457   1.278   0.145  14.893 -0.3911  0.0912  2.4325
 5941SOL     OW29458   2.182   0.684   6.608  0.4202  0.5904 -0.0219
 5941SOL    HW129459   2.097   0.706   6.570 -0.1547 -3.1408 -0.8984
 5941SOL    HW229460   2.150   0.631   6.682 -3.8320 -1.2354 -3.1455
 5942SOL     OW29461   0.484   4.065   3.437 -0.4693 -0.3664  0.0127
 5942SOL    HW129462   0.410   4.119   3.467 -0.8110  0.4472 -2.3273
 5942SOL    HW229463   0.514   4.027   3.520 -1.6215 -0.0644  0.5721
 5943SOL     OW29464   4.498   1.875   8.498  0.8284 -0.5478  0.4117
 5943SOL    HW129465   4.517   1.836   8.412  2.6208  0.0176  0.5632
 5943SOL    HW229466   4.446   1.810   8.545  0.9619 -2.0330 -1.4935
 5944SOL     OW29467   2.682   3.956   6.158  0.4829 -0.2862 -0.5328
 5944SOL    HW129468   2.658   4.001   6.077  1.7113 -1.3657 -1.5051
 5944SOL    HW229469   2.765   3.918   6.126 -0.0000 -0.1600 -1.9424
 5945SOL     OW29470   2.906   2.077   8.248 -0.2718 -0.3836 -0.1704
 5945SOL    HW129471   2.944   2.137   8.312 -1.3196 -0.2955  0.3763
 5945SOL    HW229472   2.985   2.033   8.218  0.3696  2.0111 -2.0117
 5946SOL     OW29473   0.159   2.921  17.252  0.7358 -0.4304  0.0092
 5946SOL    HW129474   0.130   2.835  17.222 -2.1141  0.5697 -0.1372
 5946SOL    HW229475   0.222   2.896  17.320  0.0260 -1.3332  0.3371
 5947SOL     OW29476   4.165   0.335   4.584  0.4523  0.1230 -0.3927
 5947SOL    HW129477   4.167   0.242   4.561 -1.6436 -0.2433  0.9191
 5947SOL    HW229478   4.072   0.347   4.568  0.1048  0.3144  1.8907
 5948SOL     OW29479   4.653   3.873   7.123 -0.4431  0.1739 -0.3699
 5948SOL    HW129480   4.735   3.825   7.118  0.2606  1.6486 -2.8599
 5948SOL    HW229481   4.657   3.892   7.217 -2.2450  2.4303 -0.7573
 5949SOL     OW29482   3.158   2.246   2.755 -0.3567  0.0786 -0.2106
 5949SOL    HW129483   3.126   2.187   2.824  1.5442  0.5046  1.0523
 5949SOL    HW229484   3.086   2.237   2.693  0.7807 -0.8890 -1.4238
 5950SOL     OW29485   4.374   4.586   4.943 -0.1166 -0.1837 -0.3459
 5950SOL    HW129486   4.314   4.512   4.937 -1.4202  0.7613  1.0729
 5950SOL    HW229487   4.403   4.591   4.852  0.3291 -0.8571 -0.2402
 5951SOL     OW29488   0.278   2.342  12.628  0.1957 -0.7014  0.0837
 5951SOL    HW129489   0.260   2.386  12.545 -1.9842 -0.1649  0.8592
 5951SOL    HW229490   0.254   2.417  12.681 -0.8613 -0.7888 -0.2811
 5952SOL     OW29491   2.958   1.814   7.720 -0.1353  0.2880 -0.0219
 5952SOL    HW129492   2.869   1.782   7.736  0.1728 -0.3256  0.4627
 5952SOL    HW229493   2.950   1.890   7.663 -0.3684 -1.9311 -2.9847
 5953SOL     OW29494   0.622   4.484   2.650  0.3988 -0.2347 -0.1155
 5953SOL    HW129495   0.690   4.524   2.595 -0.7125  1.0686 -0.5613
 5953SOL    HW229496   0.566   4.562   2.650  0.8388  0.0919 -2.0924
 5954SOL     OW29497   3.064   2.549   0.431  0.4333  0.2213 -0.3803
 5954SOL    HW129498   3.012   2.578   0.357 -0.7271 -1.3241 -0.1694
 5954SOL    HW229499   3.030   2.600   0.505 -0.8023  1.0623 -1.5306
 5955SOL     OW29500   1.390   2.182   7.693 -0.2472  0.0228  1.0510
 5955SOL    HW129501   1.299   2.154   7.685 -0.6175  1.1121  1.4167
 5955SOL    HW229502   1.382   2.257   7.753  3.0571  0.6083  0.7865
 5956SOL     OW29503   3.218   3.755  16.958  0.1566  0.2127  0.0656
 5956SOL    HW129504   3.215   3.851  16.952  0.8640  0.2863  0.8581
 5956SOL    HW229505   3.310   3.750  16.983  0.7213  0.3122 -2.0274
 5957SOL     OW29506   1.458   1.490   3.646  0.1647 -0.4130 -0.0571
 5957SOL    HW129507   1.404   1.538   3.709  2.8129 -1.2041  2.8334
 5957SOL    HW229508   1.473   1.555   3.577 -0.4731  2.6223  2.6109
 5958SOL     OW29509   3.384   2.596  17.033  0.6619 -0.7529 -0.5154
 5958SOL    HW129510   3.309   2.556  16.990 -0.4631  0.3894  0.3865
 5958SOL    HW229511   3.459   2.572  16.978  0.5090 -1.7939 -0.2605
 5959SOL     OW29512   3.559   1.153  13.395 -0.2763  0.3592  0.6566
 5959SOL    HW129513   3.637   1.113  13.357 -0.7799  0.7340 -0.7419
 5959SOL    HW229514   3.608   1.210  13.455  1.7288 -0.5697 -0.0920
 5960SOL     OW29515   1.808   3.043  16.660  0.2325 -0.1114 -0.2134
 5960SOL    HW129516   1.890   3.031  16.708 -1.1898 -0.9542  2.0234
 5960SOL    HW229517   1.826   3.113  16.598  0.1144  1.2755  1.2995
 5961SOL     OW29518   1.203   1.382   6.454  0.0756  0.1138 -0.3012
 5961SOL    HW129519   1.125   1.429   6.426  0.2835  1.2883  1.1253
 5961SOL    HW229520   1.266   1.436   6.406 -0.4630  1.0137  0.0127
 5962SOL     OW29521   4.711   0.366   2.212  0.1846  0.1482  0.6899
 5962SOL    HW129522   0.068   0.384   2.212  0.5479 -1.8123 -1.5233
 5962SOL    HW229523   4.681   0.423   2.283  0.4213 -0.0507  0.9475
 5963SOL     OW29524   2.864   3.076   9.969  0.0399  0.5958  0.8883
 5963SOL    HW129525   2.799   3.032  10.023  1.2899 -2.3776 -0.0308
 5963SOL    HW229526   2.929   3.097  10.036  1.4472 -0.7010 -0.0491
 5964SOL     OW29527   4.649   4.307   4.336 -0.3707 -0.3147 -0.1933
 5964SOL    HW129528   4.610   4.237   4.388 -0.9870 -0.1376 -0.4210
 5964SOL    HW229529   4.601   4.287   4.256  0.4381  0.1436 -0.7972
 5965SOL     OW29530   3.888   1.099  14.092  0.0493 -0.5403 -0.7595
 5965SOL    HW129531   3.882   1.193  14.111  0.9750 -0.4693 -0.8159
 5965SOL    HW229532   3.847   1.098  14.005 -1.3767  1.4327 -0.1041
 5966SOL     OW29533   4.550   1.359   8.132  0.1313  0.3854  0.6665
 5966SOL    HW129534   4.494   1.437   8.127 -1.3387 -0.5108  3.0493
 5966SOL    HW229535   4.569   1.350   8.226 -1.0412  3.8515  1.2306
 5967SOL     OW29536   2.155   2.475   1.098 -0.2315  0.3887 -0.3859
 5967SOL    HW129537   2.103   2.550   1.127 -0.7024 -0.0324 -0.1383
 5967SOL    HW229538   2.111   2.458   1.014  0.8196  0.2493 -0.9090
 5968SOL     OW29539   2.856   3.215   2.919  0.1257 -0.2112  0.2318
 5968SOL    HW129540   2.915   3.147   2.889 -0.6427 -1.1319  0.8042
 5968SOL    HW229541   2.809   3.241   2.840  0.9445 -0.2459 -0.2595
 5969SOL     OW29542   1.513   2.964   8.679 -0.7385  0.1732 -0.3477
 5969SOL    HW129543   1.523   2.892   8.741  0.4420 -0.1384 -0.9008
 5969SOL    HW229544   1.449   2.925   8.618 -0.9362  0.0267 -0.0484
 5970SOL     OW29545   4.024   0.782   2.319  0.0823 -0.0236  0.1945
 5970SOL    HW129546   4.113   0.757   2.293  0.5415  2.6999 -0.9178
 5970SOL    HW229547   3.991   0.789   2.230 -1.2751 -0.2972  0.6832
 5971SOL     OW29548   4.221   2.616   3.316 -0.1163  0.2338 -0.1093
 5971SOL    HW129549   4.307   2.621   3.273 -1.6288  3.4115 -2.8006
 5971SOL    HW229550   4.250   2.650   3.400  0.3921 -1.0006  0.2062
 5972SOL     OW29551   4.451   3.178   3.043 -0.1500  0.4172  0.6519
 5972SOL    HW129552   4.507   3.145   3.113  0.5817  0.5813  0.1361
 5972SOL    HW229553   4.429   3.264   3.080 -1.3174  0.4170 -0.0610
 5973SOL     OW29554   0.776   1.392   3.382 -0.4691 -0.0658 -0.5258
 5973SOL    HW129555   0.783   1.297   3.378  0.5743  0.0026 -0.4541
 5973SOL    HW229556   0.763   1.402   3.288 -0.0371  0.3633 -0.5456
 5974SOL     OW29557   3.770   0.500  12.031  0.0410  0.3337  0.2785
 5974SOL    HW129558   3.796   0.538  11.948  0.8397 -0.6166  0.0871
 5974SOL    HW229559   3.851   0.505  12.081 -0.7137  0.5943  1.4831
 5975SOL     OW29560   2.820   3.474  12.662 -0.2776 -0.4418 -0.8379
 5975SOL    HW129561   2.811   3.569  12.662 -1.1435 -0.5267  1.5206
 5975SOL    HW229562   2.908   3.467  12.700 -1.1842  1.1133  1.5507
 5976SOL     OW29563   3.541   2.431   8.152  0.7313  0.0838 -0.2939
 5976SOL    HW129564   3.597   2.494   8.197  1.0853 -0.5266  0.1301
 5976SOL    HW229565   3.599   2.359   8.127 -0.9066 -2.0037  1.8070
 5977SOL     OW29566   4.097   0.210   3.515  0.6348 -0.7601  0.4642
 5977SOL    HW129567   4.122   0.138   3.457 -0.7992  0.6984 -1.9836
 5977SOL    HW229568   4.094   0.168   3.601  0.2303 -1.1434  0.2636
 5978SOL     OW29569   2.872   1.951   5.311 -0.6597  0.3859 -0.4230
 5978SOL    HW129570   2.813   1.912   5.375  0.9839 -1.1759  0.1458
 5978SOL    HW229571   2.849   2.043   5.303 -0.9188  0.3839  0.3250
 5979SOL     OW29572   0.753   2.903   2.710 -0.0568  0.1118 -0.6105
 5979SOL    HW129573   0.741   2.843   2.636 -0.7116 -2.3110  1.4456
 5979SOL    HW229574   0.672   2.885   2.757  1.2737 -0.5037  1.4902
 5980SOL     OW29575   3.630   0.947   2.322  0.5875 -0.3261  0.3209
 5980SOL    HW129576   3.552   0.935   2.376 -0.1038  1.7161 -0.2148
 5980SOL    HW229577   3.681   0.867   2.336 -1.4967 -1.6111  0.4000
 5981SOL     OW29578   3.285   2.401   1.202 -0.0799  0.6809  0.3022
 5981SOL    HW129579   3.228   2.455   1.147  0.6842  1.7040  0.5373
 5981SOL    HW229580   3.331   2.465   1.256  1.9629  0.1902 -0.8538
 5982SOL     OW29581   4.555   3.352  16.887 -0.0280 -0.2044  0.1206
 5982SOL    HW129582   4.567   3.312  16.800 -0.2997 -1.8489  0.8376
 5982SOL    HW229583   4.464   3.340  16.914  0.0186  0.5333  0.5993
 5983SOL     OW29584   3.556   2.818   1.857  0.3898  1.1737  0.1119
 5983SOL    HW129585   3.588   2.729   1.844  2.1537  2.0865 -1.7145
 5983SOL    HW229586   3.583   2.858   1.774  1.9051  1.1909  0.6242
 5984SOL     OW29587   0.801   3.149   4.467 -0.1145  0.4501  0.4992
 5984SOL    HW129588   0.823   3.241   4.457 -2.1444  0.8969  0.1868
 5984SOL    HW229589   0.710   3.154   4.496 -0.0429 -1.8780  1.2019
 5985SOL     OW29590   1.661   3.213  17.084  0.8461  0.7641 -0.0639
 5985SOL    HW129591   1.628   3.302  17.092 -1.3862 -0.0237 -0.4381
 5985SOL    HW229592   1.668   3.200  17.178 -1.2774 -1.2202 -0.1837
 5986SOL     OW29593   3.774   3.689   7.528  0.2293 -0.2144 -0.1710
 5986SOL    HW129594   3.772   3.727   7.440 -0.5254 -1.7395 -0.8294
 5986SOL    HW229595   3.761   3.599   7.496  2.9762 -1.2074  1.5027
 5987SOL     OW29596   1.112   2.898   9.226  0.2880  0.3167  0.4266
 5987SOL    HW129597   1.072   2.978   9.192  0.7800  0.2961 -0.2096
 5987SOL    HW229598   1.040   2.841   9.253 -0.1635  0.2910 -0.8377
 5988SOL     OW29599   2.919   2.944   2.763 -0.0099  0.2057 -0.5445
 5988SOL    HW129600   2.983   2.873   2.754 -0.9135 -0.9568  2.0097
 5988SOL    HW229601   2.834   2.901   2.774 -0.2773  1.5116  2.6681
 5989SOL     OW29602   0.394   2.860  12.952 -0.1210  0.5727 -0.4471
 5989SOL    HW129603   0.357   2.948  12.948  0.7444  1.0215  1.1949
 5989SOL    HW229604   0.317   2.808  12.974 -0.2840  1.1872  0.4424
 5990SOL     OW29605   2.691   3.776   6.976 -0.1989 -0.3375 -0.2378
 5990SOL    HW129606   2.624   3.782   7.045  0.1059  1.6350 -0.1230
 5990SOL    HW229607   2.754   3.716   7.015  0.0220  0.0827  0.0502
 5991SOL     OW29608   2.878   4.157   3.550 -0.2059  0.0313  0.3379
 5991SOL    HW129609   2.961   4.165   3.597  0.9142  0.1789 -1.7053
 5991SOL    HW229610   2.811   4.170   3.618 -0.9593 -0.7035 -0.2762
 5992SOL     OW29611   1.527   1.306  17.162 -0.1126  0.7152  0.9784
 5992SOL    HW129612   1.504   1.399  17.155  1.0813  0.6545 -3.7514
 5992SOL    HW229613   1.444   1.259  17.153  0.3414  0.1252 -0.0961
 5993SOL     OW29614   0.648   4.666   4.347 -0.0219 -0.0103 -0.1323
 5993SOL    HW129615   0.711   4.708   4.288  0.3646  1.2570  1.1906
 5993SOL    HW229616   0.570   4.711   4.314  0.4501  0.8956 -0.0206
 5994SOL     OW29617   4.413   1.612   6.204  0.1102 -0.5301  0.4845
 5994SOL    HW129618   4.503   1.616   6.172  0.3096  0.6606  1.1717
 5994SOL    HW229619   4.372   1.572   6.127 -0.8059 -1.4693  1.4656
 5995SOL     OW29620   0.891   4.162  10.477  0.2448 -0.3936 -0.3416
 5995SOL    HW129621   0.934   4.089  10.434  2.8388  0.7374  0.3485
 5995SOL    HW229622   0.898   4.228  10.408 -2.6821  0.0125 -0.2384
 5996SOL     OW29623   3.550   3.731  16.405  0.4743 -0.2211 -0.5999
 5996SOL    HW129624   3.482   3.795  16.385  0.2850  0.2288  1.4975
 5996SOL    HW229625   3.626   3.771  16.364 -0.1405  0.7305 -0.8104
 5997SOL     OW29626   1.963   0.147  13.621  0.6220  0.0407  0.2121
 5997SOL    HW129627   1.878   0.114  13.647  0.6395 -0.1989 -0.0257
 5997SOL    HW229628   1.935   0.199  13.546 -2.0522 -1.5836  0.1085
 5998SOL     OW29629   1.478   3.838   3.278  0.4185 -0.0009 -0.4106
 5998SOL    HW129630   1.401   3.847   3.222 -0.4742 -1.2444  0.6495
 5998SOL    HW229631   1.506   3.748   3.260 -0.7611 -0.4812  0.2057
 5999SOL     OW29632   1.836   4.575  16.301  0.3240  0.2419  0.1448
 5999SOL    HW129633   1.772   4.530  16.246  1.0082  1.6269 -1.7704
 5999SOL    HW229634   1.821   4.546  16.391  0.5500 -2.0658 -0.5554
 6000SOL     OW29635   0.162   2.750  16.124 -0.2216  0.2352 -0.4626
 6000SOL    HW129636   0.159   2.823  16.063 -0.0651 -0.0153 -0.7739
 6000SOL    HW229637   0.258   2.745  16.125 -0.1597  1.7882  1.1436
 6001SOL     OW29638   1.797   2.575  14.274 -0.1798  0.2630 -0.4322
 6001SOL    HW129639   1.855   2.632  14.223  0.1205  0.0606 -0.3208
 6001SOL    HW229640   1.713   2.603  14.237 -1.0294  0.4125  1.6501
 6002SOL     OW29641   0.846   2.741   6.267  0.4083 -0.4263 -0.4845
 6002SOL    HW129642   0.784   2.680   6.307  0.1187  0.0137 -0.2651
 6002SOL    HW229643   0.920   2.681   6.254  0.7694 -0.0869  0.0089
 6003SOL     OW29644   0.423   2.137   3.422  0.3320 -0.1295  0.3151
 6003SOL    HW129645   0.366   2.115   3.349 -1.0788  0.6901  1.1770
 6003SOL    HW229646   0.419   2.233   3.417  1.3869 -0.0270  1.3564
 6004SOL     OW29647   1.804   1.606   6.804 -0.2207  0.0658 -0.3630
 6004SOL    HW129648   1.838   1.524   6.769  0.4903  0.4130 -0.4943
 6004SOL    HW229649   1.715   1.579   6.825  0.4674  0.0356  2.6059
 6005SOL     OW29650   2.598   1.163   6.611 -0.1026 -0.0527  0.3213
 6005SOL    HW129651   2.679   1.118   6.636 -1.3781 -2.0880  0.7126
 6005SOL    HW229652   2.630   1.207   6.532  0.6355 -0.5607  0.3394
 6006SOL     OW29653   3.030   4.030   8.969 -0.2053  0.1727 -0.1726
 6006SOL    HW129654   3.014   4.031   9.063  2.5168  0.3621  0.2865
 6006SOL    HW229655   2.979   4.109   8.954  0.4852  0.5678 -0.4483
 6007SOL     OW29656   2.679   0.586   3.708  0.0672 -0.4051 -0.3158
 6007SOL    HW129657   2.766   0.546   3.701  0.6143  0.9478 -1.2348
 6007SOL    HW229658   2.659   0.585   3.615  0.7009 -2.1248 -0.4365
 6008SOL     OW29659   4.308   0.154   9.034 -0.8011 -0.6178  0.5344
 6008SOL    HW129660   4.398   0.166   9.062 -1.0656 -1.0943  1.5955
 6008SOL    HW229661   4.261   0.163   9.117 -0.1579 -0.0153  0.8356
 6009SOL     OW29662   1.257   1.284   7.561 -0.2014 -0.3449 -0.4395
 6009SOL    HW129663   1.171   1.326   7.557 -0.4026 -0.7187 -0.0572
 6009SOL    HW229664   1.262   1.267   7.467  0.3934  0.7738 -0.6035
 6010SOL     OW29665   0.609   2.726   5.094  0.3894  0.3300  0.4496
 6010SOL    HW129666   0.611   2.819   5.118 -0.5775  0.3149  0.6104
 6010SOL    HW229667   0.586   2.698   5.182  0.3692  0.2755  0.4270
 6011SOL     OW29668   4.721   3.670   1.163 -0.0648  0.4147  0.1263
 6011SOL    HW129669   4.673   3.589   1.183  0.4275  0.0776 -0.0440
 6011SOL    HW229670   4.696   3.706   1.077 -3.7364  0.4433  1.1864
 6012SOL     OW29671   4.154   4.479   3.081  0.6408 -0.1739  0.3031
 6012SOL    HW129672   4.153   4.464   3.175  2.4027  0.6744  0.4545
 6012SOL    HW229673   4.062   4.501   3.068  0.3800 -0.1868  2.2098
 6013SOL     OW29674   0.041   2.488  14.046  0.2329  0.2445  0.1642
 6013SOL    HW129675   4.735   2.539  14.115  1.4718  0.5086  0.7200
 6013SOL    HW229676   4.710   2.504  13.980  0.4536  1.9943  0.3842
 6014SOL     OW29677   0.809   3.691  14.150  0.1523  0.1501  0.1204
 6014SOL    HW129678   0.884   3.708  14.208 -0.4900  1.5583  0.5295
 6014SOL    HW229679   0.750   3.643  14.208  1.5821 -0.6957  0.8724
 6015SOL     OW29680   4.471   0.170   4.777  0.2247 -0.0982  0.0542
 6015SOL    HW129681   4.448   0.124   4.696 -0.0574  3.2043 -1.7260
 6015SOL    HW229682   4.457   0.255   4.735  0.8963 -0.3319 -0.6253
 6016SOL     OW29683   4.596   4.549  14.825 -0.4153 -0.4022  0.0583
 6016SOL    HW129684   4.656   4.613  14.788  0.1157  0.2578  2.0436
 6016SOL    HW229685   4.510   4.575  14.792  1.0695  4.0978 -0.2873
 6017SOL     OW29686   2.056   4.213  14.667 -0.2958  0.4469  0.9405
 6017SOL    HW129687   1.973   4.169  14.685  0.0414 -0.7134 -0.3469
 6017SOL    HW229688   2.077   4.144  14.604  2.4028 -0.0336  2.3535
 6018SOL     OW29689   1.411   4.662   3.103  0.6721  0.2001 -0.6570
 6018SOL    HW129690   1.384   0.007   3.146 -1.5278  0.4720 -2.5549
 6018SOL    HW229691   1.417   4.602   3.178  1.6899  1.6866  0.4642
 6019SOL     OW29692   4.324   3.112  14.163 -0.1555  0.3483  0.2846
 6019SOL    HW129693   4.318   3.160  14.245  0.3057 -1.5761  1.4442
 6019SOL    HW229694   4.270   3.166  14.107  1.1614  1.1464 -0.2227
 6020SOL     OW29695   1.384   4.673   3.899  0.1732  0.2235 -0.5321
 6020SOL    HW129696   1.323   0.009   3.886 -0.9392 -0.7252 -0.5912
 6020SOL    HW229697   1.342   4.625   3.970 -0.3632 -0.6542 -1.4380
 6021SOL     OW29698   0.571   0.579   7.604  0.4520  0.6105  0.2444
 6021SOL    HW129699   0.599   0.552   7.691  1.1704 -0.4524 -0.3229
 6021SOL    HW229700   0.477   0.562   7.611  0.8063 -2.1171 -1.8646
 6022SOL     OW29701   0.800   4.125   6.017 -0.3497 -0.0588 -0.6675
 6022SOL    HW129702   0.793   4.156   5.927  1.4823  2.8816  0.2074
 6022SOL    HW229703   0.894   4.123   6.034 -0.5549  0.2163  0.5250
 6023SOL     OW29704   1.181   3.772   6.020 -0.0941  0.1791  0.2084
 6023SOL    HW129705   1.093   3.760   6.056  0.2194 -0.9439  0.5966
 6023SOL    HW229706   1.163   3.822   5.941 -1.0982 -0.0421  0.2904
 6024SOL     OW29707   2.990   0.390  12.372  0.1139  0.4207  0.2148
 6024SOL    HW129708   3.074   0.394  12.416 -0.5029 -1.4660  1.5983
 6024SOL    HW229709   3.016   0.380  12.281 -3.0513  0.4875 -0.7102
 6025SOL     OW29710   3.497   3.277  17.319 -0.0324 -0.3539  0.0483
 6025SOL    HW129711   3.446   3.197  17.303  1.0320 -0.9717 -0.2832
 6025SOL    HW229712   3.420   3.330  17.338  1.4412  2.3144 -1.4365
 6026SOL     OW29713   2.698   1.425   6.822  0.1674 -0.2215  0.2588
 6026SOL    HW129714   2.676   1.470   6.741  1.8423 -1.2697 -0.7848
 6026SOL    HW229715   2.741   1.498   6.867  0.6131  1.0650 -2.2338
 6027SOL     OW29716   3.662   2.534   5.552 -0.0652  0.4507  0.6320
 6027SOL    HW129717   3.747   2.572   5.530  0.3384  1.0591  3.3041
 6027SOL    HW229718   3.601   2.605   5.531 -1.7852 -0.7041  1.7085
 6028SOL     OW29719   0.137   1.395   9.912 -0.4115 -0.2903 -0.6520
 6028SOL    HW129720   0.051   1.379   9.952  0.1005 -0.0449  0.5496
 6028SOL    HW229721   0.134   1.323   9.849 -2.0768 -0.3415 -0.5397
 6029SOL     OW29722   3.560   4.241   5.016  0.2318  0.0142  0.1247
 6029SOL    HW129723   3.572   4.326   5.060 -0.3885  0.4069 -0.4541
 6029SOL    HW229724   3.588   4.264   4.928 -0.5222  3.2166  0.6860
 6030SOL     OW29725   4.632   2.250   7.014 -0.0474  0.3321  0.6191
 6030SOL    HW129726   4.556   2.192   7.024 -0.7166  0.8975 -1.2751
 6030SOL    HW229727   4.691   2.190   6.969 -0.0782  0.8071 -0.0536
 6031SOL     OW29728   3.527   2.648  11.936  0.3105 -0.2111  0.1112
 6031SOL    HW129729   3.493   2.700  12.009 -1.6274  0.4411 -1.2371
 6031SOL    HW229730   3.611   2.625  11.976  0.0411 -0.2657  0.6486
 6032SOL     OW29731   0.292   3.234   1.216  0.4037 -0.0873  0.4851
 6032SOL    HW129732   0.236   3.220   1.140  1.8619  2.0059 -1.0065
 6032SOL    HW229733   0.236   3.296   1.262 -1.6922 -0.1175 -2.0580
 6033SOL     OW29734   3.306   0.679   7.198  0.2114 -0.1024  0.1341
 6033SOL    HW129735   3.319   0.590   7.228  0.0355 -0.1988 -0.0753
 6033SOL    HW229736   3.320   0.666   7.104  1.4870  3.4967 -0.2012
 6034SOL     OW29737   1.719   3.927   7.019 -1.0977 -0.6535 -0.4354
 6034SOL    HW129738   1.776   3.884   6.954  1.0255  1.7391 -0.1648
 6034SOL    HW229739   1.762   4.012   7.016 -1.2748 -0.5545 -0.0772
 6035SOL     OW29740   3.748   3.663  14.546  0.7526  0.3423  0.1329
 6035SOL    HW129741   3.663   3.631  14.575  0.6990 -1.1048 -1.6117
 6035SOL    HW229742   3.800   3.614  14.610  1.5263  0.3442 -0.4930
 6036SOL     OW29743   0.582   2.609  12.693  0.2723 -0.3010 -0.1168
 6036SOL    HW129744   0.530   2.569  12.763 -2.1277  0.9819 -1.1793
 6036SOL    HW229745   0.652   2.647  12.747 -1.0518  0.7685  0.8502
 6037SOL     OW29746   3.883   0.476   7.939 -0.3535  0.4361  0.1746
 6037SOL    HW129747   3.875   0.565   7.906  2.2606  0.8077  0.5455
 6037SOL    HW229748   3.902   0.497   8.031  1.4350 -0.7652  0.0919
 6038SOL     OW29749   2.599   3.296  11.630  0.2499  0.2254  0.0792
 6038SOL    HW129750   2.631   3.387  11.626 -1.6773  0.8167 -1.8473
 6038SOL    HW229751   2.551   3.299  11.713 -0.8772 -0.5509 -0.5480
 6039SOL     OW29752   0.794   0.900   8.050  0.0238  0.1916 -0.1632
 6039SOL    HW129753   0.733   0.862   8.113  1.1585 -0.9022  0.2898
 6039SOL    HW229754   0.746   0.981   8.034  0.7690  1.2302  2.8011
 6040SOL     OW29755   3.125   1.556   1.803  0.4785 -0.6463  0.2331
 6040SOL    HW129756   3.072   1.476   1.807 -1.8050  0.7310 -2.1231
 6040SOL    HW229757   3.199   1.522   1.753  1.6167 -0.3973  1.7381
 6041SOL     OW29758   1.484   3.056   2.871 -0.1858  0.4587 -0.5188
 6041SOL    HW129759   1.486   3.092   2.782 -0.2765 -1.8160 -1.4560
 6041SOL    HW229760   1.399   3.013   2.866  0.4246 -0.9296  0.6923
 6042SOL     OW29761   3.298   2.410   3.681 -0.1067 -0.5148  0.5732
 6042SOL    HW129762   3.326   2.405   3.773  1.0945  1.0102  0.2833
 6042SOL    HW229763   3.367   2.458   3.635 -1.0055 -0.4562 -0.6925
 6043SOL     OW29764   1.062   2.525   6.776  0.3272  0.0047 -0.3767
 6043SOL    HW129765   1.046   2.610   6.735  1.4648  0.0120 -0.7953
 6043SOL    HW229766   1.155   2.527   6.800 -0.3083  0.7368  1.9982
 6044SOL     OW29767   3.728   3.848   0.779 -0.2485  0.1250 -0.0847
 6044SOL    HW129768   3.775   3.838   0.696 -1.2752 -2.5191 -0.3332
 6044SOL    HW229769   3.797   3.879   0.838  1.8969 -1.7769 -1.5846
 6045SOL     OW29770   2.183   0.354   7.469  0.5371  0.0985  0.0448
 6045SOL    HW129771   2.163   0.302   7.547  0.3856  0.7496  0.4395
 6045SOL    HW229772   2.129   0.431   7.485  0.8895  0.3150  0.1911
 6046SOL     OW29773   3.242   1.258   3.483  0.2013  0.4271  0.3457
 6046SOL    HW129774   3.179   1.300   3.541 -1.7053 -1.5433 -0.3106
 6046SOL    HW229775   3.195   1.289   3.405 -0.8166 -0.4065  0.6367
 6047SOL     OW29776   4.411   0.419   2.248 -0.2022 -0.2043  0.8743
 6047SOL    HW129777   4.346   0.361   2.209 -0.7686  0.6024  0.6115
 6047SOL    HW229778   4.413   0.482   2.176 -0.5944 -0.0718  0.9782
 6048SOL     OW29779   4.213   0.400   2.653  0.1987 -0.1485 -0.2350
 6048SOL    HW129780   4.186   0.466   2.716  0.1227  2.4375 -2.9519
 6048SOL    HW229781   4.133   0.349   2.637  1.7907 -2.3032 -1.3953
 6049SOL     OW29782   3.694   3.006   8.006  0.3017 -1.0060 -0.2748
 6049SOL    HW129783   3.599   3.002   8.018  0.3090  0.0433  0.1342
 6049SOL    HW229784   3.722   2.931   8.058  0.9732  0.7191  1.8410
 6050SOL     OW29785   1.387   2.459   2.490 -0.7588  0.0444 -0.1739
 6050SOL    HW129786   1.397   2.466   2.585  3.0237 -0.6370 -0.5058
 6050SOL    HW229787   1.472   2.486   2.454 -1.2173 -1.0701 -2.1348
 6051SOL     OW29788   0.453   0.583  12.182  0.3586  0.2664 -0.3386
 6051SOL    HW129789   0.397   0.647  12.136 -1.6041  0.0335  1.7177
 6051SOL    HW229790   0.419   0.591  12.271 -0.8508 -0.1953 -0.7559
 6052SOL     OW29791   1.734   2.422   4.672 -0.3126 -0.3423 -0.3459
 6052SOL    HW129792   1.731   2.477   4.594  0.0751 -0.5885 -0.5322
 6052SOL    HW229793   1.786   2.486   4.720  1.3811 -1.6919 -0.3738
 6053SOL     OW29794   1.271   4.581   2.213 -0.4976 -0.3069  0.0267
 6053SOL    HW129795   1.184   4.617   2.198  0.5913  1.5796 -1.6109
 6053SOL    HW229796   1.244   4.489   2.203 -0.5709 -0.1658 -1.0842
 6054SOL     OW29797   4.058   0.844   4.198  0.2516  0.7663 -0.1297
 6054SOL    HW129798   4.101   0.930   4.201  2.2088 -0.2383  0.7718
 6054SOL    HW229799   3.989   0.853   4.263 -1.9404  0.2329 -2.4043
 6055SOL     OW29800   3.563   0.854   6.076 -0.6468 -0.0747 -0.3284
 6055SOL    HW129801   3.527   0.940   6.051 -0.0018 -0.4978 -2.7536
 6055SOL    HW229802   3.490   0.814   6.124  0.6180 -1.2907  0.5693
 6056SOL     OW29803   1.146   2.674   3.149  0.3305 -0.4864 -0.4155
 6056SOL    HW129804   1.100   2.675   3.232  1.1481 -0.1115  0.0365
 6056SOL    HW229805   1.239   2.660   3.167 -0.2321 -1.0181  2.0925
 6057SOL     OW29806   4.451   3.420   9.027  0.0757  0.5864  0.4300
 6057SOL    HW129807   4.511   3.455   9.094  0.4997  2.1096 -0.7347
 6057SOL    HW229808   4.468   3.326   9.026  2.0159  0.9518 -1.4107
 6058SOL     OW29809   1.146   3.185   5.196 -0.1172  0.0122  0.6077
 6058SOL    HW129810   1.139   3.253   5.129 -0.2441  0.2162  0.8283
 6058SOL    HW229811   1.130   3.107   5.142  0.9049  2.5010 -3.2679
 6059SOL     OW29812   1.639   2.392   8.390  0.1220  0.2360 -0.0225
 6059SOL    HW129813   1.663   2.448   8.464  1.7270 -2.1166  1.2364
 6059SOL    HW229814   1.555   2.429   8.365 -0.0697  0.8883  1.5680
 6060SOL     OW29815   0.834   1.136   3.533 -0.3483  0.0539 -1.0788
 6060SOL    HW129816   0.741   1.157   3.523 -0.0832  1.4918 -0.5055
 6060SOL    HW229817   0.865   1.180   3.612  2.1400 -1.5325 -1.1953
 6061SOL     OW29818   4.680   3.816   7.810 -0.2166 -0.1609  0.4495
 6061SOL    HW129819   4.626   3.894   7.798  1.0725  0.0875 -3.4931
 6061SOL    HW229820   4.681   3.776   7.724  0.8632 -1.3057  1.0040
 6062SOL     OW29821   1.519   2.812  12.075  0.2103  0.0885 -0.1808
 6062SOL    HW129822   1.543   2.873  12.006 -0.0177  1.3167  0.8225
 6062SOL    HW229823   1.429   2.835  12.097 -0.3708 -1.4855 -0.9418
 6063SOL     OW29824   2.359   4.369   3.194  0.0666  0.4830  0.0150
 6063SOL    HW129825   2.395   4.411   3.115  0.6690 -0.2987 -0.1208
 6063SOL    HW229826   2.264   4.381   3.183  0.4405  3.7326  0.2502
 6064SOL     OW29827   3.094   2.805   8.148 -0.2110  0.2701 -0.0624
 6064SOL    HW129828   3.013   2.771   8.186  0.8237 -2.4441 -0.2727
 6064SOL    HW229829   3.049   2.863   8.086 -1.7131 -0.8095  0.0226
 6065SOL     OW29830   2.658   2.771   3.607  0.1119 -0.4669  0.0973
 6065SOL    HW129831   2.594   2.825   3.562 -0.1669 -0.3961  0.5744
 6065SOL    HW229832   2.686   2.823   3.683  0.1598  0.8311 -0.8149
 6066SOL     OW29833   3.249   0.244   2.890 -0.1137 -0.0572 -0.1657
 6066SOL    HW129834   3.341   0.271   2.903 -0.2119  0.1547  0.0947
 6066SOL    HW229835   3.264   0.184   2.817 -3.4677 -0.6691 -0.3285
 6067SOL     OW29836   0.974   1.614  11.442  0.2364 -0.3302  0.2357
 6067SOL    HW129837   0.971   1.616  11.538  0.5434 -1.1695  0.2697
 6067SOL    HW229838   0.979   1.705  11.416 -0.8181 -0.7882 -1.5681
 6068SOL     OW29839   2.559   3.577   3.087  0.1161 -0.4237  0.2154
 6068SOL    HW129840   2.632   3.620   3.132 -0.4421  0.7568 -0.0098
 6068SOL    HW229841   2.596   3.564   3.000 -2.3632 -0.2799 -0.8704
 6069SOL     OW29842   0.458   2.382   6.771  0.0067 -0.2515 -0.3672
 6069SOL    HW129843   0.523   2.394   6.701  0.6744  1.0560  0.5003
 6069SOL    HW229844   0.380   2.405   6.722  1.3719 -1.4406 -3.1255
 6070SOL     OW29845   0.881   2.050   9.423 -0.2710  0.3654 -0.0566
 6070SOL    HW129846   0.821   1.985   9.388  0.0548 -0.3256  0.6520
 6070SOL    HW229847   0.890   2.009   9.510  0.7250  0.4848 -0.0953
 6071SOL     OW29848   3.065   3.505   5.160 -0.5015  0.2561 -0.5290
 6071SOL    HW129849   3.135   3.464   5.210  0.5829  2.4476 -0.2896
 6071SOL    HW229850   3.053   3.439   5.091 -1.6343  2.5091 -2.4855
 6072SOL     OW29851   0.571   2.782  17.609  0.0603  0.6280 -0.4504
 6072SOL    HW129852   0.634   2.712  17.591  2.0116  2.3303 -0.3029
 6072SOL    HW229853   0.610   2.861  17.572  1.1547  0.5330  0.4957
 6073SOL     OW29854   0.686   4.137   6.700  0.4880  0.5885  0.1102
 6073SOL    HW129855   0.628   4.162   6.772 -1.4379  0.9635 -1.5959
 6073SOL    HW229856   0.698   4.227   6.670  0.1427  0.8741  0.8112
 6074SOL     OW29857   0.348   1.157   0.978  0.3547 -0.2453 -0.5830
 6074SOL    HW129858   0.255   1.176   0.994 -0.0071 -1.6188 -0.9908
 6074SOL    HW229859   0.382   1.241   1.007  0.6409 -0.1661 -1.1361
 6075SOL     OW29860   3.560   2.289   2.571  0.5261 -0.0633  0.2033
 6075SOL    HW129861   3.602   2.232   2.635 -0.0864  0.4471  1.0522
 6075SOL    HW229862   3.501   2.224   2.534  1.8843 -1.2436  0.0865
 6076SOL     OW29863   2.324   4.081   1.648  0.2342 -0.5542 -0.4722
 6076SOL    HW129864   2.249   4.022   1.646  1.0492 -1.6158  0.3185
 6076SOL    HW229865   2.286   4.169   1.655  0.1832 -0.7255  1.3074
 6077SOL     OW29866   4.412   4.622   9.473 -0.3182  0.3698  0.0897
 6077SOL    HW129867   4.349   4.607   9.543  0.1954  0.4375  0.5709
 6077SOL    HW229868   4.383   4.565   9.402  3.5221 -0.1247 -1.0792
 6078SOL     OW29869   0.048   1.303   0.699 -0.1961 -0.3852 -0.2772
 6078SOL    HW129870   4.694   1.327   0.682  0.1824  1.9669  0.9833
 6078SOL    HW229871   0.035   1.210   0.715 -0.9768  0.0001  1.3280
 6079SOL     OW29872   4.221   2.967   1.414 -0.1434 -0.1765  0.5040
 6079SOL    HW129873   4.133   2.936   1.393 -0.9124  0.6528  2.5466
 6079SOL    HW229874   4.193   3.043   1.465 -0.6898  0.2773 -0.4802
 6080SOL     OW29875   0.273   4.633   1.391 -0.2268 -0.1068  0.0555
 6080SOL    HW129876   0.239   4.563   1.447 -1.7475 -0.2768 -1.0935
 6080SOL    HW229877   0.334   4.670   1.455  1.6822  0.0263 -1.8095
 6081SOL     OW29878   0.250   0.164   1.813 -0.4555 -0.5603 -0.0927
 6081SOL    HW129879   0.274   0.117   1.733 -1.3744  0.3271 -0.9080
 6081SOL    HW229880   0.185   0.108   1.856 -0.2072 -2.4316 -2.1565
 6082SOL     OW29881   0.725   0.223   6.817  0.6189  0.0449  0.5580
 6082SOL    HW129882   0.725   0.319   6.817  0.8532  0.0431 -1.0630
 6082SOL    HW229883   0.770   0.200   6.736  0.4770  0.5745  0.3298
 6083SOL     OW29884   4.666   2.413   0.859 -0.6680 -0.5889  0.7771
 6083SOL    HW129885   4.721   2.397   0.783 -0.5761 -1.0355  0.9355
 6083SOL    HW229886   4.735   2.431   0.922 -0.9697 -0.6340  1.1250
 6084SOL     OW29887   1.798   1.407  10.885 -0.6451  0.8702 -0.6721
 6084SOL    HW129888   1.727   1.470  10.875  0.3334  2.1226  0.1323
 6084SOL    HW229889   1.777   1.365  10.802  1.2739 -0.2678 -0.6030
 6085SOL     OW29890   1.212   2.789   8.856  0.2632 -0.2489 -0.0922
 6085SOL    HW129891   1.188   2.787   8.764 -1.3478 -0.4454  0.3308
 6085SOL    HW229892   1.189   2.878   8.884  0.3495 -0.9928  2.3490
 6086SOL     OW29893   2.507   3.510   4.708 -0.2185 -0.1480  0.2604
 6086SOL    HW129894   2.521   3.425   4.748  0.0747 -0.0756  0.3050
 6086SOL    HW229895   2.579   3.563   4.741 -1.2756  0.6685  1.2747
 6087SOL     OW29896   2.600   1.321  10.441  0.4939  0.1922  0.6838
 6087SOL    HW129897   2.651   1.402  10.443 -0.9576  1.0989  0.7103
 6087SOL    HW229898   2.646   1.280  10.515 -1.7412 -0.7557  1.5466
 6088SOL     OW29899   2.726   0.249   5.410  0.1264  0.1651  0.5227
 6088SOL    HW129900   2.781   0.325   5.429  0.5121 -0.0339  0.2129
 6088SOL    HW229901   2.695   0.284   5.327 -2.2043 -1.0933  0.8675
 6089SOL     OW29902   4.251   1.535  17.131  0.7760  0.7188  0.3874
 6089SOL    HW129903   4.331   1.571  17.091 -1.0128  2.8143 -1.2581
 6089SOL    HW229904   4.181   1.540  17.066 -0.6774  2.9084  2.1045
 6090SOL     OW29905   3.811   1.042  13.331 -0.4519 -0.2814 -0.0035
 6090SOL    HW129906   3.877   1.031  13.400 -1.3060  0.2331  0.8996
 6090SOL    HW229907   3.862   1.059  13.251 -0.5527  1.5038  0.3029
 6091SOL     OW29908   4.650   2.366  15.041  0.4513 -0.0470  0.5141
 6091SOL    HW129909   4.633   2.329  14.954 -0.5811  0.6369  0.4159
 6091SOL    HW229910   4.644   2.460  15.025  0.1825 -0.1752 -0.1471
 6092SOL     OW29911   0.543   4.296   2.844  0.3092  0.0722  0.2909
 6092SOL    HW129912   0.535   4.361   2.773 -0.4936 -1.4367 -0.9979
 6092SOL    HW229913   0.467   4.239   2.838  0.1451  0.4429 -1.2037
 6093SOL     OW29914   1.711   2.106   1.782  0.2109  0.0570 -0.6006
 6093SOL    HW129915   1.738   2.165   1.711 -0.9380 -0.2266 -1.2660
 6093SOL    HW229916   1.788   2.113   1.839  0.4549 -0.7884 -0.8294
 6094SOL     OW29917   4.141   3.444   4.735 -0.5520  0.7963 -0.4595
 6094SOL    HW129918   4.060   3.393   4.728 -0.3715  0.5715 -0.8895
 6094SOL    HW229919   4.200   3.370   4.751  0.4361  1.8529  0.7686
 6095SOL     OW29920   2.801   0.215  10.599 -0.0813 -0.3630 -0.2316
 6095SOL    HW129921   2.803   0.310  10.608  3.0739 -0.4637 -0.0490
 6095SOL    HW229922   2.713   0.204  10.561 -0.5616  1.7225  0.2844
 6096SOL     OW29923   4.527   0.761   4.779 -0.1144  0.4877 -0.4715
 6096SOL    HW129924   4.606   0.787   4.731 -0.0578  0.6907 -0.2679
 6096SOL    HW229925   4.473   0.719   4.713 -0.8368 -0.4095  0.6892
 6097SOL     OW29926   0.672   0.267   0.366 -0.0528  0.0769  0.4858
 6097SOL    HW129927   0.752   0.255   0.418 -1.1638  1.7368  2.6151
 6097SOL    HW229928   0.647   0.176   0.348 -0.3378  0.3006 -0.2095
 6098SOL     OW29929   2.032   0.655   5.233 -0.4038  0.0067  0.5761
 6098SOL    HW129930   2.025   0.666   5.139  1.8181  2.2658  0.6678
 6098SOL    HW229931   1.980   0.722   5.278 -1.6829 -0.5164 -0.1487
 6099SOL     OW29932   1.195   2.613   7.864 -0.3636 -0.3375 -0.0454
 6099SOL    HW129933   1.144   2.671   7.808 -1.3120  1.4305  2.6672
 6099SOL    HW229934   1.249   2.675   7.912  0.0493 -0.1858 -0.7009
 6100SOL     OW29935   0.006   0.196   4.857  0.2218 -0.0587  0.7244
 6100SOL    HW129936   0.003   0.290   4.877 -0.1367  0.3540 -1.2191
 6100SOL    HW229937   4.649   0.177   4.864  0.1343  0.9260  2.2559
 6101SOL     OW29938   2.170   0.302   4.240  0.4577  0.1943 -0.1482
 6101SOL    HW129939   2.226   0.310   4.163  2.6143 -2.6962  1.1308
 6101SOL    HW229940   2.133   0.391   4.238  0.6950  0.3489  2.1029
 6102SOL     OW29941   0.790   0.159  10.241 -0.6062 -0.2858  0.2649
 6102SOL    HW129942   0.832   0.230  10.192 -0.4265 -0.9720 -0.5727
 6102SOL    HW229943   0.830   0.085  10.195  2.2687  0.3480  1.7012
 6103SOL     OW29944   1.423   1.738   5.805  0.5845 -0.1011 -0.4219
 6103SOL    HW129945   1.404   1.812   5.747  0.7730  0.4897  0.2786
 6103SOL    HW229946   1.333   1.719   5.834  2.0788 -0.4948  4.0002
 6104SOL     OW29947   1.326   0.659  11.013 -0.4837 -0.1129 -0.4728
 6104SOL    HW129948   1.361   0.707  11.087  2.2924 -0.5615 -1.5093
 6104SOL    HW229949   1.402   0.656  10.955 -0.9210  0.3672 -1.0752
 6105SOL     OW29950   1.437   2.998   1.652  0.8040  0.7417 -0.0360
 6105SOL    HW129951   1.423   2.987   1.558 -0.8160 -3.3166  0.6739
 6105SOL    HW229952   1.347   2.993   1.685 -0.1472  0.8766 -2.6070
 6106SOL     OW29953   1.545   2.139   9.370 -0.3281 -0.0731 -0.2677
 6106SOL    HW129954   1.497   2.212   9.407 -1.9654 -2.0691  1.5545
 6106SOL    HW229955   1.501   2.061   9.405 -1.9447  1.4653  1.0715
 6107SOL     OW29956   0.049   2.259   4.096  0.4811  0.5738 -0.3482
 6107SOL    HW129957   4.734   2.325   4.049 -0.4625 -0.4845 -0.8075
 6107SOL    HW229958   0.124   2.250   4.037  0.1180  0.6699 -0.8237
 6108SOL     OW29959   1.649   2.237   1.470  0.2603  0.5429 -0.2833
 6108SOL    HW129960   1.593   2.280   1.405  0.9832  0.8150 -0.7198
 6108SOL    HW229961   1.664   2.309   1.530  2.4858  0.0080 -0.2153
 6109SOL     OW29962   4.709   0.009  15.112 -0.3331 -0.1726  0.5044
 6109SOL    HW129963   4.706   4.654  15.085 -0.4065  0.2308 -0.8203
 6109SOL    HW229964   0.047   0.030  15.056 -0.0013 -0.6867  0.7545
 6110SOL     OW29965   3.824   1.001   6.930 -0.0712  0.0872 -0.4043
 6110SOL    HW129966   3.903   1.002   6.983  0.0190  0.0371 -0.5357
 6110SOL    HW229967   3.759   0.952   6.981  0.7171 -1.1116 -0.5637
 6111SOL     OW29968   4.036   4.586   6.037 -0.2111  0.2006  0.4964
 6111SOL    HW129969   3.996   4.501   6.021  0.7950  0.2373 -2.2552
 6111SOL    HW229970   4.102   4.567   6.103 -1.6009  1.3017  2.2031
 6112SOL     OW29971   0.301   2.239   5.646 -0.2777 -0.0379 -0.2230
 6112SOL    HW129972   0.361   2.298   5.692 -0.7467  1.3284 -1.3714
 6112SOL    HW229973   0.360   2.163   5.639  1.0324  1.0263 -0.7503
 6113SOL     OW29974   1.949   4.722   2.196  0.6081 -0.3090  0.0950
 6113SOL    HW129975   1.859   4.702   2.171  0.5327  0.2161 -0.0614
 6113SOL    HW229976   1.970   4.661   2.266  0.8200  0.6085  0.8327
 6114SOL     OW29977   0.178   0.689   9.211  0.1499  0.4035  0.2029
 6114SOL    HW129978   0.269   0.677   9.239 -0.2666 -0.7881  1.0317
 6114SOL    HW229979   0.166   0.629   9.138  1.2580 -1.7842  1.8085
 6115SOL     OW29980   3.468   3.461   6.898  0.0294  0.0853 -0.1739
 6115SOL    HW129981   3.404   3.394   6.875 -0.0688  0.3165 -0.5800
 6115SOL    HW229982   3.554   3.419   6.901 -0.6996 -1.3045  1.2648
 6116SOL     OW29983   1.038   3.827   5.387 -0.2056 -0.5944 -0.1366
 6116SOL    HW129984   1.018   3.849   5.296 -1.3831 -0.4771  0.1386
 6116SOL    HW229985   0.948   3.807   5.414 -0.0490 -0.0502  0.8012
 6117SOL     OW29986   3.336   0.920   7.860 -0.2557  0.5096 -0.9702
 6117SOL    HW129987   3.399   0.986   7.832 -0.4951  1.1255 -0.0535
 6117SOL    HW229988   3.386   0.839   7.849  1.9384  1.7076  0.4024
 6118SOL     OW29989   2.502   2.660  11.342 -0.2423 -0.4915  0.0399
 6118SOL    HW129990   2.448   2.696  11.413 -0.7181 -1.1420  0.0072
 6118SOL    HW229991   2.521   2.569  11.366 -1.0243 -0.0874  2.2544
 6119SOL     OW29992   3.291   0.249   5.220 -0.4618  0.1064 -0.1301
 6119SOL    HW129993   3.380   0.214   5.221 -0.2451  0.6640  0.4214
 6119SOL    HW229994   3.308   0.343   5.225  0.7996 -0.0986 -0.7582
 6120SOL     OW29995   0.839   1.739   3.262 -0.1551  0.7028 -0.3804
 6120SOL    HW129996   0.874   1.707   3.178 -2.0719 -1.5822 -0.2892
 6120SOL    HW229997   0.918   1.772   3.305  0.4260 -0.1320 -0.8010
 6121SOL     OW29998   4.648   2.178  10.066 -0.2831 -0.2285 -0.4872
 6121SOL    HW129999   4.733   2.208  10.099 -0.2120 -0.8579 -0.0821
 6121SOL    HW230000   4.597   2.258  10.064 -0.0198 -0.0996 -2.0511
 6122SOL     OW30001   0.188   0.023   5.913 -0.1428  0.4056  0.8969
 6122SOL    HW130002   0.179   4.720   5.826 -0.1148  1.9914  0.1594
 6122SOL    HW230003   0.235   0.106   5.898 -0.4341  0.0986 -1.7643
 6123SOL     OW30004   1.946   2.629   5.865  0.1771  0.4787 -0.0197
 6123SOL    HW130005   1.933   2.690   5.937 -0.6735 -0.6091  0.7441
 6123SOL    HW230006   1.989   2.556   5.910 -1.2833  0.8283  1.9324
 6124SOL     OW30007   4.271   4.623   3.334 -0.4005 -0.1070  0.0308
 6124SOL    HW130008   4.342   4.672   3.376 -0.8226 -0.1860  0.8450
 6124SOL    HW230009   4.206   4.691   3.318 -0.5985 -0.0103  1.2088
 6125SOL     OW30010   2.750   2.526  14.900  0.2506 -0.0382 -0.3367
 6125SOL    HW130011   2.667   2.479  14.906  0.6460 -0.7592 -0.5609
 6125SOL    HW230012   2.740   2.550  14.808 -2.7914  0.3055  0.0701
 6126SOL     OW30013   3.592   0.170  11.074  0.2131 -0.1757 -0.0282
 6126SOL    HW130014   3.631   0.257  11.075  2.7943 -1.3294  0.4131
 6126SOL    HW230015   3.647   0.115  11.130 -1.1392 -0.0000  1.4741
 6127SOL     OW30016   1.212   2.082  14.387 -0.4916  0.3365  0.3969
 6127SOL    HW130017   1.234   2.053  14.299 -0.6430 -0.2188  0.5417
 6127SOL    HW230018   1.217   2.176  14.369 -1.7107  0.5816  1.3198
 6128SOL     OW30019   3.953   2.848  12.857  0.0430  0.2546 -0.0875
 6128SOL    HW130020   3.930   2.890  12.775  0.0195 -0.6651 -0.5512
 6128SOL    HW230021   3.914   2.761  12.843  1.3986 -0.0329 -1.9361
 6129SOL     OW30022   0.657   2.684  14.283  0.4699 -0.3588 -0.0426
 6129SOL    HW130023   0.585   2.622  14.265 -0.2548 -0.3772  2.9518
 6129SOL    HW230024   0.605   2.759  14.310  0.4461 -0.7912  1.1087
 6130SOL     OW30025   4.415   4.673   8.551  0.5703  0.2963 -0.1613
 6130SOL    HW130026   4.368   0.020   8.549 -0.1543 -0.1170  0.0542
 6130SOL    HW230027   4.379   4.634   8.630  2.0399 -0.8510 -0.0525
 6131SOL     OW30028   2.283   1.440   6.108 -0.1373  0.0176 -0.3065
 6131SOL    HW130029   2.312   1.531   6.114  1.1527 -0.4707  0.8614
 6131SOL    HW230030   2.235   1.453   6.026 -2.1205 -2.2813  0.4696
 6132SOL     OW30031   4.263   0.661   2.499  0.7072  0.0882  0.4043
 6132SOL    HW130032   4.189   0.678   2.441  1.1870 -1.5505 -0.6783
 6132SOL    HW230033   4.255   0.733   2.562 -1.2496 -0.3122  0.6235
 6133SOL     OW30034   0.350   0.743  11.095  0.1968 -0.0164 -0.0659
 6133SOL    HW130035   0.311   0.766  11.011 -0.1754 -1.3106 -0.2423
 6133SOL    HW230036   0.342   0.830  11.135  0.2963 -0.0485  0.0243
 6134SOL     OW30037   0.183   2.306   6.342  0.4683 -0.5212  0.3395
 6134SOL    HW130038   0.244   2.236   6.320  1.1165 -0.0932  0.7945
 6134SOL    HW230039   0.118   2.303   6.271  1.3900  1.3127 -0.5693
 6135SOL     OW30040   2.805   3.629   9.266 -0.0449  0.1315  0.0719
 6135SOL    HW130041   2.713   3.607   9.253  0.0457 -0.4122  0.3391
 6135SOL    HW230042   2.810   3.634   9.362  0.3484  0.6121  0.0286
 6136SOL     OW30043   2.486   3.545  11.918 -0.5217 -0.3848 -0.0915
 6136SOL    HW130044   2.491   3.454  11.890  2.5855 -0.1557 -0.2342
 6136SOL    HW230045   2.394   3.542  11.946 -0.6715 -1.9659 -0.7576
 6137SOL     OW30046   3.333   1.521   8.407  0.3263  0.4223 -0.4666
 6137SOL    HW130047   3.321   1.572   8.487  2.3223 -0.5418  0.4571
 6137SOL    HW230048   3.331   1.433   8.445 -1.4385  0.9044  0.5279
 6138SOL     OW30049   0.363   0.019   7.384 -0.0989 -0.0649 -0.3650
 6138SOL    HW130050   0.371   0.037   7.478  1.3496  0.8252 -0.6450
 6138SOL    HW230051   0.298   0.082   7.352 -1.0589 -0.4036  0.9479
 6139SOL     OW30052   1.331   0.600   2.152 -0.5474  0.1947 -0.2363
 6139SOL    HW130053   1.267   0.572   2.087  0.1163 -0.4623 -0.6048
 6139SOL    HW230054   1.275   0.656   2.207 -2.4043 -2.8564  0.9553
 6140SOL     OW30055   2.006   2.873   7.611  0.1893  0.2743  0.3031
 6140SOL    HW130056   2.081   2.882   7.552  1.2438  1.2693  1.7815
 6140SOL    HW230057   1.972   2.787   7.588  0.5370 -0.1268  1.2900
 6141SOL     OW30058   3.799   3.866   6.239  0.0601  0.0665 -0.0875
 6141SOL    HW130059   3.838   3.856   6.325 -1.1297 -1.4562  0.2806
 6141SOL    HW230060   3.708   3.863   6.271  0.0871 -0.2149 -0.0406
 6142SOL     OW30061   3.467   3.946   0.127  0.2693  0.0881  0.0595
 6142SOL    HW130062   3.463   4.037   0.095  0.7443 -0.1556 -0.7011
 6142SOL    HW230063   3.547   3.929   0.077 -0.3492  0.0885 -0.9433
 6143SOL     OW30064   4.433   2.991   1.271 -0.0076 -0.3359  0.3580
 6143SOL    HW130065   4.409   2.943   1.191 -0.8971 -0.7939  0.9011
 6143SOL    HW230066   4.357   2.985   1.328  0.0333 -1.0533  0.3353
 6144SOL     OW30067   2.204   3.602   1.623 -0.1047 -0.0398  0.2045
 6144SOL    HW130068   2.146   3.585   1.697 -1.3332 -1.6404 -1.1408
 6144SOL    HW230069   2.281   3.612   1.679  0.2991 -1.0383 -0.1713
 6145SOL     OW30070   0.676   3.972   4.972  0.3954 -0.1517 -0.1366
 6145SOL    HW130071   0.585   4.000   4.963  0.2075  0.1507  2.5418
 6145SOL    HW230072   0.727   4.051   4.956 -0.9045  1.2204  2.5461
 6146SOL     OW30073   0.891   2.615   3.045 -0.5714 -0.1037 -0.0323
 6146SOL    HW130074   0.886   2.523   3.022  0.1818 -0.0472 -0.4219
 6146SOL    HW230075   0.974   2.618   3.093 -1.9389 -1.8030  2.3658
 6147SOL     OW30076   3.455   1.696   4.621  0.2324  0.1801  0.5715
 6147SOL    HW130077   3.515   1.690   4.695  0.6091  1.1427  0.3487
 6147SOL    HW230078   3.514   1.696   4.545 -0.0407 -0.0792  0.3561
 6148SOL     OW30079   3.311   4.089   9.003  0.1672 -0.4719 -0.9333
 6148SOL    HW130080   3.222   4.058   8.988  0.3054 -1.1784 -0.2685
 6148SOL    HW230081   3.350   4.008   9.035  1.4804  0.5863  0.1614
 6149SOL     OW30082   3.078   1.566  16.933  0.3065  0.3279 -0.3331
 6149SOL    HW130083   3.117   1.653  16.931  1.1164 -0.0013  1.3005
 6149SOL    HW230084   3.149   1.521  16.979  0.5991  0.6868 -0.4328
 6150SOL     OW30085   4.461   2.149   5.430  0.1326  0.2466  0.2000
 6150SOL    HW130086   4.538   2.107   5.470 -1.0466 -0.7242  1.4641
 6150SOL    HW230087   4.441   2.212   5.499  0.2354 -1.7180  2.0275
 6151SOL     OW30088   2.837   4.452  11.707 -0.3527  0.0341 -0.6227
 6151SOL    HW130089   2.770   4.404  11.659 -1.7701  0.8132  0.5872
 6151SOL    HW230090   2.919   4.410  11.679 -0.3687 -0.7501  0.5284
 6152SOL     OW30091   1.611   3.721  13.923 -0.3368  0.3684  0.0182
 6152SOL    HW130092   1.533   3.775  13.937 -1.5522 -1.4181  0.2588
 6152SOL    HW230093   1.603   3.692  13.833 -2.2897  0.1000  0.2835
 6153SOL     OW30094   0.860   2.344  10.086  0.4595  0.1660 -0.3256
 6153SOL    HW130095   0.893   2.334  10.175 -3.5436  1.9124  1.3672
 6153SOL    HW230096   0.825   2.256  10.070 -2.7194  1.6250 -1.5168
 6154SOL     OW30097   2.483   4.058   1.864  0.1713  0.0152  0.4072
 6154SOL    HW130098   2.563   4.087   1.819 -1.3396  2.0132 -0.9554
 6154SOL    HW230099   2.419   4.060   1.793 -2.7773  1.1303  3.0956
 6155SOL     OW30100   2.116   3.605   8.630 -0.1367  0.7603 -0.5220
 6155SOL    HW130101   2.045   3.602   8.566 -0.0776 -0.4355 -0.5168
 6155SOL    HW230102   2.099   3.518   8.664  3.2010  0.2263 -0.2672
 6156SOL     OW30103   3.046   0.234   7.192 -0.2476  0.2564 -0.0345
 6156SOL    HW130104   2.995   0.315   7.198 -1.4290 -0.4987  0.0949
 6156SOL    HW230105   2.991   0.170   7.236 -0.2637  0.5386  0.3530
 6157SOL     OW30106   2.543   2.292   4.992 -0.0582  0.4162 -0.1110
 6157SOL    HW130107   2.555   2.349   5.068  0.7908  0.8376 -0.5649
 6157SOL    HW230108   2.448   2.283   4.994 -0.0996  0.4313 -1.6264
 6158SOL     OW30109   3.338   2.095   2.586 -0.1762  0.3175  0.7003
 6158SOL    HW130110   3.312   2.149   2.661 -0.6684  2.5003 -1.0354
 6158SOL    HW230111   3.386   2.024   2.629 -0.0908  0.7025  1.2408
 6159SOL     OW30112   4.054   1.763  17.484 -0.0064  0.3048 -0.6626
 6159SOL    HW130113   4.026   1.832  17.424 -2.2850 -0.1757 -0.1747
 6159SOL    HW230114   3.993   1.785  17.555 -1.0469 -0.4468 -1.3312
 6160SOL     OW30115   4.160   0.689  10.134  0.0771  0.3864 -0.1558
 6160SOL    HW130116   4.180   0.751  10.204  1.8132  1.5321 -1.6699
 6160SOL    HW230117   4.241   0.681  10.084  0.3845 -3.0653  0.8606
 6161SOL     OW30118   4.542   4.714   9.885  0.2726 -0.3964 -0.0202
 6161SOL    HW130119   4.565   4.624   9.908  0.3113 -0.5291 -0.5865
 6161SOL    HW230120   4.450   4.703   9.859 -0.0444  0.4850  0.7161
 6162SOL     OW30121   2.301   2.783   3.607  0.0746 -1.1281 -0.0025
 6162SOL    HW130122   2.368   2.811   3.545 -0.9169  0.2781 -0.4287
 6162SOL    HW230123   2.256   2.716   3.556 -0.3842 -0.1601 -0.8603
 6163SOL     OW30124   1.169   4.056   1.470 -0.6123 -0.3287 -0.0155
 6163SOL    HW130125   1.241   4.005   1.507 -0.3925  1.7266  2.3777
 6163SOL    HW230126   1.096   4.013   1.515  0.3899 -2.1168 -0.1284
 6164SOL     OW30127   0.295   4.190   3.622  0.2751  0.0896 -0.0963
 6164SOL    HW130128   0.214   4.149   3.650  1.3380 -1.7599  0.2764
 6164SOL    HW230129   0.264   4.268   3.577 -0.4726  0.7309  1.5262
 6165SOL     OW30130   1.254   2.854   4.453  0.7282 -0.5958  0.9876
 6165SOL    HW130131   1.334   2.843   4.504  1.1617 -0.7539  0.2775
 6165SOL    HW230132   1.191   2.824   4.518  0.5279 -0.2173  0.9631
 6166SOL     OW30133   3.828   2.139   7.836 -0.0720  0.2758 -0.1640
 6166SOL    HW130134   3.736   2.154   7.855 -0.6420 -2.2094 -1.0746
 6166SOL    HW230135   3.828   2.104   7.747 -0.1858 -0.2038  0.0296
 6167SOL     OW30136   2.244   3.182   3.345  0.2135 -0.5077  0.4543
 6167SOL    HW130137   2.166   3.141   3.385 -0.5364 -0.6038 -1.1200
 6167SOL    HW230138   2.281   3.096   3.327  1.3001  0.1778 -0.4964
 6168SOL     OW30139   4.623   1.427   7.708 -0.1305  0.2021 -0.0745
 6168SOL    HW130140   4.578   1.346   7.733 -0.4856  0.3130 -0.3599
 6168SOL    HW230141   4.631   1.405   7.616  0.9734 -0.6927  0.2341
 6169SOL     OW30142   4.027   0.350   8.980  0.5884  0.6774 -0.5928
 6169SOL    HW130143   4.073   0.276   9.019 -0.2203 -0.3931 -1.6760
 6169SOL    HW230144   4.097   0.408   8.949 -1.0257  2.4840 -0.8909
 6170SOL     OW30145   3.412   3.287   2.892 -0.0792  0.3386 -0.0294
 6170SOL    HW130146   3.444   3.287   2.802 -1.5959 -1.7583 -0.5392
 6170SOL    HW230147   3.357   3.210   2.905  0.1988 -0.1457 -1.7265
 6171SOL     OW30148   3.053   1.505  16.332  0.0501 -0.9060  0.1044
 6171SOL    HW130149   3.132   1.518  16.384 -0.1539  1.5142 -0.2124
 6171SOL    HW230150   3.057   1.414  16.301  2.8099 -0.4223 -0.9213
 6172SOL     OW30151   2.669   3.218  15.545 -0.2135  0.1339 -0.3418
 6172SOL    HW130152   2.668   3.168  15.463 -0.5526  2.0538 -1.4927
 6172SOL    HW230153   2.743   3.178  15.591  1.1387  2.7521 -0.2478
 6173SOL     OW30154   0.216   2.430   7.685 -0.4077  0.0486  0.1488
 6173SOL    HW130155   0.300   2.437   7.730 -1.2639  0.3557  1.7046
 6173SOL    HW230156   0.193   2.522   7.672  0.4765 -0.0380 -2.1225
 6174SOL     OW30157   3.733   3.572   3.849 -0.1729  0.5445  0.0512
 6174SOL    HW130158   3.821   3.552   3.818  0.3077  1.5279  0.7485
 6174SOL    HW230159   3.697   3.595   3.763 -0.9425 -2.7912 -0.5101
 6175SOL     OW30160   2.227   1.320   4.792  0.6327 -0.0495  0.2511
 6175SOL    HW130161   2.229   1.406   4.834 -2.3070  0.7795 -1.3028
 6175SOL    HW230162   2.295   1.277   4.843 -0.1654  0.0532  1.3991
 6176SOL     OW30163   1.676   2.018   4.894  0.0370 -0.0934  0.1174
 6176SOL    HW130164   1.694   1.929   4.924 -0.9873  0.1658  1.4944
 6176SOL    HW230165   1.615   2.047   4.962  2.3894  3.3985  0.7248
 6177SOL     OW30166   1.077   0.953   3.792 -0.1245  0.2914 -0.1721
 6177SOL    HW130167   1.074   0.948   3.887  1.2001  1.2561 -0.0749
 6177SOL    HW230168   1.026   1.034   3.781 -0.2778  0.2722  0.4226
 6178SOL     OW30169   1.762   1.517  12.960 -0.0673 -0.4282  0.4257
 6178SOL    HW130170   1.669   1.536  12.954  0.4295  1.7930 -0.4409
 6178SOL    HW230171   1.775   1.454  12.888  0.8409  1.6071 -1.2022
 6179SOL     OW30172   1.110   1.967  12.122  0.1577 -0.1346  0.1900
 6179SOL    HW130173   1.098   1.872  12.112  1.1098 -0.3145  0.7370
 6179SOL    HW230174   1.176   1.986  12.054 -0.1327 -1.4496 -0.4598
 6180SOL     OW30175   3.822   1.546  16.158  0.3593  0.9942  0.4638
 6180SOL    HW130176   3.913   1.564  16.138  1.1164 -1.8876  1.2501
 6180SOL    HW230177   3.835   1.500  16.241  2.3301 -0.9207 -0.9192
 6181SOL     OW30178   1.510   3.251   5.855 -0.5229  0.1814  0.0221
 6181SOL    HW130179   1.440   3.195   5.819 -3.1455  3.4191  0.0724
 6181SOL    HW230180   1.591   3.235   5.806 -0.2479 -1.3416  0.9424
 6182SOL     OW30181   4.039   3.080   7.574 -0.2268  0.1836  0.0126
 6182SOL    HW130182   3.979   3.141   7.616 -1.3010 -0.7506 -0.1597
 6182SOL    HW230183   3.982   3.024   7.521  1.0941 -0.0064 -1.1970
 6183SOL     OW30184   1.879   2.603   6.882 -0.2538  0.1522 -0.5923
 6183SOL    HW130185   1.945   2.644   6.937  0.0639 -2.0113  0.6478
 6183SOL    HW230186   1.908   2.593   6.791 -0.5927 -2.2828 -0.4479
 6184SOL     OW30187   1.630   1.340  15.846  0.3088  0.1595 -0.0170
 6184SOL    HW130188   1.628   1.325  15.940  1.1124  2.4244  0.3636
 6184SOL    HW230189   1.708   1.288  15.825  0.0911 -0.2979  0.3369
 6185SOL     OW30190   1.926   0.853   3.196 -0.2620 -0.2034 -0.3494
 6185SOL    HW130191   1.903   0.945   3.190  0.5753  0.0386  0.1550
 6185SOL    HW230192   1.897   0.822   3.282  0.5459  0.3009  0.1062
 6186SOL     OW30193   0.954   0.420   8.266 -0.2662 -0.1771  0.0465
 6186SOL    HW130194   0.970   0.485   8.334 -0.4406  0.3765 -0.4431
 6186SOL    HW230195   0.921   0.487   8.206 -0.7711  1.0047  1.6444
 6187SOL     OW30196   2.946   1.909   9.307 -0.5738 -0.3630 -0.4426
 6187SOL    HW130197   3.004   1.981   9.333 -2.5602  1.5456 -1.2291
 6187SOL    HW230198   2.975   1.878   9.221  1.1744  0.3806 -0.1281
 6188SOL     OW30199   3.943   2.842  10.131  0.1140  0.1480 -0.8644
 6188SOL    HW130200   3.970   2.916  10.076 -2.1312  1.5835 -0.0277
 6188SOL    HW230201   4.022   2.787  10.132 -0.2765 -0.4192 -1.4260
 6189SOL     OW30202   4.232   0.674   3.589 -0.2046 -0.1165  0.3067
 6189SOL    HW130203   4.146   0.648   3.621 -0.6425 -0.4014 -1.1084
 6189SOL    HW230204   4.269   0.720   3.665  1.9409 -0.4959 -0.5032
 6190SOL     OW30205   2.195   0.311   0.956 -0.0997  0.8374  0.3673
 6190SOL    HW130206   2.200   0.218   0.975  3.0302  0.4269 -2.6221
 6190SOL    HW230207   2.102   0.311   0.933 -0.2166 -0.1530  0.8861
 6191SOL     OW30208   3.110   2.152  10.573 -0.0410  0.2694  0.2403
 6191SOL    HW130209   3.141   2.240  10.551 -1.3707  0.8108  0.5062
 6191SOL    HW230210   3.133   2.145  10.666 -3.6012 -0.7467  1.0524
 6192SOL     OW30211   1.743   3.482   6.174  0.2356 -0.3050 -0.3207
 6192SOL    HW130212   1.811   3.520   6.229  0.0005  1.9098 -1.5356
 6192SOL    HW230213   1.767   3.522   6.090 -0.6984 -0.6145 -0.7419
 6193SOL     OW30214   1.931   1.787   0.656 -0.2306  0.7323 -0.2637
 6193SOL    HW130215   1.987   1.710   0.660 -1.5248 -0.1652  0.8590
 6193SOL    HW230216   1.980   1.842   0.595  0.2881 -1.2760 -1.6265
 6194SOL     OW30217   0.406   1.829   2.441 -0.5574 -0.1411 -0.1556
 6194SOL    HW130218   0.382   1.739   2.417 -0.7809 -1.2270  4.1955
 6194SOL    HW230219   0.472   1.814   2.508  2.0692  0.4845 -2.6133
 6195SOL     OW30220   1.128   0.158   4.210 -0.0912 -0.1962  0.3450
 6195SOL    HW130221   1.147   0.119   4.296  0.4663  1.9904  1.1984
 6195SOL    HW230222   1.097   0.245   4.232 -1.8793  0.1263 -3.5627
 6196SOL     OW30223   2.474   2.657  15.620  0.6693 -0.4334  0.3614
 6196SOL    HW130224   2.544   2.638  15.556  0.1145 -2.2588  0.2794
 6196SOL    HW230225   2.419   2.578  15.618 -0.9440  0.7318 -1.2009
 6197SOL     OW30226   3.328   1.952   4.629 -0.1635 -0.0207  0.2329
 6197SOL    HW130227   3.385   1.876   4.643 -0.0129 -0.0792 -0.7024
 6197SOL    HW230228   3.401   2.011   4.613 -0.5122 -0.2037 -2.0863
 6198SOL     OW30229   0.255   0.723   4.391  0.6843 -0.4675  0.0357
 6198SOL    HW130230   0.261   0.791   4.324  1.2078  0.2212  0.7645
 6198SOL    HW230231   0.282   0.776   4.466 -1.9152 -0.8683  1.2434
 6199SOL     OW30232   0.729   4.368   4.669 -0.1236  0.2187  0.2828
 6199SOL    HW130233   0.766   4.343   4.753  0.3756 -1.3820 -0.4273
 6199SOL    HW230234   0.767   4.294   4.622  0.0867  1.3916 -1.4179
 6200SOL     OW30235   3.993   2.691   3.973 -0.0417  0.4983  0.1469
 6200SOL    HW130236   4.045   2.617   3.943 -1.2723  0.9322 -3.1089
 6200SOL    HW230237   4.048   2.739   4.034 -0.6183 -0.6526  1.5709
 6201SOL     OW30238   3.467   1.728  16.518 -0.2958 -0.7354  0.1216
 6201SOL    HW130239   3.384   1.680  16.508 -1.4502  1.2383  0.0986
 6201SOL    HW230240   3.442   1.819  16.498  1.0152 -0.3623  0.2149
 6202SOL     OW30241   4.106   0.310   5.827  0.0910 -0.1654 -0.3370
 6202SOL    HW130242   4.138   0.381   5.771  0.2239  0.6310  0.7345
 6202SOL    HW230243   4.104   0.245   5.758 -3.0522 -1.8985  1.3724
 6203SOL     OW30244   0.106   2.069   4.314  0.1458  0.2679 -0.4534
 6203SOL    HW130245   0.074   2.120   4.239 -1.2231 -0.2183 -0.1956
 6203SOL    HW230246   0.199   2.061   4.294  0.0744  1.9558 -1.4977
 6204SOL     OW30247   2.610   3.794   3.979  0.5826 -0.1930 -0.5397
 6204SOL    HW130248   2.609   3.826   3.889  1.6471 -1.0621 -0.8730
 6204SOL    HW230249   2.562   3.860   4.029 -3.2634 -1.8684 -2.0223
 6205SOL     OW30250   0.374   4.343  16.351  0.6750 -0.4465  0.1092
 6205SOL    HW130251   0.403   4.336  16.442  0.0976  2.0599  0.4747
 6205SOL    HW230252   0.285   4.308  16.355 -0.0856  1.9985  3.8351
 6206SOL     OW30253   1.000   2.052   4.185  0.3685  0.1385  0.1028
 6206SOL    HW130254   1.068   2.112   4.153 -0.4115  0.0526 -1.7267
 6206SOL    HW230255   0.929   2.059   4.120 -0.3198  0.1136  0.8597
 6207SOL     OW30256   2.607   4.520  16.482  0.1631  0.5240  0.1298
 6207SOL    HW130257   2.656   4.505  16.562 -0.7196 -1.0675  0.3649
 6207SOL    HW230258   2.678   4.561  16.432 -0.6745  2.0586  0.2068
 6208SOL     OW30259   2.783   1.808   9.563  0.2113 -0.3382  0.4383
 6208SOL    HW130260   2.850   1.872   9.538  0.0447 -0.9910 -1.6180
 6208SOL    HW230261   2.712   1.858   9.602  0.5963 -0.5042  1.3481
 6209SOL     OW30262   1.521   1.674  15.996  0.7990 -0.1103 -0.1368
 6209SOL    HW130263   1.597   1.679  15.937 -0.3499  3.1139 -1.3294
 6209SOL    HW230264   1.472   1.602  15.956 -0.1206  1.3023 -1.5389
 6210SOL     OW30265   0.616   2.336   7.795  0.1220  0.1339 -0.0419
 6210SOL    HW130266   0.590   2.415   7.748  0.1534  1.0340  1.4408
 6210SOL    HW230267   0.593   2.356   7.886 -0.6747  1.9416 -0.6514
 6211SOL     OW30268   1.983   3.526   1.441  0.9845 -0.0231 -0.1082
 6211SOL    HW130269   1.912   3.560   1.496  0.5158  0.2146 -0.8698
 6211SOL    HW230270   2.049   3.494   1.503 -0.9707 -0.2082  1.8865
 6212SOL     OW30271   4.103   3.371   0.590 -0.3424 -0.4853  0.6434
 6212SOL    HW130272   4.142   3.454   0.562 -0.7617  0.3622  2.5350
 6212SOL    HW230273   4.141   3.361   0.677  0.6629  4.6224  0.7978
 6213SOL     OW30274   3.675   2.479   8.695  0.2747 -0.2710  0.3235
 6213SOL    HW130275   3.736   2.507   8.763  0.2879  1.9974 -0.6305
 6213SOL    HW230276   3.742   2.456   8.630 -1.0489  0.7985 -1.4219
 6214SOL     OW30277   3.203   2.941   7.836  0.0894 -0.1899  0.0107
 6214SOL    HW130278   3.173   2.996   7.764 -0.3078 -0.0361  0.2908
 6214SOL    HW230279   3.121   2.940   7.886  0.1276  1.9165  0.1051
 6215SOL     OW30280   1.702   0.241   7.602 -0.0240 -0.2287  0.5140
 6215SOL    HW130281   1.657   0.288   7.672 -1.2772 -0.1210 -0.3643
 6215SOL    HW230282   1.683   0.283   7.518 -1.1547 -0.5225  0.6275
 6216SOL     OW30283   2.753   1.088  12.704 -0.1445 -0.0842 -0.0756
 6216SOL    HW130284   2.802   1.096  12.621  1.5530 -1.9969  0.7289
 6216SOL    HW230285   2.741   1.179  12.728 -1.4907 -0.0774 -0.7627
 6217SOL     OW30286   4.481   3.041   0.188 -0.3281 -0.2062 -0.0375
 6217SOL    HW130287   4.501   2.957   0.229 -0.9432  0.5671  1.8498
 6217SOL    HW230288   4.393   3.058   0.223 -1.2390 -0.9674 -1.9589
 6218SOL     OW30289   0.901   3.466   5.334 -0.2031 -0.0672  0.1449
 6218SOL    HW130290   0.875   3.484   5.244 -1.0580 -0.4659  0.3162
 6218SOL    HW230291   0.827   3.513   5.372  0.6226  1.0885  0.3205
 6219SOL     OW30292   4.154   0.820   1.900  0.2582  0.2386 -0.4975
 6219SOL    HW130293   4.164   0.732   1.861  1.3247 -0.7783  2.1000
 6219SOL    HW230294   4.072   0.846   1.858 -0.5167 -1.9814 -0.3913
 6220SOL     OW30295   1.712   4.640   3.342 -0.3785  0.0728  0.4897
 6220SOL    HW130296   1.703   4.729   3.375  2.4920 -0.0133  1.4679
 6220SOL    HW230297   1.621   4.611   3.343 -1.1883  2.4608 -3.2589
 6221SOL     OW30298   4.191   2.414   7.485  0.2432  0.0670 -0.1315
 6221SOL    HW130299   4.229   2.502   7.480 -4.3384  1.9506 -2.4621
 6221SOL    HW230300   4.160   2.417   7.576  1.1522  0.6400  0.1558
 6222SOL     OW30301   0.471   0.821   3.700 -0.2388  0.1230  0.2155
 6222SOL    HW130302   0.409   0.872   3.753  1.2323 -0.3291  2.3696
 6222SOL    HW230303   0.463   0.733   3.737 -0.9370 -0.3573 -1.0983
 6223SOL     OW30304   4.638   3.049   6.686  0.2831  0.8283  0.5280
 6223SOL    HW130305   4.664   3.001   6.608  1.0198  2.2596 -0.1109
 6223SOL    HW230306   4.596   2.979   6.736  0.6355 -1.5361 -2.4762
 6224SOL     OW30307   1.957   0.876   5.403  0.1090 -0.3460  0.1468
 6224SOL    HW130308   1.865   0.900   5.411 -0.1983 -1.1794 -0.8464
 6224SOL    HW230309   1.993   0.942   5.463 -1.0361  0.2702  0.1541
 6225SOL     OW30310   1.010   3.320   4.937 -0.3765 -0.8165 -0.1099
 6225SOL    HW130311   0.924   3.354   4.916  0.1139 -0.3515 -1.3341
 6225SOL    HW230312   1.006   3.226   4.921  0.7441 -0.2401 -3.6395
 6226SOL     OW30313   1.109   4.215   8.633 -0.0247 -0.2690  0.4597
 6226SOL    HW130314   1.121   4.152   8.562 -2.6159 -0.3651  0.0769
 6226SOL    HW230315   1.149   4.297   8.604 -0.8745 -0.7968 -2.2398
 6227SOL     OW30316   0.915   0.839   4.426  0.1695  0.3377 -0.1614
 6227SOL    HW130317   0.846   0.844   4.360  1.1769 -0.5859 -1.2862
 6227SOL    HW230318   0.979   0.895   4.383  3.0305 -2.5438  0.4054
 6228SOL     OW30319   1.507   1.442   7.122  0.2188 -0.0110 -0.2451
 6228SOL    HW130320   1.517   1.513   7.058  1.3201  1.5651  1.6383
 6228SOL    HW230321   1.514   1.366   7.064  0.6553 -1.3445  1.5484
 6229SOL     OW30322   2.771   0.133   0.410  0.4919  0.3129 -1.2279
 6229SOL    HW130323   2.676   0.128   0.417  0.4783  0.6834 -1.1283
 6229SOL    HW230324   2.793   0.125   0.317 -3.0429 -0.6304 -1.9900
 6230SOL     OW30325   1.468   3.626   5.699  0.2817 -0.1431  0.1490
 6230SOL    HW130326   1.560   3.601   5.707  0.0676 -1.7391 -2.4833
 6230SOL    HW230327   1.430   3.573   5.769 -1.6809  0.7663 -0.2350
 6231SOL     OW30328   1.688   2.938   1.734  0.5774  0.8528 -0.0240
 6231SOL    HW130329   1.718   3.010   1.678  3.2834 -0.3619 -0.1296
 6231SOL    HW230330   1.596   2.966   1.738 -0.6360 -2.9027 -1.3728
 6232SOL     OW30331   2.855   2.324   3.019  0.0018 -0.3265 -0.5374
 6232SOL    HW130332   2.763   2.337   3.043  0.4202  0.5895  0.5405
 6232SOL    HW230333   2.859   2.372   2.936  0.6134  0.3858 -0.0911
 6233SOL     OW30334   3.721   1.548   0.650 -0.1061  0.2746  0.3338
 6233SOL    HW130335   3.705   1.642   0.638  2.5086  0.8444  1.5757
 6233SOL    HW230336   3.631   1.518   0.638 -0.4475  0.8681  1.4367
 6234SOL     OW30337   2.429   0.071   5.146  0.2264 -0.5143 -0.4626
 6234SOL    HW130338   2.403   0.025   5.226 -0.2289  3.0986  1.4861
 6234SOL    HW230339   2.411   0.162   5.171  1.9903 -0.5428  0.9083
 6235SOL     OW30340   2.627   0.631   4.969  0.4101 -0.2139 -0.2747
 6235SOL    HW130341   2.557   0.695   4.985  0.8121 -0.5739  2.9021
 6235SOL    HW230342   2.685   0.701   4.937 -0.2355 -0.4737 -2.0549
 6236SOL     OW30343   4.574   3.204  16.634 -0.1935  0.3772 -0.2867
 6236SOL    HW130344   4.593   3.199  16.540 -1.8499 -1.4836 -0.5158
 6236SOL    HW230345   4.510   3.136  16.654  4.0240 -2.9039  1.8973
 6237SOL     OW30346   3.945   4.056   5.980  0.0324 -0.6377 -0.1117
 6237SOL    HW130347   3.887   3.980   5.980  0.8381 -1.2513  0.7675
 6237SOL    HW230348   3.970   4.058   5.888 -1.1411  0.7851 -0.4077
 6238SOL     OW30349   2.252   1.131  15.471 -0.2556 -0.0279 -0.5279
 6238SOL    HW130350   2.301   1.116  15.551 -2.2755  0.4386  0.8072
 6238SOL    HW230351   2.178   1.071  15.483 -0.9230  0.7445 -0.7878
 6239SOL     OW30352   2.561   3.964   8.227 -0.0687 -0.2769  0.6634
 6239SOL    HW130353   2.602   3.949   8.142 -1.7369  0.6378 -0.2931
 6239SOL    HW230354   2.636   3.986   8.283 -0.0992  1.3071  0.0733
 6240SOL     OW30355   3.860   1.407  10.828  0.0391  0.6983  0.5418
 6240SOL    HW130356   3.921   1.341  10.861 -0.7833  0.0760  0.8315
 6240SOL    HW230357   3.775   1.378  10.862 -0.2274  0.6846 -0.1334
 6241SOL     OW30358   2.057   3.115  12.792  0.1258  0.1205  0.0402
 6241SOL    HW130359   2.007   3.179  12.843 -1.7910 -2.7832  1.8045
 6241SOL    HW230360   2.141   3.109  12.836  0.3118 -1.1866 -0.4882
 6242SOL     OW30361   0.965   1.899   7.123  0.0619  0.4387  0.2648
 6242SOL    HW130362   0.896   1.834   7.133  0.7302 -0.2167  0.6020
 6242SOL    HW230363   0.937   1.960   7.191  1.6276  0.9117  0.4906
 6243SOL     OW30364   0.714   2.144   1.789 -0.3825 -0.1851 -0.5387
 6243SOL    HW130365   0.649   2.149   1.860  1.2078  1.7194  0.7660
 6243SOL    HW230366   0.711   2.230   1.747  0.8965  1.3244  2.4719
 6244SOL     OW30367   1.780   3.405   7.067 -0.1652  0.0805  0.3535
 6244SOL    HW130368   1.766   3.495   7.096  0.6357 -0.0997  1.3484
 6244SOL    HW230369   1.703   3.363   7.105  0.0313 -1.7153 -1.2133
 6245SOL     OW30370   4.289   4.241   6.223 -0.3645 -0.5045  0.0556
 6245SOL    HW130371   4.207   4.210   6.259  0.3417 -1.6315  0.6807
 6245SOL    HW230372   4.267   4.243   6.129  0.9776 -2.3442 -0.3117
 6246SOL     OW30373   1.625   0.383  15.196 -0.3645  0.0850  0.4208
 6246SOL    HW130374   1.630   0.470  15.236 -2.4825  0.3170  0.1941
 6246SOL    HW230375   1.563   0.393  15.123 -2.3020 -0.9904  1.8963
 6247SOL     OW30376   1.277   0.025  15.355 -0.1554  0.8392 -0.4795
 6247SOL    HW130377   1.323   4.681  15.380 -2.2465 -0.3332 -0.4092
 6247SOL    HW230378   1.320   0.049  15.272 -2.9680 -0.0847 -2.2107
 6248SOL     OW30379   3.204   3.201   7.990  0.0742  0.0244 -0.2128
 6248SOL    HW130380   3.230   3.140   8.059 -2.0770  1.7107  2.0893
 6248SOL    HW230381   3.111   3.215   8.004 -0.2252 -1.9003 -0.2996
 6249SOL     OW30382   0.752   4.117   3.743 -1.0415  0.5268  0.5865
 6249SOL    HW130383   0.794   4.118   3.829 -0.5718 -1.3471  0.3787
 6249SOL    HW230384   0.682   4.181   3.752 -3.8936 -2.1871 -2.2332
 6250SOL     OW30385   0.699   4.258   8.558  0.1988 -0.4751  0.1357
 6250SOL    HW130386   0.664   4.314   8.489 -0.6014 -1.4928 -0.2799
 6250SOL    HW230387   0.790   4.271   8.532 -0.3520  0.6978 -1.2315
 6251SOL     OW30388   3.331   2.591   4.440 -0.8996  0.2241 -0.1876
 6251SOL    HW130389   3.396   2.659   4.461 -1.0137  0.9280 -2.1150
 6251SOL    HW230390   3.389   2.522   4.407 -0.0591 -0.0413  1.8241
 6252SOL     OW30391   2.511   4.613   3.033  0.1791  0.0683 -0.2123
 6252SOL    HW130392   2.417   4.612   3.012 -0.0127 -1.1620  0.7620
 6252SOL    HW230393   2.509   4.687   3.094 -0.0439  0.7290 -1.0113
 6253SOL     OW30394   3.156   4.682   5.978 -0.0950 -0.0485 -0.7490
 6253SOL    HW130395   3.098   0.021   5.978 -1.9855 -1.4788  0.5626
 6253SOL    HW230396   3.243   4.716   5.959  0.4796 -1.1021  0.0176
 6254SOL     OW30397   0.783   0.709   8.983 -0.0774  0.5037 -0.1660
 6254SOL    HW130398   0.867   0.702   8.938 -0.3647  1.8297 -0.9161
 6254SOL    HW230399   0.791   0.787   9.038  0.7681  1.5033 -1.6870
 6255SOL     OW30400   0.190   0.048   6.198  0.3843 -0.0817  0.0558
 6255SOL    HW130401   0.187   0.124   6.257  1.2818 -1.0219  1.3114
 6255SOL    HW230402   0.155   0.077   6.114  1.1268  0.6583  0.0039
 6256SOL     OW30403   2.644   3.783   1.540  0.1744  0.1343 -0.4730
 6256SOL    HW130404   2.691   3.774   1.458  0.0262  1.4131 -0.7042
 6256SOL    HW230405   2.636   3.877   1.557 -1.1838 -0.0840  0.1018
 6257SOL     OW30406   1.969   1.674   7.784 -0.1599 -0.1757  0.5003
 6257SOL    HW130407   1.879   1.668   7.754 -0.1152  0.7590  0.1785
 6257SOL    HW230408   2.002   1.585   7.771  0.8611  0.6997 -2.7977
 6258SOL     OW30409   0.616   1.954   3.836 -0.1240  0.3118 -0.3914
 6258SOL    HW130410   0.589   1.863   3.853 -0.8918  1.0986  2.4828
 6258SOL    HW230411   0.600   1.965   3.742 -1.0815 -0.3147 -0.3063
 6259SOL     OW30412   0.552   4.200   8.067 -0.4124  0.0219  0.7965
 6259SOL    HW130413   0.503   4.224   7.988  1.3643 -1.7821 -0.8352
 6259SOL    HW230414   0.536   4.273   8.127  1.7302  0.6589  0.5959
 6260SOL     OW30415   2.153   3.904   7.845 -0.2358  0.0831 -0.2458
 6260SOL    HW130416   2.223   3.888   7.908  0.1236 -1.6079 -1.0684
 6260SOL    HW230417   2.098   3.970   7.887  0.0210  0.2085 -0.1088
 6261SOL     OW30418   4.637   2.314   4.363  0.4329  0.4304  0.7374
 6261SOL    HW130419   4.641   2.223   4.394 -1.5595  0.8094  2.1598
 6261SOL    HW230420   4.675   2.310   4.275 -0.9579  3.6265  0.0117
 6262SOL     OW30421   1.369   3.109   6.357  0.0635  0.3001  0.0564
 6262SOL    HW130422   1.291   3.149   6.319  0.1665  1.7904  1.3821
 6262SOL    HW230423   1.432   3.119   6.285  0.6129  0.1158  0.5076
 6263SOL     OW30424   0.090   3.677   6.934 -0.1104  0.4521  0.6579
 6263SOL    HW130425   4.735   3.655   6.948  0.3644 -0.5874  2.0928
 6263SOL    HW230426   0.083   3.749   6.871 -1.2797 -1.0237 -0.9001
 6264SOL     OW30427   2.876   4.729   7.695 -0.7645  0.1832 -0.3227
 6264SOL    HW130428   2.894   4.641   7.660  1.2579  0.0836  0.9832
 6264SOL    HW230429   2.812   4.702   7.761  0.4445 -0.9878  0.3639
 6265SOL     OW30430   4.377   2.320   0.710 -0.1292 -0.6729  0.1354
 6265SOL    HW130431   4.305   2.300   0.649 -0.6378  0.1686  0.4546
 6265SOL    HW230432   4.436   2.246   0.701 -0.1863 -0.7313  0.2385
 6266SOL     OW30433   0.547   2.382  11.987 -0.0161  0.1183 -0.2783
 6266SOL    HW130434   0.492   2.391  11.909 -1.6904  1.6347  1.0895
 6266SOL    HW230435   0.633   2.365  11.950 -0.1139  1.5720 -1.1673
 6267SOL     OW30436   4.120   0.348   7.722  0.3548 -0.1613 -0.2123
 6267SOL    HW130437   4.100   0.330   7.814 -0.7533  0.3272 -0.3619
 6267SOL    HW230438   4.173   0.274   7.693  2.6049  0.9979  0.9708
 6268SOL     OW30439   0.968   0.457   7.430  0.0265  0.2685 -0.1085
 6268SOL    HW130440   0.968   0.403   7.509 -1.0562 -1.4130 -1.2509
 6268SOL    HW230441   1.055   0.494   7.443  0.8605 -1.3478 -1.0101
 6269SOL     OW30442   3.860   2.766   4.513 -0.1465 -0.2104 -0.0121
 6269SOL    HW130443   3.937   2.737   4.562  0.2800 -1.6995 -1.5529
 6269SOL    HW230444   3.825   2.827   4.578  0.0777 -0.7537  0.6198
 6270SOL     OW30445   3.530   0.717   3.648  0.1301 -0.4143 -0.9226
 6270SOL    HW130446   3.512   0.644   3.588 -1.2029  0.7179 -1.9308
 6270SOL    HW230447   3.444   0.729   3.688  1.4143  0.0132  1.6513
 6271SOL     OW30448   1.467   0.984   8.055 -0.5800 -0.3913 -0.0871
 6271SOL    HW130449   1.389   0.975   8.001  0.6109  1.6800 -2.1611
 6271SOL    HW230450   1.508   1.062   8.018 -3.8601  1.0025 -0.7378
 6272SOL     OW30451   0.120   2.277   9.013  0.3483 -0.2864  0.4487
 6272SOL    HW130452   0.042   2.234   8.977  0.9064 -1.0945  0.1898
 6272SOL    HW230453   0.153   2.200   9.059 -1.2578  0.0759  2.2186
 6273SOL     OW30454   3.747   0.413  13.346  0.2445  0.0052 -0.3789
 6273SOL    HW130455   3.821   0.463  13.313 -0.5783  1.4260 -0.0671
 6273SOL    HW230456   3.675   0.469  13.315 -0.7285 -1.7197 -1.2459
 6274SOL     OW30457   0.726   1.361  16.806 -0.0704 -0.1465 -0.2814
 6274SOL    HW130458   0.697   1.274  16.778 -1.3691  0.9247 -2.1966
 6274SOL    HW230459   0.691   1.349  16.895 -2.7834  0.9247 -1.2217
 6275SOL     OW30460   1.450   0.798   5.159 -0.1052 -0.2541  0.3006
 6275SOL    HW130461   1.545   0.793   5.150 -0.1996 -2.2158  0.4279
 6275SOL    HW230462   1.436   0.765   5.248 -0.0480 -1.1329 -0.0216
 6276SOL     OW30463   2.871   2.649   1.802 -0.3751 -0.4081 -0.5723
 6276SOL    HW130464   2.825   2.566   1.819 -0.1898 -0.6776 -1.4055
 6276SOL    HW230465   2.961   2.619   1.820 -0.3629  0.3791  0.7032
 6277SOL     OW30466   4.179   0.950   9.864  0.0150  0.1217  0.1951
 6277SOL    HW130467   4.092   0.985   9.883 -0.2338 -0.4974  0.1932
 6277SOL    HW230468   4.188   0.896   9.943 -0.4760 -0.4891 -0.1680
 6278SOL     OW30469   1.871   3.122   9.140 -0.0389  0.5658  0.3901
 6278SOL    HW130470   1.852   3.147   9.050 -1.8274  0.8960  0.8635
 6278SOL    HW230471   1.874   3.206   9.187  0.6318  2.1414 -2.4939
 6279SOL     OW30472   1.403   0.545   2.546  0.3448  0.2040  0.5533
 6279SOL    HW130473   1.342   0.487   2.590  2.3673 -1.2075  1.5182
 6279SOL    HW230474   1.374   0.530   2.456 -1.8027 -1.1584  1.4936
 6280SOL     OW30475   4.135   3.196   2.594  0.4387 -0.7064 -0.0270
 6280SOL    HW130476   4.062   3.140   2.618 -1.2513  1.1255 -0.9587
 6280SOL    HW230477   4.155   3.164   2.506  0.5815 -1.7326  0.3799
 6281SOL     OW30478   4.562   1.517  10.214 -0.0602  0.3807 -0.4996
 6281SOL    HW130479   4.568   1.456  10.288  2.2531  1.8843  0.5308
 6281SOL    HW230480   4.571   1.605  10.250  0.3072  0.0745  0.1494
 6282SOL     OW30481   0.638   3.540  16.850  0.0981  0.0937  0.2307
 6282SOL    HW130482   0.721   3.557  16.895  1.6666  0.8701 -2.9626
 6282SOL    HW230483   0.608   3.626  16.821  0.3060 -0.5209 -1.8261
 6283SOL     OW30484   3.907   4.555   3.005 -0.0762 -0.1454  0.0459
 6283SOL    HW130485   3.928   4.648   3.007  0.2098 -0.1726 -1.7448
 6283SOL    HW230486   3.870   4.545   2.917 -0.9742  0.1715  0.3789
 6284SOL     OW30487   0.329   3.152   8.459  0.0690  0.1950  0.4905
 6284SOL    HW130488   0.292   3.079   8.409  1.3056  0.6968 -1.1819
 6284SOL    HW230489   0.255   3.197   8.500 -0.7277  0.1148 -0.8500
 6285SOL     OW30490   4.065   3.568   7.298 -0.0381  0.5653 -0.1749
 6285SOL    HW130491   4.094   3.476   7.302 -3.6896 -0.6496 -1.4485
 6285SOL    HW230492   4.130   3.613   7.352 -1.5568  2.1565  0.3029
 6286SOL     OW30493   3.628   2.242   5.273  0.1599  0.7817  0.6002
 6286SOL    HW130494   3.624   2.224   5.180  0.8456  1.2149  0.4866
 6286SOL    HW230495   3.628   2.338   5.276 -1.1993  0.8066  0.0741
 6287SOL     OW30496   3.211   2.039   9.373  0.4824 -0.4777  0.3251
 6287SOL    HW130497   3.226   1.956   9.327  0.4194 -1.2782  1.7215
 6287SOL    HW230498   3.208   2.033   9.469  0.1220  0.3843  0.3618
 6288SOL     OW30499   3.660   4.262   9.683 -0.6465 -0.2805  0.1411
 6288SOL    HW130500   3.588   4.215   9.725 -0.1931 -1.1298 -0.0338
 6288SOL    HW230501   3.635   4.273   9.591 -1.7092  1.2771  0.6113
 6289SOL     OW30502   1.881   1.719   6.539 -0.2724 -0.1949  0.0383
 6289SOL    HW130503   1.843   1.806   6.552  0.8276  0.6057 -2.1105
 6289SOL    HW230504   1.848   1.676   6.618 -0.7132 -0.5220 -0.3160
 6290SOL     OW30505   4.026   1.133   2.617 -0.3232 -0.0259 -0.7215
 6290SOL    HW130506   3.992   1.103   2.533  0.2063 -3.7495  0.4231
 6290SOL    HW230507   4.008   1.227   2.608  0.8328  0.1167 -1.6565
 6291SOL     OW30508   1.312   0.286   4.431 -0.1167  0.1371  0.2542
 6291SOL    HW130509   1.252   0.359   4.416 -2.8744 -2.1051  0.5627
 6291SOL    HW230510   1.271   0.253   4.511  0.7649 -0.8507  0.2995
 6292SOL     OW30511   2.865   0.694   3.239 -0.1118  0.2570  0.6849
 6292SOL    HW130512   2.917   0.634   3.292  0.6650  1.0080  0.7572
 6292SOL    HW230513   2.825   0.648   3.166  1.3296  1.2518 -0.7166
 6293SOL     OW30514   2.708   1.567  10.407 -0.2434  0.2516 -0.5679
 6293SOL    HW130515   2.727   1.585  10.315  1.0410 -1.0149 -0.5448
 6293SOL    HW230516   2.660   1.647  10.429  1.6818  0.7035  2.0039
 6294SOL     OW30517   0.913   1.023  16.889  0.0830 -0.0850 -0.3481
 6294SOL    HW130518   0.827   0.982  16.885  0.0208 -0.0458  0.7497
 6294SOL    HW230519   0.957   0.952  16.937 -0.8876 -0.6061 -0.2430
 6295SOL     OW30520   4.610   3.403   8.794  0.4848  1.1431  0.2197
 6295SOL    HW130521   4.660   3.335   8.839  0.5646 -0.4225 -2.2014
 6295SOL    HW230522   4.564   3.436   8.871  1.8015  3.0286  0.1794
 6296SOL     OW30523   2.295   2.703   4.831  0.6369  0.8137 -0.3983
 6296SOL    HW130524   2.337   2.670   4.752 -0.8613 -0.8184 -0.5276
 6296SOL    HW230525   2.369   2.685   4.889 -0.9941  1.4425  1.9119
 6297SOL     OW30526   2.400   2.015   6.683 -0.4224 -0.2526  0.5421
 6297SOL    HW130527   2.363   1.964   6.610  0.5736 -3.2663  2.1403
 6297SOL    HW230528   2.384   1.951   6.752  0.4588 -1.4397 -0.3342
 6298SOL     OW30529   2.559   1.037  12.076 -0.1626  0.2150 -0.2665
 6298SOL    HW130530   2.527   1.069  12.161  0.0079  1.1043 -0.5444
 6298SOL    HW230531   2.482   1.045  12.020  1.8607  1.3468 -2.8199
 6299SOL     OW30532   0.040   4.681  14.050  0.4844 -0.2737 -0.2657
 6299SOL    HW130533   4.701   4.627  14.071  0.1420  0.4861  0.4647
 6299SOL    HW230534   0.064   4.663  13.959  0.6687 -0.2968 -0.2139
 6300SOL     OW30535   0.171   1.949  14.778 -0.1428 -0.2487  0.1254
 6300SOL    HW130536   0.143   1.966  14.688  0.2038  0.7406  0.2150
 6300SOL    HW230537   0.248   1.893  14.767  0.3635  0.4706 -0.0007
 6301SOL     OW30538   1.674   1.215   6.686 -0.2981  0.0878  0.4874
 6301SOL    HW130539   1.608   1.222   6.754 -0.5054  1.5889  0.1186
 6301SOL    HW230540   1.705   1.125   6.703  0.7950  0.5194  0.8117
 6302SOL     OW30541   1.375   4.430   2.458 -0.1692  0.2036 -0.4504
 6302SOL    HW130542   1.343   4.487   2.389  1.2853  0.4818 -0.9028
 6302SOL    HW230543   1.400   4.496   2.522 -0.6926 -0.9182  0.9127
 6303SOL     OW30544   4.320   3.500   1.629  0.6909 -0.4807  0.3274
 6303SOL    HW130545   4.260   3.459   1.692  0.8292  1.6207  1.8174
 6303SOL    HW230546   4.292   3.591   1.629 -1.2899 -1.0927 -0.4597
 6304SOL     OW30547   0.374   3.887   8.082 -0.2004  0.1333  0.1452
 6304SOL    HW130548   0.382   3.975   8.047 -0.9192 -0.2921 -1.0922
 6304SOL    HW230549   0.279   3.884   8.082 -0.1407 -2.3116 -0.8192
 6305SOL     OW30550   2.982   2.188   4.908  0.3396 -0.2504  0.0495
 6305SOL    HW130551   2.923   2.134   4.961 -2.9060  0.7929 -2.5040
 6305SOL    HW230552   3.026   2.118   4.860 -0.9552  0.4234 -2.1053
 6306SOL     OW30553   1.185   3.521   0.100  0.0723 -0.2970  0.0480
 6306SOL    HW130554   1.159   3.530   0.008  1.0635  2.1640  0.0111
 6306SOL    HW230555   1.105   3.536   0.150  0.3220  2.3364 -0.3261
 6307SOL     OW30556   0.726   1.525   2.149 -0.5708  0.4744 -0.0242
 6307SOL    HW130557   0.758   1.450   2.200 -2.5912  0.8016  1.6821
 6307SOL    HW230558   0.762   1.592   2.207  0.6724  1.0388 -1.4638
 6308SOL     OW30559   4.168   2.066  10.632 -0.5593  0.1952 -0.1206
 6308SOL    HW130560   4.237   2.090  10.694 -0.9824 -3.6257  1.8716
 6308SOL    HW230561   4.200   1.988  10.585 -0.2244  0.6820 -0.6974
 6309SOL     OW30562   1.607   3.592   4.518 -0.2810 -0.7264 -0.6873
 6309SOL    HW130563   1.571   3.526   4.460 -2.5972 -0.7658  0.7775
 6309SOL    HW230564   1.567   3.563   4.600  2.0713  1.9021  1.4064
 6310SOL     OW30565   2.238   3.245   2.844  0.0906  0.1302  0.0403
 6310SOL    HW130566   2.277   3.314   2.790 -0.3860 -0.0394 -0.5150
 6310SOL    HW230567   2.277   3.271   2.927 -3.2144  1.7945  1.0772
 6311SOL     OW30568   0.055   3.449   1.955  0.0282  0.9097  0.0671
 6311SOL    HW130569   4.733   3.382   1.920 -0.0633  0.8254  0.3786
 6311SOL    HW230570   0.030   3.524   1.902  0.1885  0.8724 -0.0621
 6312SOL     OW30571   2.795   0.645  10.340 -0.0551  0.4237 -0.2690
 6312SOL    HW130572   2.836   0.610  10.261  1.0637 -1.0424  0.9688
 6312SOL    HW230573   2.806   0.738  10.322  0.1838  0.7598  1.6917
 6313SOL     OW30574   0.612   2.795   7.609  0.6293  0.0969 -0.9128
 6313SOL    HW130575   0.585   2.866   7.668 -1.2821 -2.2635  1.0284
 6313SOL    HW230576   0.565   2.825   7.531  0.2215  0.7209 -0.4238
 6314SOL     OW30577   0.189   1.985   9.894  0.1678  0.0922  0.0141
 6314SOL    HW130578   0.127   2.053   9.867  2.3103  1.5906 -1.1456
 6314SOL    HW230579   0.172   1.989   9.988 -0.7082  2.2412 -0.2199
 6315SOL     OW30580   4.399   4.640   6.016  0.3735  0.6550  0.2567
 6315SOL    HW130581   4.370   4.687   6.095 -1.6355 -0.9052  0.4448
 6315SOL    HW230582   4.492   4.661   6.027  0.0882  0.5924  2.8618
 6316SOL     OW30583   0.909   1.887   4.387 -0.0249 -0.0921  0.2802
 6316SOL    HW130584   0.936   1.951   4.321 -2.4437 -2.1429 -2.7232
 6316SOL    HW230585   0.873   1.944   4.455  1.5005  3.2745 -1.7337
 6317SOL     OW30586   2.948   1.002   5.855  0.3745  0.0805  0.0234
 6317SOL    HW130587   2.920   1.086   5.893  0.1411 -0.9588  2.1787
 6317SOL    HW230588   2.862   0.971   5.828  0.1141  0.4976  0.3693
 6318SOL     OW30589   1.268   2.659   7.539 -0.6438 -0.4306 -0.8277
 6318SOL    HW130590   1.205   2.612   7.593  0.6451  0.3227  1.3171
 6318SOL    HW230591   1.211   2.675   7.463 -2.0423 -0.6655  0.1733
 6319SOL     OW30592   4.181   1.710   7.968  0.3240 -0.8175  0.5379
 6319SOL    HW130593   4.166   1.631   7.917  0.9070  1.0012 -2.4717
 6319SOL    HW230594   4.147   1.778   7.908  0.2943  0.2722  1.7969
 6320SOL     OW30595   3.265   3.971  10.719 -0.3771 -0.3956 -0.5348
 6320SOL    HW130596   3.177   3.996  10.746  0.1480  1.2878 -0.3570
 6320SOL    HW230597   3.287   4.033  10.649 -0.9813  0.2912 -0.1142
 6321SOL     OW30598   2.261   1.491   3.822  0.8029 -0.5210 -0.3093
 6321SOL    HW130599   2.223   1.404   3.834  0.6314 -0.3486  0.4284
 6321SOL    HW230600   2.182   1.544   3.832  1.7228  1.0964 -1.4625
 6322SOL     OW30601   1.501   3.828   8.548 -0.2708  0.5003 -0.6440
 6322SOL    HW130602   1.557   3.891   8.503 -0.0467 -0.9237 -2.3205
 6322SOL    HW230603   1.456   3.886   8.610 -0.5176  0.5052 -0.8295
 6323SOL     OW30604   3.419   1.193   2.367  0.5441 -0.1225  0.0158
 6323SOL    HW130605   3.465   1.228   2.444 -1.5002 -2.5457  2.3409
 6323SOL    HW230606   3.399   1.102   2.389  0.1489 -0.3054 -1.1264
 6324SOL     OW30607   4.304   1.437   3.120  0.0702  0.2566  0.4352
 6324SOL    HW130608   4.214   1.466   3.133  0.4937  0.7234  2.2176
 6324SOL    HW230609   4.340   1.411   3.205 -1.7452 -0.8819  0.8614
 6325SOL     OW30610   4.084   1.717   5.644  0.3547 -0.6175 -0.4728
 6325SOL    HW130611   4.033   1.724   5.563  0.5281  0.8958 -0.4589
 6325SOL    HW230612   4.176   1.714   5.616  0.7991  0.5333  0.9055
 6326SOL     OW30613   0.027   1.212   6.089 -0.0048 -0.8952  0.6885
 6326SOL    HW130614   0.109   1.179   6.125  1.4770  0.3087 -1.5507
 6326SOL    HW230615   4.713   1.218   6.170  0.0518 -1.7433  0.7869
 6327SOL     OW30616   1.054   3.686   9.645  0.6723 -0.3995 -0.1749
 6327SOL    HW130617   1.094   3.641   9.571 -1.1799  0.3394 -1.6366
 6327SOL    HW230618   0.976   3.730   9.609  0.7568  2.1891  2.7859
 6328SOL     OW30619   3.116   1.514   7.480  0.1909 -0.3229  0.4205
 6328SOL    HW130620   3.149   1.559   7.403  0.6742 -0.9339  0.2672
 6328SOL    HW230621   3.073   1.439   7.439 -4.6549  0.8580  3.2198
 6329SOL     OW30622   2.621   3.974  17.670 -0.4130 -0.7835 -0.6358
 6329SOL    HW130623   2.551   3.977  17.735 -0.0124 -1.1137 -0.1872
 6329SOL    HW230624   2.607   4.064  17.640  0.9446 -0.7222 -1.1152
 6330SOL     OW30625   2.512   2.998   1.556 -0.6793  0.1338 -0.2181
 6330SOL    HW130626   2.429   3.012   1.600 -0.5804  0.2278 -0.0609
 6330SOL    HW230627   2.473   2.972   1.472 -0.4517 -1.1985  0.0801
 6331SOL     OW30628   2.721   3.505  15.244  0.1652 -0.0939 -0.3363
 6331SOL    HW130629   2.761   3.584  15.209 -2.1334  1.2166  0.0105
 6331SOL    HW230630   2.779   3.483  15.318  1.5684 -0.0794 -1.4257
 6332SOL     OW30631   0.025   0.510   0.889 -0.2898 -0.2356  0.0313
 6332SOL    HW130632   4.704   0.569   0.839  1.7591  0.2842 -1.7044
 6332SOL    HW230633   0.107   0.560   0.885 -0.2545 -0.1463  1.8653
 6333SOL     OW30634   3.729   3.024  17.511  0.2850  0.3721  0.6169
 6333SOL    HW130635   3.814   2.982  17.500 -0.6401 -1.3853  0.2620
 6333SOL    HW230636   3.679   2.988  17.584 -1.1750  0.8415 -0.1607
 6334SOL     OW30637   3.719   0.720   4.238  0.0112  0.6376 -0.1651
 6334SOL    HW130638   3.757   0.774   4.169  0.8131  2.5377  1.7784
 6334SOL    HW230639   3.785   0.719   4.307  1.4381 -0.6127 -1.5434
 6335SOL     OW30640   3.152   1.363   3.934  0.0774 -0.3049 -0.2771
 6335SOL    HW130641   3.123   1.273   3.946 -0.4660 -0.2082 -0.8678
 6335SOL    HW230642   3.162   1.368   3.839 -0.4847  0.2152 -0.3105
 6336SOL     OW30643   3.919   3.050   2.660  0.2290  0.5126 -0.3166
 6336SOL    HW130644   3.856   3.053   2.588  0.2010 -0.5189 -0.3279
 6336SOL    HW230645   3.881   3.097   2.734  1.7021  1.9967 -0.4797
 6337SOL     OW30646   1.321   2.620  11.593  0.3608  0.0128 -0.0565
 6337SOL    HW130647   1.261   2.643  11.522 -0.5299  0.8727  0.9789
 6337SOL    HW230648   1.284   2.532  11.602 -0.4312  0.4566  0.9602
 6338SOL     OW30649   2.575   2.200   5.683  0.2564  0.2720  0.4367
 6338SOL    HW130650   2.625   2.118   5.688 -1.0703 -0.4774  1.7141
 6338SOL    HW230651   2.522   2.177   5.759 -2.3600  1.1365 -1.1537
 6339SOL     OW30652   2.833   2.689   4.544  0.0363 -0.0515 -0.4251
 6339SOL    HW130653   2.855   2.638   4.467 -0.8546 -0.1827 -0.5940
 6339SOL    HW230654   2.921   2.679   4.581 -0.3025 -2.3284 -0.2767
 6340SOL     OW30655   1.328   3.531  10.764 -0.0946  0.0698 -0.5425
 6340SOL    HW130656   1.376   3.606  10.728  1.1249 -0.6446 -0.3951
 6340SOL    HW230657   1.238   3.558  10.746  0.5707  1.7863 -1.3787
 6341SOL     OW30658   4.488   2.403   8.010 -0.5753 -0.0499  0.5526
 6341SOL    HW130659   4.580   2.387   7.990 -0.8715 -0.6139 -0.3983
 6341SOL    HW230660   4.433   2.350   7.951  1.4579 -1.5548  0.0023
 6342SOL     OW30661   2.255   4.083   0.176  0.5759 -0.3717  0.0409
 6342SOL    HW130662   2.161   4.097   0.178  0.3165 -2.2093  0.7834
 6342SOL    HW230663   2.274   4.088   0.082  2.5231 -1.6037  0.3586
 6343SOL     OW30664   3.204   2.585   7.969  0.2598 -0.2224  0.1306
 6343SOL    HW130665   3.222   2.631   7.887 -0.7561  0.8043  0.4947
 6343SOL    HW230666   3.197   2.658   8.030 -1.2812 -0.5112  0.2910
 6344SOL     OW30667   2.378   1.465   6.571 -0.3340 -0.0089  0.3696
 6344SOL    HW130668   2.284   1.477   6.555 -0.7803 -0.5950  2.5593
 6344SOL    HW230669   2.407   1.480   6.481 -0.1674  3.3030  0.9983
 6345SOL     OW30670   4.419   4.436   7.840  0.2003 -0.2890 -0.1694
 6345SOL    HW130671   4.416   4.416   7.934 -0.4672 -0.4607 -0.2248
 6345SOL    HW230672   4.414   4.531   7.844 -1.6273 -0.4416  1.2403
 6346SOL     OW30673   0.844   4.126   5.267 -0.0661 -0.3063 -0.4547
 6346SOL    HW130674   0.819   4.215   5.243  1.9743 -0.0211 -1.5525
 6346SOL    HW230675   0.833   4.126   5.362 -1.9658  1.1092 -0.6791
 6347SOL     OW30676   1.027   3.798   3.308 -0.2201  0.3440  0.3924
 6347SOL    HW130677   0.978   3.830   3.384 -1.4158 -0.9346  0.1749
 6347SOL    HW230678   0.957   3.752   3.263 -0.0734 -1.6362  2.1568
 6348SOL     OW30679   1.256   3.276   2.720 -0.0951  0.8222  0.1124
 6348SOL    HW130680   1.172   3.269   2.765 -0.5714 -1.1825 -1.0819
 6348SOL    HW230681   1.266   3.185   2.690 -0.0777  0.8093  0.1574
 6349SOL     OW30682   0.660   2.649  16.003  0.1547  0.0840 -0.4323
 6349SOL    HW130683   0.666   2.643  15.908 -3.3331  0.3491 -0.6696
 6349SOL    HW230684   0.589   2.586  16.013  0.2614 -0.2234 -1.6839
 6350SOL     OW30685   3.648   2.767  11.353  0.7063  0.2511 -0.5505
 6350SOL    HW130686   3.649   2.771  11.449  0.0902 -0.3189 -0.5191
 6350SOL    HW230687   3.712   2.837  11.347 -0.3274  1.3927  1.7425
 6351SOL     OW30688   4.673   1.899  17.274 -0.0829  0.0624  0.0721
 6351SOL    HW130689   4.673   1.804  17.291 -0.4674 -0.0481 -0.5555
 6351SOL    HW230690   4.587   1.904  17.233  0.4501  2.8475 -0.6998
 6352SOL     OW30691   2.597   1.465   8.868 -0.3942  0.0821  0.3738
 6352SOL    HW130692   2.540   1.391   8.887  2.2244 -1.4522  2.2647
 6352SOL    HW230693   2.636   1.435   8.786 -1.5889 -2.7019  0.8200
 6353SOL     OW30694   3.270   4.253   5.959 -1.1432  0.5553  0.7133
 6353SOL    HW130695   3.265   4.328   6.019  1.7637  2.1164 -1.0137
 6353SOL    HW230696   3.261   4.308   5.881  0.2889 -0.2261  0.0067
 6354SOL     OW30697   3.474   0.543   5.976  0.6228  0.2223 -0.0998
 6354SOL    HW130698   3.547   0.530   6.036  1.7140 -2.4151 -2.0123
 6354SOL    HW230699   3.454   0.637   5.970 -0.7629  0.0644  2.2672
 6355SOL     OW30700   1.221   4.421   4.359  0.1135  0.3746 -0.0621
 6355SOL    HW130701   1.128   4.422   4.338  0.1510  0.7857 -0.2025
 6355SOL    HW230702   1.221   4.387   4.449  1.2575 -0.8290 -0.5233
 6356SOL     OW30703   0.315   4.236  10.350  0.4629  0.1587  0.0414
 6356SOL    HW130704   0.400   4.252  10.389  0.5169 -2.0767  0.8618
 6356SOL    HW230705   0.262   4.291  10.407  0.2163  1.0046 -1.0059
 6357SOL     OW30706   1.581   2.174   2.306 -0.1109 -0.0629 -0.3092
 6357SOL    HW130707   1.642   2.137   2.241  0.1901 -2.1118  1.1278
 6357SOL    HW230708   1.638   2.188   2.382  1.1064  0.9639 -1.4110
 6358SOL     OW30709   4.079   1.634   4.975 -0.2648  0.1035 -0.0565
 6358SOL    HW130710   4.074   1.557   4.919 -0.9437 -0.2653  0.5048
 6358SOL    HW230711   3.992   1.672   4.974 -0.3731 -0.1566 -0.3462
 6359SOL     OW30712   3.597   3.375   2.278 -0.4383  0.0045 -0.0154
 6359SOL    HW130713   3.612   3.280   2.270  0.4388  0.1121  0.3446
 6359SOL    HW230714   3.532   3.382   2.348  0.3104  0.6433  0.6263
 6360SOL     OW30715   0.442   2.366   7.469 -0.2796 -0.2452 -0.4050
 6360SOL    HW130716   0.392   2.431   7.419 -2.8861 -1.9172  0.0683
 6360SOL    HW230717   0.466   2.417   7.546 -0.7393 -1.6920  0.6905
 6361SOL     OW30718   1.517   1.848   8.564 -0.2672  0.2064  0.4045
 6361SOL    HW130719   1.522   1.761   8.605 -0.6219  0.0730  0.1658
 6361SOL    HW230720   1.559   1.906   8.628  0.2826  1.2091 -0.8829
 6362SOL     OW30721   0.091   3.503  16.128 -0.1664  0.0640  0.1015
 6362SOL    HW130722   0.112   3.576  16.186  1.1872 -1.2421  1.2714
 6362SOL    HW230723   0.019   3.531  16.071 -0.1515 -0.9389 -0.4113
 6363SOL     OW30724   1.100   1.036   8.047  1.0315  0.1407 -0.3866
 6363SOL    HW130725   1.172   1.096   8.069  1.7214 -0.5422 -0.7725
 6363SOL    HW230726   1.032   1.083   8.094 -0.8327 -0.2530 -2.7516
 6364SOL     OW30727   0.641   1.521   6.641  0.1446 -0.4460  0.0644
 6364SOL    HW130728   0.599   1.606   6.657 -0.4519 -0.4513 -1.4811
 6364SOL    HW230729   0.679   1.528   6.554  0.2526 -0.5554  0.1032
 6365SOL     OW30730   3.289   4.248   5.029  0.0131 -0.7219  0.4532
 6365SOL    HW130731   3.384   4.240   5.025 -0.2200 -2.7867 -0.6977
 6365SOL    HW230732   3.274   4.333   4.987 -1.9104 -0.7231  1.1316
 6366SOL     OW30733   0.263   4.452   5.373 -0.1757 -1.0003 -0.2120
 6366SOL    HW130734   0.207   4.525   5.344  1.8080  0.7686  0.4323
 6366SOL    HW230735   0.336   4.503   5.406 -0.8059  0.2725 -0.7819
 6367SOL     OW30736   3.455   0.848   8.592 -0.4725  1.1120  0.1829
 6367SOL    HW130737   3.441   0.756   8.572 -0.5441  1.5385 -1.7677
 6367SOL    HW230738   3.402   0.889   8.524 -0.4384 -1.1691 -1.1956
 6368SOL     OW30739   0.063   3.665   4.582 -0.1888  0.0392 -0.4389
 6368SOL    HW130740   4.720   3.652   4.530 -0.6102  1.5281 -0.1681
 6368SOL    HW230741   0.073   3.755   4.550 -1.9456 -0.1441 -1.4967
 6369SOL     OW30742   3.379   2.798   4.143  0.4935  0.2421  0.4400
 6369SOL    HW130743   3.434   2.870   4.176  0.9081  0.4098 -0.6141
 6369SOL    HW230744   3.418   2.771   4.060 -1.0339 -0.3696 -0.0626
 6370SOL     OW30745   2.984   0.912   9.039 -0.2170  0.1870 -0.5812
 6370SOL    HW130746   2.954   0.963   9.114  1.3038 -0.7382  0.6596
 6370SOL    HW230747   2.904   0.908   8.987 -2.4416 -0.6113  2.8664
 6371SOL     OW30748   4.447   1.772   6.422  0.4641  0.2787 -0.4587
 6371SOL    HW130749   4.432   1.707   6.354  0.8604 -1.0605  0.7415
 6371SOL    HW230750   4.422   1.714   6.493  0.7289  0.1326 -0.4869
 6372SOL     OW30751   2.590   2.578   6.873 -0.2431  0.0511  0.1246
 6372SOL    HW130752   2.553   2.597   6.959 -2.2604  1.3385 -1.0396
 6372SOL    HW230753   2.641   2.500   6.893 -1.8698 -1.4322 -1.4060
 6373SOL     OW30754   2.051   3.636   2.988  0.3855 -0.1917 -0.3658
 6373SOL    HW130755   2.114   3.649   2.918 -1.0378 -1.4059 -1.8782
 6373SOL    HW230756   2.113   3.591   3.045 -0.9090 -0.7104  0.6480
 6374SOL     OW30757   1.275   3.131   0.011  0.1230  0.4295 -0.1929
 6374SOL    HW130758   1.354   3.083  17.733  1.0395  0.4736  2.9453
 6374SOL    HW230759   1.313   3.188   0.077 -0.1316  0.2956  0.0730
 6375SOL     OW30760   2.700   1.198   8.866 -0.5658  0.0949  0.4396
 6375SOL    HW130761   2.621   1.209   8.917 -0.2364 -0.5060  1.0746
 6375SOL    HW230762   2.768   1.197   8.933  0.1320  0.7538 -0.2562
 6376SOL     OW30763   4.089   3.405   6.488  0.1653  0.0156  0.1209
 6376SOL    HW130764   4.137   3.469   6.541 -1.3588  0.1743  1.3390
 6376SOL    HW230765   4.084   3.452   6.405 -1.1650  0.5789  0.5032
 6377SOL     OW30766   1.683   4.229   1.351  0.0063 -0.5778  0.2283
 6377SOL    HW130767   1.610   4.272   1.308  2.1740 -0.8615 -3.7382
 6377SOL    HW230768   1.741   4.305   1.341  0.7177 -0.9450  1.6282
 6378SOL     OW30769   3.798   1.897   5.727  0.3023  0.2518 -0.3648
 6378SOL    HW130770   3.874   1.896   5.668  0.5607  1.0229 -0.0355
 6378SOL    HW230771   3.755   1.972   5.686 -0.1596  1.4054  2.2867
 6379SOL     OW30772   0.451   0.055   6.066  0.1432  0.3403 -0.1980
 6379SOL    HW130773   0.369   0.012   6.094  0.0945  1.0623  0.7850
 6379SOL    HW230774   0.513   0.042   6.138  0.9614  1.1547 -0.7729
 6380SOL     OW30775   3.729   0.882   8.605  0.1191  0.5066  0.8590
 6380SOL    HW130776   3.635   0.869   8.590  0.4760 -1.6511  0.5046
 6380SOL    HW230777   3.727   0.880   8.701 -0.0424  0.2381  0.8500
 6381SOL     OW30778   4.573   1.746   4.441 -0.6795 -0.0739 -0.2541
 6381SOL    HW130779   4.484   1.778   4.428 -0.7296 -0.5990 -1.1984
 6381SOL    HW230780   4.569   1.721   4.533  0.7098  3.5523  0.7889
 6382SOL     OW30781   0.148   3.146  14.863  0.3179 -0.1711 -0.8909
 6382SOL    HW130782   0.150   3.079  14.932  1.2509 -0.2971 -1.0392
 6382SOL    HW230783   0.140   3.223  14.919 -0.5872 -1.6886  1.0912
 6383SOL     OW30784   2.029   3.466  14.220  0.7683 -0.3564  0.0834
 6383SOL    HW130785   1.990   3.530  14.161  2.1820  0.4056 -0.0158
 6383SOL    HW230786   2.106   3.445  14.168  0.5317 -0.0814 -0.3774
 6384SOL     OW30787   3.835   3.488   2.247  0.3612 -0.1139  0.4293
 6384SOL    HW130788   3.744   3.462   2.264  0.8010 -2.0547 -0.2378
 6384SOL    HW230789   3.850   3.549   2.320  0.1037 -1.3051  1.4635
 6385SOL     OW30790   0.016   3.823   3.346 -0.3082 -0.1693 -0.1202
 6385SOL    HW130791   0.014   3.906   3.392  0.6000 -0.6581  0.7924
 6385SOL    HW230792   0.000   3.769   3.424  0.4766 -0.4452 -0.1559
 6386SOL     OW30793   1.920   2.282  13.110 -0.3013 -0.2397  0.2452
 6386SOL    HW130794   1.959   2.194  13.110  2.1511  0.8496  0.6064
 6386SOL    HW230795   1.831   2.247  13.112 -1.0968  1.8057  0.9538
 6387SOL     OW30796   2.901   3.518  13.455 -0.2551 -0.7678 -0.4197
 6387SOL    HW130797   2.906   3.599  13.404 -1.4005 -0.9900 -0.8890
 6387SOL    HW230798   2.986   3.520  13.499  0.3306 -2.3845 -1.4879
 6388SOL     OW30799   0.880   0.580   8.474 -0.7266  0.5876  0.1729
 6388SOL    HW130800   0.927   0.662   8.458  1.6926 -1.1707 -1.6904
 6388SOL    HW230801   0.906   0.562   8.564 -0.9524 -0.0464  0.1099
 6389SOL     OW30802   0.739   3.146   6.621  0.4455 -0.2302  0.1214
 6389SOL    HW130803   0.798   3.091   6.570  0.3590  1.0436 -1.3529
 6389SOL    HW230804   0.741   3.232   6.579  0.3010 -1.9665 -3.4397
 6390SOL     OW30805   2.994   4.560   5.567 -0.8045 -0.7740  0.3174
 6390SOL    HW130806   3.000   4.621   5.641  0.3143 -0.2093 -0.2452
 6390SOL    HW230807   2.908   4.589   5.537 -1.3955 -0.0004  2.7876
 6391SOL     OW30808   4.409   1.139   3.112  0.3250  0.1397  0.5033
 6391SOL    HW130809   4.412   1.126   3.017 -1.4496 -0.4718  0.5368
 6391SOL    HW230810   4.317   1.115   3.113 -0.0255  1.3411 -1.4228
 6392SOL     OW30811   3.227   2.055   3.202 -0.1904  0.0328  0.2530
 6392SOL    HW130812   3.145   2.069   3.155 -0.7091 -0.1370  1.1190
 6392SOL    HW230813   3.208   2.064   3.295  1.5555  3.2732  0.2883
 6393SOL     OW30814   4.085   3.656  17.597  0.2394 -0.5347  0.0657
 6393SOL    HW130815   4.005   3.605  17.603  0.3550 -0.9441 -1.8390
 6393SOL    HW230816   4.072   3.707  17.517 -1.7673  0.3911  1.0053
 6394SOL     OW30817   1.136   3.285   1.988  0.4367  0.0298 -0.0649
 6394SOL    HW130818   1.080   3.253   2.059 -0.3656  0.1524 -0.6339
 6394SOL    HW230819   1.220   3.299   2.031 -0.9262  0.7624  2.3396
 6395SOL     OW30820   1.764   1.951   8.760 -0.3387  0.3749  0.1004
 6395SOL    HW130821   1.851   1.935   8.796 -0.5041  2.4557  1.4217
 6395SOL    HW230822   1.776   2.045   8.747 -1.7903  0.2032 -2.4905
 6396SOL     OW30823   0.857   1.013   8.345  0.1460 -0.2968 -0.0135
 6396SOL    HW130824   0.861   0.964   8.263  0.9634 -2.4765  1.3406
 6396SOL    HW230825   0.950   1.003   8.364 -0.1243 -2.1199  0.2978
 6397SOL     OW30826   0.604   3.347  15.377  0.6366  0.0933 -0.2013
 6397SOL    HW130827   0.545   3.385  15.311  0.3824 -0.1494 -0.1136
 6397SOL    HW230828   0.689   3.392  15.376 -0.0001  1.3333  3.5198
 6398SOL     OW30829   1.400   3.359   0.190 -0.0795 -0.2595 -0.7980
 6398SOL    HW130830   1.350   3.428   0.146  1.0410 -0.0769 -1.7899
 6398SOL    HW230831   1.324   3.314   0.227  0.4129 -1.1457 -0.8474
 6399SOL     OW30832   0.100   0.794   0.538  0.4364 -0.2200 -0.1652
 6399SOL    HW130833   0.185   0.749   0.533  1.3852  1.4445  1.1997
 6399SOL    HW230834   0.126   0.885   0.553  1.3550 -0.3634 -0.8445
 6400SOL     OW30835   1.561   0.094   8.477 -0.5505 -0.2491 -0.9274
 6400SOL    HW130836   1.466   0.108   8.474 -0.3868  0.9879 -0.2672
 6400SOL    HW230837   1.584   0.062   8.564  0.2437  1.6115 -0.4517
 6401SOL     OW30838   0.753   2.917  15.116  0.3202 -0.0615 -0.1528
 6401SOL    HW130839   0.732   2.830  15.082 -0.1085 -0.4174  1.0143
 6401SOL    HW230840   0.702   2.915  15.197 -0.3231 -0.7586 -0.5792
 6402SOL     OW30841   4.675   1.081   0.297  0.4026  0.0192 -0.4079
 6402SOL    HW130842   0.008   1.053   0.356 -0.0987 -0.2339  0.0645
 6402SOL    HW230843   4.720   1.123   0.223  0.7148 -2.6897 -1.7539
 6403SOL     OW30844   3.979   4.576   8.748  0.6256 -0.0223 -0.0267
 6403SOL    HW130845   3.946   4.487   8.756 -2.2902  1.0856  0.4267
 6403SOL    HW230846   3.995   4.572   8.654 -1.9382  1.3891 -0.5195
 6404SOL     OW30847   4.126   1.198   7.741 -0.7805 -0.5586 -0.7655
 6404SOL    HW130848   4.148   1.107   7.760  0.4684 -0.1826 -0.3606
 6404SOL    HW230849   4.110   1.188   7.647  0.2881 -0.8131 -0.9288
 6405SOL     OW30850   2.750   1.274   7.859  0.2636 -0.3695 -0.1069
 6405SOL    HW130851   2.692   1.242   7.791 -2.0380 -1.1681  2.2204
 6405SOL    HW230852   2.833   1.260   7.813 -0.6783  0.7636 -2.1357
 6406SOL     OW30853   0.590   3.240   3.719  0.0992 -0.6252  0.0509
 6406SOL    HW130854   0.651   3.263   3.789  0.2829 -1.3588  0.1381
 6406SOL    HW230855   0.656   3.228   3.651 -0.9649 -2.2164 -0.7132
 6407SOL     OW30856   0.076   1.104   4.257 -0.4401  0.2339  0.0129
 6407SOL    HW130857   0.066   1.192   4.294  2.0250  0.9288 -1.0280
 6407SOL    HW230858   4.733   1.072   4.301 -1.7333 -0.2834 -2.7212
 6408SOL     OW30859   0.081   3.803   3.086 -0.4966  0.2959  0.2190
 6408SOL    HW130860   0.170   3.770   3.078 -0.8681 -0.2218 -1.7908
 6408SOL    HW230861   0.047   3.787   3.174 -0.7219  3.5042  0.7150
 6409SOL     OW30862   1.188   1.105   7.342 -0.5778 -0.6595  0.3558
 6409SOL    HW130863   1.135   1.029   7.317  1.5509 -1.9246 -0.2474
 6409SOL    HW230864   1.261   1.065   7.388 -1.3471 -0.4170  1.8052
 6410SOL     OW30865   3.259   2.508   7.212 -0.0956 -0.6363 -0.2534
 6410SOL    HW130866   3.249   2.507   7.117 -1.9586  0.2671 -0.0556
 6410SOL    HW230867   3.175   2.464   7.227  0.1705 -0.8291  0.6877
 6411SOL     OW30868   1.356   0.649   5.826 -0.1567  0.2050  0.8329
 6411SOL    HW130869   1.419   0.720   5.816 -0.7665  0.3479 -1.9355
 6411SOL    HW230870   1.272   0.690   5.803 -0.5384 -1.2194 -0.3150
 6412SOL     OW30871   0.084   3.250   4.341 -0.5792 -0.1131 -0.7691
 6412SOL    HW130872   0.125   3.336   4.330 -1.6183  0.2299 -1.9834
 6412SOL    HW230873   4.728   3.274   4.346 -0.5178 -0.2420  1.1392
 6413SOL     OW30874   1.289   0.084   8.478 -0.0339  0.0134  0.2110
 6413SOL    HW130875   1.231   0.136   8.424  0.6241  0.4279 -0.1028
 6413SOL    HW230876   1.220   0.024   8.506  0.1642 -0.0349  0.6145
 6414SOL     OW30877   2.295   3.078   4.353  0.3900  0.7213  0.1067
 6414SOL    HW130878   2.297   3.171   4.330  0.2288  0.7517  0.2184
 6414SOL    HW230879   2.358   3.042   4.290 -0.9748 -0.6652 -0.4445
 6415SOL     OW30880   2.846   3.849   8.622  0.1127  0.3992  0.2181
 6415SOL    HW130881   2.916   3.810   8.571 -0.3301 -2.0826  1.5077
 6415SOL    HW230882   2.847   3.785   8.694 -0.3539 -1.1991 -1.2079
 6416SOL     OW30883   3.013   4.364  16.379  0.2471 -0.4435 -0.0269
 6416SOL    HW130884   3.022   4.404  16.292 -0.4678 -1.5915 -0.6339
 6416SOL    HW230885   3.105   4.350  16.402 -0.1785 -3.0821  0.0108
 6417SOL     OW30886   0.485   2.155   6.911  0.7631 -0.1076 -0.1251
 6417SOL    HW130887   0.477   2.238   6.864  1.0922  0.8064  1.4203
 6417SOL    HW230888   0.483   2.187   7.002  1.4552 -0.9009  0.1679
 6418SOL     OW30889   1.040   1.017   4.061  0.6465 -0.1404 -0.2708
 6418SOL    HW130890   1.015   1.079   4.129  0.0189  0.3725 -0.9707
 6418SOL    HW230891   1.135   1.025   4.065  0.9216 -2.5369 -1.7086
 6419SOL     OW30892   0.851   4.625   0.664 -0.8275 -0.0408  0.4552
 6419SOL    HW130893   0.915   4.668   0.720  0.6820  0.4051 -1.6045
 6419SOL    HW230894   0.894   4.636   0.579  3.5211  0.8392  2.7923
 6420SOL     OW30895   3.887   2.563   1.402 -0.3499  0.4483  0.3387
 6420SOL    HW130896   3.805   2.597   1.365 -0.4381 -0.9623 -0.7630
 6420SOL    HW230897   3.871   2.492   1.464 -2.1248 -0.2505 -0.9174
 6421SOL     OW30898   1.510   1.831   9.180  0.3276  0.1931  0.5942
 6421SOL    HW130899   1.539   1.839   9.089  0.7867 -0.1354  0.7121
 6421SOL    HW230900   1.556   1.902   9.224 -0.5459  1.4900 -0.6128
 6422SOL     OW30901   1.483   3.630   7.350 -0.1153  0.3568  0.4604
 6422SOL    HW130902   1.398   3.663   7.322 -0.3662 -0.6965 -0.0059
 6422SOL    HW230903   1.458   3.543   7.380  0.3515 -0.7656 -2.4108
 6423SOL     OW30904   4.714   4.660   7.435 -0.0310 -0.2774 -0.7514
 6423SOL    HW130905   4.696   4.566   7.425  0.4345 -0.3673 -0.7422
 6423SOL    HW230906   4.723   4.691   7.346 -3.0011 -0.9693 -1.3059
 6424SOL     OW30907   3.991   1.975   1.979 -0.6688  0.2975  0.5653
 6424SOL    HW130908   3.965   2.067   1.979  4.2594  1.6929 -1.0777
 6424SOL    HW230909   3.905   1.933   1.984  0.2239 -1.5465  0.3491
 6425SOL     OW30910   2.099   0.257  14.989  0.4161  0.1974 -0.2835
 6425SOL    HW130911   2.120   0.337  14.940 -1.4605  0.6284 -0.3855
 6425SOL    HW230912   2.039   0.294  15.054 -1.9672 -1.9771 -1.2424
 6426SOL     OW30913   0.301   1.221  12.810  0.1561 -0.3951  0.0615
 6426SOL    HW130914   0.211   1.226  12.779  0.2346  0.0088 -0.0995
 6426SOL    HW230915   0.350   1.197  12.732  2.0217 -1.2324  1.5018
 6427SOL     OW30916   2.391   3.196   5.089 -0.1458 -0.0757  0.1848
 6427SOL    HW130917   2.390   3.291   5.083 -1.9530 -0.1917 -1.2881
 6427SOL    HW230918   2.435   3.183   5.173  1.5200  1.0300 -0.5113
 6428SOL     OW30919   3.563   3.162   0.619 -0.8459  0.1894 -0.2566
 6428SOL    HW130920   3.559   3.179   0.525 -0.0447  2.7166  0.1539
 6428SOL    HW230921   3.649   3.201   0.638 -0.5807 -0.6853  0.3533
 6429SOL     OW30922   4.569   3.414  15.693  0.5809 -0.2785 -0.0158
 6429SOL    HW130923   4.533   3.476  15.630  1.2964  0.7165  0.5622
 6429SOL    HW230924   4.641   3.381  15.640  0.4797 -1.5588  0.6276
 6430SOL     OW30925   3.392   2.673  14.926 -0.1557  0.6009 -0.8412
 6430SOL    HW130926   3.362   2.720  14.849  0.2336  0.4554 -1.0848
 6430SOL    HW230927   3.328   2.603  14.926  2.4384 -1.7907  1.1799
 6431SOL     OW30928   4.207   4.127   4.606  0.1330 -0.2088 -0.5325
 6431SOL    HW130929   4.145   4.193   4.573  2.8696  2.4064 -0.4133
 6431SOL    HW230930   4.178   4.119   4.697 -0.3961 -2.5723 -0.9017
 6432SOL     OW30931   4.589   1.445   3.644 -0.4142 -0.0796 -0.5985
 6432SOL    HW130932   4.636   1.396   3.577  1.1218  0.8855 -0.2488
 6432SOL    HW230933   4.654   1.515   3.650  0.0180 -0.5775  0.6157
 6433SOL     OW30934   1.442   1.582   8.082 -0.0683  0.3698  0.2032
 6433SOL    HW130935   1.389   1.646   8.033 -1.1693 -2.1669 -1.9622
 6433SOL    HW230936   1.395   1.595   8.164  1.2560 -0.6311  1.1149
 6434SOL     OW30937   0.404   3.251   4.268  0.4001  0.3818  0.5446
 6434SOL    HW130938   0.318   3.211   4.258  0.1027  0.5382  2.6044
 6434SOL    HW230939   0.460   3.205   4.205 -0.5397  1.3607 -0.9999
 6435SOL     OW30940   3.026   0.160   4.432  0.2539 -0.3329 -0.9434
 6435SOL    HW130941   2.972   0.135   4.357 -0.3471  1.3451 -1.0500
 6435SOL    HW230942   2.962   0.207   4.485  0.7044 -0.8183  0.0291
 6436SOL     OW30943   0.780   0.372  11.534 -1.1513 -0.6298  0.0356
 6436SOL    HW130944   0.861   0.416  11.507 -2.0688  1.5750  0.9679
 6436SOL    HW230945   0.799   0.288  11.491  0.1309 -0.9273  1.1942
 6437SOL     OW30946   3.382   3.438  14.751 -0.4011 -0.4169  0.2979
 6437SOL    HW130947   3.342   3.353  14.731 -0.0056 -0.5871  0.2109
 6437SOL    HW230948   3.353   3.449  14.841  1.0377  1.5481  0.5138
 6438SOL     OW30949   2.714   0.718  14.118 -0.8215  0.1577  0.0406
 6438SOL    HW130950   2.801   0.758  14.124 -0.1620 -1.2642 -0.1117
 6438SOL    HW230951   2.680   0.753  14.035 -0.7930  0.4183  0.1385
 6439SOL     OW30952   1.230   0.446  12.366  0.6302 -0.3353  0.4226
 6439SOL    HW130953   1.263   0.468  12.453 -1.8114  0.3135  1.2024
 6439SOL    HW230954   1.284   0.369  12.349  1.2766 -0.0787  1.3122
 6440SOL     OW30955   2.303   1.502   7.638  0.4342  0.0909 -0.4517
 6440SOL    HW130956   2.356   1.576   7.608  0.8371  0.3572  0.8989
 6440SOL    HW230957   2.218   1.543   7.622 -0.6314 -1.1590  1.9205
 6441SOL     OW30958   2.494   3.001  10.592  0.1976 -0.2228  0.2314
 6441SOL    HW130959   2.508   3.092  10.618  0.3866 -0.5870  1.4081
 6441SOL    HW230960   2.544   2.958  10.661  1.1050 -0.2538 -0.4391
 6442SOL     OW30961   3.242   3.121   6.344 -0.1981  0.2200  0.3221
 6442SOL    HW130962   3.172   3.062   6.375 -1.0655  1.0323 -0.0846
 6442SOL    HW230963   3.285   3.145   6.426 -2.8653  2.1422  1.1543
 6443SOL     OW30964   4.571   1.055   2.486  0.6098 -0.2262  0.1256
 6443SOL    HW130965   4.490   1.096   2.455  2.8820  2.9293 -1.5851
 6443SOL    HW230966   4.615   1.030   2.404 -1.2249  1.4456 -1.3699
 6444SOL     OW30967   2.932   3.776  13.326 -0.1178 -0.1121  0.0215
 6444SOL    HW130968   3.008   3.775  13.267  0.3224 -0.7149  0.6082
 6444SOL    HW230969   2.876   3.833  13.273 -0.9418  1.5759  2.6953
 6445SOL     OW30970   0.139   2.837   9.494  0.0723 -0.6511  0.2019
 6445SOL    HW130971   0.101   2.885   9.568  1.5478  0.5799  0.1725
 6445SOL    HW230972   0.063   2.824   9.438  0.3250  1.8894 -0.7325
 6446SOL     OW30973   3.997   3.575  12.732 -0.1184  0.2670 -0.3600
 6446SOL    HW130974   4.032   3.639  12.670  0.7296  0.1746  0.0309
 6446SOL    HW230975   4.074   3.519  12.732  0.2627  0.7964  1.3406
 6447SOL     OW30976   1.196   2.017   9.421 -1.5298 -0.2256 -0.0338
 6447SOL    HW130977   1.222   2.044   9.333  2.5442 -0.9588  0.9422
 6447SOL    HW230978   1.119   1.968   9.393 -0.0598 -1.4164 -2.0124
 6448SOL     OW30979   3.510   2.523   5.851  0.0230  0.2324 -0.3958
 6448SOL    HW130980   3.548   2.519   5.763  0.8331 -2.9759  0.0965
 6448SOL    HW230981   3.556   2.596   5.892 -2.4080  1.1848  0.6000
 6449SOL     OW30982   0.343   1.086   0.728  0.1438  0.4666  0.1359
 6449SOL    HW130983   0.418   1.027   0.736 -0.9705 -1.0639 -0.7038
 6449SOL    HW230984   0.328   1.120   0.816 -2.4798 -1.8446  0.5876
 6450SOL     OW30985   2.245   2.854   6.893  0.0451 -0.1028 -0.6937
 6450SOL    HW130986   2.314   2.851   6.960  1.3149  0.6656 -1.9646
 6450SOL    HW230987   2.290   2.829   6.813  1.9707  0.1561  0.2937
 6451SOL     OW30988   2.599   0.183   7.878 -0.2649  0.6151  0.4907
 6451SOL    HW130989   2.574   0.092   7.865 -0.4405  0.9382 -1.5518
 6451SOL    HW230990   2.693   0.164   7.885 -0.6361 -0.7356  1.5729
 6452SOL     OW30991   2.692   2.477   8.402  0.2691  0.0051  0.1626
 6452SOL    HW130992   2.720   2.394   8.364  1.5677  1.1040 -1.3070
 6452SOL    HW230993   2.648   2.447   8.482  3.3001 -1.6044  1.2303
 6453SOL     OW30994   0.819   2.784   7.169 -0.3549 -0.1562  0.1735
 6453SOL    HW130995   0.804   2.761   7.261 -0.4049 -0.5147  0.0752
 6453SOL    HW230996   0.894   2.842   7.182  0.5073 -0.9716 -1.1496
 6454SOL     OW30997   2.101   0.820   1.347 -0.1271 -0.4003 -0.4815
 6454SOL    HW130998   2.195   0.817   1.363 -0.6057 -0.2422  2.2757
 6454SOL    HW230999   2.095   0.916   1.345  1.3905 -0.2462  2.0279
 6455SOL     OW31000   4.701   1.897   3.550 -0.7438  0.3202 -0.0061
 6455SOL    HW131001   4.664   1.820   3.594 -1.8036  0.4001 -0.7617
 6455SOL    HW231002   0.056   1.893   3.577 -0.8841 -1.2944  0.2498
 6456SOL     OW31003   1.154   3.428   2.967 -0.1816 -0.0756 -0.5882
 6456SOL    HW131004   1.241   3.404   2.998  0.5493  2.2446 -0.8525
 6456SOL    HW231005   1.176   3.515   2.933 -1.1906  0.9956  1.5045
 6457SOL     OW31006   2.033   2.785   7.039 -0.4688 -0.5817  1.0976
 6457SOL    HW131007   1.988   2.858   7.081  0.5088  0.3976  0.4542
 6457SOL    HW231008   2.115   2.820   7.003 -3.3656  1.2938 -3.5699
 6458SOL     OW31009   2.942   4.018   4.185 -0.4582 -0.3029  0.2668
 6458SOL    HW131010   2.970   4.107   4.208  0.3389 -1.0629  2.2791
 6458SOL    HW231011   2.909   3.981   4.267 -1.4874  0.3455  0.1411
 6459SOL     OW31012   4.627   1.213   2.790  0.0390  0.1497  0.1005
 6459SOL    HW131013   4.631   1.229   2.696  0.0874  1.6623  0.3583
 6459SOL    HW231014   4.549   1.264   2.811 -0.3176 -1.2097  2.1301
 6460SOL     OW31015   1.205   0.075   2.743 -0.0165  0.0166 -0.0644
 6460SOL    HW131016   1.133   0.121   2.787  1.5478 -0.7033  3.2753
 6460SOL    HW231017   1.219   0.006   2.808 -1.6359 -0.6661 -0.4369
 6461SOL     OW31018   4.645   0.849   2.684  0.1575 -0.5927 -0.0773
 6461SOL    HW131019   4.564   0.843   2.735  1.3204  1.2557  1.9722
 6461SOL    HW231020   4.614   0.920   2.628  0.9937  0.4687  0.8095
 6462SOL     OW31021   3.297   3.399  12.816  0.4635  0.3460  0.3328
 6462SOL    HW131022   3.360   3.468  12.835  0.2785  0.8456 -0.8800
 6462SOL    HW231023   3.293   3.352  12.899 -0.3432 -0.0802  0.0628
 6463SOL     OW31024   3.131   0.476  13.521  0.0223 -0.3506  0.7501
 6463SOL    HW131025   3.164   0.486  13.432  0.8018 -3.1312  0.7132
 6463SOL    HW231026   3.060   0.540  13.526  0.6241  0.5819 -2.6504
 6464SOL     OW31027   1.690   2.826   3.705  0.0835  0.7040  0.1449
 6464SOL    HW131028   1.730   2.912   3.692  1.3872  0.1455  0.4692
 6464SOL    HW231029   1.766   2.773   3.680  1.0775  2.4097 -0.4406
 6465SOL     OW31030   3.379   0.872   4.866  0.5194 -0.2088 -0.7112
 6465SOL    HW131031   3.446   0.831   4.812  2.5010  2.4116 -0.2528
 6465SOL    HW231032   3.329   0.918   4.799  0.1857 -1.3014 -1.2118
 6466SOL     OW31033   1.086   0.694   3.168 -0.1494  0.2757  0.4538
 6466SOL    HW131034   1.143   0.741   3.229 -0.7224 -0.6850  1.7361
 6466SOL    HW231035   1.000   0.736   3.170 -0.1289  0.3512 -0.4236
 6467SOL     OW31036   2.566   4.294   4.464  0.4249  0.1363  0.1899
 6467SOL    HW131037   2.472   4.284   4.474  0.3298 -1.5686 -2.3840
 6467SOL    HW231038   2.576   4.244   4.383  1.4740 -0.9082  0.9646
 6468SOL     OW31039   0.485   4.009   3.919 -0.6396 -0.6114  0.1272
 6468SOL    HW131040   0.557   3.946   3.913 -0.8673 -0.7136 -1.6997
 6468SOL    HW231041   0.520   4.062   3.991  0.9666 -2.3826  0.6266
 6469SOL     OW31042   4.695   1.988   7.716  0.4870 -0.4892  0.6442
 6469SOL    HW131043   0.036   2.044   7.723  1.6046 -2.3644  3.4459
 6469SOL    HW231044   4.636   2.058   7.689 -2.0813 -2.5426  0.9342
 6470SOL     OW31045   2.776   3.820   1.298  0.2708 -0.1352  0.8744
 6470SOL    HW131046   2.827   3.754   1.251  3.5550  1.4513  2.1849
 6470SOL    HW231047   2.686   3.809   1.266  0.8573  2.3509 -1.5702
 6471SOL     OW31048   3.389   2.124   1.392 -0.0859 -0.0263  0.2757
 6471SOL    HW131049   3.302   2.138   1.354 -0.3605 -1.5687  0.3190
 6471SOL    HW231050   3.398   2.031   1.369  0.5817  0.1863 -0.3080
 6472SOL     OW31051   0.262   1.411   9.434 -0.0719  0.6693  0.5104
 6472SOL    HW131052   0.340   1.410   9.379  0.2079 -2.3601  0.9840
 6472SOL    HW231053   0.299   1.414   9.522 -0.6354  0.3133  0.7619
 6473SOL     OW31054   2.466   3.190   7.628 -0.3756  0.1420 -0.5921
 6473SOL    HW131055   2.461   3.285   7.633 -1.3464 -0.0631  2.8190
 6473SOL    HW231056   2.507   3.181   7.543 -0.0928 -0.5744 -0.3799
 6474SOL     OW31057   3.494   3.134   6.009  0.7774 -0.3438 -0.0655
 6474SOL    HW131058   3.435   3.196   5.965 -0.0819 -0.9337  0.2468
 6474SOL    HW231059   3.434   3.059   6.015 -0.5289  0.7001 -0.0022
 6475SOL     OW31060   2.214   2.539   7.347  0.2387  0.1639  0.2256
 6475SOL    HW131061   2.200   2.504   7.435  1.7738 -0.4521  0.2378
 6475SOL    HW231062   2.239   2.632   7.349  0.6262  0.0703 -0.2839
 6476SOL     OW31063   0.664   1.008   5.719  0.4287  0.0953 -0.1187
 6476SOL    HW131064   0.642   1.086   5.668  2.1579  0.4753 -0.2898
 6476SOL    HW231065   0.716   1.059   5.782  0.8987 -1.4946  0.7743
 6477SOL     OW31066   1.623   0.243  16.520 -0.3873  0.7816  0.0282
 6477SOL    HW131067   1.618   0.245  16.615  0.4600 -0.9629  0.1106
 6477SOL    HW231068   1.590   0.154  16.506 -1.2582  0.7461  2.2792
 6478SOL     OW31069   2.370   2.057   3.816 -0.2959  0.4916  0.5205
 6478SOL    HW131070   2.327   2.139   3.794  2.0866  1.6292  0.0619
 6478SOL    HW231071   2.399   2.080   3.905 -1.2279 -1.8232  1.4234
 6479SOL     OW31072   0.615   0.428   8.154 -0.7261 -0.2107  0.2063
 6479SOL    HW131073   0.541   0.488   8.142 -0.9458 -0.2392  1.4062
 6479SOL    HW231074   0.682   0.472   8.102 -0.4042  0.2601  1.0170
 6480SOL     OW31075   1.515   0.124   4.348  0.2099 -0.2225 -0.4356
 6480SOL    HW131076   1.520   0.159   4.259 -0.0737  1.1102  0.0667
 6480SOL    HW231077   1.444   0.176   4.386  0.8043 -1.1541  1.9787
 6481SOL     OW31078   1.229   4.550   2.906  0.0812 -0.1120  1.0681
 6481SOL    HW131079   1.302   4.567   2.966  0.8750  1.7337 -0.4029
 6481SOL    HW231080   1.249   4.459   2.884 -1.0467  0.5426 -2.7373
 6482SOL     OW31081   2.511   1.783   6.884  0.1429  0.0894 -0.2872
 6482SOL    HW131082   2.425   1.782   6.842 -0.4684 -1.0054  1.0080
 6482SOL    HW231083   2.488   1.768   6.976 -0.3391  1.4462 -0.1864
 6483SOL     OW31084   2.868   4.001   6.868 -0.1167 -1.0180 -0.3005
 6483SOL    HW131085   2.851   3.912   6.835  3.1056 -2.0293  0.8142
 6483SOL    HW231086   2.853   3.990   6.962 -2.4217 -0.0159 -0.5495
 6484SOL     OW31087   0.385   2.284  15.827 -0.2300 -0.3071 -0.0223
 6484SOL    HW131088   0.438   2.211  15.859 -0.3875 -0.1165  0.6709
 6484SOL    HW231089   0.392   2.275  15.732  0.2963 -0.0283 -0.0085
 6485SOL     OW31090   2.725   2.239  15.540  0.1417  0.2205 -0.2198
 6485SOL    HW131091   2.635   2.262  15.560 -0.0289 -1.3852  0.8446
 6485SOL    HW231092   2.773   2.313  15.579  1.5307  0.3424 -2.1787
 6486SOL     OW31093   0.570   3.511   1.305 -0.1433  0.3453  0.4986
 6486SOL    HW131094   0.659   3.523   1.337  0.7121  0.9433 -2.1454
 6486SOL    HW231095   0.536   3.598   1.286  1.1477  0.9877  1.1631
 6487SOL     OW31096   3.454   2.924   1.191  0.3623  0.0080 -0.0375
 6487SOL    HW131097   3.501   3.004   1.214 -1.6570  1.0997  0.2908
 6487SOL    HW231098   3.428   2.938   1.100 -0.2984  0.5036  0.2237
 6488SOL     OW31099   4.352   2.134   5.882  0.0610  0.6669 -0.3848
 6488SOL    HW131100   4.330   2.103   5.970 -2.0427 -2.0466 -1.8547
 6488SOL    HW231101   4.387   2.055   5.840  1.4869 -0.1628  2.3878
 6489SOL     OW31102   4.515   4.200   3.225  0.3769  0.1648  0.4745
 6489SOL    HW131103   4.568   4.196   3.145 -0.7423  0.9594 -0.3005
 6489SOL    HW231104   4.513   4.105   3.236  1.4839 -0.0171 -0.7756
 6490SOL     OW31105   0.437   3.498   5.630 -0.0588 -0.2098 -0.0267
 6490SOL    HW131106   0.421   3.573   5.573  0.8249 -0.1254 -0.1696
 6490SOL    HW231107   0.419   3.433   5.563 -1.3261 -0.4277  0.5172
 6491SOL     OW31108   1.218   3.976   5.843 -0.2695  0.2225  0.0479
 6491SOL    HW131109   1.287   4.043   5.838  0.0541 -0.0724  0.5310
 6491SOL    HW231110   1.157   4.001   5.774  0.6823  1.3197 -0.3836
 6492SOL     OW31111   2.831   2.460   2.775  0.5539  0.0070 -0.2153
 6492SOL    HW131112   2.756   2.477   2.718  1.8770 -0.8857 -2.2701
 6492SOL    HW231113   2.874   2.391   2.723 -0.2032 -0.7318  0.1360
 6493SOL     OW31114   1.471   3.309   2.415 -0.2005 -0.3692  0.6925
 6493SOL    HW131115   1.407   3.372   2.449  0.5951  0.8697 -0.0731
 6493SOL    HW231116   1.546   3.349   2.459 -1.4120  1.2005  1.3734
 6494SOL     OW31117   3.845   1.124   9.070  0.0439 -0.2876 -0.0981
 6494SOL    HW131118   3.888   1.147   8.988 -0.3327 -0.9699 -0.4837
 6494SOL    HW231119   3.911   1.131   9.140 -2.0323  1.1527  1.7164
 6495SOL     OW31120   1.867   2.293   9.876 -0.1388  0.1835  0.2771
 6495SOL    HW131121   1.793   2.351   9.896  0.0152  0.6054 -0.3682
 6495SOL    HW231122   1.927   2.358   9.840  0.5920 -0.6146  0.0595
 6496SOL     OW31123   3.385   0.865   6.727  0.2432 -0.5408 -0.4614
 6496SOL    HW131124   3.360   0.867   6.634 -3.1300  0.9170  0.5119
 6496SOL    HW231125   3.453   0.932   6.732  0.2220 -0.6250  0.9000
 6497SOL     OW31126   1.928   2.328   4.105 -0.0500 -0.8094 -0.2489
 6497SOL    HW131127   1.944   2.271   4.180 -0.6742 -0.3281  0.2530
 6497SOL    HW231128   1.966   2.263   4.046  2.5392 -0.6070  1.1861
 6498SOL     OW31129   0.994   2.735   3.844  0.1308 -0.0192  0.2953
 6498SOL    HW131130   1.006   2.751   3.750  1.9244 -0.0954  0.5210
 6498SOL    HW231131   0.899   2.724   3.841  0.0519  0.9161 -0.6477
 6499SOL     OW31132   1.958   0.705  16.918  0.2745  0.1899 -0.1165
 6499SOL    HW131133   1.916   0.788  16.940 -0.0476  0.2026 -0.7592
 6499SOL    HW231134   1.988   0.675  17.004 -0.9694  2.0652  0.9503
 6500SOL     OW31135   2.001   1.577  12.833 -0.5042 -0.3199  0.0512
 6500SOL    HW131136   1.917   1.593  12.875 -0.6525  1.1305 -0.8026
 6500SOL    HW231137   2.035   1.504  12.884  1.6481 -0.2537 -1.2937
 6501SOL     OW31138   2.305   1.373   3.517 -0.0178 -0.0544 -0.1206
 6501SOL    HW131139   2.351   1.379   3.601  2.0467 -0.4721 -1.2217
 6501SOL    HW231140   2.229   1.326   3.553  0.4152 -0.0016  0.8858
 6502SOL     OW31141   3.877   1.202   7.316  0.0431 -0.1236  0.1801
 6502SOL    HW131142   3.923   1.285   7.308  0.6315 -0.3713  0.9268
 6502SOL    HW231143   3.952   1.143   7.315 -1.0901 -1.5962  0.8926
 6503SOL     OW31144   1.439   0.935   3.918  0.1617 -0.4092  0.3751
 6503SOL    HW131145   1.363   0.921   3.974 -0.0633  0.5640  0.2993
 6503SOL    HW231146   1.456   1.023   3.952  1.5892 -0.2525 -0.7380
 6504SOL     OW31147   4.162   1.148   0.775 -0.4109 -0.1921  0.1031
 6504SOL    HW131148   4.249   1.109   0.769  0.3654  1.5379  0.0154
 6504SOL    HW231149   4.121   1.099   0.847 -0.8222  0.9569  0.6503
 6505SOL     OW31150   0.744   2.171  10.277 -0.5779 -0.2255 -0.4566
 6505SOL    HW131151   0.780   2.221  10.350 -2.5915 -0.3652  0.6426
 6505SOL    HW231152   0.668   2.128  10.316 -0.3075 -0.1496  0.1499
 6506SOL     OW31153   0.288   1.328  11.350 -0.1613 -0.0531  0.2807
 6506SOL    HW131154   0.353   1.257  11.356 -1.0657 -1.1226 -2.2405
 6506SOL    HW231155   0.334   1.393  11.402 -0.4610 -1.1598  1.9152
 6507SOL     OW31156   0.833   2.104   2.914  0.2204  0.6011 -0.4857
 6507SOL    HW131157   0.771   2.069   2.978  0.1220 -1.6436 -1.8222
 6507SOL    HW231158   0.834   2.027   2.858 -0.8200  1.3808 -1.5915
 6508SOL     OW31159   3.395   0.410   7.329  0.0169  0.1660 -0.0899
 6508SOL    HW131160   3.449   0.415   7.250  0.1993 -2.0913 -0.1013
 6508SOL    HW231161   3.434   0.334   7.373  0.0356  0.2890  0.1066
 6509SOL     OW31162   4.296   2.146  16.538  0.2259  0.3210  0.0032
 6509SOL    HW131163   4.250   2.077  16.586  0.7706 -0.0063  0.0559
 6509SOL    HW231164   4.385   2.131  16.571  0.1167 -2.0285 -0.7104
 6510SOL     OW31165   4.713   1.650   0.683 -0.0220 -0.3361 -0.1440
 6510SOL    HW131166   4.645   1.716   0.692 -0.4589 -0.4445 -2.5732
 6510SOL    HW231167   4.685   1.602   0.605 -0.3509 -0.6625  0.1771
 6511SOL     OW31168   4.575   3.429   3.961 -0.2333  0.1141 -0.0017
 6511SOL    HW131169   4.523   3.358   3.922 -1.7438  0.9855  0.4496
 6511SOL    HW231170   4.518   3.504   3.975 -2.1543 -1.6123  1.2698
 6512SOL     OW31171   4.226   0.558   1.072 -0.3626  0.1606 -0.1071
 6512SOL    HW131172   4.205   0.491   1.008 -1.1558 -1.0334  1.3847
 6512SOL    HW231173   4.143   0.563   1.120 -0.1749  0.0887  0.2244
 6513SOL     OW31174   2.359   2.888  15.703 -0.1386  0.4420 -0.1804
 6513SOL    HW131175   2.375   2.887  15.797 -2.3142 -0.8684  0.1764
 6513SOL    HW231176   2.391   2.804  15.671 -2.3955 -0.8403  0.9599
 6514SOL     OW31177   4.426   1.718   1.808 -0.0850  0.0002  0.7689
 6514SOL    HW131178   4.330   1.725   1.812 -0.2766 -0.6629 -2.4543
 6514SOL    HW231179   4.431   1.624   1.826  0.7488  0.3401  2.3177
 6515SOL     OW31180   0.712   2.168   0.021  0.1960 -0.5515 -0.4041
 6515SOL    HW131181   0.701   2.204   0.109 -0.7857 -0.3370 -0.6219
 6515SOL    HW231182   0.666   2.229  17.709  0.9612 -0.0805 -0.5233
 6516SOL     OW31183   1.144   3.718   5.629  0.1735 -0.0994  0.2786
 6516SOL    HW131184   1.126   3.699   5.538 -1.5537  1.3118  0.3312
 6516SOL    HW231185   1.184   3.805   5.634 -0.9496  0.5931 -3.0901
 6517SOL     OW31186   3.078   1.739  15.090 -0.1352 -0.3479  0.2165
 6517SOL    HW131187   3.092   1.726  14.997  2.6597  0.8932  0.4860
 6517SOL    HW231188   3.157   1.700  15.128 -0.2103 -0.8344 -0.1280
 6518SOL     OW31189   2.764   4.083   3.309  0.2754 -0.0382 -0.3242
 6518SOL    HW131190   2.826   4.119   3.373 -1.4057 -1.1229  1.8910
 6518SOL    HW231191   2.707   4.157   3.288  0.0652 -0.4488 -1.2110
 6519SOL     OW31192   1.881   1.350  14.947  0.7576 -0.4373 -0.2418
 6519SOL    HW131193   1.942   1.344  14.873  0.7650 -0.9086 -0.2003
 6519SOL    HW231194   1.934   1.347  15.026  2.4372 -1.2865 -1.4074
 6520SOL     OW31195   0.712   1.065  14.080  0.0476 -0.2709 -0.3506
 6520SOL    HW131196   0.684   0.996  14.020 -1.3871  0.7616 -0.8812
 6520SOL    HW231197   0.734   1.133  14.017 -1.4059 -0.2158 -0.8010
 6521SOL     OW31198   1.736   4.482   2.305  0.2670  0.0118 -0.2403
 6521SOL    HW131199   1.656   4.432   2.287  0.3801 -0.0036 -0.7105
 6521SOL    HW231200   1.696   4.569   2.302 -1.6439 -0.8937 -1.1204
 6522SOL     OW31201   3.871   2.785   8.050 -0.2211  0.0815  0.1347
 6522SOL    HW131202   3.878   2.741   7.965 -1.0089  0.2444 -0.0166
 6522SOL    HW231203   3.944   2.748   8.100 -1.5542 -1.2609  1.0746
 6523SOL     OW31204   1.471   4.447   4.579 -0.2311 -0.3250 -0.5111
 6523SOL    HW131205   1.406   4.395   4.625  0.5041 -1.1326 -0.3949
 6523SOL    HW231206   1.431   4.533   4.563  0.6177  0.2032  0.2081
 6524SOL     OW31207   4.237   0.343   7.348 -0.0303 -0.3581  0.0383
 6524SOL    HW131208   4.216   0.272   7.409 -1.2424 -0.8495 -0.9725
 6524SOL    HW231209   4.330   0.362   7.364 -0.0805 -1.2552  1.4064
 6525SOL     OW31210   0.060   1.100   2.304 -0.2146  0.2652  0.2932
 6525SOL    HW131211   0.080   1.174   2.247  1.0822  1.5950  2.4839
 6525SOL    HW231212   0.058   1.150   2.385  1.0372  2.7864 -1.2442
 6526SOL     OW31213   0.039   4.162   0.879 -0.4124  0.1303  0.1271
 6526SOL    HW131214   4.693   4.126   0.846 -1.5967  1.2432  1.8399
 6526SOL    HW231215   0.062   4.212   0.801 -0.5627 -0.6607 -0.4231
 6527SOL     OW31216   0.457   4.417   4.713 -0.0984  0.2322  0.0271
 6527SOL    HW131217   0.548   4.390   4.700 -0.0147  0.5475 -0.0655
 6527SOL    HW231218   0.421   4.383   4.631 -0.4776  0.7730 -0.0328
 6528SOL     OW31219   2.673   1.107  15.501 -0.0493 -0.9686 -0.0098
 6528SOL    HW131220   2.608   1.076  15.564  0.3794  2.7413  2.2697
 6528SOL    HW231221   2.620   1.138  15.427 -2.6019  0.4758  2.4084
 6529SOL     OW31222   2.827   3.801   5.411 -0.2611  0.6817 -0.1576
 6529SOL    HW131223   2.871   3.718   5.431  0.8501  1.0892 -0.8759
 6529SOL    HW231224   2.838   3.797   5.316 -0.3820 -0.5876 -0.1178
 6530SOL     OW31225   0.299   2.131   2.562 -0.2318  0.3296 -0.3770
 6530SOL    HW131226   0.299   2.157   2.654  0.7435 -0.8527 -0.0476
 6530SOL    HW231227   0.206   2.112   2.544 -0.2872  2.5100 -2.3948
 6531SOL     OW31228   3.518   3.935   3.036 -0.1423  0.1284  0.1205
 6531SOL    HW131229   3.561   3.890   2.963  0.2453 -2.0453  1.6943
 6531SOL    HW231230   3.596   3.967   3.081  1.2445 -2.0012 -0.7677
 6532SOL     OW31231   4.549   3.125   6.353 -0.2983 -0.0381 -0.4419
 6532SOL    HW131232   4.550   3.202   6.295 -0.1351 -0.2752 -0.7541
 6532SOL    HW231233   4.642   3.115   6.373 -0.3595 -1.9453 -1.1447
 6533SOL     OW31234   4.192   3.206  13.948 -0.1068 -0.4501  0.5529
 6533SOL    HW131235   4.163   3.126  13.905 -0.5386  1.2584 -2.3517
 6533SOL    HW231236   4.113   3.258  13.934 -1.4416 -2.0409  2.2653
 6534SOL     OW31237   4.437   2.845   8.212 -0.1914  0.2250 -0.2684
 6534SOL    HW131238   4.430   2.754   8.181  0.6052 -0.9659  3.0801
 6534SOL    HW231239   4.438   2.827   8.306  0.5424 -1.2837 -0.5669
 6535SOL     OW31240   2.746   4.429   7.026  0.1167 -0.1248  0.4228
 6535SOL    HW131241   2.831   4.450   6.988  0.8399 -4.3518 -0.3782
 6535SOL    HW231242   2.732   4.523   7.037  0.8855  0.1322 -0.7086
 6536SOL     OW31243   3.345   2.767   3.488 -0.5343 -0.4694 -0.4136
 6536SOL    HW131244   3.399   2.688   3.500  0.3438  0.1594 -0.2423
 6536SOL    HW231245   3.281   2.757   3.558 -0.9391 -0.6014 -0.8050
 6537SOL     OW31246   2.083   4.038   5.849  0.3937  0.5679 -0.6663
 6537SOL    HW131247   2.098   4.073   5.761 -1.3023 -0.5788 -1.4184
 6537SOL    HW231248   2.012   3.975   5.838  0.2537  0.7516 -0.8083
 6538SOL     OW31249   2.391   0.612   7.401  0.4324 -0.4399 -0.5395
 6538SOL    HW131250   2.389   0.517   7.392  0.7888 -0.6312  1.4452
 6538SOL    HW231251   2.474   0.653   7.423 -1.2142  3.0011 -0.7716
 6539SOL     OW31252   4.385   2.768   1.830 -0.4251 -0.1357 -0.0094
 6539SOL    HW131253   4.334   2.808   1.900 -1.6036  0.7587 -1.3830
 6539SOL    HW231254   4.468   2.760   1.877 -0.6343 -0.7303  0.2696
 6540SOL     OW31255   0.259   3.492   5.909  0.1203 -0.2788  0.7192
 6540SOL    HW131256   0.347   3.519   5.881  0.7402 -1.5097  1.4467
 6540SOL    HW231257   0.208   3.571   5.924  1.3761  0.2694  2.1257
 6541SOL     OW31258   4.042   1.142   9.244 -0.5606 -0.4945  0.2345
 6541SOL    HW131259   4.125   1.105   9.214 -0.6552 -0.8745  0.4380
 6541SOL    HW231260   4.058   1.139   9.338  0.6664 -0.0578  0.0439
 6542SOL     OW31261   0.477   3.025   2.101 -0.1340 -0.3421 -0.3818
 6542SOL    HW131262   0.439   2.984   2.023 -0.0694  0.9670 -1.0988
 6542SOL    HW231263   0.392   3.028   2.146 -1.4616 -1.5852 -2.7479
 6543SOL     OW31264   1.225   1.885   8.359 -0.2351 -0.3382 -0.3798
 6543SOL    HW131265   1.191   1.867   8.447 -2.9098  0.0050 -1.3495
 6543SOL    HW231266   1.263   1.801   8.334 -0.5985 -0.9673  1.1674
 6544SOL     OW31267   3.444   0.306   9.598  0.1758 -0.1364 -0.4542
 6544SOL    HW131268   3.401   0.298   9.683  0.6956 -2.5567 -0.4102
 6544SOL    HW231269   3.372   0.324   9.536  1.8203  1.7623 -1.8280
 6545SOL     OW31270   2.982   2.239   6.517 -0.3942 -0.2123  0.4573
 6545SOL    HW131271   2.994   2.180   6.443  0.1851  1.6397 -0.9103
 6545SOL    HW231272   3.071   2.255   6.549 -1.2252  0.9247  2.1627
 6546SOL     OW31273   1.739   3.136  15.643  0.0664  0.2343  0.3649
 6546SOL    HW131274   1.804   3.103  15.705  1.5656  1.0198 -0.7930
 6546SOL    HW231275   1.659   3.090  15.670 -0.3408 -0.6891 -2.4014
 6547SOL     OW31276   1.639   2.620   7.525  0.6535  0.0793 -0.2192
 6547SOL    HW131277   1.654   2.578   7.609  0.6630  3.0820  1.2939
 6547SOL    HW231278   1.721   2.608   7.478  0.8815 -1.2493  0.5289
 6548SOL     OW31279   0.949   0.517   5.217 -0.1933 -0.5930  0.6423
 6548SOL    HW131280   0.905   0.593   5.179  0.1593 -0.3836  0.6531
 6548SOL    HW231281   1.027   0.514   5.161 -1.4286  0.0541 -1.1384
 6549SOL     OW31282   3.770   1.101   0.733  0.0951  0.0386  0.3714
 6549SOL    HW131283   3.683   1.140   0.749  0.3828 -0.0333  2.1444
 6549SOL    HW231284   3.766   1.077   0.641  0.2964 -0.0426  0.3848
 6550SOL     OW31285   0.921   2.116   4.730 -0.4299  0.2012  0.3486
 6550SOL    HW131286   0.893   2.078   4.813 -0.9124 -0.0747  0.0580
 6550SOL    HW231287   0.856   2.081   4.670  0.2306 -0.0970 -0.2033
 6551SOL     OW31288   1.713   3.907   7.498  0.1841 -0.2083  0.0407
 6551SOL    HW131289   1.632   3.860   7.518 -0.1469 -0.0136 -0.8048
 6551SOL    HW231290   1.700   3.951   7.413 -0.0835 -2.5676 -1.1409
 6552SOL     OW31291   0.338   1.606  16.382  0.2001 -0.5913 -0.1607
 6552SOL    HW131292   0.394   1.562  16.447  0.4102  0.1810  0.1785
 6552SOL    HW231293   0.259   1.553  16.390 -0.2933 -0.0462 -1.5825
 6553SOL     OW31294   1.927   3.934   8.195 -0.4412  0.1552  0.0274
 6553SOL    HW131295   1.937   3.842   8.221  1.2075  0.1741 -0.4962
 6553SOL    HW231296   1.835   3.952   8.212  0.0470  2.2444  0.4249
 6554SOL     OW31297   3.943   2.857  16.527 -0.5492  0.0096  0.3622
 6554SOL    HW131298   4.001   2.794  16.485  0.2356  1.2108 -0.3601
 6554SOL    HW231299   3.859   2.821  16.500 -0.0745 -0.0867 -0.9916
 6555SOL     OW31300   1.775   3.842   9.156 -0.8802  0.1257 -0.0525
 6555SOL    HW131301   1.862   3.803   9.152  0.2496  2.5191  0.8416
 6555SOL    HW231302   1.789   3.876   9.245 -0.6638 -0.1961  0.0372
 6556SOL     OW31303   1.008   0.842   7.447  0.4312 -0.2676 -0.3463
 6556SOL    HW131304   0.924   0.795   7.444  1.1203 -1.2168 -4.5098
 6556SOL    HW231305   1.017   0.870   7.356 -0.2924  1.1148  0.0047
 6557SOL     OW31306   1.766   1.652   8.299 -0.2126 -0.5362  0.2146
 6557SOL    HW131307   1.811   1.610   8.226 -0.7554  0.4458 -0.6888
 6557SOL    HW231308   1.831   1.713   8.334  0.6018 -0.3094 -1.7494
 6558SOL     OW31309   3.589   3.741  11.844  0.2018 -0.2734 -0.2763
 6558SOL    HW131310   3.529   3.814  11.863 -0.7203 -1.1135  0.0543
 6558SOL    HW231311   3.553   3.668  11.894 -0.6974  0.9364  0.8519
 6559SOL     OW31312   1.281   1.623   4.516 -0.1473 -0.3400 -0.3444
 6559SOL    HW131313   1.211   1.622   4.582  0.5153  1.2574  0.3860
 6559SOL    HW231314   1.267   1.708   4.475  0.0171 -0.2136 -0.1411
 6560SOL     OW31315   2.550   3.735   6.763 -0.3287 -0.3288  0.2772
 6560SOL    HW131316   2.598   3.762   6.841  0.6311 -0.9970 -0.0856
 6560SOL    HW231317   2.523   3.819   6.725  2.5607  0.4458 -0.0488
 6561SOL     OW31318   3.952   0.168   2.674 -0.1197  0.5297 -0.2053
 6561SOL    HW131319   4.018   0.115   2.629  0.1092  1.3168 -0.8034
 6561SOL    HW231320   3.875   0.141   2.625  0.2559  1.9835 -1.6092
 6562SOL     OW31321   1.717   2.484   5.708 -0.1990 -0.2748 -0.1023
 6562SOL    HW131322   1.790   2.533   5.744 -0.2020 -0.4015  0.0745
 6562SOL    HW231323   1.652   2.497   5.777 -1.2579  1.4686 -1.4418
 6563SOL     OW31324   2.343   2.244   1.618 -0.1136 -0.5801  0.1892
 6563SOL    HW131325   2.308   2.247   1.707 -0.7055 -2.6360  0.0347
 6563SOL    HW231326   2.434   2.270   1.634 -0.0645 -1.3686  1.2538
 6564SOL     OW31327   1.036   2.635  10.006 -0.4198 -0.7179  0.1359
 6564SOL    HW131328   1.130   2.648   9.992 -0.8302 -0.9839 -2.9029
 6564SOL    HW231329   1.043   2.607  10.097 -0.2374 -0.1498  0.2894
 6565SOL     OW31330   1.663   1.363  14.795  0.6245  0.3484  0.4352
 6565SOL    HW131331   1.728   1.362  14.866  1.5262 -1.2389 -0.3973
 6565SOL    HW231332   1.615   1.443  14.815 -0.2715 -0.0691 -0.0670
 6566SOL     OW31333   0.273   3.584   1.724 -0.1323 -0.2871 -0.2513
 6566SOL    HW131334   0.325   3.622   1.653 -0.7793 -0.0656 -0.6003
 6566SOL    HW231335   0.206   3.535   1.677 -1.4897  1.9691 -0.6207
 6567SOL     OW31336   1.772   4.626   3.036  0.1943  0.5055 -0.3660
 6567SOL    HW131337   1.718   4.664   3.106  1.3107 -0.7591  1.1815
 6567SOL    HW231338   1.858   4.646   3.075  0.8712 -0.8240 -1.1710
 6568SOL     OW31339   2.073   1.648   1.534 -0.8639 -0.0858 -1.2167
 6568SOL    HW131340   2.094   1.727   1.584 -0.1040 -0.3676 -1.0955
 6568SOL    HW231341   1.995   1.665   1.480  0.0189  3.5510 -1.3366
 6569SOL     OW31342   3.311   2.751   6.194 -0.0489  0.7570  0.1703
 6569SOL    HW131343   3.237   2.805   6.219 -0.4153  0.5226 -0.3913
 6569SOL    HW231344   3.349   2.726   6.278  2.5316  4.2527  0.0424
 6570SOL     OW31345   4.161   0.346  12.003  0.1830 -0.1802 -0.2653
 6570SOL    HW131346   4.118   0.379  12.082 -1.1897  0.6225 -1.3533
 6570SOL    HW231347   4.149   0.251  11.999  0.4587 -0.3228  2.0965
 6571SOL     OW31348   4.194   4.506   6.263 -0.0317 -0.1203 -0.5609
 6571SOL    HW131349   4.237   4.421   6.255 -1.7246 -0.8516 -2.0731
 6571SOL    HW231350   4.210   4.526   6.355 -1.7308 -2.8489  0.3250
 6572SOL     OW31351   0.534   1.377   6.243 -0.5310 -0.0758  0.1421
 6572SOL    HW131352   0.569   1.302   6.195 -0.7533 -1.2296  1.7845
 6572SOL    HW231353   0.595   1.381   6.318 -1.5507  0.6865  0.9325
 6573SOL     OW31354   1.877   1.369  11.960 -0.1687 -0.3396 -0.3817
 6573SOL    HW131355   1.838   1.439  12.012  1.5802 -1.4963  2.5390
 6573SOL    HW231356   1.964   1.406  11.943  0.7210 -0.7557  3.1580
 6574SOL     OW31357   2.621   1.607   4.280 -0.1194  0.3450  0.2668
 6574SOL    HW131358   2.698   1.663   4.293  0.3377 -0.5054  1.2595
 6574SOL    HW231359   2.565   1.597   4.357 -0.7389 -0.7137 -0.3323
 6575SOL     OW31360   3.892   1.165   6.312  0.1799 -0.0913 -0.3617
 6575SOL    HW131361   3.986   1.144   6.318  0.8786  2.4930 -2.2919
 6575SOL    HW231362   3.877   1.232   6.378  2.0237 -0.9590  0.9496
 6576SOL     OW31363   4.515   1.080  14.828  0.0108  0.0037  0.0760
 6576SOL    HW131364   4.525   1.011  14.894 -3.0791  0.7702  1.3509
 6576SOL    HW231365   4.532   1.023  14.753 -1.6646  0.8527 -0.9375
 6577SOL     OW31366   2.211   2.092   5.457 -0.2751 -0.3072  0.1792
 6577SOL    HW131367   2.229   2.113   5.549 -1.0198 -1.7766  0.6668
 6577SOL    HW231368   2.178   2.177   5.430  0.6098 -0.8067 -2.4407
 6578SOL     OW31369   3.782   3.314   4.285  0.2514 -0.2821 -0.0206
 6578SOL    HW131370   3.832   3.242   4.324  1.2917  1.2025  1.3993
 6578SOL    HW231371   3.761   3.364   4.364  0.2340  0.6691 -0.6361
 6579SOL     OW31372   0.165   1.408   3.056  0.6139  0.6247  0.2622
 6579SOL    HW131373   0.076   1.432   3.030  0.1823  2.2945  3.2221
 6579SOL    HW231374   0.162   1.313   3.051  0.4896  0.6826 -0.6710
 6580SOL     OW31375   4.456   2.063   0.804  0.0652  0.1882 -0.1775
 6580SOL    HW131376   4.457   1.975   0.767  1.5451  0.1942 -0.1608
 6580SOL    HW231377   4.408   2.049   0.885  1.3247  1.6386  0.8406
 6581SOL     OW31378   4.681   4.673   5.210  0.3513  0.0206  0.5463
 6581SOL    HW131379   4.727   4.663   5.126 -2.3944 -0.4844 -0.8737
 6581SOL    HW231380   0.021   4.671   5.268 -0.2307 -0.0416  1.3041
 6582SOL     OW31381   0.263   1.053   4.724  0.1726  0.3273  0.5084
 6582SOL    HW131382   0.301   1.141   4.723  2.0355 -0.4126  3.2820
 6582SOL    HW231383   0.333   0.999   4.687 -0.6467 -0.1936 -0.2529
 6583SOL     OW31384   3.468   3.531   6.248  0.2582  0.7782  0.0464
 6583SOL    HW131385   3.477   3.583   6.327 -0.6921  0.5930  0.2714
 6583SOL    HW231386   3.520   3.450   6.254 -0.0713  0.5826  0.2395
 6584SOL     OW31387   4.151   3.846   5.030  0.3109  0.3394  0.2226
 6584SOL    HW131388   4.118   3.778   5.089 -1.1373  1.9558  1.2797
 6584SOL    HW231389   4.221   3.879   5.086  1.7365 -0.5932 -0.9974
 6585SOL     OW31390   4.035   0.905  13.436  0.8043 -0.2501  0.5054
 6585SOL    HW131391   4.089   0.833  13.402 -0.9132 -1.3077  0.0016
 6585SOL    HW231392   4.091   0.945  13.502  0.0324  1.6774 -0.0263
 6586SOL     OW31393   1.827   1.147   4.178 -0.3821  0.4765 -0.3950
 6586SOL    HW131394   1.884   1.077   4.145  2.7719  2.4930  0.7021
 6586SOL    HW231395   1.879   1.187   4.248 -1.5362 -1.0958  1.3753
 6587SOL     OW31396   2.604   2.007   2.802 -0.1585 -0.1258  0.0164
 6587SOL    HW131397   2.531   1.953   2.771  0.2225 -1.1705  0.9346
 6587SOL    HW231398   2.634   2.047   2.720  3.0000  0.5096  1.5135
 6588SOL     OW31399   3.037   1.880   1.177  0.3760 -0.5491 -0.0897
 6588SOL    HW131400   3.090   1.930   1.239 -0.6196  0.6897 -0.2358
 6588SOL    HW231401   3.104   1.876   1.109  0.8477 -1.6550  0.4353
 6589SOL     OW31402   1.313   4.496   9.936 -0.2873  0.4047 -0.5128
 6589SOL    HW131403   1.384   4.452   9.890  1.1399  2.8678 -0.6481
 6589SOL    HW231404   1.257   4.425   9.968  1.0312 -0.3417  0.1344
 6590SOL     OW31405   1.944   4.478   6.578  0.1139  0.5334  0.4026
 6590SOL    HW131406   1.981   4.556   6.535  1.0194  0.5621  1.2342
 6590SOL    HW231407   2.004   4.467   6.652  0.5911  0.4298 -0.0016
 6591SOL     OW31408   1.658   0.573   2.626 -0.2246  0.0086 -0.2066
 6591SOL    HW131409   1.576   0.571   2.576 -0.1813 -1.4606 -0.2317
 6591SOL    HW231410   1.661   0.668   2.633  0.4763 -0.0056 -0.4123
 6592SOL     OW31411   2.464   3.860   8.501  0.3121 -0.2950 -0.3915
 6592SOL    HW131412   2.508   3.901   8.427  0.4186  0.5695  0.1612
 6592SOL    HW231413   2.524   3.895   8.566  0.5116 -1.1343 -0.1167
 6593SOL     OW31414   4.407   2.371  12.942  0.0744 -0.0744 -0.1486
 6593SOL    HW131415   4.371   2.290  12.906  0.2080 -0.2242  0.0543
 6593SOL    HW231416   4.496   2.366  12.907  0.5391 -0.6806  1.1015
 6594SOL     OW31417   2.468   2.135   4.062  0.1252 -0.1614  0.3273
 6594SOL    HW131418   2.401   2.170   4.120 -0.5302 -0.6415 -0.1396
 6594SOL    HW231419   2.510   2.067   4.115  1.8349  0.3936 -0.3108
 6595SOL     OW31420   1.204   4.331   2.129 -0.1385  0.4171 -0.4065
 6595SOL    HW131421   1.285   4.281   2.122  0.7973  1.6446  1.5870
 6595SOL    HW231422   1.139   4.261   2.126 -0.8269  1.0438 -0.1014
 6596SOL     OW31423   3.187   2.884   2.430  0.1217 -0.2703  0.0743
 6596SOL    HW131424   3.240   2.806   2.419 -0.2016 -0.3301 -1.1729
 6596SOL    HW231425   3.197   2.933   2.348 -1.9059 -0.8290 -0.5301
 6597SOL     OW31426   0.266   1.451   5.894  0.2061 -0.0419 -0.4963
 6597SOL    HW131427   0.300   1.363   5.908  0.1232  0.0367  0.1896
 6597SOL    HW231428   0.341   1.492   5.850  0.1723  1.8625  1.2517
 6598SOL     OW31429   2.609   2.297   4.293 -0.3338  0.3277 -0.3354
 6598SOL    HW131430   2.617   2.378   4.345 -1.7924  0.0202  0.3495
 6598SOL    HW231431   2.624   2.234   4.363  0.9948  0.5909 -0.3736
 6599SOL     OW31432   1.203   3.394   7.931  0.6059 -0.1538  0.3000
 6599SOL    HW131433   1.232   3.358   7.847  1.1569  1.3734 -0.1578
 6599SOL    HW231434   1.288   3.415   7.970  1.0241  1.8297 -1.6996
 6600SOL     OW31435   2.007   3.397   0.563 -0.2535 -0.2691  0.0958
 6600SOL    HW131436   2.093   3.414   0.525 -1.4605  0.4368 -2.2890
 6600SOL    HW231437   1.982   3.320   0.512  2.5683 -0.4431 -1.0209
 6601SOL     OW31438   4.092   3.199  16.256 -0.5606 -0.2715  0.5410
 6601SOL    HW131439   4.012   3.230  16.214 -0.2870 -2.9635 -1.9983
 6601SOL    HW231440   4.075   3.240  16.341  2.5108  1.9508  0.0930
 6602SOL     OW31441   3.628   1.913  11.767 -0.1308  0.7041  0.2145
 6602SOL    HW131442   3.629   1.897  11.673 -0.3533 -1.5153  0.5924
 6602SOL    HW231443   3.617   1.821  11.790  0.5688  0.7512  0.7583
 6603SOL     OW31444   3.521   0.297   8.660  0.1633  0.0547  0.4478
 6603SOL    HW131445   3.606   0.331   8.688  0.9535 -1.2812 -0.3276
 6603SOL    HW231446   3.543   0.208   8.687  0.5791  0.8708  2.7995
 6604SOL     OW31447   4.688   1.471   4.029 -0.6186 -0.0035 -0.2044
 6604SOL    HW131448   4.617   1.436   3.975  0.6427  0.1135 -1.9495
 6604SOL    HW231449   4.650   1.470   4.117  2.4277  1.4756  1.1247
 6605SOL     OW31450   3.648   3.823   2.475  0.0497 -0.1290  0.1474
 6605SOL    HW131451   3.624   3.761   2.406  1.5848 -1.2814  0.6620
 6605SOL    HW231452   3.578   3.828   2.540  1.0581  1.2566  1.1294
 6606SOL     OW31453   3.138   3.078   1.781 -0.0957 -0.0148  0.2230
 6606SOL    HW131454   3.161   3.156   1.731  0.3522  0.0651  0.5509
 6606SOL    HW231455   3.058   3.105   1.825 -0.7569  0.8805 -1.5365
 6607SOL     OW31456   3.102   0.607  12.681 -0.1837 -0.0970 -0.7531
 6607SOL    HW131457   3.026   0.662  12.662 -0.1213 -0.0773 -0.9429
 6607SOL    HW231458   3.087   0.573  12.769  2.0651  0.2139 -0.2351
 6608SOL     OW31459   3.611   1.614   3.237  0.6812 -0.7508  0.2716
 6608SOL    HW131460   3.604   1.696   3.286 -2.2102  0.6410 -2.4233
 6608SOL    HW231461   3.572   1.555   3.302  0.9743 -0.8356  0.3677
 6609SOL     OW31462   1.934   2.031   5.494 -0.0480 -0.9763  0.3033
 6609SOL    HW131463   2.022   2.052   5.463  0.3502 -0.9888  1.4320
 6609SOL    HW231464   1.923   2.084   5.573  1.0143 -0.1339 -0.1215
 6610SOL     OW31465   3.811   1.914  15.617 -0.0341 -0.1896  0.0177
 6610SOL    HW131466   3.738   1.940  15.561 -0.7536  2.3387  2.1471
 6610SOL    HW231467   3.809   1.819  15.603 -1.3063 -0.2744  0.8753
 6611SOL     OW31468   2.883   0.707  13.248 -0.0946 -0.0489  0.4126
 6611SOL    HW131469   2.969   0.684  13.213  0.4099  2.8303 -0.2640
 6611SOL    HW231470   2.830   0.701  13.169  0.9118 -1.3555 -0.1590
 6612SOL     OW31471   2.392   1.389   5.547 -0.2616 -0.4065  0.3714
 6612SOL    HW131472   2.359   1.355   5.465 -2.0818 -1.2367  1.4503
 6612SOL    HW231473   2.482   1.402   5.517 -1.0110  1.0131 -1.2524
 6613SOL     OW31474   4.206   1.641   5.871  0.3059  0.0795  0.1388
 6613SOL    HW131475   4.249   1.559   5.848  1.2056  0.9835 -1.4072
 6613SOL    HW231476   4.150   1.653   5.795  0.0183 -0.0347  0.3355
 6614SOL     OW31477   2.609   3.991   5.886  0.1732 -0.5176  0.3540
 6614SOL    HW131478   2.515   3.972   5.892  0.3859 -1.0666  2.0368
 6614SOL    HW231479   2.613   4.053   5.814  1.1107  0.4749  1.2567
 6615SOL     OW31480   2.589   1.239   3.885  0.0099 -0.8016  1.0004
 6615SOL    HW131481   2.676   1.221   3.851 -0.3444  0.0066 -0.3456
 6615SOL    HW231482   2.549   1.274   3.806 -0.1994 -1.6158  0.7440
 6616SOL     OW31483   3.486   0.406  14.670 -0.1711  0.2652  0.1084
 6616SOL    HW131484   3.398   0.385  14.637  0.4321 -2.4204  0.2012
 6616SOL    HW231485   3.486   0.334  14.733  1.2272 -1.6835 -2.1257
 6617SOL     OW31486   3.881   0.807   3.982  0.3070 -0.1355 -1.0610
 6617SOL    HW131487   3.849   0.888   3.941  0.5527  0.5600  0.1345
 6617SOL    HW231488   3.946   0.835   4.046  0.4598 -2.9123 -0.0204
 6618SOL     OW31489   2.819   2.724   3.992 -0.2721  0.0997  0.7076
 6618SOL    HW131490   2.738   2.703   3.946 -0.9796  1.0595  1.5263
 6618SOL    HW231491   2.866   2.641   3.978  1.7039  1.1249  1.2693
 6619SOL     OW31492   0.370   0.149   0.470  0.3196 -0.4149  0.2729
 6619SOL    HW131493   0.450   0.117   0.512 -0.3368 -1.9890  0.3379
 6619SOL    HW231494   0.299   0.109   0.521  0.0182 -1.8614 -1.2661
 6620SOL     OW31495   2.935   0.890   0.182 -0.2607 -0.4970  0.5268
 6620SOL    HW131496   3.010   0.838   0.154 -0.8300 -0.8969 -0.2649
 6620SOL    HW231497   2.869   0.859   0.120  0.2915  1.0064 -0.8215
 6621SOL     OW31498   4.652   0.340   8.403 -0.0360  0.0259 -0.0760
 6621SOL    HW131499   4.630   0.254   8.440 -1.3733 -0.4832 -2.0718
 6621SOL    HW231500   0.011   0.342   8.412 -0.0358  1.3190 -0.4409
 6622SOL     OW31501   1.489   0.262   1.724 -0.5195  0.3048 -0.3603
 6622SOL    HW131502   1.488   0.170   1.699  0.5902 -0.3200  1.8738
 6622SOL    HW231503   1.482   0.254   1.820  0.5287 -2.2049 -0.5006
 6623SOL     OW31504   0.381   1.153   7.987  0.1517 -0.2688  0.0543
 6623SOL    HW131505   0.300   1.105   7.968  0.0099  0.7561 -1.9233
 6623SOL    HW231506   0.346   1.238   8.012  0.4042  0.0713 -0.7498
 6624SOL     OW31507   3.705   1.830   3.400 -0.1590  0.3818 -0.2715
 6624SOL    HW131508   3.799   1.826   3.413 -0.4735  1.0247  2.2715
 6624SOL    HW231509   3.684   1.876   3.482 -0.1816 -1.3179  0.6754
 6625SOL     OW31510   3.885   1.298   4.064 -0.1264 -0.2090  0.3578
 6625SOL    HW131511   3.872   1.233   3.995  0.2090  0.7030 -0.5663
 6625SOL    HW231512   3.799   1.339   4.062 -0.1473 -0.1966  1.5897
 6626SOL     OW31513   1.167   2.381   3.343  0.0604  0.0095  0.4814
 6626SOL    HW131514   1.193   2.359   3.432  1.9466  3.2733  0.7517
 6626SOL    HW231515   1.095   2.443   3.354 -0.2694 -0.1353 -0.8778
 6627SOL     OW31516   2.236   0.354   2.236  0.2173  0.2916  0.5958
 6627SOL    HW131517   2.176   0.280   2.243  1.5060 -0.7298  0.8916
 6627SOL    HW231518   2.189   0.414   2.178  0.8638 -1.1122 -1.3737
 6628SOL     OW31519   1.985   1.808   9.046  0.1922  0.4428 -0.6670
 6628SOL    HW131520   1.990   1.713   9.053 -0.9419  0.3566 -0.9345
 6628SOL    HW231521   1.944   1.830   9.130 -1.2852  2.0560 -1.8075
 6629SOL     OW31522   0.375   3.440  15.252 -0.0377  0.1855 -0.5807
 6629SOL    HW131523   0.349   3.411  15.165 -2.9142  1.1127 -0.0228
 6629SOL    HW231524   0.366   3.535  15.251 -1.8787 -0.0032 -1.1988
 6630SOL     OW31525   0.568   0.490  15.478 -0.2539 -0.1434  0.6281
 6630SOL    HW131526   0.655   0.466  15.510 -0.0035  0.6650  0.5416
 6630SOL    HW231527   0.535   0.521  15.563 -1.5736  1.9216 -0.6353
 6631SOL     OW31528   3.012   0.878   7.237 -0.3602 -0.1328  0.2954
 6631SOL    HW131529   3.058   0.794   7.242  0.7272  0.4173 -0.3639
 6631SOL    HW231530   3.014   0.899   7.143 -0.8005 -0.2591  0.2619
 6632SOL     OW31531   0.858   2.548   8.145  0.2120 -0.1996  0.5267
 6632SOL    HW131532   0.824   2.517   8.229  0.4744  0.7168  0.9611
 6632SOL    HW231533   0.892   2.633   8.171 -0.1158  0.2915 -0.6551
 6633SOL     OW31534   2.580   0.907   4.381  0.3719  0.3652  0.0288
 6633SOL    HW131535   2.507   0.909   4.319 -0.6418 -0.1625  1.2126
 6633SOL    HW231536   2.573   0.817   4.414  0.8303  1.3147  2.6861
 6634SOL     OW31537   1.846   3.340   5.456  0.5554 -0.1585 -0.1952
 6634SOL    HW131538   1.849   3.312   5.364 -0.0751 -3.3344  0.7373
 6634SOL    HW231539   1.940   3.353   5.466  0.3534  0.6381  0.6041
 6635SOL     OW31540   2.090   2.495   5.155 -0.4818 -0.3879  0.2995
 6635SOL    HW131541   2.048   2.580   5.171  0.0047  0.0472 -0.7157
 6635SOL    HW231542   2.172   2.503   5.203 -1.7146  0.9161  2.1938
 6636SOL     OW31543   3.133   2.944   9.191 -0.1381  0.0457 -0.0694
 6636SOL    HW131544   3.173   2.856   9.194 -0.6512 -0.2202 -1.1084
 6636SOL    HW231545   3.205   2.993   9.153 -0.3365  1.1717  0.9829
 6637SOL     OW31546   3.758   1.151  11.055  0.0520 -0.2741  0.5847
 6637SOL    HW131547   3.825   1.087  11.031 -0.0552 -0.0208 -0.4063
 6637SOL    HW231548   3.747   1.129  11.148 -0.8820  1.7271  0.9394
 6638SOL     OW31549   3.100   2.090   4.651 -0.1916  0.8865 -0.4950
 6638SOL    HW131550   3.163   2.037   4.603  0.6835  2.2358 -0.8381
 6638SOL    HW231551   3.025   2.031   4.659  0.5343 -0.1323 -1.2768
 6639SOL     OW31552   0.757   3.063   5.199 -0.0454 -0.1132  0.3539
 6639SOL    HW131553   0.691   3.129   5.218  0.9362  0.4544  1.7829
 6639SOL    HW231554   0.757   3.060   5.103 -0.1009 -1.8772  0.3950
 6640SOL     OW31555   3.057   2.757   5.862  0.1738  0.6750 -0.9749
 6640SOL    HW131556   2.989   2.705   5.906  2.1190 -0.7925  0.3263
 6640SOL    HW231557   3.126   2.695   5.886  2.0568  3.3521  0.4716
 6641SOL     OW31558   0.175   4.073   8.325  0.1294 -0.0702 -0.5638
 6641SOL    HW131559   0.209   4.160   8.307 -1.2229  0.9214  1.7331
 6641SOL    HW231560   0.097   4.068   8.270  0.9402 -1.2948 -1.6145
 6642SOL     OW31561   0.379   3.247   2.588  0.6941  0.5011  0.3038
 6642SOL    HW131562   0.312   3.247   2.519 -0.7682 -2.6420  1.7188
 6642SOL    HW231563   0.379   3.153   2.603  0.7679  0.1023 -2.1166
 6643SOL     OW31564   2.493   4.382  11.669 -0.3849 -0.3089 -0.2194
 6643SOL    HW131565   2.561   4.365  11.605 -2.6275 -1.1333 -2.3702
 6643SOL    HW231566   2.415   4.411  11.622  0.9461 -0.5244 -2.5512
 6644SOL     OW31567   3.290   2.233   6.587  0.3794 -0.0859  0.1236
 6644SOL    HW131568   3.302   2.232   6.492 -1.5404 -1.4643 -0.1124
 6644SOL    HW231569   3.309   2.141   6.607  0.6274 -0.4912 -1.9115
 6645SOL     OW31570   0.622   1.724   3.429 -0.3216  0.3281  0.7454
 6645SOL    HW131571   0.694   1.708   3.367 -1.8154 -2.3953 -0.2895
 6645SOL    HW231572   0.552   1.663   3.405 -0.6187  0.5951  0.9332
 6646SOL     OW31573   2.360   2.841  16.053  0.0200  0.5134 -0.3584
 6646SOL    HW131574   2.322   2.780  16.116  0.5488  1.5136  0.9450
 6646SOL    HW231575   2.431   2.786  16.019 -0.1143 -1.2934  2.2717
 6647SOL     OW31576   4.438   2.240   6.713 -0.4338 -0.1787 -0.2350
 6647SOL    HW131577   4.362   2.257   6.658 -0.8230 -0.3309  0.2552
 6647SOL    HW231578   4.399   2.206   6.794  2.4231 -1.0389  0.7729
 6648SOL     OW31579   0.460   4.315   7.327  0.6999  0.3091  0.7132
 6648SOL    HW131580   0.529   4.301   7.392  2.1660 -0.2263 -0.9560
 6648SOL    HW231581   0.479   4.406   7.306 -0.6676  0.7011  1.1821
 6649SOL     OW31582   3.272   2.294  10.177  0.0041  0.2633  0.2136
 6649SOL    HW131583   3.291   2.231  10.247  0.5086  1.6185  1.2797
 6649SOL    HW231584   3.233   2.228  10.119  0.5435  0.7405 -0.6907
 6650SOL     OW31585   2.721   0.143   7.481  0.5181  0.0749  0.1154
 6650SOL    HW131586   2.772   0.107   7.553 -0.4361 -1.3269  0.0917
 6650SOL    HW231587   2.726   0.236   7.501 -0.4046  0.1587 -0.0236
 6651SOL     OW31588   2.722   3.574   7.491  0.0058 -0.0097 -0.2829
 6651SOL    HW131589   2.643   3.520   7.494  0.0552  0.0180  1.3989
 6651SOL    HW231590   2.735   3.580   7.585 -1.3448 -1.7126 -0.0009
 6652SOL     OW31591   0.396   2.758   6.780  0.4435  0.1573  0.3758
 6652SOL    HW131592   0.486   2.777   6.754  1.3100 -2.1868  1.6266
 6652SOL    HW231593   0.408   2.688   6.845  3.3830  2.2401  2.0871
 6653SOL     OW31594   3.239   1.182  10.666 -0.0114 -0.4501 -0.4275
 6653SOL    HW131595   3.152   1.144  10.671  0.2435 -0.7788  1.2779
 6653SOL    HW231596   3.225   1.277  10.670  0.0568 -0.3595 -2.1061
 6654SOL     OW31597   0.545   0.169  10.341  0.1204  0.6539  0.0711
 6654SOL    HW131598   0.621   0.151  10.286  0.0865 -0.2823  0.3291
 6654SOL    HW231599   0.480   0.146  10.274 -3.2934 -0.5881  3.7613
 6655SOL     OW31600   3.373   2.760   0.260 -0.4378 -0.1575 -0.1547
 6655SOL    HW131601   3.384   2.680   0.311 -0.8256 -0.1400 -0.0424
 6655SOL    HW231602   3.347   2.719   0.178 -0.8601 -1.1081  0.4519
 6656SOL     OW31603   1.302   4.350   6.148 -0.1041 -0.1693 -0.3305
 6656SOL    HW131604   1.360   4.425   6.160  0.0236 -0.1755 -0.9297
 6656SOL    HW231605   1.351   4.268   6.150  0.3797  0.1034 -1.0854
 6657SOL     OW31606   4.084   1.662  10.928 -0.6747 -0.0370 -0.2910
 6657SOL    HW131607   4.054   1.706  11.008 -0.1139  1.8314 -1.1259
 6657SOL    HW231608   4.104   1.572  10.955  1.2119  0.6261  0.5248
 6658SOL     OW31609   2.335   4.420   6.069 -0.0917 -0.4629 -0.1626
 6658SOL    HW131610   2.404   4.385   6.013  1.4549  2.0572  0.1428
 6658SOL    HW231611   2.266   4.357   6.051 -1.5219  1.1534 -0.4029
 6659SOL     OW31612   4.069   0.593   5.417 -0.8833 -0.4925 -0.8355
 6659SOL    HW131613   3.982   0.557   5.399 -0.2760 -0.8076 -3.1791
 6659SOL    HW231614   4.032   0.681   5.418  1.7778  0.6137 -0.8089
 6660SOL     OW31615   3.158   1.927  15.328 -0.0531 -0.3204 -0.1690
 6660SOL    HW131616   3.169   1.948  15.235  0.0898 -0.6400 -0.2215
 6660SOL    HW231617   3.199   1.841  15.328  0.5263 -0.0413 -0.3218
 6661SOL     OW31618   1.433   0.939   7.637  0.0393  0.3869  0.4210
 6661SOL    HW131619   1.510   0.978   7.679  0.8847 -0.9336  0.1105
 6661SOL    HW231620   1.377   1.016   7.645 -1.9039 -1.0064  0.2150
 6662SOL     OW31621   3.828   3.002   1.156  0.3905 -0.0673  0.7740
 6662SOL    HW131622   3.813   2.935   1.089  2.6309 -1.1559  1.3408
 6662SOL    HW231623   3.821   2.954   1.239  1.8568 -1.5677  0.0297
 6663SOL     OW31624   1.978   1.857   4.511 -0.2804 -0.8155 -0.1418
 6663SOL    HW131625   1.917   1.929   4.528 -1.0792 -1.4235 -0.4781
 6663SOL    HW231626   1.944   1.820   4.430  0.9559 -0.2569 -0.9158
 6664SOL     OW31627   0.429   0.077   4.235  0.1148 -0.5824 -0.1965
 6664SOL    HW131628   0.341   0.093   4.268  0.3229  0.4666 -0.1636
 6664SOL    HW231629   0.417   0.127   4.154  0.4068  0.8067  0.6208
 6665SOL     OW31630   1.734   0.524   4.794  0.3875 -0.2272  0.3309
 6665SOL    HW131631   1.654   0.498   4.840  0.1329 -0.7473 -0.4073
 6665SOL    HW231632   1.713   0.521   4.701 -1.3873 -0.2805  0.7334
 6666SOL     OW31633   1.710   3.384  17.306  0.1567  0.0765  0.2397
 6666SOL    HW131634   1.655   3.446  17.258 -0.3235 -1.5116 -1.2665
 6666SOL    HW231635   1.788   3.439  17.317 -0.6493  1.7927 -2.8344
 6667SOL     OW31636   3.575   3.679   3.371  0.5136 -0.4332 -0.1601
 6667SOL    HW131637   3.603   3.765   3.403 -0.3400  0.0288 -0.6542
 6667SOL    HW231638   3.660   3.666   3.329  0.4102 -0.1833 -0.4536
 6668SOL     OW31639   3.890   0.113   2.926  0.4467 -0.0011 -0.0341
 6668SOL    HW131640   3.911   0.151   2.841 -0.0941 -1.2900 -0.7392
 6668SOL    HW231641   3.808   0.065   2.916  0.0440  1.2300 -2.4328
 6669SOL     OW31642   0.892   2.929   1.575 -0.1321  0.5035 -0.1456
 6669SOL    HW131643   0.884   2.921   1.671 -0.1426  2.6694  0.0346
 6669SOL    HW231644   0.831   3.000   1.559 -2.4918 -1.5302 -0.1396
 6670SOL     OW31645   1.732   3.078   7.059 -0.0579  0.0018 -0.2129
 6670SOL    HW131646   1.692   3.078   6.972  1.7611 -2.1061 -1.0430
 6670SOL    HW231647   1.804   3.140   7.048  0.3693 -0.0033  2.6343
 6671SOL     OW31648   4.249   3.170  12.263 -0.0441  0.0804 -0.4025
 6671SOL    HW131649   4.217   3.227  12.193 -0.3269  0.5728  0.1260
 6671SOL    HW231650   4.341   3.195  12.261 -0.4087  1.3693 -1.0679
 6672SOL     OW31651   1.900   1.784   1.113  0.6299 -0.0203 -0.1674
 6672SOL    HW131652   1.895   1.699   1.068 -1.1825  0.2319 -0.4347
 6672SOL    HW231653   1.872   1.842   1.041  0.0306 -0.8444 -0.6030
 6673SOL     OW31654   2.997   1.772   9.878 -0.0090  0.4351 -0.3353
 6673SOL    HW131655   3.026   1.797   9.965 -0.4869  2.5435 -0.7770
 6673SOL    HW231656   2.963   1.856   9.846  2.0423  1.2065 -0.4710
 6674SOL     OW31657   3.713   2.099   2.224  0.0922 -0.2070 -0.1729
 6674SOL    HW131658   3.648   2.030   2.207  0.7807 -1.5229  2.5188
 6674SOL    HW231659   3.752   2.060   2.303 -0.1400  0.0441  0.0673
 6675SOL     OW31660   0.833   0.981  11.895  0.2951  0.5591  0.3891
 6675SOL    HW131661   0.902   0.915  11.902 -1.4850 -1.3555  0.0445
 6675SOL    HW231662   0.808   0.992  11.987  1.0291 -0.8172  0.7388
 6676SOL     OW31663   0.378   0.700   2.517  0.3487 -0.2084  0.2462
 6676SOL    HW131664   0.284   0.718   2.527  0.2924 -0.4612  0.1675
 6676SOL    HW231665   0.398   0.703   2.610  1.7866  0.9599 -0.1124
 6677SOL     OW31666   4.395   0.063   6.270  0.1046 -0.1038 -0.3202
 6677SOL    HW131667   4.427   0.016   6.347  3.2796 -2.5947 -3.1309
 6677SOL    HW231668   4.415   0.153   6.295 -0.1047 -0.2973  0.5393
 6678SOL     OW31669   0.039   0.706   6.275  0.7017  0.1961  0.0167
 6678SOL    HW131670   0.097   0.691   6.350 -0.8538  0.2774  1.2512
 6678SOL    HW231671   4.703   0.753   6.318  0.9531  0.8776 -0.3007
 6679SOL     OW31672   2.271   1.207   7.634  0.1776  0.0430  0.1189
 6679SOL    HW131673   2.275   1.303   7.636  0.4007  0.0345  0.0708
 6679SOL    HW231674   2.197   1.202   7.574 -1.2109 -0.5855  1.9144
 6680SOL     OW31675   2.594   1.624  16.133 -0.0952  0.3382 -0.1116
 6680SOL    HW131676   2.655   1.698  16.131 -1.2292  1.2832  0.2642
 6680SOL    HW231677   2.597   1.608  16.039  1.1099 -0.5914  0.0826
 6681SOL     OW31678   2.819   3.080   9.677  0.4237  0.3690 -0.3738
 6681SOL    HW131679   2.798   2.993   9.643 -0.3535  0.4337 -0.0620
 6681SOL    HW231680   2.849   3.058   9.766  2.2306  2.5041 -0.4565
 6682SOL     OW31681   0.405   3.687   4.707 -0.3695  0.0237  0.3042
 6682SOL    HW131682   0.329   3.739   4.733  0.2108  1.8924 -1.7046
 6682SOL    HW231683   0.463   3.696   4.783 -0.4539  0.0191  0.3680
 6683SOL     OW31684   4.081   4.673   3.596  0.0273  0.9463  0.0261
 6683SOL    HW131685   4.133   4.594   3.608 -0.8919  0.1229 -1.4256
 6683SOL    HW231686   4.030   4.689   3.675 -1.5375 -3.1669 -0.1450
 6684SOL     OW31687   2.230   0.120   6.864  0.2356  0.4869  0.0070
 6684SOL    HW131688   2.217   0.184   6.794 -1.2771  1.2044  0.9376
 6684SOL    HW231689   2.257   0.178   6.934  0.6006  1.1350 -0.6692
 6685SOL     OW31690   2.872   3.701   5.163  0.1895 -0.6070 -0.5490
 6685SOL    HW131691   2.902   3.749   5.086  2.3712 -0.5376  0.3547
 6685SOL    HW231692   2.955   3.655   5.176  1.1407  0.7095 -1.9122
 6686SOL     OW31693   3.165   4.187  12.403 -0.1609 -0.0207 -0.3610
 6686SOL    HW131694   3.229   4.258  12.402  1.2301 -1.2834 -3.3636
 6686SOL    HW231695   3.219   4.134  12.461  0.3369  0.5853 -0.2773
 6687SOL     OW31696   0.562   4.020   5.677  0.1572  0.0855  0.2385
 6687SOL    HW131697   0.491   4.080   5.697 -1.2498 -1.7652  0.7116
 6687SOL    HW231698   0.542   3.945   5.732 -0.6151 -0.1621 -0.3874
 6688SOL     OW31699   2.754   0.611   1.174  0.1200  0.4507  0.5799
 6688SOL    HW131700   2.804   0.530   1.186 -0.7211  0.0906  1.6512
 6688SOL    HW231701   2.707   0.588   1.093  0.6467  0.5677  0.2395
 6689SOL     OW31702   0.549   4.475  11.669 -0.1434  0.0851  0.3178
 6689SOL    HW131703   0.546   4.544  11.736 -2.0153  0.6282 -0.3190
 6689SOL    HW231704   0.524   4.526  11.592 -1.7733 -1.1595  0.0347
 6690SOL     OW31705   1.409   1.561   9.518 -0.2099  0.0305  0.0488
 6690SOL    HW131706   1.460   1.637   9.491  0.5003 -0.5932 -0.3745
 6690SOL    HW231707   1.409   1.571   9.613 -2.4393 -2.7568  0.3425
 6691SOL     OW31708   3.096   0.914   0.744  0.1604  0.2920 -0.0471
 6691SOL    HW131709   3.066   0.841   0.690  0.3947  1.6961 -2.0544
 6691SOL    HW231710   3.008   0.943   0.765  0.5712  1.7522 -0.3302
 6692SOL     OW31711   3.552   4.054   6.595 -0.2808  0.3465 -0.3814
 6692SOL    HW131712   3.577   4.137   6.636 -2.8406 -0.3380  2.5532
 6692SOL    HW231713   3.557   3.997   6.672  0.0668  1.3985  0.3737
 6693SOL     OW31714   3.044   1.257  16.190  0.0419  0.1062 -0.1964
 6693SOL    HW131715   3.003   1.173  16.169 -2.6896  0.7760  2.4335
 6693SOL    HW231716   3.061   1.294  16.103 -0.6856  2.2820  0.5691
 6694SOL     OW31717   1.265   3.732   3.802  0.1812  0.2531 -0.4623
 6694SOL    HW131718   1.257   3.741   3.707 -1.3493  0.7626 -0.2911
 6694SOL    HW231719   1.174   3.753   3.825  0.3566 -0.6304  1.0770
 6695SOL     OW31720   2.311   3.482  16.385 -0.1829  0.1283 -0.2745
 6695SOL    HW131721   2.404   3.476  16.364 -0.5863  0.7651 -2.2701
 6695SOL    HW231722   2.272   3.397  16.364  0.6768 -0.4801  0.6091
 6696SOL     OW31723   4.450   0.185   3.380  0.7140  0.2738  0.0169
 6696SOL    HW131724   4.410   0.265   3.414 -1.6097 -0.7647 -0.3141
 6696SOL    HW231725   4.446   0.143   3.466 -0.5460  1.4468  0.5268
 6697SOL     OW31726   4.069   2.646   8.660  0.6179 -0.3007  0.5613
 6697SOL    HW131727   4.094   2.622   8.749 -0.5771  0.3466  1.0716
 6697SOL    HW231728   4.032   2.731   8.683 -1.1077 -1.1091  0.7961
 6698SOL     OW31729   0.896   3.260   8.376  0.0726 -0.2080  0.4749
 6698SOL    HW131730   0.879   3.260   8.281 -2.6175  1.3559  0.9788
 6698SOL    HW231731   0.958   3.332   8.384  1.2072 -0.8963 -1.9515
 6699SOL     OW31732   4.532   4.365  12.485 -0.4771  0.2355 -0.0228
 6699SOL    HW131733   4.505   4.340  12.397 -0.7479  1.1413 -0.1952
 6699SOL    HW231734   4.613   4.413  12.467 -1.3170  0.3599 -3.4668
 6700SOL     OW31735   4.593   4.601   4.018  0.3573 -0.0599  0.4989
 6700SOL    HW131736   4.537   4.524   4.024 -1.6353  1.3162 -0.4196
 6700SOL    HW231737   4.671   4.568   3.974  1.2837  0.2455  1.9014
 6701SOL     OW31738   1.940   2.424   1.409 -0.7194  0.6155 -0.2398
 6701SOL    HW131739   1.856   2.438   1.365 -0.6407 -0.8975 -0.8622
 6701SOL    HW231740   1.909   2.425   1.500  2.3994 -0.4572  0.8288
 6702SOL     OW31741   3.851   2.837  15.189 -0.4829 -0.0525 -0.4189
 6702SOL    HW131742   3.828   2.817  15.098  1.6314  0.8515 -1.1384
 6702SOL    HW231743   3.768   2.860  15.231 -0.6664 -0.5893 -0.4927
 6703SOL     OW31744   3.339   3.347   4.077  0.5979  0.2341 -0.0959
 6703SOL    HW131745   3.325   3.415   4.011  1.1558  0.1607 -0.2844
 6703SOL    HW231746   3.419   3.369   4.125  0.5101  0.3208  0.0131
 6704SOL     OW31747   0.860   2.382   7.629  0.0631  0.5415  0.6349
 6704SOL    HW131748   0.876   2.448   7.697 -0.2373 -0.2937  1.5071
 6704SOL    HW231749   0.778   2.354   7.668  0.7759 -2.4460 -0.0708
 6705SOL     OW31750   1.780   4.481   2.014 -0.2809  0.8814 -0.5505
 6705SOL    HW131751   1.796   4.480   2.109 -0.8378  2.5721 -0.4194
 6705SOL    HW231752   1.719   4.554   2.002 -0.4616  0.6977 -0.7214
 6706SOL     OW31753   4.387   0.969   0.750  0.0668  0.2230 -0.1026
 6706SOL    HW131754   4.361   0.884   0.785  0.9181 -0.4138 -1.0522
 6706SOL    HW231755   4.344   0.966   0.665  0.6335 -1.0203 -0.3385
 6707SOL     OW31756   4.454   2.818   3.939  0.6452 -0.3102  0.2589
 6707SOL    HW131757   4.488   2.904   3.963 -2.9703  1.3209 -0.5173
 6707SOL    HW231758   4.376   2.850   3.894 -1.2068 -4.0920  0.7513
 6708SOL     OW31759   0.360   3.455  16.183 -0.0813 -0.2584  0.0906
 6708SOL    HW131760   0.364   3.361  16.197  4.0116 -0.1654 -0.5318
 6708SOL    HW231761   0.264   3.461  16.174 -0.0009 -0.0618 -0.6409
 6709SOL     OW31762   2.182   3.415  17.604 -0.2381  0.4170  0.9362
 6709SOL    HW131763   2.119   3.429  17.533  0.9241  1.9993  0.2332
 6709SOL    HW231764   2.140   3.452  17.681 -1.8361 -1.8850  1.1909
 6710SOL     OW31765   2.085   4.335   3.367 -0.3120 -0.3287 -0.1645
 6710SOL    HW131766   2.099   4.250   3.410  0.6556 -0.3348 -0.4852
 6710SOL    HW231767   1.994   4.331   3.337 -0.4423 -1.8872  0.4235
 6711SOL     OW31768   2.584   0.860  17.231  0.4344 -0.3905  0.4798
 6711SOL    HW131769   2.543   0.838  17.315  0.9562 -0.6255  0.6746
 6711SOL    HW231770   2.572   0.954  17.222 -3.2289 -1.0226 -1.3982
 6712SOL     OW31771   2.411   2.682   8.694 -0.3484 -0.1216 -0.2610
 6712SOL    HW131772   2.448   2.723   8.772  0.0035  0.1545 -0.5715
 6712SOL    HW231773   2.415   2.751   8.628  0.1711 -0.7203 -0.8491
 6713SOL     OW31774   0.201   0.041   0.297 -0.3935 -0.1759 -0.5649
 6713SOL    HW131775   0.121   0.085   0.269 -0.8961 -0.8617 -0.2046
 6713SOL    HW231776   0.248   0.113   0.338  2.3836 -1.5395 -1.3422
 6714SOL     OW31777   1.177   3.624   8.173  0.2238  0.7009 -0.6293
 6714SOL    HW131778   1.230   3.550   8.143 -1.4081 -1.0669  0.8254
 6714SOL    HW231779   1.205   3.623   8.265  0.5151  1.0980 -0.7155
 6715SOL     OW31780   1.521   3.598   8.844  0.1542  0.5615  0.7285
 6715SOL    HW131781   1.601   3.638   8.811  2.0327 -1.5623  2.7016
 6715SOL    HW231782   1.491   3.672   8.896  1.0786  1.0595  0.5533
 6716SOL     OW31783   2.120   2.408   7.593  0.0844 -0.2861 -0.1179
 6716SOL    HW131784   2.038   2.359   7.585  0.4899 -1.1004  0.6700
 6716SOL    HW231785   2.184   2.337   7.601  1.2656  0.8535  0.7875
 6717SOL     OW31786   0.113   4.116   0.425 -0.0984  0.5025 -0.2591
 6717SOL    HW131787   0.208   4.115   0.441  0.1045  0.3017 -1.4619
 6717SOL    HW231788   0.109   4.082   0.336  2.0166 -0.4841  0.0206
 6718SOL     OW31789   4.393   1.407   2.316  0.0351  0.4046  0.3285
 6718SOL    HW131790   4.422   1.376   2.230  1.3850  0.9010  0.6108
 6718SOL    HW231791   4.469   1.397   2.373 -1.1296  0.5730  1.9014
 6719SOL     OW31792   2.070   3.332  13.103  0.3613  0.4146  0.2489
 6719SOL    HW131793   2.149   3.284  13.078  0.4084  0.6614 -0.0788
 6719SOL    HW231794   2.070   3.299  13.193  0.1661 -2.4688 -0.8179
 6720SOL     OW31795   0.365   3.052   6.240  0.1249  0.1337  0.1763
 6720SOL    HW131796   0.309   3.121   6.273  1.6423  1.2212  0.4729
 6720SOL    HW231797   0.415   3.040   6.320 -2.7554 -1.4245  1.7346
 6721SOL     OW31798   2.718   3.865  14.356 -0.0003 -0.0636  0.0327
 6721SOL    HW131799   2.799   3.869  14.407 -0.6440  1.0933  0.9875
 6721SOL    HW231800   2.744   3.908  14.274  0.0554 -0.4729 -0.1631
 6722SOL     OW31801   1.748   3.964   6.460  0.0793 -0.6912 -0.1492
 6722SOL    HW131802   1.771   4.056   6.475 -0.5249 -0.9833  2.4499
 6722SOL    HW231803   1.692   3.978   6.383 -1.5225  0.4295  1.2333
 6723SOL     OW31804   3.764   3.546   1.512  0.4187 -0.0105 -0.3974
 6723SOL    HW131805   3.854   3.577   1.524  0.0559 -0.7452  4.3884
 6723SOL    HW231806   3.707   3.619   1.534  1.4757  0.1715  1.7613
 6724SOL     OW31807   2.168   0.659   3.527 -0.0694 -0.0812 -0.0598
 6724SOL    HW131808   2.178   0.752   3.507  0.4694  0.0677  0.9255
 6724SOL    HW231809   2.075   0.640   3.532 -0.2811  1.7731  2.8305
 6725SOL     OW31810   1.380   0.438   6.303 -0.0091 -0.0760 -0.2780
 6725SOL    HW131811   1.351   0.482   6.223 -0.2821 -2.2377 -1.3758
 6725SOL    HW231812   1.470   0.418   6.279 -0.4570  0.5212 -2.4367
 6726SOL     OW31813   0.559   0.119  15.652 -0.4052 -0.8354 -0.2249
 6726SOL    HW131814   0.637   0.161  15.687  2.2608 -2.8080 -3.7645
 6726SOL    HW231815   0.573   0.033  15.692  3.4908  0.1150  0.4405
 6727SOL     OW31816   0.739   1.343   1.397 -0.1984  0.0053 -0.6035
 6727SOL    HW131817   0.804   1.312   1.459 -3.2774 -0.1179  2.5514
 6727SOL    HW231818   0.712   1.417   1.452 -3.5234 -2.2111  0.7552
 6728SOL     OW31819   4.346   0.888   5.387  0.8200  0.1555 -0.0300
 6728SOL    HW131820   4.388   0.856   5.467  0.5240 -0.0013  0.0659
 6728SOL    HW231821   4.414   0.949   5.359  0.3194  1.1081  0.8262
 6729SOL     OW31822   1.583   0.800   3.557 -0.1108  0.2486  0.7004
 6729SOL    HW131823   1.606   0.715   3.595 -0.7288 -0.0487  0.4030
 6729SOL    HW231824   1.493   0.799   3.589 -0.4956  1.4614 -0.3680
 6730SOL     OW31825   4.425   0.533   5.893 -0.5284 -0.1456 -0.3810
 6730SOL    HW131826   4.458   0.452   5.854  2.7689  0.6865  0.7020
 6730SOL    HW231827   4.499   0.550   5.951 -0.2229 -2.1196 -0.1993
 6731SOL     OW31828   1.081   4.503  17.369 -0.3356  0.0775 -0.4507
 6731SOL    HW131829   1.021   4.573  17.344 -0.2257  0.7303  1.0672
 6731SOL    HW231830   1.109   4.478  17.281 -0.5273 -0.6035 -0.3188
 6732SOL     OW31831   2.824   0.374   4.936  0.3517 -0.3960 -0.0784
 6732SOL    HW131832   2.824   0.283   4.966 -2.1550  0.4066  2.3840
 6732SOL    HW231833   2.908   0.380   4.891  0.6680 -0.0389  0.5602
 6733SOL     OW31834   0.772   2.157   5.740  0.6329 -0.4445  0.3574
 6733SOL    HW131835   0.790   2.225   5.804  0.8810  0.0906 -0.2839
 6733SOL    HW231836   0.833   2.186   5.672 -1.0665  0.1847 -0.9235
 6734SOL     OW31837   2.607   3.154   3.914 -0.0603  0.2662  0.6197
 6734SOL    HW131838   2.673   3.223   3.920 -1.4199  1.6135  0.0202
 6734SOL    HW231839   2.652   3.081   3.869 -3.1389 -1.0652 -0.2838
 6735SOL     OW31840   1.426   3.686   6.853  0.3863  0.1895  0.8004
 6735SOL    HW131841   1.357   3.701   6.918  0.3708 -1.2125  1.1148
 6735SOL    HW231842   1.464   3.608   6.895  1.3320 -0.0854 -0.5644
 6736SOL     OW31843   0.197   2.003   6.532 -0.4638 -0.0572 -0.0843
 6736SOL    HW131844   0.177   1.940   6.601 -0.4761  0.3169  0.2556
 6736SOL    HW231845   0.110   2.042   6.522  0.6812  1.8634 -2.4376
 6737SOL     OW31846   1.156   1.686  14.065 -0.2505 -0.9419 -0.1831
 6737SOL    HW131847   1.223   1.634  14.110 -1.8584 -2.1840  0.7751
 6737SOL    HW231848   1.155   1.635  13.984 -0.0215  0.4947 -1.0971
 6738SOL     OW31849   3.856   2.605   8.892 -0.4066 -0.1327 -0.1822
 6738SOL    HW131850   3.825   2.695   8.903 -0.2376 -0.2677  1.5195
 6738SOL    HW231851   3.948   2.620   8.873 -0.6440 -0.5993 -1.6883
 6739SOL     OW31852   3.574   4.570   5.354 -0.0575 -0.8800 -0.0900
 6739SOL    HW131853   3.636   4.510   5.311  1.2617  0.3119  0.1250
 6739SOL    HW231854   3.490   4.525   5.345 -0.4025 -0.2433 -0.0452
 6740SOL     OW31855   1.260   3.369  16.956  0.2101  0.3672 -0.2625
 6740SOL    HW131856   1.223   3.375  16.868  0.1442 -4.2282 -0.5445
 6740SOL    HW231857   1.202   3.421  17.012  1.3949 -1.4984  2.6934
 6741SOL     OW31858   2.823   1.709   5.202  0.2128 -0.8708 -0.4451
 6741SOL    HW131859   2.765   1.699   5.277  1.2592 -3.6125  0.0219
 6741SOL    HW231860   2.877   1.782   5.231 -0.5992  0.1492 -1.5303
 6742SOL     OW31861   1.495   0.218  15.434 -0.1969  0.1137  0.4506
 6742SOL    HW131862   1.537   0.225  15.348 -0.7091  0.8408  0.2525
 6742SOL    HW231863   1.411   0.183  15.405  0.4231 -1.0553  0.0581
 6743SOL     OW31864   4.668   2.323  12.886  0.1459  0.3422 -0.4228
 6743SOL    HW131865   0.008   2.376  12.908  1.5593 -1.4308 -1.0756
 6743SOL    HW231866   4.678   2.257  12.955 -1.0168  0.0868 -0.4944
 6744SOL     OW31867   2.403   0.796   4.946  0.4485  0.1098  0.0998
 6744SOL    HW131868   2.372   0.808   4.856 -0.5115 -0.1307  0.3907
 6744SOL    HW231869   2.366   0.873   4.990 -3.9603 -0.5987 -2.3440
 6745SOL     OW31870   4.048   4.070   5.269 -0.0382 -0.4894  0.0670
 6745SOL    HW131871   3.999   4.149   5.250  1.4618  0.8315  1.6395
 6745SOL    HW231872   3.992   4.003   5.231 -1.2005 -0.4306  1.6991
 6746SOL     OW31873   1.744   4.407  16.029  0.4047  0.1559  0.5154
 6746SOL    HW131874   1.809   4.372  15.969  0.1502  1.8213 -0.7065
 6746SOL    HW231875   1.666   4.361  15.997  0.7226  0.5824 -0.8381
 6747SOL     OW31876   2.448   1.159   4.131 -0.4133  0.4594 -0.0607
 6747SOL    HW131877   2.483   1.186   4.046  2.5438  1.1022  1.3521
 6747SOL    HW231878   2.445   1.063   4.123 -0.1327  0.2899  1.9846
 6748SOL     OW31879   2.977   3.090   4.712 -0.0490 -0.3922 -0.2113
 6748SOL    HW131880   2.966   3.057   4.623  0.7005 -0.1407 -0.3994
 6748SOL    HW231881   2.957   3.183   4.704 -0.7553 -0.2836  2.7981
 6749SOL     OW31882   2.434   4.186   7.210 -0.1507  0.4213  0.0201
 6749SOL    HW131883   2.463   4.142   7.130 -0.6439  0.5269 -0.2187
 6749SOL    HW231884   2.421   4.118   7.276  1.7392 -1.6256 -1.7097
 6750SOL     OW31885   2.571   0.489   8.212 -0.0801 -0.5015 -0.5618
 6750SOL    HW131886   2.513   0.558   8.244 -1.2895 -1.1784 -1.2584
 6750SOL    HW231887   2.515   0.448   8.145 -1.4372  0.4430  0.0051
 6751SOL     OW31888   3.230   0.333  14.614 -0.4806  0.2178  0.7646
 6751SOL    HW131889   3.214   0.260  14.554  2.0561  1.1830 -1.0757
 6751SOL    HW231890   3.158   0.315  14.674 -0.5661 -2.1442 -0.0428
 6752SOL     OW31891   3.795   2.180   9.744  0.3822 -0.3488 -0.0879
 6752SOL    HW131892   3.809   2.101   9.796 -0.1283 -1.0047 -0.9427
 6752SOL    HW231893   3.744   2.238   9.801 -1.6436 -0.8460 -1.3530
 6753SOL     OW31894   1.359   0.456   3.015 -0.2531 -0.0629  0.3331
 6753SOL    HW131895   1.448   0.457   2.979 -0.8639  1.2995 -1.1340
 6753SOL    HW231896   1.362   0.370   3.057 -2.2106  0.5340  1.6979
 6754SOL     OW31897   0.465   1.882   5.140  0.2480  0.1859 -0.4158
 6754SOL    HW131898   0.480   1.794   5.173 -1.2724 -0.0524 -0.3805
 6754SOL    HW231899   0.412   1.919   5.211  1.3589 -1.7396  1.4096
 6755SOL     OW31900   1.582   4.014   2.990  0.5431  0.5101  0.5349
 6755SOL    HW131901   1.649   4.048   2.932 -0.4621  2.2296  0.3775
 6755SOL    HW231902   1.616   4.043   3.074  0.4630  0.9789  0.4050
 6756SOL     OW31903   0.366   4.308  12.255  0.2773 -0.2716  0.3093
 6756SOL    HW131904   0.273   4.327  12.264 -0.2920 -2.4569 -1.0260
 6756SOL    HW231905   0.379   4.339  12.344  2.2527 -0.1252 -0.0382
 6757SOL     OW31906   2.019   4.416   9.616  0.1037 -0.0309  0.7974
 6757SOL    HW131907   1.992   4.327   9.636 -1.1994  0.7465  2.5468
 6757SOL    HW231908   2.059   4.430   9.702  3.2262 -0.5906 -0.5787
 6758SOL     OW31909   3.938   4.594   5.474  0.0696 -0.5429  0.3568
 6758SOL    HW131910   3.880   4.518   5.475  1.4909 -1.5964  1.4348
 6758SOL    HW231911   4.026   4.559   5.458  0.1869 -0.5221  0.9647
 6759SOL     OW31912   1.797   4.244   1.631  0.0113 -0.0682 -0.1166
 6759SOL    HW131913   1.715   4.293   1.643 -0.0847 -0.0721 -0.7118
 6759SOL    HW231914   1.789   4.184   1.705  0.8261 -2.1888 -1.7568
 6760SOL     OW31915   0.924   1.350   4.529  0.3054  0.4538  0.0036
 6760SOL    HW131916   0.856   1.416   4.542 -1.0110 -0.6746 -1.0985
 6760SOL    HW231917   0.975   1.395   4.462 -0.4759 -0.2057 -1.0409
 6761SOL     OW31918   2.575   2.820   5.763  0.3193 -0.0238 -0.0286
 6761SOL    HW131919   2.576   2.791   5.671 -1.0346  0.7325 -0.2883
 6761SOL    HW231920   2.491   2.780   5.786  0.3912  0.5929  1.2451
 6762SOL     OW31921   4.047   0.086  17.585 -0.1894  0.3448 -0.9597
 6762SOL    HW131922   3.954   0.085  17.609  0.2770  0.8863  0.8385
 6762SOL    HW231923   4.070   0.177  17.603  0.6118 -0.2668  1.0790
 6763SOL     OW31924   3.452   1.137  15.378  0.2754  0.4954 -0.1335
 6763SOL    HW131925   3.358   1.120  15.385  0.1840  0.8342 -0.5571
 6763SOL    HW231926   3.468   1.103  15.290  1.1997 -2.0677  1.0160
 6764SOL     OW31927   3.134   3.125   5.567 -0.2336 -0.5287 -0.2296
 6764SOL    HW131928   3.150   3.079   5.649 -1.2034 -2.5959 -1.2065
 6764SOL    HW231929   3.164   3.213   5.590 -3.0982 -0.3898  2.9212
 6765SOL     OW31930   0.081   2.567   6.240  0.0428 -0.3906 -0.1886
 6765SOL    HW131931   0.154   2.507   6.257 -2.1264 -2.7861  0.6904
 6765SOL    HW231932   0.139   2.641   6.225 -0.5624  0.0204 -0.5049
 6766SOL     OW31933   3.582   2.086   4.643 -0.3170  0.1381  0.5876
 6766SOL    HW131934   3.622   2.099   4.557  0.1839 -2.4796  0.4309
 6766SOL    HW231935   3.577   2.173   4.682  1.0617  0.3666  0.2329
 6767SOL     OW31936   0.461   3.162   7.148 -0.1115  0.8483  0.8053
 6767SOL    HW131937   0.434   3.071   7.142 -3.3288  2.0579 -3.4011
 6767SOL    HW231938   0.495   3.174   7.059 -0.1245  0.4081  0.7426
 6768SOL     OW31939   4.110   0.610   0.547  0.2223 -0.3352 -0.0943
 6768SOL    HW131940   4.046   0.568   0.489 -1.1347  0.3570  0.9098
 6768SOL    HW231941   4.068   0.692   0.570  1.6025  0.4495 -0.3851
 6769SOL     OW31942   4.305   3.585  16.007 -0.5632 -0.3722 -0.4512
 6769SOL    HW131943   4.254   3.505  16.017  0.9847 -1.0931  1.5389
 6769SOL    HW231944   4.287   3.597  15.913 -0.3411  0.3303 -0.4024
 6770SOL     OW31945   0.650   2.835   6.750 -0.0078  0.1350 -0.1608
 6770SOL    HW131946   0.636   2.890   6.827 -3.6841 -0.3282 -0.4671
 6770SOL    HW231947   0.697   2.897   6.696  0.6354 -0.1809  0.0425
 6771SOL     OW31948   4.464   4.390   0.263 -0.3632 -0.4386  0.1117
 6771SOL    HW131949   4.525   4.367   0.194 -0.1047  1.9512 -0.4446
 6771SOL    HW231950   4.385   4.379   0.210  0.0967 -0.3499 -0.5884
 6772SOL     OW31951   0.724   2.477   8.376  0.2972 -0.0964  0.1134
 6772SOL    HW131952   0.658   2.503   8.440 -1.8657 -0.4832 -1.9934
 6772SOL    HW231953   0.697   2.388   8.352 -1.3173  0.0610  1.3510
 6773SOL     OW31954   1.932   4.551   4.482  0.6497  0.3613 -0.6401
 6773SOL    HW131955   2.021   4.537   4.514  0.7616  0.3929 -0.9411
 6773SOL    HW231956   1.885   4.520   4.560 -1.4991 -0.1104 -2.1322
 6774SOL     OW31957   3.089   4.654  10.037 -0.2234 -0.3562  0.8057
 6774SOL    HW131958   3.004   4.659  10.081 -2.1295 -0.2909 -2.8488
 6774SOL    HW231959   3.131   4.617  10.115  0.9638  0.2315  0.4414
 6775SOL     OW31960   0.763   3.509   4.302  0.3971 -0.4984  0.6624
 6775SOL    HW131961   0.831   3.559   4.258 -0.6990  0.4226  0.0289
 6775SOL    HW231962   0.679   3.551   4.282 -1.2566 -3.7484  0.8025
 6776SOL     OW31963   1.973   4.724  16.582 -0.0841 -0.4004  0.2064
 6776SOL    HW131964   1.976   4.632  16.609 -1.6735 -0.3130  0.6940
 6776SOL    HW231965   2.024   0.026  16.653 -1.0366  1.0129  0.1164
 6777SOL     OW31966   3.916   4.075  14.716 -0.0016  0.1696 -0.2109
 6777SOL    HW131967   3.889   4.128  14.792 -0.5932 -1.1353  0.4863
 6777SOL    HW231968   3.971   4.011  14.761  0.3759  1.7869  1.6323
 6778SOL     OW31969   1.680   1.167   4.898 -0.6531 -0.4681 -0.0749
 6778SOL    HW131970   1.623   1.243   4.912  0.4003  0.0716  1.2130
 6778SOL    HW231971   1.766   1.206   4.879 -0.2465 -1.7286 -0.7803
 6779SOL     OW31972   2.470   4.062  14.709  0.6939  0.2983 -0.4122
 6779SOL    HW131973   2.415   3.985  14.724  1.6656  0.3205  3.4479
 6779SOL    HW231974   2.456   4.079  14.616  0.5451  0.5832 -0.3359
 6780SOL     OW31975   3.909   3.130   6.338 -0.3342  0.3872 -0.0018
 6780SOL    HW131976   3.925   3.123   6.432 -0.0256 -1.7336 -0.1935
 6780SOL    HW231977   3.968   3.061   6.305  0.7255  1.4298 -0.2798
 6781SOL     OW31978   1.337   2.955   5.958  0.7189 -0.6034 -0.1139
 6781SOL    HW131979   1.266   2.995   5.907  1.4763  0.4857 -0.2998
 6781SOL    HW231980   1.349   2.875   5.907 -1.1042 -0.8837 -0.1042
 6782SOL     OW31981   2.607   1.611   7.625 -0.2220  0.2780  0.0544
 6782SOL    HW131982   2.689   1.565   7.640 -1.2643 -1.3703  0.6464
 6782SOL    HW231983   2.611   1.668   7.702  0.8134 -1.5410  1.3481
 6783SOL     OW31984   0.147   1.043   8.698 -0.0841  0.4413 -0.3074
 6783SOL    HW131985   0.164   0.981   8.770  1.3422  2.4207  1.0673
 6783SOL    HW231986   0.057   1.022   8.674 -0.2068  0.3003  0.2562
 6784SOL     OW31987   3.154   1.383  12.424  0.3186  0.3225 -0.0318
 6784SOL    HW131988   3.155   1.311  12.487 -0.7637  1.5989  1.4563
 6784SOL    HW231989   3.233   1.430  12.451 -0.5184  2.0838 -0.6030
 6785SOL     OW31990   3.337   2.156   3.606 -0.1235 -0.3853 -0.0955
 6785SOL    HW131991   3.395   2.171   3.531 -0.0758 -2.9683 -0.5594
 6785SOL    HW231992   3.317   2.247   3.630  0.9340 -0.4142  0.9236
 6786SOL     OW31993   2.390   0.160   2.165 -0.3324  0.4897 -0.3937
 6786SOL    HW131994   2.337   0.231   2.201  1.0824  0.0246  2.5236
 6786SOL    HW231995   2.318   0.098   2.156  0.7249 -0.7082 -0.5499
 6787SOL     OW31996   4.527   1.360   0.643  0.5819  0.1548 -0.4596
 6787SOL    HW131997   4.431   1.365   0.640  0.6038  0.8512 -0.0899
 6787SOL    HW231998   4.543   1.421   0.571 -2.2212 -0.8699 -1.9498
 6788SOL     OW31999   4.430   0.051  15.055 -0.3702  0.6050 -0.2538
 6788SOL    HW132000   4.525   0.052  15.066 -0.4790  0.9872  0.7070
 6788SOL    HW232001   4.401   0.008  15.136  3.1335 -0.2419  0.5553
 6789SOL     OW32002   1.273   0.538   6.067 -0.0134 -0.4234 -0.6469
 6789SOL    HW132003   1.180   0.540   6.043 -0.4710 -0.8159  1.0687
 6789SOL    HW232004   1.316   0.564   5.986  2.0011 -0.0878  0.5273
 6790SOL     OW32005   3.296   1.464   5.307  0.2504  0.1571  0.7909
 6790SOL    HW132006   3.350   1.517   5.366  1.4986 -2.0721  1.6442
 6790SOL    HW232007   3.352   1.389   5.290  0.7207  0.7660 -0.3467
 6791SOL     OW32008   0.177   0.441   1.762 -0.1005  0.0136 -0.4587
 6791SOL    HW132009   0.204   0.360   1.806  1.4425  0.8318  0.0964
 6791SOL    HW232010   0.249   0.493   1.798 -0.8066  0.1851  0.7019
 6792SOL     OW32011   1.835   1.484   5.844  0.6604  0.2030  0.2238
 6792SOL    HW132012   1.774   1.412   5.829 -0.0751  0.8449  0.1396
 6792SOL    HW232013   1.789   1.539   5.907 -1.8244  0.6312 -1.9268
 6793SOL     OW32014   4.127   1.397   9.186 -0.0308  0.3075  0.6467
 6793SOL    HW132015   4.095   1.309   9.204 -0.1800 -0.2296 -2.2450
 6793SOL    HW232016   4.166   1.368   9.104 -1.0930  0.2540  0.1584
 6794SOL     OW32017   1.796   1.121  12.105 -0.0185  0.0718 -0.0538
 6794SOL    HW132018   1.848   1.056  12.059 -1.3184 -1.1843  0.2619
 6794SOL    HW232019   1.840   1.200  12.074 -1.0780  1.2142  1.3307
 6795SOL     OW32020   4.439   4.258   5.295  0.2624  0.7290 -0.1335
 6795SOL    HW132021   4.439   4.263   5.391  1.2530  0.7232 -0.1364
 6795SOL    HW232022   4.453   4.351   5.277  2.4483  0.3062 -0.5738
 6796SOL     OW32023   0.852   3.152   2.649  0.2859  0.4303  0.4762
 6796SOL    HW132024   0.808   3.076   2.688  1.2350 -0.6768 -0.6121
 6796SOL    HW232025   0.890   3.196   2.725  0.6116  1.2706 -0.1742
 6797SOL     OW32026   3.660   2.734   7.216 -0.8112  0.0577  0.2009
 6797SOL    HW132027   3.626   2.645   7.232  0.0905  0.0263  1.8117
 6797SOL    HW232028   3.698   2.772   7.294 -2.1020  0.5794  0.5802
 6798SOL     OW32029   1.992   3.648  11.127 -0.4042 -0.0960  0.0221
 6798SOL    HW132030   2.049   3.725  11.131 -0.7389  0.1741 -0.4469
 6798SOL    HW232031   1.922   3.678  11.069 -0.3198 -0.4273 -0.2507
 6799SOL     OW32032   4.737   4.699   1.972 -0.4053 -0.0001 -0.0349
 6799SOL    HW132033   0.079   4.647   1.958 -0.5681 -0.9048  2.3338
 6799SOL    HW232034   4.722   4.722   1.880 -1.0302 -0.5324 -0.0668
 6800SOL     OW32035   1.811   2.518   2.602  0.7672 -0.3277 -0.5676
 6800SOL    HW132036   1.842   2.596   2.649  0.2355 -0.9953  0.8708
 6800SOL    HW232037   1.802   2.458   2.675 -0.1401  2.5860  1.7215
 6801SOL     OW32038   0.660   1.600   4.729  0.1015 -0.7612 -0.3162
 6801SOL    HW132039   0.706   1.647   4.660 -1.2187  0.3217 -0.4599
 6801SOL    HW232040   0.648   1.662   4.801  0.3950 -2.6604  1.3801
 6802SOL     OW32041   4.301   4.052   4.242  0.5244  0.2057  0.2650
 6802SOL    HW132042   4.365   4.104   4.291  1.7478 -1.5990  0.5601
 6802SOL    HW232043   4.264   4.121   4.187  0.9290 -0.9416 -1.4215
 6803SOL     OW32044   2.062   3.053   6.829 -0.1550  0.4591  0.1099
 6803SOL    HW132045   2.113   2.986   6.873  2.1304  1.7004 -0.6315
 6803SOL    HW232046   2.059   3.131   6.885 -2.3720  1.0362 -0.7825
 6804SOL     OW32047   4.243   4.471   0.466 -0.3500  0.7594 -0.0323
 6804SOL    HW132048   4.318   4.472   0.406 -1.2132  1.5134 -1.0891
 6804SOL    HW232049   4.264   4.413   0.540  0.5593  0.3073 -0.6506
 6805SOL     OW32050   1.174   0.155  11.125  0.2787 -0.2506  0.5992
 6805SOL    HW132051   1.147   0.247  11.132 -0.8604 -0.4957 -0.7030
 6805SOL    HW232052   1.250   0.138  11.180  0.8688  0.5244  0.0193
 6806SOL     OW32053   4.237   4.244   3.298  0.1148  0.4746 -0.5900
 6806SOL    HW132054   4.304   4.260   3.231 -0.7993 -1.1456 -1.8647
 6806SOL    HW232055   4.244   4.149   3.305  0.4885  0.3894 -2.2178
 6807SOL     OW32056   2.745   0.303  11.588  0.1592 -0.3304  0.0881
 6807SOL    HW132057   2.755   0.298  11.493 -1.5480  2.5458 -0.2475
 6807SOL    HW232058   2.837   0.286  11.608 -0.1392  0.2986  1.9564
 6808SOL     OW32059   2.755   2.820   3.080  0.0009  0.1924  0.3921
 6808SOL    HW132060   2.684   2.838   3.142 -0.8653  0.3204 -0.6573
 6808SOL    HW232061   2.708   2.829   2.998 -1.0853 -1.4578  0.8304
 6809SOL     OW32062   1.221   2.097   3.523  0.4721 -0.0969  0.3308
 6809SOL    HW132063   1.206   2.106   3.618 -1.0931  1.1366 -0.0192
 6809SOL    HW232064   1.141   2.126   3.479  0.9824 -1.6901 -1.6087
 6810SOL     OW32065   2.687   1.157   4.754 -0.3307  0.1475  0.2379
 6810SOL    HW132066   2.757   1.184   4.813 -0.7002 -0.7543  1.0853
 6810SOL    HW232067   2.695   1.211   4.676  0.6240  2.7890  2.1782
 6811SOL     OW32068   2.889   1.412  10.549  0.2917 -0.0066  0.6233
 6811SOL    HW132069   2.917   1.469  10.620  0.3356 -1.5720  1.8503
 6811SOL    HW232070   2.848   1.475  10.489 -0.8994 -0.4513  0.9697
 6812SOL     OW32071   0.262   3.273  14.631  0.5727  0.2938  0.4689
 6812SOL    HW132072   0.288   3.352  14.680 -2.9504  1.9223 -0.2743
 6812SOL    HW232073   0.199   3.235  14.692  0.1180 -0.0301 -0.2089
 6813SOL     OW32074   4.603   2.405   5.479  0.1078  0.0250  0.8246
 6813SOL    HW132075   4.628   2.326   5.431  1.8456  2.5315 -2.4176
 6813SOL    HW232076   4.535   2.373   5.539  1.6494 -1.2543  1.8846
 6814SOL     OW32077   0.416   3.628   2.298  0.2381 -0.3905  0.4407
 6814SOL    HW132078   0.359   3.561   2.260 -0.5885  1.5894 -1.8293
 6814SOL    HW232079   0.441   3.677   2.219 -1.3562 -1.9814 -1.0472
 6815SOL     OW32080   4.542   0.531   2.526 -0.3063  0.4722  0.4166
 6815SOL    HW132081   4.628   0.489   2.521  0.3907  2.2140 -2.2915
 6815SOL    HW232082   4.560   0.609   2.473 -1.2454  0.0627 -0.4983
 6816SOL     OW32083   3.021   2.608  14.437 -0.0999  0.0314 -0.5831
 6816SOL    HW132084   2.984   2.523  14.411 -0.1106 -0.5383  1.2736
 6816SOL    HW232085   2.959   2.667  14.394 -0.6123 -0.0637  0.0159
 6817SOL     OW32086   1.259   4.303  10.754 -0.0295 -0.0761 -0.1416
 6817SOL    HW132087   1.300   4.233  10.704 -1.5564 -0.8485 -0.3002
 6817SOL    HW232088   1.179   4.260  10.783  0.3861 -0.1557  0.8980
 6818SOL     OW32089   0.641   3.763  13.277  0.0568  0.0118 -0.6277
 6818SOL    HW132090   0.728   3.724  13.267  0.5595  0.5591  1.4671
 6818SOL    HW232091   0.663   3.856  13.284  0.9406 -0.1577 -1.1037
 6819SOL     OW32092   3.483   3.072   4.874  0.3870 -0.8638 -0.0873
 6819SOL    HW132093   3.430   2.992   4.882 -1.2569  0.1398 -0.9524
 6819SOL    HW232094   3.568   3.046   4.908  0.7002 -2.9530 -2.4237
 6820SOL     OW32095   2.990   1.591   3.958 -0.1862  0.2484 -0.3475
 6820SOL    HW132096   3.038   1.659   3.910 -0.3121  1.0603  0.6849
 6820SOL    HW232097   3.053   1.523   3.935 -1.0765 -1.2565  1.7056
 6821SOL     OW32098   4.402   4.269  10.394 -0.1117 -0.0144 -0.1235
 6821SOL    HW132099   4.325   4.277  10.338 -0.5475 -3.7275 -0.1109
 6821SOL    HW232100   4.464   4.210  10.351  0.0040 -2.3643  3.2142
 6822SOL     OW32101   1.389   2.109  12.589 -0.2185  0.3834  0.3798
 6822SOL    HW132102   1.467   2.135  12.539  0.8528  0.9190  2.3361
 6822SOL    HW232103   1.422   2.042  12.648  0.5687 -0.5959 -1.1812
 6823SOL     OW32104   2.644   1.812   2.298 -0.1989 -0.1763  0.6216
 6823SOL    HW132105   2.624   1.746   2.232  2.4545  1.0766 -1.4428
 6823SOL    HW232106   2.702   1.865   2.242 -1.1706 -1.1629 -1.2970
 6824SOL     OW32107   0.216   2.792  11.162 -0.1373 -0.8774 -0.6585
 6824SOL    HW132108   0.214   2.726  11.092  0.7327 -2.6562  0.9912
 6824SOL    HW232109   0.170   2.865  11.121 -0.9640 -1.6189 -1.0685
 6825SOL     OW32110   1.882   1.368  14.072 -0.2520 -0.1533  0.2064
 6825SOL    HW132111   1.858   1.276  14.065  0.5396 -0.4474  1.3573
 6825SOL    HW232112   1.892   1.403  13.983  2.4870  0.3992  0.7352
 6826SOL     OW32113   3.716   0.330   9.378 -0.6573  0.1732  0.0344
 6826SOL    HW132114   3.751   0.369   9.299 -0.4604  1.4597  0.7524
 6826SOL    HW232115   3.698   0.408   9.430 -0.2339  0.7201 -0.6543
 6827SOL     OW32116   1.638   1.066  17.253 -0.3223 -0.3527 -0.4849
 6827SOL    HW132117   1.681   1.098  17.332 -1.4877  2.8074 -1.1333
 6827SOL    HW232118   1.598   1.148  17.225 -0.9370 -0.3878  0.2849
 6828SOL     OW32119   1.605   0.160  13.419  0.0184 -0.1291 -0.0452
 6828SOL    HW132120   1.583   0.102  13.346  0.1189 -0.5067  0.2257
 6828SOL    HW232121   1.625   0.090  13.482 -1.4573  0.2921  0.8905
 6829SOL     OW32122   1.143   3.930   4.110 -0.3295  0.1212 -0.1131
 6829SOL    HW132123   1.199   4.001   4.079 -3.5269  1.6352 -2.3967
 6829SOL    HW232124   1.093   3.914   4.030  0.2604  0.2586 -0.5126
 6830SOL     OW32125   3.452   1.146   4.625  0.2882 -0.6722 -0.0393
 6830SOL    HW132126   3.484   1.136   4.714  0.0064  0.6482  0.2133
 6830SOL    HW232127   3.485   1.233   4.604 -0.5145 -0.2707  0.3763
 6831SOL     OW32128   1.013   1.173   4.699 -0.3782  0.0572  0.2163
 6831SOL    HW132129   0.986   1.236   4.631 -2.0287 -1.2516 -0.3357
 6831SOL    HW232130   0.946   1.107   4.685  1.4843 -1.4637 -1.5713
 6832SOL     OW32131   2.609   3.725  17.555 -0.5227  0.1884  0.3998
 6832SOL    HW132132   2.642   3.743  17.467 -0.4808  1.1802  0.6231
 6832SOL    HW232133   2.620   3.811  17.596 -1.9737 -0.6287  2.4890
 6833SOL     OW32134   3.359   0.444   4.373  0.1081  0.4831 -0.2647
 6833SOL    HW132135   3.273   0.449   4.415  0.2383 -0.3598  0.1008
 6833SOL    HW232136   3.393   0.529   4.401 -1.1419  0.6308  0.8601
 6834SOL     OW32137   1.044   4.615  16.972  0.0995  0.3636 -0.4698
 6834SOL    HW132138   1.123   4.598  17.024 -0.6390 -1.2635  0.0890
 6834SOL    HW232139   1.035   4.540  16.913  0.5402  0.6243 -0.8743
 6835SOL     OW32140   2.381   1.129   7.071  0.0669  0.6842 -0.0185
 6835SOL    HW132141   2.297   1.175   7.068  0.0223  0.6443  0.5995
 6835SOL    HW232142   2.440   1.198   7.040  2.2096 -1.3337 -0.4136
 6836SOL     OW32143   0.062   0.444   2.534  0.6706 -0.3256 -0.3661
 6836SOL    HW132144   0.122   0.371   2.520  0.9296 -0.2926  0.5396
 6836SOL    HW232145   0.096   0.511   2.475  0.7955 -1.2172 -1.3102
 6837SOL     OW32146   2.813   3.992   7.141  0.2071 -0.3610  0.1095
 6837SOL    HW132147   2.874   4.008   7.213  0.1626 -0.6914  0.2229
 6837SOL    HW232148   2.760   3.920   7.175  0.8360 -0.9348 -0.1231
 6838SOL     OW32149   3.464   2.799  11.172 -0.1806  0.0085 -0.2987
 6838SOL    HW132150   3.480   2.892  11.188  0.1743 -0.3344  1.3247
 6838SOL    HW232151   3.529   2.765  11.234  1.1466  1.5610 -0.8413
 6839SOL     OW32152   1.064   3.060  12.253  0.6426 -0.5800  0.2188
 6839SOL    HW132153   1.123   3.044  12.327 -1.1024 -0.6826  1.5679
 6839SOL    HW232154   1.098   2.983  12.207 -0.8357  0.4713 -2.6314
 6840SOL     OW32155   4.596   3.964   2.945 -0.2958  0.4741  0.6422
 6840SOL    HW132156   4.639   4.045   2.972  1.3016 -0.4703  0.8989
 6840SOL    HW232157   4.673   3.922   2.906 -0.4607  0.0943  0.7238
 6841SOL     OW32158   3.602   4.210   5.437  1.0514  0.1095  0.3702
 6841SOL    HW132159   3.512   4.238   5.456  0.2323 -2.0115 -0.4823
 6841SOL    HW232160   3.584   4.158   5.359 -0.7449  0.9804  0.1937
 6842SOL     OW32161   3.994   3.617  16.774 -0.0935  0.5479 -0.0194
 6842SOL    HW132162   4.038   3.702  16.779 -0.3154  0.6085  0.9231
 6842SOL    HW232163   3.905   3.634  16.742  0.6868 -0.0085 -2.5081
 6843SOL     OW32164   3.153   2.666   4.275  0.1701  0.0846 -0.4331
 6843SOL    HW132165   3.221   2.640   4.338 -0.4662 -1.6241 -0.4816
 6843SOL    HW232166   3.201   2.734   4.226  0.1113 -0.6841 -1.5496
 6844SOL     OW32167   2.670   2.173   8.307  0.1110 -0.2599 -0.5515
 6844SOL    HW132168   2.661   2.123   8.388 -1.7931  0.1348 -0.5295
 6844SOL    HW232169   2.752   2.144   8.266  1.2302  1.7931  0.2258
 6845SOL     OW32170   3.666   3.487   9.546  0.1591  0.0131  0.4040
 6845SOL    HW132171   3.755   3.488   9.580 -0.1484 -0.3558  1.2013
 6845SOL    HW232172   3.689   3.482   9.453  1.1735  0.1117  0.6481
 6846SOL     OW32173   2.262   2.421  13.195  0.2597 -0.0019 -0.6678
 6846SOL    HW132174   2.234   2.361  13.264  1.2948 -0.8721 -1.0004
 6846SOL    HW232175   2.289   2.353  13.132  0.1437  0.3692 -1.1236
 6847SOL     OW32176   3.246   4.151  15.237  0.3254 -0.4384 -0.1710
 6847SOL    HW132177   3.268   4.089  15.168  1.2060  0.9432 -1.1276
 6847SOL    HW232178   3.168   4.112  15.276 -0.2214  0.4544 -0.3654
 6848SOL     OW32179   4.586   3.010  15.462  0.2132  0.0175 -0.2266
 6848SOL    HW132180   4.563   3.007  15.555  1.6369  0.0777  0.1292
 6848SOL    HW232181   4.566   2.919  15.439 -0.2222  0.0856 -0.1136
 6849SOL     OW32182   0.726   1.634   5.112 -0.1168  0.2119 -0.2171
 6849SOL    HW132183   0.743   1.664   5.023  1.1149  0.9672  0.2581
 6849SOL    HW232184   0.792   1.685   5.160 -0.5877  1.0658 -0.4742
 6850SOL     OW32185   1.076   3.350   4.228  0.2669 -0.1607 -0.1204
 6850SOL    HW132186   1.167   3.375   4.212  0.8078 -0.7595  2.0311
 6850SOL    HW232187   1.086   3.257   4.206  0.4461 -0.2312  0.2657
 6851SOL     OW32188   3.019   3.979  13.787  0.4014 -0.0945  0.0158
 6851SOL    HW132189   2.962   3.909  13.756 -1.2892  1.0689  0.4561
 6851SOL    HW232190   3.003   4.044  13.719 -1.5602  0.2331  0.7979
 6852SOL     OW32191   0.598   0.235   2.573  0.6312  0.5189 -0.1405
 6852SOL    HW132192   0.681   0.281   2.588  0.2668 -0.0622  3.7715
 6852SOL    HW232193   0.604   0.230   2.478  1.4886  0.6742 -0.0898
 6853SOL     OW32194   2.306   1.298   1.859 -0.4677  0.3648 -0.4645
 6853SOL    HW132195   2.226   1.270   1.815 -0.2522  2.0998 -1.9873
 6853SOL    HW232196   2.359   1.336   1.789  0.4665  2.3564  1.3582
 6854SOL     OW32197   2.619   4.243   6.222 -0.0679 -0.5108 -0.1894
 6854SOL    HW132198   2.710   4.222   6.202  0.3548  3.4577 -2.3091
 6854SOL    HW232199   2.580   4.233   6.135 -0.5626 -1.0442  0.0948
 6855SOL     OW32200   0.755   1.056   1.002 -0.2590  0.4180  0.0596
 6855SOL    HW132201   0.832   1.005   1.025  0.9220  2.5485  0.8802
 6855SOL    HW232202   0.733   1.034   0.912  0.1315 -1.8502  0.5155
 6856SOL     OW32203   1.240   1.675   7.886  0.0344 -0.1195 -0.2499
 6856SOL    HW132204   1.154   1.656   7.851  0.3672 -1.1005 -0.5373
 6856SOL    HW232205   1.229   1.769   7.902  0.7293 -0.3109  1.4130
 6857SOL     OW32206   4.539   0.070   9.307 -0.0580 -0.7722  0.0734
 6857SOL    HW132207   4.584   0.143   9.351  1.1152 -1.7529  0.4778
 6857SOL    HW232208   4.522   0.017   9.385  2.4333 -0.6031  0.7273
 6858SOL     OW32209   4.696   2.440   2.852  0.2753 -0.1980  0.1166
 6858SOL    HW132210   4.735   2.527   2.840  0.5728 -0.7076 -2.6476
 6858SOL    HW232211   4.605   2.466   2.869  0.0444 -0.6798 -0.3821
 6859SOL     OW32212   1.405   2.534   9.605 -0.7927 -0.3564 -0.1865
 6859SOL    HW132213   1.359   2.457   9.572 -1.0300  0.2182 -1.1940
 6859SOL    HW232214   1.410   2.597   9.534 -0.0768 -0.1396  0.0541
 6860SOL     OW32215   0.470   3.676   6.523  0.4598 -0.7897  0.2250
 6860SOL    HW132216   0.530   3.636   6.586 -0.8511 -1.3198  1.1656
 6860SOL    HW232217   0.442   3.759   6.564  0.4928  0.3814 -2.1535
 6861SOL     OW32218   3.851   1.835   8.827 -0.4165  0.3534  0.5183
 6861SOL    HW132219   3.924   1.838   8.765 -1.1550 -0.6690 -0.3923
 6861SOL    HW232220   3.856   1.741   8.840  0.2322  0.5300  1.5257
 6862SOL     OW32221   0.675   1.141  12.395 -0.0636  0.2639  0.6405
 6862SOL    HW132222   0.708   1.220  12.438  0.1644 -1.6101  3.8849
 6862SOL    HW232223   0.595   1.189  12.374 -0.8990 -1.6304 -0.4993
 6863SOL     OW32224   3.211   0.386   3.633  0.0325 -0.0588  0.5841
 6863SOL    HW132225   3.123   0.419   3.651 -1.0759 -2.7278  0.1231
 6863SOL    HW232226   3.237   0.356   3.721  2.4359 -0.2999 -0.2138
 6864SOL     OW32227   2.150   3.346   3.152  0.2124 -0.1829 -0.1682
 6864SOL    HW132228   2.208   3.293   3.206 -1.1415 -0.5768  0.8761
 6864SOL    HW232229   2.214   3.413   3.127  0.0826 -0.8881 -2.4502
 6865SOL     OW32230   0.977   3.258   2.874  0.1782 -0.1693 -0.0726
 6865SOL    HW132231   0.967   3.229   2.965 -0.6692 -0.2166 -0.1755
 6865SOL    HW232232   1.041   3.329   2.876 -0.5621  0.5084 -0.4323
 6866SOL     OW32233   3.931   4.578   7.895  0.1431  0.0129 -0.2760
 6866SOL    HW132234   3.896   4.620   7.974  1.0297  3.0419 -1.5159
 6866SOL    HW232235   3.899   4.488   7.895  1.3626 -0.4317  1.2232
 6867SOL     OW32236   0.039   1.922   4.830 -0.1552 -0.1224  0.0929
 6867SOL    HW132237   0.121   1.936   4.878 -0.4172 -1.4533  0.9138
 6867SOL    HW232238   0.004   1.845   4.874  0.4009 -2.2225 -3.1742
 6868SOL     OW32239   1.327   3.556   0.931  0.5328  0.3600  0.0142
 6868SOL    HW132240   1.336   3.462   0.914 -1.5158  0.4075 -1.2084
 6868SOL    HW232241   1.396   3.573   0.996 -1.7685  4.9441  1.2781
 6869SOL     OW32242   0.127   0.450   6.983 -0.1215  0.0369  0.1534
 6869SOL    HW132243   0.052   0.445   6.923  0.7110 -0.8101 -0.8222
 6869SOL    HW232244   0.090   0.471   7.069 -1.4099 -0.4235 -0.2775
 6870SOL     OW32245   3.295   3.426   0.521  0.5113  0.2419  0.3383
 6870SOL    HW132246   3.381   3.444   0.558  0.6695  3.5378 -1.6453
 6870SOL    HW232247   3.307   3.341   0.478 -2.6280 -1.6660  3.2682
 6871SOL     OW32248   2.572   1.281   2.506  0.0339  0.0103 -0.1630
 6871SOL    HW132249   2.651   1.240   2.541 -0.7155 -1.4498 -0.1912
 6871SOL    HW232250   2.599   1.312   2.419 -0.4038  0.4504 -0.1432
 6872SOL     OW32251   2.243   3.884  17.671  0.1954 -0.0666  0.2490
 6872SOL    HW132252   2.160   3.836  17.665  1.1128 -1.5067 -0.9821
 6872SOL    HW232253   2.254   3.882   0.021 -0.0283 -1.6664  0.2383
 6873SOL     OW32254   2.612   2.606   3.889 -0.4161 -0.0474  0.0941
 6873SOL    HW132255   2.599   2.512   3.896 -0.5182  0.0695  1.5700
 6873SOL    HW232256   2.578   2.630   3.803 -1.4889 -1.5169  0.1216
 6874SOL     OW32257   4.023   1.651   9.218  0.4241  0.6167 -0.1198
 6874SOL    HW132258   4.033   1.663   9.124 -2.5777 -1.0167 -0.6468
 6874SOL    HW232259   4.072   1.570   9.228  1.3510  1.0726 -0.9026
 6875SOL     OW32260   4.204   3.914   3.675 -0.1069  0.6113  0.3732
 6875SOL    HW132261   4.129   3.857   3.692  0.1705 -0.3762 -1.7216
 6875SOL    HW232262   4.147   3.987   3.649 -1.1392  0.2991  1.7438
 6876SOL     OW32263   4.348   1.993   8.214  0.3047 -0.5835  0.2745
 6876SOL    HW132264   4.283   2.057   8.241 -0.1024 -0.0386 -1.9425
 6876SOL    HW232265   4.395   1.988   8.297  1.2440 -0.7026 -0.2489
 6877SOL     OW32266   1.740   1.327   1.633 -0.5057  0.0229  0.3910
 6877SOL    HW132267   1.667   1.295   1.685  0.8228 -1.5636  1.2576
 6877SOL    HW232268   1.740   1.417   1.666 -1.4133  0.0899  0.2245
 6878SOL     OW32269   0.089   0.785   3.722  0.0305 -0.1858 -0.2197
 6878SOL    HW132270   0.120   0.704   3.681 -0.9897 -0.8359  0.2998
 6878SOL    HW232271   0.014   0.817   3.673 -0.1889 -0.2565  0.0701
 6879SOL     OW32272   0.614   2.054   2.517 -0.4780 -0.4547 -0.1939
 6879SOL    HW132273   0.609   1.971   2.563 -0.1558 -1.4566 -1.9489
 6879SOL    HW232274   0.522   2.062   2.495 -0.5673  0.3977  0.4741
 6880SOL     OW32275   2.417   1.128   4.814 -0.0756  0.3354  0.0643
 6880SOL    HW132276   2.390   1.052   4.762 -1.6516 -0.0073  1.3718
 6880SOL    HW232277   2.512   1.131   4.806 -0.1159  1.9801  0.2063
 6881SOL     OW32278   2.857   0.737   6.066  0.9691 -0.2143  0.5354
 6881SOL    HW132279   2.791   0.723   5.998 -0.2293  0.1988  1.6290
 6881SOL    HW232280   2.857   0.651   6.109  0.2305 -2.2354 -3.4584
 6882SOL     OW32281   1.188   2.116   1.833  0.3267  0.4968  0.9417
 6882SOL    HW132282   1.266   2.087   1.881 -0.7653 -1.6359  1.4447
 6882SOL    HW232283   1.231   2.163   1.762 -0.4573 -0.6128 -0.2767
 6883SOL     OW32284   4.351   2.251   2.935  0.3258  0.0429  0.6527
 6883SOL    HW132285   4.357   2.239   2.840 -1.8335 -2.2859  0.7952
 6883SOL    HW232286   4.383   2.337   2.960 -2.9375  1.4053  0.2148
 6884SOL     OW32287   0.916   3.076   4.723 -0.0668  0.8614 -0.6018
 6884SOL    HW132288   0.873   3.105   4.642 -2.9312  0.7304  0.8686
 6884SOL    HW232289   0.973   3.009   4.686 -0.8155  1.6790 -3.2032
 6885SOL     OW32290   4.669   0.051   9.664 -0.0813  0.2512  0.3109
 6885SOL    HW132291   4.624   0.018   9.742 -1.6213  3.0265  0.5974
 6885SOL    HW232292   4.600   0.110   9.635 -0.1650 -0.2565 -0.5289
 6886SOL     OW32293   3.334   2.456   6.733  0.1040  0.5139 -0.1499
 6886SOL    HW132294   3.312   2.385   6.673 -1.7621  0.3570  0.7260
 6886SOL    HW232295   3.379   2.410   6.804  0.7738 -1.8367 -2.1108
 6887SOL     OW32296   3.237   3.169  17.534 -0.4126  0.3368  1.0785
 6887SOL    HW132297   3.158   3.128  17.572  1.1499 -4.2901 -0.6197
 6887SOL    HW232298   3.260   3.108  17.464 -0.9407  4.4565 -2.6028
 6888SOL     OW32299   2.463   2.246   2.926 -0.4917  0.3201  0.3628
 6888SOL    HW132300   2.538   2.191   2.904  0.2964  2.6458 -2.7798
 6888SOL    HW232301   2.505   2.304   2.990 -1.4503 -0.6735  1.8802
 6889SOL     OW32302   0.371   4.398   6.122  0.0951  0.1982 -0.0060
 6889SOL    HW132303   0.454   4.353   6.138 -0.3235 -0.9275 -1.0378
 6889SOL    HW232304   0.312   4.330   6.091  1.6266 -1.1246 -0.0277
 6890SOL     OW32305   3.880   0.928   4.385  0.0952  0.1836 -0.0379
 6890SOL    HW132306   3.821   0.966   4.319  0.5594 -0.7320 -0.9845
 6890SOL    HW232307   3.833   0.960   4.462  0.5309  1.5811 -0.3552
 6891SOL     OW32308   1.996   1.734   4.260  0.0261  0.2229 -0.0781
 6891SOL    HW132309   2.065   1.795   4.232 -0.8764  0.4778 -1.7663
 6891SOL    HW232310   2.034   1.648   4.244  0.9983  0.9523 -1.7297
 6892SOL     OW32311   1.372   0.515   5.550 -0.0858 -0.3075  0.4535
 6892SOL    HW132312   1.373   0.420   5.563 -0.7944  0.1334  3.5709
 6892SOL    HW232313   1.398   0.548   5.636  1.6103 -0.9799  0.2041
 6893SOL     OW32314   0.220   4.384   7.539  0.4423  0.7851 -0.4558
 6893SOL    HW132315   0.195   4.427   7.621 -1.6894 -1.3541 -0.0260
 6893SOL    HW232316   0.139   4.338   7.520  1.2298  0.1143 -2.2670
 6894SOL     OW32317   1.667   3.009   4.253 -0.1749 -0.1443  0.2069
 6894SOL    HW132318   1.740   2.954   4.226  0.1396 -0.0149  0.7895
 6894SOL    HW232319   1.643   3.041   4.166 -1.4244  0.2667  0.7005
 6895SOL     OW32320   4.038   2.598  11.736  0.0232 -0.1849 -0.6051
 6895SOL    HW132321   4.038   2.639  11.822 -1.7665  0.8611 -1.1071
 6895SOL    HW232322   3.946   2.608  11.711 -0.1242  0.6569  0.2845
 6896SOL     OW32323   0.013   4.041   5.633 -0.2423 -0.1011  0.3990
 6896SOL    HW132324   0.007   4.132   5.605  0.2557 -0.0172  0.5683
 6896SOL    HW232325   4.684   3.999   5.577  0.7860 -2.5254  0.9910
 6897SOL     OW32326   3.371   4.730   1.746  0.1880  0.2288  0.5394
 6897SOL    HW132327   3.393   0.086   1.746  0.4909  0.1551  0.4694
 6897SOL    HW232328   3.419   4.701   1.823  1.5575  1.8971  0.3023
 6898SOL     OW32329   2.550   0.660   4.506  0.5870  0.3331  0.7821
 6898SOL    HW132330   2.545   0.617   4.591 -0.9485 -0.3271  0.3763
 6898SOL    HW232331   2.591   0.594   4.450 -0.5725  1.0896 -0.9948
 6899SOL     OW32332   1.924   2.270   5.654  0.3789 -0.1386  0.2400
 6899SOL    HW132333   1.863   2.273   5.728  0.1619  1.2617 -0.0007
 6899SOL    HW232334   1.988   2.337   5.677  1.5912 -1.5624  1.0154
 6900SOL     OW32335   2.832   1.800   4.339 -0.1235  0.1356  0.4369
 6900SOL    HW132336   2.911   1.775   4.386  0.5506 -0.9105 -1.2349
 6900SOL    HW232337   2.796   1.864   4.400  0.7319 -1.3111  2.4506
 6901SOL     OW32338   2.695   3.397   8.516 -0.0452 -0.3363 -0.2643
 6901SOL    HW132339   2.757   3.427   8.582  0.1060 -0.9919 -0.1070
 6901SOL    HW232340   2.740   3.375   8.434  1.3250 -1.0383  0.6890
 6902SOL     OW32341   2.416   1.299   8.249 -0.2488  0.2148 -0.1523
 6902SOL    HW132342   2.426   1.211   8.215  2.1863  0.1870  0.6443
 6902SOL    HW232343   2.482   1.344   8.196 -0.3998  1.0057  0.3234
 6903SOL     OW32344   1.053   4.039   0.974  0.5347  0.5070  0.6065
 6903SOL    HW132345   1.103   4.039   1.056  0.5043 -0.5408  0.6298
 6903SOL    HW232346   1.126   4.041   0.913  1.2920  1.2317  1.5356
 6904SOL     OW32347   4.326   0.699   0.842 -0.0393 -0.9316 -0.1579
 6904SOL    HW132348   4.282   0.725   0.923  0.4545 -1.7225  0.3655
 6904SOL    HW232349   4.293   0.610   0.836  0.0536 -0.9586 -0.2619
 6905SOL     OW32350   3.775   2.772  14.931  0.1774  0.4672  0.6164
 6905SOL    HW132351   3.744   2.800  14.845  1.2363 -1.9054 -0.5353
 6905SOL    HW232352   3.717   2.701  14.958 -0.0961  0.3892 -0.2069
 6906SOL     OW32353   1.868   3.617   1.232  0.8418 -0.2490  0.4460
 6906SOL    HW132354   1.936   3.620   1.165 -0.3707 -0.8012 -0.8009
 6906SOL    HW232355   1.918   3.587   1.308 -0.4010 -0.9856  0.9621
 6907SOL     OW32356   3.491   0.743   9.398 -0.0998  0.2513 -0.2732
 6907SOL    HW132357   3.461   0.683   9.331  2.2754 -0.4708 -0.7026
 6907SOL    HW232358   3.554   0.695   9.453 -0.3958  2.5658  2.1137
 6908SOL     OW32359   3.422   3.982   0.384  0.7088  0.4573 -0.0661
 6908SOL    HW132360   3.412   3.894   0.419  2.5645  0.6160  0.8724
 6908SOL    HW232361   3.437   3.962   0.292 -3.5885  1.0771 -0.9295
 6909SOL     OW32362   0.308   4.065  15.479 -0.1159  0.4508 -0.5582
 6909SOL    HW132363   0.283   4.069  15.571  1.6234  2.4553 -0.1844
 6909SOL    HW232364   0.386   4.119  15.481  1.3101 -1.4934 -3.1161
 6910SOL     OW32365   1.380   4.469   7.109  0.5385 -0.4765 -0.1416
 6910SOL    HW132366   1.407   4.437   7.023  0.3338  0.7131 -0.6546
 6910SOL    HW232367   1.351   4.557   7.083  0.3007 -0.6896 -0.5993
 6911SOL     OW32368   4.121   4.055   8.041 -0.3430 -0.3735  0.0773
 6911SOL    HW132369   4.132   4.144   8.076 -0.8085 -0.9934  1.7651
 6911SOL    HW232370   4.038   4.061   7.993 -1.5267  1.1540  2.2913
 6912SOL     OW32371   3.865   0.227  16.670 -0.2274 -0.3305 -0.5837
 6912SOL    HW132372   3.947   0.179  16.678 -0.5067 -0.6270  0.6147
 6912SOL    HW232373   3.896   0.305  16.717 -1.1098  0.1913 -0.8706
 6913SOL     OW32374   4.457   3.555   3.614 -0.3085 -0.2186 -0.6747
 6913SOL    HW132375   4.510   3.482   3.647  1.0521  0.7549 -0.7142
 6913SOL    HW232376   4.533   3.609   3.594 -1.1873  0.8652 -1.1143
 6914SOL     OW32377   0.154   1.238   3.755 -0.1674  0.0684  0.5148
 6914SOL    HW132378   0.133   1.162   3.809 -2.2271  0.4112  0.1933
 6914SOL    HW232379   0.154   1.199   3.668 -0.8485  1.0712  0.0518
 6915SOL     OW32380   3.013   3.456  10.142  0.2836 -0.1874 -0.0737
 6915SOL    HW132381   3.061   3.498  10.214 -0.1219 -0.4200  0.3341
 6915SOL    HW232382   3.026   3.363  10.163  1.4141 -0.0959 -0.3828
 6916SOL     OW32383   3.870   2.093   6.101 -0.3887  0.0040 -0.0304
 6916SOL    HW132384   3.896   2.010   6.141 -0.2441  0.9396  1.8655
 6916SOL    HW232385   3.954   2.139   6.093 -0.8645  1.1782  1.5176
 6917SOL     OW32386   2.915   2.030   9.803 -0.1678 -0.3035  0.1974
 6917SOL    HW132387   2.835   2.073   9.772 -0.0896 -1.0588 -1.1017
 6917SOL    HW232388   2.981   2.084   9.760 -0.0308  0.0519  0.8581
 6918SOL     OW32389   3.367   1.043  12.097  0.7618 -0.2338  0.3613
 6918SOL    HW132390   3.434   1.111  12.096  1.0640 -0.5272  1.1893
 6918SOL    HW232391   3.362   1.027  12.191  2.4853 -2.1921  0.1051
 6919SOL     OW32392   1.872   0.730   1.421  0.5150 -0.2171  0.0782
 6919SOL    HW132393   1.827   0.814   1.433  0.4432 -0.5824  2.3248
 6919SOL    HW232394   1.960   0.760   1.399  0.3236 -0.1951 -0.6822
 6920SOL     OW32395   0.082   3.526   5.458  0.1608 -0.2975  0.1977
 6920SOL    HW132396   0.057   3.526   5.550 -0.8975  1.6703 -0.0914
 6920SOL    HW232397   0.105   3.618   5.449  0.8424 -0.5285 -0.4341
 6921SOL     OW32398   2.759   4.152   1.980 -0.3705 -0.2983 -0.0623
 6921SOL    HW132399   2.709   4.233   1.986  0.4627  0.2530 -0.5012
 6921SOL    HW232400   2.797   4.146   2.068  0.0255 -2.5397 -0.3813
 6922SOL     OW32401   3.084   1.773   6.350  0.2772  0.6838  0.3267
 6922SOL    HW132402   3.143   1.790   6.277 -0.4537 -0.0371 -0.4436
 6922SOL    HW232403   3.036   1.696   6.319  1.6528  0.2595 -0.7098
 6923SOL     OW32404   3.204   0.790   7.565  0.1248  0.0077  0.3469
 6923SOL    HW132405   3.191   0.880   7.596 -0.1197 -0.2794  1.0798
 6923SOL    HW232406   3.290   0.796   7.523  0.3818  0.4774  0.9382
 6924SOL     OW32407   1.670   0.332   6.998  0.3787  0.4272  0.1374
 6924SOL    HW132408   1.682   0.312   6.905 -0.5356  0.4464  0.0095
 6924SOL    HW232409   1.600   0.398   7.000  2.3705  2.4948  1.2448
 6925SOL     OW32410   3.220   3.371   9.410  0.2219 -0.2197  0.1273
 6925SOL    HW132411   3.192   3.284   9.439 -1.3424 -0.3124 -1.7024
 6925SOL    HW232412   3.300   3.350   9.363 -0.5733 -2.2955 -0.2777
 6926SOL     OW32413   4.402   0.616   9.967 -0.1128 -0.6487 -0.0298
 6926SOL    HW132414   4.493   0.598   9.990 -0.1559 -0.6646  0.1312
 6926SOL    HW232415   4.404   0.675   9.892  1.4853  1.0863  1.3917
 6927SOL     OW32416   3.538   1.071   7.780 -0.4580 -0.0379  0.5278
 6927SOL    HW132417   3.609   1.102   7.722 -1.1421  1.4238  0.4704
 6927SOL    HW232418   3.491   1.145   7.818 -0.9510 -1.0118  1.8029
 6928SOL     OW32419   1.097   3.714  15.909 -0.0876  0.6674 -0.3888
 6928SOL    HW132420   1.051   3.683  15.831 -0.1026  0.1259 -0.1666
 6928SOL    HW232421   1.137   3.632  15.938 -2.0153 -0.1312  0.0513
 6929SOL     OW32422   1.523   4.423   5.354  0.2573 -0.1184  0.1992
 6929SOL    HW132423   1.544   4.373   5.433  0.5031  0.2517  0.3673
 6929SOL    HW232424   1.583   4.494   5.375  1.3750 -0.7249 -0.8692
 6930SOL     OW32425   4.136   3.273   9.908  0.0206  0.6118 -0.1006
 6930SOL    HW132426   4.064   3.224   9.867 -0.3400  0.3528  0.8485
 6930SOL    HW232427   4.084   3.286   9.987 -1.2964 -1.1730 -0.6576
 6931SOL     OW32428   4.498   2.756   8.462 -0.0082  0.6985  0.6145
 6931SOL    HW132429   4.531   2.670   8.435 -2.5769 -0.1837  0.2732
 6931SOL    HW232430   4.557   2.780   8.533  1.4702  1.3193 -0.8190
 6932SOL     OW32431   0.238   3.682  15.278  0.3109 -0.3386 -0.0964
 6932SOL    HW132432   0.157   3.665  15.326 -1.4559  1.3813 -2.4727
 6932SOL    HW232433   0.241   3.776  15.298  0.8949  0.1193 -2.3233
 6933SOL     OW32434   4.298   1.799   2.457 -0.5941 -0.3679 -0.3155
 6933SOL    HW132435   4.299   1.768   2.367  0.9764  2.1073 -1.1586
 6933SOL    HW232436   4.347   1.737   2.512  0.7119  0.0315 -1.0137
 6934SOL     OW32437   2.671   2.366  11.046 -0.5197 -0.5052  0.0282
 6934SOL    HW132438   2.594   2.408  11.008 -0.9723 -1.7909 -0.4377
 6934SOL    HW232439   2.742   2.392  10.987  1.3292  0.6509  2.7191
 6935SOL     OW32440   4.474   0.706   3.776 -0.8304 -0.2293  0.3965
 6935SOL    HW132441   4.554   0.688   3.826 -1.3375 -1.0699  0.8896
 6935SOL    HW232442   4.469   0.633   3.714 -0.8769  1.7407 -1.9156
 6936SOL     OW32443   3.849   1.375  14.106 -0.0407  0.3899  0.2932
 6936SOL    HW132444   3.886   1.402  14.189  0.8075  0.4932 -0.1220
 6936SOL    HW232445   3.815   1.459  14.076 -0.3449 -0.0966 -0.7411
 6937SOL     OW32446   2.866   0.513  11.285 -0.1210 -0.1503 -0.2167
 6937SOL    HW132447   2.798   0.559  11.335 -0.0462  0.7747 -0.9638
 6937SOL    HW232448   2.836   0.524  11.195 -0.2072 -0.8145 -0.2652
 6938SOL     OW32449   1.743   0.471   5.164  0.0358 -0.1841  0.3649
 6938SOL    HW132450   1.793   0.412   5.108  1.7712  0.6210  1.0591
 6938SOL    HW232451   1.655   0.461   5.127  0.2192  0.9833 -0.4033
 6939SOL     OW32452   0.690   4.212  17.476 -0.7051 -0.1180  0.1662
 6939SOL    HW132453   0.596   4.198  17.477 -0.2660 -3.1052 -2.0387
 6939SOL    HW232454   0.706   4.229  17.569  0.2398  1.0545 -0.1984
 6940SOL     OW32455   1.757   0.769   2.164  0.5053  0.0737  0.2684
 6940SOL    HW132456   1.775   0.732   2.250  0.8247 -1.8807 -0.6479
 6940SOL    HW232457   1.849   0.794   2.160  0.7738 -0.5706  2.5641
 6941SOL     OW32458   4.304   1.457   4.975  0.3582 -0.1147 -0.2901
 6941SOL    HW132459   4.258   1.535   5.005  1.1134  0.7412 -1.3772
 6941SOL    HW232460   4.245   1.415   4.912 -1.9225  0.8293  1.2292
 6942SOL     OW32461   3.432   2.976   6.795 -0.8468  0.0691 -0.5782
 6942SOL    HW132462   3.445   2.882   6.782 -0.1642  0.5078 -3.1550
 6942SOL    HW232463   3.341   2.984   6.764 -0.9373 -2.7945 -1.1233
 6943SOL     OW32464   0.300   4.005   5.366  0.5310 -0.1461 -0.5503
 6943SOL    HW132465   0.285   4.098   5.350  0.2236 -0.1108 -0.0466
 6943SOL    HW232466   0.395   3.998   5.381  0.7202 -0.6202 -1.9271
 6944SOL     OW32467   1.836   2.905   3.994 -0.0489  0.5712  0.4496
 6944SOL    HW132468   1.903   2.869   3.935 -0.9735 -1.3807  0.5882
 6944SOL    HW232469   1.788   2.824   4.009  0.3244  0.6261  1.9641
 6945SOL     OW32470   4.346   1.036  13.656 -0.2984  0.0324 -0.2483
 6945SOL    HW132471   4.341   1.028  13.751 -0.5823  0.7872 -0.1943
 6945SOL    HW232472   4.307   0.954  13.626 -2.6378  1.0430  0.0465
 6946SOL     OW32473   3.111   1.794   4.532 -0.8518  0.0555 -0.3122
 6946SOL    HW132474   3.199   1.823   4.507  0.0052 -1.3898  1.0312
 6946SOL    HW232475   3.131   1.701   4.539  0.6781  0.6295  3.2435
 6947SOL     OW32476   3.839   1.705  15.173  0.6003  0.2217  0.2894
 6947SOL    HW132477   3.927   1.701  15.211  0.0243 -2.4745  1.3417
 6947SOL    HW232478   3.812   1.626  15.220  2.4497 -0.8352 -0.4463
 6948SOL     OW32479   1.103   0.732   8.538 -0.4825 -0.3412  0.1176
 6948SOL    HW132480   1.175   0.681   8.501 -2.3087 -1.1602 -2.2881
 6948SOL    HW232481   1.121   0.815   8.493  0.3894 -0.2791  0.5773
 6949SOL     OW32482   0.489   4.395  12.013 -0.2284  0.4665  0.0227
 6949SOL    HW132483   0.511   4.488  12.004 -2.0880  1.0390  1.3871
 6949SOL    HW232484   0.470   4.382  12.106  1.9958  0.9278  0.5344
 6950SOL     OW32485   4.355   0.613   9.499  0.1462  0.6537 -0.1812
 6950SOL    HW132486   4.390   0.550   9.562 -2.2935 -0.5843 -0.0691
 6950SOL    HW232487   4.285   0.648   9.554 -0.5003 -1.8000  0.5962
 6951SOL     OW32488   1.494   2.724   5.532  0.5677 -0.2595  0.2055
 6951SOL    HW132489   1.551   2.673   5.474  0.7066 -0.3207  0.3963
 6951SOL    HW232490   1.556   2.786   5.571 -0.5398  0.6282  0.5585
 6952SOL     OW32491   3.159   3.905   7.763  0.4232 -0.4287 -0.2165
 6952SOL    HW132492   3.190   3.984   7.806  0.9770 -1.8431  1.9642
 6952SOL    HW232493   3.146   3.938   7.674  0.2323  0.8770  0.2912
 6953SOL     OW32494   2.633   2.137   6.351 -0.2951  0.0522 -0.2567
 6953SOL    HW132495   2.657   2.114   6.441 -2.3154 -1.5539 -0.1274
 6953SOL    HW232496   2.556   2.192   6.361 -2.2494 -2.1636 -3.0497
 6954SOL     OW32497   3.309   1.798   5.682 -0.0997 -0.4754 -0.1532
 6954SOL    HW132498   3.294   1.843   5.599 -0.3586  0.2236  0.2802
 6954SOL    HW232499   3.342   1.718   5.640  0.7043 -1.9337  3.2304
 6955SOL     OW32500   2.006   3.514  17.424 -0.4398 -0.0424  1.0209
 6955SOL    HW132501   2.023   3.585  17.362 -1.0810 -1.5202 -0.8463
 6955SOL    HW232502   1.925   3.550  17.460 -0.0475  0.5511  1.3322
 6956SOL     OW32503   1.789   1.627   2.801  0.5463  0.1152 -0.0354
 6956SOL    HW132504   1.869   1.645   2.753  1.6850 -1.7388  1.1791
 6956SOL    HW232505   1.810   1.549   2.853  2.4484 -0.1537 -1.2082
 6957SOL     OW32506   2.476   1.106  17.286 -0.3046  0.0851 -0.5101
 6957SOL    HW132507   2.470   1.194  17.248  2.3115  0.2941 -0.3934
 6957SOL    HW232508   2.386   1.076  17.302 -0.4726 -0.0002 -1.5983
 6958SOL     OW32509   0.849   0.384   2.609 -0.2113  0.3793 -0.5143
 6958SOL    HW132510   0.872   0.477   2.602  0.0716  0.1853 -2.3190
 6958SOL    HW232511   0.881   0.352   2.525 -0.3529  0.1814 -0.4925
 6959SOL     OW32512   3.603   4.108  17.158 -0.3006  0.3476  0.8345
 6959SOL    HW132513   3.544   4.105  17.234 -0.1900  0.1346  0.9111
 6959SOL    HW232514   3.571   4.185  17.110  0.0389  0.3163  0.5571
 6960SOL     OW32515   0.844   1.936   9.658 -0.3093 -0.4284 -0.0488
 6960SOL    HW132516   0.754   1.908   9.672  0.0597 -0.9802  1.1906
 6960SOL    HW232517   0.900   1.874   9.705  0.1611  1.0405  1.3037
 6961SOL     OW32518   2.375   4.063   0.820  0.6392  0.2549  0.2681
 6961SOL    HW132519   2.374   4.158   0.828 -1.4932  0.2038  0.6009
 6961SOL    HW232520   2.390   4.044   0.727 -0.5657  1.9477 -0.2767
 6962SOL     OW32521   3.853   4.512   2.449 -0.5196  0.3542  0.4054
 6962SOL    HW132522   3.773   4.562   2.464  0.2723  1.8392 -0.3564
 6962SOL    HW232523   3.830   4.419   2.445 -1.6213  0.6090  0.9248
 6963SOL     OW32524   1.540   3.178   8.883 -0.0899  0.1219  0.0510
 6963SOL    HW132525   1.511   3.269   8.875  0.5360  0.2115 -1.0529
 6963SOL    HW232526   1.499   3.139   8.806 -0.3901 -0.9644  0.7501
 6964SOL     OW32527   4.075   1.273  17.539 -0.0520  0.5646  0.0798
 6964SOL    HW132528   4.016   1.337  17.578  0.6088  1.5807 -0.5926
 6964SOL    HW232529   4.121   1.333  17.481  0.3638  0.5437  0.3832
 6965SOL     OW32530   3.025   1.946   6.046  0.2031 -0.9190 -0.1677
 6965SOL    HW132531   3.051   1.878   5.985  1.9905 -0.7498  0.4042
 6965SOL    HW232532   3.094   2.013   6.046 -2.5108  1.8816  0.4306
 6966SOL     OW32533   1.216   2.146   9.168 -0.1831  0.3184  0.1631
 6966SOL    HW132534   1.199   2.083   9.098 -1.6965  0.3949  0.4477
 6966SOL    HW232535   1.267   2.214   9.122  1.2847  0.1086  1.5020
 6967SOL     OW32536   1.885   0.388   2.460  0.3785 -0.2351  0.2883
 6967SOL    HW132537   1.795   0.354   2.470 -0.5177  1.9625 -0.4099
 6967SOL    HW232538   1.910   0.356   2.373 -1.0877 -0.2509 -0.1321
 6968SOL     OW32539   0.166   3.609   6.249  0.0767  0.3288  0.3026
 6968SOL    HW132540   0.127   3.523   6.263 -1.2395  0.7430 -0.7821
 6968SOL    HW232541   0.130   3.663   6.320  2.1239 -0.0090  1.5754
 6969SOL     OW32542   4.450   4.389   5.525  1.0489  0.2988 -0.5932
 6969SOL    HW132543   4.407   4.472   5.544 -0.1915 -0.1444 -1.4872
 6969SOL    HW232544   4.523   4.397   5.587  0.9899 -2.1992 -0.1962
 6970SOL     OW32545   1.036   0.784  11.706 -0.4023 -0.3523 -0.6669
 6970SOL    HW132546   0.993   0.766  11.789  1.8859  0.6796  0.7497
 6970SOL    HW232547   1.083   0.867  11.715  0.5570 -0.8852 -0.7506
 6971SOL     OW32548   3.303   1.828   3.058  0.4163 -0.0485 -0.2035
 6971SOL    HW132549   3.350   1.899   3.013  1.8961 -0.7746  0.1852
 6971SOL    HW232550   3.280   1.869   3.141 -0.0899  0.0372 -0.3905
 6972SOL     OW32551   1.181   2.470   8.501 -0.1145 -0.6203 -0.8185
 6972SOL    HW132552   1.158   2.384   8.537 -0.7146  0.3487  1.1047
 6972SOL    HW232553   1.095   2.510   8.515 -0.0769 -1.3490  1.5467
 6973SOL     OW32554   1.457   4.246   2.206 -0.1656 -0.0574  0.0260
 6973SOL    HW132555   1.465   4.155   2.236  0.6857  0.2559  0.7494
 6973SOL    HW232556   1.432   4.291   2.287 -0.7854  1.1594 -0.8512
 6974SOL     OW32557   1.198   1.753   7.189  0.0849 -0.2450  0.0919
 6974SOL    HW132558   1.153   1.737   7.272 -0.3575  1.3070  0.1541
 6974SOL    HW232559   1.135   1.786   7.126 -0.4557 -2.7023 -0.6488
 6975SOL     OW32560   0.724   1.074   7.060 -0.2246  0.1024  0.0900
 6975SOL    HW132561   0.634   1.101   7.041 -0.8973 -0.9373  1.7384
 6975SOL    HW232562   0.734   1.016   6.984  1.6267 -1.7668  1.7672
 6976SOL     OW32563   3.770   1.342   6.533  0.1239  0.4520  0.3631
 6976SOL    HW132564   3.777   1.276   6.602 -2.7501  0.1508  0.3641
 6976SOL    HW232565   3.685   1.374   6.565 -1.6857 -1.8547 -2.1977
 6977SOL     OW32566   1.849   3.269  16.506  0.3441 -0.2135  0.7205
 6977SOL    HW132567   1.866   3.284  16.414  0.3172  0.3192  0.8070
 6977SOL    HW232568   1.799   3.341  16.543  0.1089  0.4626 -0.9356
 6978SOL     OW32569   4.588   4.305   3.833 -0.0633 -0.0029  0.0783
 6978SOL    HW132570   4.535   4.294   3.755 -0.3698 -0.6680  0.3871
 6978SOL    HW232571   4.602   4.216   3.866  0.6989  0.0377 -0.1340
 6979SOL     OW32572   4.306   4.160   9.147 -0.3431 -0.5198  0.1601
 6979SOL    HW132573   4.358   4.168   9.227  0.4568  1.3254 -0.5516
 6979SOL    HW232574   4.290   4.066   9.153  0.6330 -0.7044 -0.0192
 6980SOL     OW32575   1.455   3.901   6.073 -0.1722 -0.0767  0.4334
 6980SOL    HW132576   1.376   3.866   6.033 -0.7856  1.3499  0.3874
 6980SOL    HW232577   1.417   3.945   6.149 -0.8656  0.4758 -0.2456
 6981SOL     OW32578   1.625   0.490   2.877  0.2144 -0.3733 -0.3756
 6981SOL    HW132579   1.619   0.531   2.791  1.3642 -1.3146 -0.8990
 6981SOL    HW232580   1.662   0.568   2.919  1.4492 -1.2740  0.2034
 6982SOL     OW32581   0.895   2.656   2.570 -0.4997 -0.4810 -0.4084
 6982SOL    HW132582   0.835   2.584   2.588 -1.1170  1.3926  4.7863
 6982SOL    HW232583   0.985   2.626   2.585  0.1917  2.0252  0.4090
 6983SOL     OW32584   1.381   2.378   6.356 -0.1563  0.2997  0.5144
 6983SOL    HW132585   1.387   2.339   6.443 -0.5782 -1.1227 -0.0885
 6983SOL    HW232586   1.419   2.315   6.295 -0.7635  0.3300  0.0984
 6984SOL     OW32587   0.844   4.067   2.138  0.4170  0.0855  0.1322
 6984SOL    HW132588   0.845   4.138   2.074 -1.6730  2.3170  2.5701
 6984SOL    HW232589   0.928   4.084   2.180 -0.2123 -1.1121  1.8868
 6985SOL     OW32590   2.024   3.156   0.376  0.0682 -0.2494  0.1565
 6985SOL    HW132591   1.937   3.117   0.382 -1.4138  3.0634  0.2734
 6985SOL    HW232592   2.076   3.075   0.378 -1.8722 -1.4907 -0.4207
 6986SOL     OW32593   1.375   4.132  16.943 -0.1769  0.1171 -0.4671
 6986SOL    HW132594   1.380   4.162  17.033 -0.9805  0.6302 -0.5950
 6986SOL    HW232595   1.469   4.125  16.925  0.1612  1.2278  0.8913
 6987SOL     OW32596   2.924   0.236  17.133 -0.1010 -0.3127  0.0874
 6987SOL    HW132597   2.891   0.243  17.222 -0.0840  0.2289  0.0473
 6987SOL    HW232598   2.844   0.204  17.091 -0.1000  2.0205 -1.7188
 6988SOL     OW32599   0.415   4.244   5.517 -0.6236  0.4190 -0.3421
 6988SOL    HW132600   0.368   4.202   5.589 -1.0854  1.8351  0.1797
 6988SOL    HW232601   0.361   4.322   5.509 -0.8432  0.2798 -0.2041
 6989SOL     OW32602   3.804   2.200   1.957  0.0564  0.3085  0.1913
 6989SOL    HW132603   3.722   2.237   1.923 -1.4797 -1.2679  2.1501
 6989SOL    HW232604   3.777   2.184   2.048 -1.1479 -1.2325 -0.4286
 6990SOL     OW32605   2.211   0.721   7.587 -0.3189  0.7968  0.5747
 6990SOL    HW132606   2.243   0.811   7.599 -0.4092  0.8788  0.1720
 6990SOL    HW232607   2.293   0.679   7.563  0.8298  3.3665  0.0657
 6991SOL     OW32608   4.082   0.004   9.467  0.1645  0.1198  0.0919
 6991SOL    HW132609   4.143   4.666   9.459  0.5054  0.3179  0.8612
 6991SOL    HW232610   3.997   4.699   9.451 -0.7496  1.5806  1.1797
 6992SOL     OW32611   3.973   2.084   4.976 -0.0414  0.6724  0.2173
 6992SOL    HW132612   4.060   2.100   4.940  1.3129 -1.3946  2.5180
 6992SOL    HW232613   3.933   2.170   4.987  1.0581  0.8877  2.5755
 6993SOL     OW32614   1.006   0.062   6.753  0.0270 -0.8727  0.4691
 6993SOL    HW132615   0.993   0.084   6.845 -2.7140 -2.0698  0.3921
 6993SOL    HW232616   1.025   4.706   6.764 -3.2474 -1.4695  1.2971
 6994SOL     OW32617   0.642   2.408   2.337  0.3932  0.4593  0.2114
 6994SOL    HW132618   0.632   2.465   2.260  1.4805  1.3874  0.7622
 6994SOL    HW232619   0.562   2.358   2.318 -1.8081  3.6874  1.0774
 6995SOL     OW32620   0.011   2.913  10.961  0.4351 -0.5478  0.2829
 6995SOL    HW132621   4.687   2.972  11.006  2.2951  1.7325 -0.2093
 6995SOL    HW232622   4.714   2.924  10.872  0.7245  0.3817  0.2870
 6996SOL     OW32623   1.123   2.762  12.832  0.3921  0.2658 -0.1672
 6996SOL    HW132624   1.077   2.684  12.863 -1.4698  0.9766 -1.1733
 6996SOL    HW232625   1.050   2.813  12.796  1.0531  2.1182  1.1140
 6997SOL     OW32626   2.210   0.603   8.107  0.1903 -0.1233 -0.3234
 6997SOL    HW132627   2.125   0.558   8.100 -0.3068  0.4018  2.2440
 6997SOL    HW232628   2.193   0.664   8.034 -1.0205 -0.7004 -0.5264
 6998SOL     OW32629   2.428   1.243   8.922 -0.3655  0.0412 -0.7276
 6998SOL    HW132630   2.383   1.292   8.853 -0.7687  0.3664 -0.2401
 6998SOL    HW232631   2.363   1.175   8.942 -1.0583  0.8984 -0.0349
 6999SOL     OW32632   0.458   2.283  17.237 -0.3917  0.6580  0.3028
 6999SOL    HW132633   0.369   2.300  17.267 -0.7111 -0.3611 -0.0781
 6999SOL    HW232634   0.458   2.318  17.148  1.8897 -0.9206 -0.3310
 7000SOL     OW32635   4.110   0.225   9.638  0.2944  0.1976 -0.0103
 7000SOL    HW132636   4.069   0.291   9.583  0.6920  1.1645  0.8306
 7000SOL    HW232637   4.101   0.150   9.580 -0.1103 -0.0065  0.3166
 7001SOL     OW32638   1.048   4.283  14.779  0.4551  0.3141 -0.0825
 7001SOL    HW132639   1.126   4.339  14.778  0.3969  0.3842 -1.0872
 7001SOL    HW232640   1.039   4.270  14.873  0.4853 -0.7497 -0.2229
 7002SOL     OW32641   1.788   3.094   2.685  0.7364  0.2143 -1.0733
 7002SOL    HW132642   1.700   3.102   2.650  0.4452 -2.4242 -0.9633
 7002SOL    HW232643   1.782   3.142   2.767 -1.5697  2.1955 -2.3983
 7003SOL     OW32644   1.528   2.757   7.947 -0.2880  0.4554 -0.0063
 7003SOL    HW132645   1.597   2.691   7.953 -0.8157 -0.0232  0.7516
 7003SOL    HW232646   1.564   2.829   7.895 -0.0142 -1.0761 -1.9361
 7004SOL     OW32647   3.290   2.374  17.537 -0.2020 -0.3303  0.2882
 7004SOL    HW132648   3.215   2.373  17.597 -1.9413 -0.6596 -1.8782
 7004SOL    HW232649   3.293   2.286  17.499 -2.0560 -0.2728  0.0039
 7005SOL     OW32650   3.592   2.099   5.033  0.0700  0.0288 -0.1391
 7005SOL    HW132651   3.631   2.055   4.957  0.8388 -0.7308  0.7000
 7005SOL    HW232652   3.500   2.104   5.007  0.1401  0.5673 -0.2922
 7006SOL     OW32653   1.581   3.260   5.476 -0.4419 -0.7176 -0.5412
 7006SOL    HW132654   1.667   3.262   5.434 -0.5095 -2.0320 -0.7468
 7006SOL    HW232655   1.531   3.286   5.398 -0.1747  0.8951 -0.1792
 7007SOL     OW32656   1.564   4.127   3.289  0.2751  0.0399 -0.2839
 7007SOL    HW132657   1.543   4.035   3.302 -1.9110  0.4312 -1.1449
 7007SOL    HW232658   1.479   4.163   3.313  1.3045  1.2028  1.6259
 7008SOL     OW32659   4.308   1.804   4.300 -0.5216  0.2664  0.0292
 7008SOL    HW132660   4.330   1.752   4.223 -3.9948 -1.3435  0.1099
 7008SOL    HW232661   4.295   1.890   4.259  0.4079  1.2589  1.8287
 7009SOL     OW32662   3.443   2.137  13.135  0.1040  0.1994 -0.1523
 7009SOL    HW132663   3.378   2.124  13.066  2.0214  1.4482 -2.1843
 7009SOL    HW232664   3.421   2.225  13.164  2.3056 -0.2009  2.7452
 7010SOL     OW32665   0.823   0.954   4.944  0.1850 -0.1353  0.5684
 7010SOL    HW132666   0.843   0.955   4.850 -1.6065 -1.2737  0.1863
 7010SOL    HW232667   0.843   1.047   4.960 -0.2445  0.4212 -2.0236
 7011SOL     OW32668   1.379   1.140  16.124 -0.4587 -0.2688  0.3935
 7011SOL    HW132669   1.306   1.188  16.084 -0.1523 -0.3182 -0.2293
 7011SOL    HW232670   1.346   1.053  16.101 -1.6072 -0.3791  2.4571
 7012SOL     OW32671   1.090   3.806   7.976  0.5681 -0.0473  0.1313
 7012SOL    HW132672   1.107   3.744   8.047  0.6656 -1.7092 -1.3441
 7012SOL    HW232673   0.997   3.827   7.976  0.7793  0.8104  2.2393
 7013SOL     OW32674   0.904   3.760   2.278 -0.6560  0.5776 -0.0271
 7013SOL    HW132675   0.838   3.719   2.334  1.3172  2.0187  3.3491
 7013SOL    HW232676   0.920   3.844   2.323 -3.1471  1.2977 -0.4651
 7014SOL     OW32677   4.337   4.022  11.586 -0.4270  0.3337  0.0189
 7014SOL    HW132678   4.330   3.934  11.549 -2.4245  0.3264  0.4353
 7014SOL    HW232679   4.432   4.032  11.579 -0.2055 -0.0032  2.5758
 7015SOL     OW32680   0.469   3.779   9.326 -0.1624  0.1619  0.3744
 7015SOL    HW132681   0.390   3.834   9.318 -0.1325 -0.2124 -2.5255
 7015SOL    HW232682   0.531   3.829   9.379  0.1028  0.8320 -0.5627
 7016SOL     OW32683   0.747   1.812  16.894 -0.0114 -0.3078  0.2559
 7016SOL    HW132684   0.692   1.769  16.829  4.0130 -0.6768 -2.9156
 7016SOL    HW232685   0.777   1.745  16.956  0.4054 -0.2839  0.0832
 7017SOL     OW32686   1.433   3.632   7.828 -0.1030 -0.2173  0.5167
 7017SOL    HW132687   1.449   3.633   7.922  0.1071  0.9251  0.4729
 7017SOL    HW232688   1.483   3.554   7.803  0.3409  0.4582 -0.7196
 7018SOL     OW32689   1.329   0.851   7.256  0.2812  0.2147 -0.3300
 7018SOL    HW132690   1.359   0.789   7.323 -0.6214  1.0356  0.8494
 7018SOL    HW232691   1.233   0.845   7.261  0.0537  2.4957 -1.8677
 7019SOL     OW32692   2.287   2.264   7.259  0.3884  0.2517 -0.5130
 7019SOL    HW132693   2.253   2.351   7.282 -1.7306 -1.2550  1.9676
 7019SOL    HW232694   2.205   2.218   7.239  0.1670 -0.3945  1.9758
 7020SOL     OW32695   1.533   1.229   3.677 -0.5496  0.2438 -0.2707
 7020SOL    HW132696   1.492   1.209   3.593  0.8518  0.4460 -1.0058
 7020SOL    HW232697   1.525   1.325   3.673 -0.0290  0.3189  0.4389
 7021SOL     OW32698   2.257   3.553   7.888  0.1353  0.3274  0.2468
 7021SOL    HW132699   2.275   3.535   7.796 -0.9171 -0.7415  0.2549
 7021SOL    HW232700   2.334   3.501   7.913  1.2970  1.7495 -0.3662
 7022SOL     OW32701   1.233   0.254   5.617 -0.3023 -0.2591 -0.5524
 7022SOL    HW132702   1.150   0.244   5.663 -0.7812  0.5904 -1.2219
 7022SOL    HW232703   1.228   0.180   5.556 -0.8710 -1.1598  0.5895
 7023SOL     OW32704   3.435   2.940   5.712  0.7131  0.1740  0.3505
 7023SOL    HW132705   3.349   2.968   5.741  0.9203  1.1230  0.0515
 7023SOL    HW232706   3.472   2.934   5.800  0.8040 -1.6005  0.2035
 7024SOL     OW32707   3.188   2.778   3.030 -0.0411  0.2283  0.4542
 7024SOL    HW132708   3.124   2.741   2.968  0.7940 -3.0174  1.5362
 7024SOL    HW232709   3.138   2.855   3.055 -0.5970  0.5005 -1.4777
 7025SOL     OW32710   3.608   3.631   2.820 -0.4194 -0.1761 -0.3208
 7025SOL    HW132711   3.595   3.601   2.910  0.1538  0.8548  0.1042
 7025SOL    HW232712   3.698   3.608   2.798  0.0053 -0.6425  1.8655
 7026SOL     OW32713   3.401   1.131  13.036  0.3763 -0.1012  0.1721
 7026SOL    HW132714   3.479   1.147  12.983 -0.3431  0.3646 -0.7384
 7026SOL    HW232715   3.403   1.199  13.104  0.7169 -0.2657  0.3275
 7027SOL     OW32716   3.237   3.347  15.245  0.1630 -0.4896  0.3671
 7027SOL    HW132717   3.330   3.328  15.258 -0.0505 -1.5857  0.2400
 7027SOL    HW232718   3.209   3.372  15.333  1.8432 -1.1264  1.0880
 7028SOL     OW32719   1.038   0.307   2.380 -0.0254  0.1234  0.0038
 7028SOL    HW132720   1.123   0.340   2.349 -0.1490 -1.3519 -1.8995
 7028SOL    HW232721   0.995   0.289   2.297 -0.5851 -0.9568  0.5325
 7029SOL     OW32722   3.218   0.220  10.666  0.5786 -0.3159 -0.3901
 7029SOL    HW132723   3.230   0.148  10.728 -2.0268  0.0655  0.5504
 7029SOL    HW232724   3.299   0.266  10.686 -0.0288  0.3001  0.6372
 7030SOL     OW32725   1.664   0.747  12.725  0.1605  0.3619 -0.2604
 7030SOL    HW132726   1.642   0.740  12.633 -1.2489 -0.4361  0.1461
 7030SOL    HW232727   1.697   0.837  12.721 -2.4896  1.4005  0.9332
 7031SOL     OW32728   4.690   1.468  10.650 -0.4005 -0.3754 -0.1439
 7031SOL    HW132729   4.660   1.552  10.685 -1.1940 -1.4999  1.8959
 7031SOL    HW232730   0.045   1.467  10.676  0.4443  1.1235 -3.0829
 7032SOL     OW32731   3.180   3.000   5.796  0.1161  0.6815 -0.6236
 7032SOL    HW132732   3.128   2.921   5.811  1.4165 -0.7466 -3.6696
 7032SOL    HW232733   3.184   3.039   5.883  2.0877  1.0047 -0.8427
 7033SOL     OW32734   2.946   1.852   3.628  0.3482  0.7917  0.5709
 7033SOL    HW132735   3.029   1.898   3.630  1.2376 -0.8101  0.5867
 7033SOL    HW232736   2.882   1.910   3.670 -0.3492  1.5131 -1.4758
 7034SOL     OW32737   1.484   0.259  11.837  0.2453  0.3682 -0.5403
 7034SOL    HW132738   1.450   0.273  11.749  0.1124  2.2596 -0.1990
 7034SOL    HW232739   1.414   0.304  11.883  1.2390  2.3520 -0.9338
 7035SOL     OW32740   0.308   1.190   4.449 -0.1046 -0.1080  0.4456
 7035SOL    HW132741   0.350   1.250   4.510  0.2398  0.4696 -0.3566
 7035SOL    HW232742   0.218   1.223   4.460  0.1300  0.2360  1.3188
 7036SOL     OW32743   1.788   2.501   3.159  0.2151  0.3775  0.1358
 7036SOL    HW132744   1.709   2.453   3.181 -0.2178  0.5015 -1.1840
 7036SOL    HW232745   1.847   2.434   3.125 -2.1412 -3.0269  2.7808
 7037SOL     OW32746   2.486   4.561   0.796  0.1379 -0.3052 -0.0816
 7037SOL    HW132747   2.423   4.514   0.849 -0.4309 -0.6867 -1.1034
 7037SOL    HW232748   2.479   4.499   0.723  1.4294  2.5839 -2.6925
 7038SOL     OW32749   3.549   3.891   2.730  0.5150  0.3865 -0.1611
 7038SOL    HW132750   3.575   3.808   2.768  0.7482  0.9517  0.9037
 7038SOL    HW232751   3.454   3.904   2.742  0.8603  2.1877  0.6772
 7039SOL     OW32752   1.527   2.892  17.313  0.1763 -0.7013 -0.3150
 7039SOL    HW132753   1.560   2.980  17.331  0.0970 -1.0191  1.3532
 7039SOL    HW232754   1.527   2.900  17.218 -0.7094 -0.6654 -0.3199
 7040SOL     OW32755   1.623   3.478   6.826  0.2723 -0.6174 -0.6691
 7040SOL    HW132756   1.668   3.421   6.889 -1.1631 -2.0559 -0.9518
 7040SOL    HW232757   1.697   3.513   6.776  1.9117  0.3082  2.3666
 7041SOL     OW32758   3.206   1.591   0.602  0.3641 -0.1451 -0.6621
 7041SOL    HW132759   3.174   1.566   0.515  0.1081 -0.7677 -0.3860
 7041SOL    HW232760   3.140   1.548   0.657  1.3313 -1.3836 -0.4574
 7042SOL     OW32761   0.545   0.827   3.110  0.2875 -0.1164 -0.2093
 7042SOL    HW132762   0.542   0.754   3.049  0.9512 -1.4393  1.3318
 7042SOL    HW232763   0.455   0.854   3.125  1.2146  0.5411  4.4372
 7043SOL     OW32764   3.285   0.827   0.905 -0.2830 -0.1273 -0.1602
 7043SOL    HW132765   3.229   0.753   0.931 -0.8199 -0.4700 -2.2953
 7043SOL    HW232766   3.224   0.871   0.846  0.0593 -1.5009 -1.5414
 7044SOL     OW32767   0.303   4.265  11.501  0.1741 -0.1736  0.1096
 7044SOL    HW132768   0.378   4.212  11.528  1.2942  0.6403 -1.3629
 7044SOL    HW232769   0.291   4.251  11.407 -0.8523  0.3080  0.1742
 7045SOL     OW32770   4.435   4.278   3.595 -0.5076  0.7670  0.2108
 7045SOL    HW132771   4.486   4.322   3.527 -0.0268  1.6279  1.1473
 7045SOL    HW232772   4.366   4.232   3.545 -0.2062  1.2978 -0.6938
 7046SOL     OW32773   0.007   3.464   3.457  0.3030  0.4497 -0.2312
 7046SOL    HW132774   0.017   3.433   3.546  0.7293  1.1211 -0.0387
 7046SOL    HW232775   0.084   3.428   3.412  0.0661 -0.5399  0.1757
 7047SOL     OW32776   3.027   3.457  13.009 -0.1844  0.3888 -0.1445
 7047SOL    HW132777   2.939   3.444  13.046 -0.7085 -0.9534 -1.8545
 7047SOL    HW232778   3.037   3.381  12.952 -2.4296  0.4454 -0.6438
 7048SOL     OW32779   3.228   0.306   3.899 -0.6085  0.3582 -0.3824
 7048SOL    HW132780   3.204   0.216   3.920  1.0389  0.3067  1.1809
 7048SOL    HW232781   3.320   0.309   3.923 -0.8528 -0.9883  0.7466
 7049SOL     OW32782   3.366   0.322   8.008  0.3840  0.4367 -0.4423
 7049SOL    HW132783   3.436   0.386   7.997 -0.1700  0.9779 -0.8018
 7049SOL    HW232784   3.365   0.281   7.922 -0.9271  0.1780 -0.3108
 7050SOL     OW32785   2.105   4.234   2.703  0.2595  0.0426 -0.3001
 7050SOL    HW132786   2.065   4.218   2.617  3.0086 -0.1853 -1.5257
 7050SOL    HW232787   2.192   4.195   2.693  0.9935  1.2350  1.5701
 7051SOL     OW32788   1.141   4.376   9.305 -0.2852 -0.9852 -0.1061
 7051SOL    HW132789   1.066   4.402   9.251  1.2322  2.5370 -0.5101
 7051SOL    HW232790   1.093   4.359   9.386  1.7245 -0.7435  1.1183
 7052SOL     OW32791   2.750   0.347   2.988  0.1654 -0.2029 -0.5241
 7052SOL    HW132792   2.767   0.271   3.044  0.8577  0.5526  0.2880
 7052SOL    HW232793   2.689   0.307   2.926 -0.8396  0.5885 -0.0298
 7053SOL     OW32794   3.109   0.530  10.640  0.2098  0.0396 -0.5431
 7053SOL    HW132795   3.144   0.464  10.579 -1.0833  0.9990 -2.3342
 7053SOL    HW232796   3.023   0.493  10.661 -0.5513  0.1390 -3.3872
 7054SOL     OW32797   3.272   4.270   3.343  0.0285 -0.2131 -0.7848
 7054SOL    HW132798   3.295   4.190   3.297 -1.9974 -2.2632  1.7528
 7054SOL    HW232799   3.210   4.233   3.406 -0.0170  2.4526  0.7475
 7055SOL     OW32800   2.206   1.866   9.849 -0.2898  0.0878  0.0026
 7055SOL    HW132801   2.143   1.935   9.869 -1.5802 -1.0728  0.0008
 7055SOL    HW232802   2.282   1.908   9.889 -0.4268  0.3056  0.0347
 7056SOL     OW32803   0.721   2.366  17.326 -0.6803 -0.0958 -0.0616
 7056SOL    HW132804   0.687   2.378  17.237 -0.4364  1.0763  0.0041
 7056SOL    HW232805   0.812   2.350  17.300 -0.9081 -0.4968 -0.6202
 7057SOL     OW32806   2.600   2.178  10.810  0.0585 -1.2876 -0.1926
 7057SOL    HW132807   2.669   2.131  10.763  2.4539  0.8929  1.1238
 7057SOL    HW232808   2.644   2.258  10.840 -0.4933 -1.6895  1.6709
 7058SOL     OW32809   2.483   0.602  16.408  0.3359  0.1606 -0.0215
 7058SOL    HW132810   2.431   0.522  16.414 -0.3139  0.4970 -1.2051
 7058SOL    HW232811   2.415   0.670  16.417  0.6187  0.2958  1.1534
 7059SOL     OW32812   3.706   3.001  10.527  0.4252 -0.1280  0.5694
 7059SOL    HW132813   3.648   2.968  10.458 -1.7906  0.4436  2.1516
 7059SOL    HW232814   3.678   3.092  10.535 -0.8801 -0.2258 -2.6211
 7060SOL     OW32815   3.461   3.406  15.477 -0.1063 -0.1417 -0.0844
 7060SOL    HW132816   3.553   3.430  15.471 -0.2612  0.6656  0.8385
 7060SOL    HW232817   3.419   3.485  15.444 -1.2812 -1.1791 -1.0781
 7061SOL     OW32818   4.074   1.274   6.809  0.3645  0.3443 -0.3020
 7061SOL    HW132819   4.105   1.316   6.889  0.9844  1.3773 -1.0702
 7061SOL    HW232820   4.068   1.351   6.752 -0.1249  1.5103  1.3443
 7062SOL     OW32821   3.791   1.706   7.950 -0.4921  0.0978  0.7287
 7062SOL    HW132822   3.714   1.730   7.897  0.6682 -0.4291 -1.1751
 7062SOL    HW232823   3.757   1.628   7.994  2.7210 -0.6942  1.7564
 7063SOL     OW32824   4.259   3.489  12.666  0.2367  0.3209 -0.2759
 7063SOL    HW132825   4.253   3.517  12.575 -1.9459 -0.7451 -0.4394
 7063SOL    HW232826   4.348   3.453  12.668  0.7335  1.5873  1.2523
 7064SOL     OW32827   3.863   0.560  10.629 -0.1723  0.7656  0.1276
 7064SOL    HW132828   3.782   0.587  10.672  0.3067 -0.8364  2.0371
 7064SOL    HW232829   3.837   0.482  10.579 -1.1387  1.6485 -0.7601
 7065SOL     OW32830   3.751   2.066  11.958 -0.1963  0.0368 -0.5724
 7065SOL    HW132831   3.688   2.035  11.893  1.2529  1.0683 -2.4848
 7065SOL    HW232832   3.695   2.078  12.034  0.8661  1.5981 -0.0170
 7066SOL     OW32833   3.347   1.339   8.816  0.4020  1.0572  0.0201
 7066SOL    HW132834   3.347   1.244   8.824 -0.5863  1.0212 -0.5155
 7066SOL    HW232835   3.442   1.352   8.811  0.8005 -1.7916  0.2870
 7067SOL     OW32836   1.812   3.882   6.726 -0.0038 -0.1846  0.0445
 7067SOL    HW132837   1.786   3.892   6.634 -0.2994 -0.7106  0.0746
 7067SOL    HW232838   1.868   3.958   6.741 -0.6249 -0.1366  2.1753
 7068SOL     OW32839   1.334   3.389  16.320  0.4185  0.0912 -0.0330
 7068SOL    HW132840   1.369   3.450  16.255  1.5171 -0.3140  0.1853
 7068SOL    HW232841   1.353   3.433  16.403 -0.0348  0.2846 -0.0298
 7069SOL     OW32842   0.494   2.924  10.115  0.2695  0.2056  0.0265
 7069SOL    HW132843   0.571   2.944  10.062  0.7979  2.9790  1.7876
 7069SOL    HW232844   0.531   2.915  10.203 -1.0703  0.1532  0.5906
 7070SOL     OW32845   1.755   2.242   8.651  0.3045  0.2298  0.1390
 7070SOL    HW132846   1.719   2.190   8.579 -2.1675  0.3642  1.3109
 7070SOL    HW232847   1.694   2.314   8.664 -0.1600  0.1720 -1.6275
 7071SOL     OW32848   1.686   0.989   2.892  0.4455 -0.4831 -0.5372
 7071SOL    HW132849   1.755   1.052   2.868  1.2275 -0.1263  2.6373
 7071SOL    HW232850   1.731   0.919   2.938 -0.2820  0.6399  1.9205
 7072SOL     OW32851   3.605   0.957  14.239  0.2796 -0.2608  0.1880
 7072SOL    HW132852   3.600   0.944  14.334 -1.2019  2.2347  0.4531
 7072SOL    HW232853   3.612   1.053  14.236 -0.4949 -0.1586  1.4831
 7073SOL     OW32854   0.658   0.551   6.908  0.1301  0.1383  0.0622
 7073SOL    HW132855   0.597   0.490   6.950 -0.0713  0.4073  0.1654
 7073SOL    HW232856   0.679   0.603   6.986 -1.7814 -0.0402  0.7168
 7074SOL     OW32857   1.177   1.667   5.046 -0.0494 -1.2421  0.2276
 7074SOL    HW132858   1.202   1.592   4.993 -0.2596 -0.2837 -1.2229
 7074SOL    HW232859   1.257   1.717   5.029  0.8295 -2.1740  1.5993
 7075SOL     OW32860   3.116   3.639   6.996 -0.3845 -0.1531 -0.7430
 7075SOL    HW132861   3.155   3.619   7.081 -0.2461 -0.7238 -0.9413
 7075SOL    HW232862   3.028   3.603   7.011  1.1223 -2.6686  1.9977
 7076SOL     OW32863   4.234   0.547   8.134 -0.2361  0.5923  0.4389
 7076SOL    HW132864   4.309   0.491   8.151 -0.2010 -0.7457 -4.1152
 7076SOL    HW232865   4.235   0.554   8.038  1.4497 -2.5065  0.2440
 7077SOL     OW32866   2.062   4.580   3.686 -0.0236 -0.4832 -0.7541
 7077SOL    HW132867   2.045   4.597   3.593 -1.2075  1.1874 -0.2391
 7077SOL    HW232868   1.987   4.624   3.726  1.7168 -0.7699  2.7724
 7078SOL     OW32869   4.539   3.046   2.227 -0.0817  0.6447 -0.3932
 7078SOL    HW132870   4.487   3.111   2.180  1.1815  1.5210 -0.5690
 7078SOL    HW232871   4.486   3.031   2.306  0.2300 -0.6979 -0.4370
 7079SOL     OW32872   0.443   4.437  11.201 -0.6962 -0.1428  0.0708
 7079SOL    HW132873   0.468   4.469  11.115 -2.1385  1.1836  0.1411
 7079SOL    HW232874   0.509   4.370  11.219 -0.3188  0.3221  0.3983
 7080SOL     OW32875   3.539   0.063   6.996 -0.1186 -0.4251  0.4144
 7080SOL    HW132876   3.545   4.726   6.935  2.0200 -0.2903  0.4512
 7080SOL    HW232877   3.446   0.072   7.016 -0.6634 -1.0416 -1.8524
 7081SOL     OW32878   0.176   1.152   3.267 -0.4331 -0.1613  0.0522
 7081SOL    HW132879   0.165   1.105   3.350 -0.1458  0.3202  0.3638
 7081SOL    HW232880   0.089   1.171   3.232 -0.5950 -2.3535 -0.7217
 7082SOL     OW32881   4.229   2.661   6.992  0.0068  0.1247  0.1654
 7082SOL    HW132882   4.279   2.737   7.021 -1.3939  1.5974 -1.2217
 7082SOL    HW232883   4.218   2.692   6.901  1.4327  0.1001 -0.0118
 7083SOL     OW32884   1.061   2.969   5.052  0.1704  0.5866 -0.8677
 7083SOL    HW132885   1.069   2.880   5.088 -2.6124 -0.4613 -2.7860
 7083SOL    HW232886   1.008   2.953   4.973 -0.1381  1.0315 -0.7472
 7084SOL     OW32887   2.005   1.000   3.940  0.0699 -0.2887 -0.5857
 7084SOL    HW132888   2.067   0.947   3.891  0.5413  0.9589 -1.3305
 7084SOL    HW232889   1.950   1.045   3.875  0.9467  0.7824 -0.5887
 7085SOL     OW32890   3.597   2.294   6.471 -0.0720 -0.2796  0.0718
 7085SOL    HW132891   3.616   2.364   6.409 -0.4422 -0.7961 -0.6240
 7085SOL    HW232892   3.644   2.227   6.422 -2.2604  0.3333 -2.8249
 7086SOL     OW32893   4.359   0.103   5.421  0.0522  0.6929  0.2739
 7086SOL    HW132894   4.308   0.154   5.359  0.0514 -0.3175 -0.5681
 7086SOL    HW232895   4.396   0.174   5.472  0.5393  1.1444 -0.7051
 7087SOL     OW32896   0.242   0.320  15.339  0.1437 -0.2388 -0.3300
 7087SOL    HW132897   0.309   0.265  15.378  0.1372 -1.5692 -2.2006
 7087SOL    HW232898   0.158   0.281  15.364 -0.6608  1.1965 -0.8014
 7088SOL     OW32899   4.637   2.543  10.218 -0.0730 -0.2434  0.1064
 7088SOL    HW132900   4.622   2.623  10.169 -1.5651 -0.9396 -0.5814
 7088SOL    HW232901   4.586   2.477  10.170  0.6899 -2.5788  2.5059
 7089SOL     OW32902   2.098   2.544   8.197  0.6255 -0.0791 -0.1242
 7089SOL    HW132903   2.111   2.512   8.107 -1.8550  0.1207 -0.5531
 7089SOL    HW232904   2.185   2.550   8.237 -0.0311 -0.5400  1.3824
 7090SOL     OW32905   0.627   3.773  12.778  0.1865  0.3148 -0.4792
 7090SOL    HW132906   0.620   3.864  12.809  1.2425  0.6664 -1.2494
 7090SOL    HW232907   0.699   3.779  12.715  0.7144 -2.7079 -0.1288
 7091SOL     OW32908   1.672   2.759   0.277  0.1187 -0.3432 -0.5936
 7091SOL    HW132909   1.665   2.786   0.186 -2.4133 -0.2640 -0.3752
 7091SOL    HW232910   1.616   2.681   0.284 -0.2188  0.0546  1.1551
 7092SOL     OW32911   3.286   3.874   9.745 -0.6251  0.2421  0.0899
 7092SOL    HW132912   3.317   3.783   9.747 -2.0744 -0.2164  1.2304
 7092SOL    HW232913   3.193   3.884   9.765 -1.0716 -1.0052 -1.3851
 7093SOL     OW32914   2.619   3.384   6.466 -0.6315 -0.1297  0.4333
 7093SOL    HW132915   2.669   3.448   6.517 -0.7822  0.1162  0.2761
 7093SOL    HW232916   2.605   3.433   6.385  1.7732  1.2391  0.8302
 7094SOL     OW32917   3.354   3.720  10.880 -0.4623 -0.3046  0.1314
 7094SOL    HW132918   3.296   3.754  10.948  0.0988  0.9847 -0.0249
 7094SOL    HW232919   3.326   3.776  10.807  1.7394  2.6031  1.4917
 7095SOL     OW32920   0.164   3.680   8.229 -0.1877 -0.1084  0.1779
 7095SOL    HW132921   0.187   3.607   8.173 -2.6642 -0.6988 -0.0355
 7095SOL    HW232922   0.151   3.752   8.167  0.8882  1.3416  1.6210
 7096SOL     OW32923   3.676   3.373   7.096  0.0299 -0.1636 -0.0141
 7096SOL    HW132924   3.684   3.310   7.025  1.4339 -0.0856  0.0916
 7096SOL    HW232925   3.769   3.385   7.115  0.1608 -0.2219 -0.6055
 7097SOL     OW32926   0.049   4.721   2.555 -0.5193  0.3229  0.3774
 7097SOL    HW132927   4.735   0.037   2.493  0.6821  1.4188  0.3366
 7097SOL    HW232928   0.136   0.023   2.554  0.4508 -1.8340  1.0060
 7098SOL     OW32929   4.641   3.734   3.600 -0.2382  0.5010 -0.3542
 7098SOL    HW132930   4.585   3.796   3.646 -0.5933 -1.0392  1.2759
 7098SOL    HW232931   4.694   3.701   3.673  0.8390 -2.1643 -2.3524
 7099SOL     OW32932   1.957   2.596   6.612  0.4092 -0.0542 -0.1867
 7099SOL    HW132933   2.005   2.676   6.634  0.4758  0.0419 -0.6873
 7099SOL    HW232934   1.884   2.617   6.554  0.4000  1.0322  0.2241
 7100SOL     OW32935   4.074   3.500   1.256  0.0775  0.0127  0.1718
 7100SOL    HW132936   4.159   3.495   1.210  0.9152 -0.8116  1.8093
 7100SOL    HW232937   4.008   3.444   1.214  0.2305  0.1175 -0.2138
 7101SOL     OW32938   1.204   3.043  12.469 -0.0517  0.1751  0.2297
 7101SOL    HW132939   1.255   3.004  12.539 -0.7056  1.9645  1.6925
 7101SOL    HW232940   1.142   3.093  12.523 -0.0899  0.3602  0.0151
 7102SOL     OW32941   3.677   0.771  15.641 -0.3542 -0.3290 -0.3499
 7102SOL    HW132942   3.652   0.778  15.548 -0.2932 -4.2196 -0.6523
 7102SOL    HW232943   3.665   0.861  15.670  0.5697 -0.2883 -0.1207
 7103SOL     OW32944   3.122   4.690   1.623  0.4260  0.8254  0.6439
 7103SOL    HW132945   3.118   4.612   1.679 -0.0057 -1.7080 -2.9038
 7103SOL    HW232946   3.215   4.711   1.633  0.7539  0.0045 -0.7021
 7104SOL     OW32947   1.065   4.093   6.095  0.0850  0.0362 -0.7546
 7104SOL    HW132948   1.107   4.059   6.173 -0.0490 -2.2294 -1.6511
 7104SOL    HW232949   1.123   4.054   6.030  0.6608  1.1683 -0.9130
 7105SOL     OW32950   2.526   2.707   5.271  0.2448  0.4648  0.5035
 7105SOL    HW132951   2.567   2.697   5.185  1.1890  2.0555  0.7561
 7105SOL    HW232952   2.466   2.780   5.256 -0.2096 -0.1836 -0.8245
 7106SOL     OW32953   3.467   1.911   8.629  0.4591  0.1668 -0.2439
 7106SOL    HW132954   3.476   1.890   8.536  0.9638  1.0749 -0.4042
 7106SOL    HW232955   3.554   1.938   8.659 -0.5298  2.5591  0.5309
 7107SOL     OW32956   2.752   1.224  11.979  0.0500 -0.6679  1.2373
 7107SOL    HW132957   2.758   1.165  12.054 -0.8341 -1.1726  0.8980
 7107SOL    HW232958   2.661   1.246  11.998  0.6996  2.0526  1.2984
 7108SOL     OW32959   1.858   1.154  11.777 -0.5047  0.3345 -0.5171
 7108SOL    HW132960   1.941   1.193  11.751 -2.1280  1.8849 -3.3975
 7108SOL    HW232961   1.835   1.218  11.845 -1.4015 -0.0614 -0.4542
 7109SOL     OW32962   3.093   1.223   9.246 -0.1051  0.3863  0.1348
 7109SOL    HW132963   3.175   1.200   9.203 -0.8948  0.7779 -1.6067
 7109SOL    HW232964   3.115   1.223   9.339  0.3777 -0.8110  0.0233
 7110SOL     OW32965   0.788   4.642  11.844 -0.3378  0.3999 -0.1697
 7110SOL    HW132966   0.824   4.656  11.756 -0.2334 -0.8028 -0.3053
 7110SOL    HW232967   0.695   4.663  11.828 -1.4131 -3.5853  0.8390
 7111SOL     OW32968   2.456   4.030   3.958 -0.3456  0.2363  0.1611
 7111SOL    HW132969   2.471   4.077   3.875 -1.5559 -0.3669 -0.4019
 7111SOL    HW232970   2.362   4.042   3.974 -0.5998 -0.5966 -0.7099
 7112SOL     OW32971   1.489   2.178  10.038  0.2228  0.0587 -0.0884
 7112SOL    HW132972   1.403   2.138  10.023  0.5652 -1.2398  1.4634
 7112SOL    HW232973   1.462   2.237  10.109  0.8304 -0.3315  0.4711
 7113SOL     OW32974   4.395   1.676   4.081 -0.3972  0.3543  0.2351
 7113SOL    HW132975   4.472   1.732   4.081  1.2410 -1.8770  1.3443
 7113SOL    HW232976   4.414   1.618   4.007  0.5707  0.2354  0.5862
 7114SOL     OW32977   2.349   4.638   5.602  0.0475  0.0717  0.4293
 7114SOL    HW132978   2.350   4.622   5.696 -0.4373  2.4397  0.8453
 7114SOL    HW232979   2.420   4.700   5.587  0.1588  0.5106  2.6882
 7115SOL     OW32980   2.079   1.235  11.663  0.7196  0.2844 -0.5522
 7115SOL    HW132981   2.172   1.239  11.639  0.6678  0.5412 -0.7161
 7115SOL    HW232982   2.039   1.298  11.602 -0.3068 -0.3542 -0.5384
 7116SOL     OW32983   1.671   2.062   7.380 -0.1234 -0.1219 -0.0762
 7116SOL    HW132984   1.666   2.129   7.448  1.7129  0.6918 -0.7434
 7116SOL    HW232985   1.674   2.113   7.299  1.9901 -0.5635 -0.2743
 7117SOL     OW32986   0.908   2.968   4.274  0.7120  0.1691 -0.3392
 7117SOL    HW132987   0.875   3.019   4.348 -0.0122 -2.3480  1.0734
 7117SOL    HW232988   0.975   3.028   4.242  1.0483  0.0998  0.2364
 7118SOL     OW32989   2.338   0.840   7.054 -0.0328 -0.2624  0.5150
 7118SOL    HW132990   2.417   0.806   7.013 -0.4189 -1.5938  0.8672
 7118SOL    HW232991   2.365   0.889   7.131 -1.4263  2.3916 -0.6916
 7119SOL     OW32992   1.553   4.069   8.816 -0.5943  0.6621  0.3144
 7119SOL    HW132993   1.596   3.987   8.791  0.0888  1.5547 -1.4381
 7119SOL    HW232994   1.465   4.033   8.820 -0.5841  0.7014  0.8909
 7120SOL     OW32995   1.314   3.096  11.963 -0.0711  0.2631 -0.3586
 7120SOL    HW132996   1.242   3.128  11.908 -0.1721  0.3883 -0.1545
 7120SOL    HW232997   1.261   3.027  12.002  0.2522 -0.5067 -1.2768
 7121SOL     OW32998   3.759   0.104  11.290  0.3133 -0.1274 -0.0176
 7121SOL    HW132999   3.707   0.183  11.306 -1.7929 -1.4540 -0.4297
 7121SOL    HW233000   3.845   0.140  11.316  0.9278 -1.3607 -0.3437
 7122SOL     OW33001   2.576   3.808   9.640 -0.2502  0.5661 -0.7219
 7122SOL    HW133002   2.523   3.873   9.594  0.7163  0.7162 -1.6263
 7122SOL    HW233003   2.503   3.758   9.677  0.9203 -1.8536 -1.6578
 7123SOL     OW33004   2.943   4.527   6.598 -0.1461  0.6201 -0.1500
 7123SOL    HW133005   2.877   4.503   6.533 -0.2629  2.3651 -0.6805
 7123SOL    HW233006   2.976   4.598   6.542 -1.5853  0.5502 -1.0897
 7124SOL     OW33007   3.369   1.393  11.044  0.1145  0.0283 -0.0492
 7124SOL    HW133008   3.363   1.449  11.121  0.2451  0.0827 -0.0795
 7124SOL    HW233009   3.282   1.353  11.040 -0.0300  0.4232 -0.8273
 7125SOL     OW33010   3.817   3.773   1.741 -0.8884  0.2272  0.2528
 7125SOL    HW133011   3.900   3.796   1.699 -0.1187 -1.3809  0.8914
 7125SOL    HW233012   3.757   3.843   1.717  1.0315  0.7442 -2.9482
 7126SOL     OW33013   0.117   3.887   8.035  0.5057  0.3892  0.5751
 7126SOL    HW133014   0.070   3.860   7.956 -0.9141 -0.3347  1.6664
 7126SOL    HW233015   0.046   3.947   8.060  1.5281  0.8856  2.3301
 7127SOL     OW33016   0.511   3.663   4.987  0.4176 -0.5322 -0.5002
 7127SOL    HW133017   0.573   3.730   5.015 -0.1363  0.3788 -1.4731
 7127SOL    HW233018   0.453   3.660   5.064  0.7508 -0.2477 -0.2392
 7128SOL     OW33019   2.396   1.635   1.848  0.4891 -0.3435 -0.0017
 7128SOL    HW133020   2.453   1.711   1.862 -0.9231  0.7682 -0.2783
 7128SOL    HW233021   2.323   1.683   1.809  1.0060  1.8902  1.7201
 7129SOL     OW33022   1.232   4.227   8.141  0.0387 -0.0292 -0.7481
 7129SOL    HW133023   1.224   4.313   8.100 -1.3965 -0.6374 -1.7271
 7129SOL    HW233024   1.162   4.170   8.109 -0.0085  0.7621 -2.0432
 7130SOL     OW33025   2.152   3.776   4.125  0.1416  0.3879  0.0484
 7130SOL    HW133026   2.064   3.810   4.115 -0.3234 -1.1829 -1.2388
 7130SOL    HW233027   2.140   3.701   4.183  1.8133  0.3151  0.3131
 7131SOL     OW33028   1.857   0.655   2.407 -0.1403  0.4124  0.2702
 7131SOL    HW133029   1.848   0.564   2.434  2.1013  0.2295  0.4626
 7131SOL    HW233030   1.834   0.704   2.486 -3.5887 -1.1998  0.2568
 7132SOL     OW33031   1.495   3.943  11.328  0.1930 -0.5739  0.1968
 7132SOL    HW133032   1.513   3.919  11.419 -0.0147  1.2817  0.7293
 7132SOL    HW233033   1.569   3.911  11.278  0.4888  1.8825 -0.9315
 7133SOL     OW33034   0.392   2.012  12.472  0.2197  0.5097 -0.6029
 7133SOL    HW133035   0.369   2.082  12.410  0.5630 -0.5058 -1.8752
 7133SOL    HW233036   0.305   1.973  12.481 -0.1604  1.3649 -0.4791
 7134SOL     OW33037   2.805   2.510   9.308  0.1502  0.3628 -0.5018
 7134SOL    HW133038   2.857   2.502   9.228 -0.5661 -0.6519 -0.8677
 7134SOL    HW233039   2.830   2.442   9.369 -1.2014  0.1704 -0.1593
 7135SOL     OW33040   0.733   0.620  11.691 -0.6929 -0.2170 -0.3457
 7135SOL    HW133041   0.829   0.620  11.688 -0.6744  0.8323  0.8276
 7135SOL    HW233042   0.718   0.526  11.682  0.6077 -0.5615  1.1340
 7136SOL     OW33043   2.730   3.271   8.274  0.3019 -0.8521  0.4379
 7136SOL    HW133044   2.676   3.194   8.254  0.7031 -1.1845  0.6228
 7136SOL    HW233045   2.707   3.330   8.203 -0.6225 -2.8452 -0.9174
 7137SOL     OW33046   3.463   0.893   5.677  0.1279 -0.1926 -0.2014
 7137SOL    HW133047   3.439   0.931   5.593  0.9210  0.7538  0.0075
 7137SOL    HW233048   3.400   0.927   5.740 -2.7394 -2.4633 -1.8344
 7138SOL     OW33049   0.575   4.213   6.141 -0.6717  0.4027 -0.6513
 7138SOL    HW133050   0.585   4.155   6.216  2.0043 -0.1952 -1.4647
 7138SOL    HW233051   0.655   4.190   6.095 -0.4879 -1.1793  0.4577
 7139SOL     OW33052   1.182   2.531   2.156 -0.0216 -0.0671 -0.5991
 7139SOL    HW133053   1.207   2.579   2.077  0.8575  1.3957  0.5597
 7139SOL    HW233054   1.105   2.583   2.178  0.9156  0.9384  0.3607
 7140SOL     OW33055   2.078   1.539   9.027 -0.0563 -0.6670 -0.2879
 7140SOL    HW133056   2.043   1.453   9.003  0.0184 -0.3316 -1.5936
 7140SOL    HW233057   2.162   1.527   9.071  0.7618 -0.6585 -1.8490
 7141SOL     OW33058   1.537   0.570  16.090  0.0570 -1.0932  0.0930
 7141SOL    HW133059   1.608   0.506  16.091  0.5857 -0.5124 -0.0625
 7141SOL    HW233060   1.498   0.539  16.009  1.0020 -0.1140 -0.7466
 7142SOL     OW33061   1.999   1.325  16.830 -0.4453 -0.0864 -0.1323
 7142SOL    HW133062   1.935   1.261  16.862  0.7839 -2.2197 -1.8982
 7142SOL    HW233063   2.049   1.328  16.911 -0.0518  4.0021 -0.5265
 7143SOL     OW33064   1.327   1.199   5.888 -0.4121  0.1626  0.1912
 7143SOL    HW133065   1.319   1.111   5.925  0.9568  0.2041  0.5863
 7143SOL    HW233066   1.369   1.241   5.963 -0.2910 -1.6415  1.1219
 7144SOL     OW33067   3.771   2.053   3.866  0.7529  0.0498  0.3724
 7144SOL    HW133068   3.770   2.149   3.872 -2.0707  0.1592 -1.4549
 7144SOL    HW233069   3.730   2.032   3.950  1.5243  0.9642  0.9826
 7145SOL     OW33070   1.911   0.246   5.271 -0.3104  0.6686 -0.0822
 7145SOL    HW133071   1.914   0.189   5.194  1.5520  0.3749  0.2101
 7145SOL    HW233072   1.818   0.240   5.293 -0.1386 -1.8365 -0.0464
 7146SOL     OW33073   4.522   3.920   3.214  0.2009 -0.7198 -0.2748
 7146SOL    HW133074   4.531   3.910   3.119 -1.5503  0.4186 -0.5581
 7146SOL    HW233075   4.590   3.862   3.248  0.0222 -1.2085 -0.7372
 7147SOL     OW33076   3.452   1.328  13.214 -0.0491 -0.0626 -0.1717
 7147SOL    HW133077   3.373   1.367  13.249 -1.0870 -1.4899 -0.9070
 7147SOL    HW233078   3.488   1.281  13.288 -1.2566  0.0408  0.4783
 7148SOL     OW33079   2.551   0.610   3.429  0.4249  0.7518 -0.1018
 7148SOL    HW133080   2.501   0.586   3.350  1.1823  0.1094 -0.3827
 7148SOL    HW233081   2.520   0.700   3.440  2.7622  1.7063 -1.4244
 7149SOL     OW33082   3.062   1.688   5.488  0.3258  0.8270  0.1844
 7149SOL    HW133083   3.093   1.778   5.492 -0.0885  1.1455 -3.7151
 7149SOL    HW233084   3.020   1.691   5.575 -0.8418 -0.4196 -0.3386
 7150SOL     OW33085   3.579   3.915   1.728 -0.2990 -0.2380 -0.3797
 7150SOL    HW133086   3.563   3.987   1.788 -1.1914 -1.8336  1.3047
 7150SOL    HW233087   3.503   3.858   1.742 -0.1999 -0.3432 -0.2572
 7151SOL     OW33088   3.584   0.123  10.542  0.3127  0.5472 -0.5820
 7151SOL    HW133089   3.673   0.158  10.530  0.5427 -0.7054 -2.5251
 7151SOL    HW233090   3.562   0.143  10.633 -0.2012  0.2105 -0.6360
 7152SOL     OW33091   1.588   0.218   2.000  0.3058 -0.4884 -0.1223
 7152SOL    HW133092   1.550   0.284   2.057 -0.2260 -1.4617  0.6536
 7152SOL    HW233093   1.677   0.245   1.976 -0.1668 -0.6303 -2.0294
 7153SOL     OW33094   2.532   3.886  15.305 -0.0154 -0.4782  0.0247
 7153SOL    HW133095   2.472   3.960  15.308 -1.7173 -1.8788  0.3945
 7153SOL    HW233096   2.489   3.817  15.355 -1.8263  0.0566 -0.8040
 7154SOL     OW33097   1.052   4.521   4.636 -0.5931 -0.1195 -0.7912
 7154SOL    HW133098   0.965   4.552   4.612  1.3057  2.5442 -4.2772
 7154SOL    HW233099   1.064   4.548   4.727  1.3331  0.0560 -1.1005
 7155SOL     OW33100   2.926   3.451  15.643 -0.9029  0.5070 -0.1243
 7155SOL    HW133101   2.913   3.472  15.735 -3.8858  2.6605 -1.0637
 7155SOL    HW233102   2.841   3.478  15.609 -1.7291  0.1455  1.6797
 7156SOL     OW33103   3.619   0.290   3.165  0.1627  0.3050 -0.3847
 7156SOL    HW133104   3.559   0.319   3.234  0.4154 -0.5841  0.2152
 7156SOL    HW233105   3.597   0.342   3.088 -0.3030  0.5767 -0.0678
 7157SOL     OW33106   4.519   4.629   8.148  0.6517  0.1859  0.0446
 7157SOL    HW133107   4.484   4.542   8.133  1.8901 -0.1597 -0.8702
 7157SOL    HW233108   4.581   4.611   8.219  2.1063  1.3455 -0.9200
 7158SOL     OW33109   2.539   2.716   0.112 -0.8801 -0.5962  0.2371
 7158SOL    HW133110   2.474   2.754   0.053 -2.0011 -1.8158  0.6863
 7158SOL    HW233111   2.525   2.777   0.185 -0.9470  1.1846 -1.2717
 7159SOL     OW33112   4.732   3.027   5.902  0.0176  0.3953  0.4603
 7159SOL    HW133113   0.086   3.008   5.876  0.4202  1.9427  0.7730
 7159SOL    HW233114   4.730   2.997   5.993  1.4458 -0.4726  0.2112
 7160SOL     OW33115   1.680   1.012   2.320  0.4200  0.0594  0.3106
 7160SOL    HW133116   1.735   1.090   2.317 -0.0750  0.3973  0.0385
 7160SOL    HW233117   1.689   0.977   2.231  1.8562 -0.2301  0.5675
 7161SOL     OW33118   3.397   3.745   5.314 -0.5152 -0.1499 -0.2185
 7161SOL    HW133119   3.483   3.753   5.273 -0.6187 -1.7843 -0.7574
 7161SOL    HW233120   3.341   3.762   5.239  1.3620 -0.5520 -1.7171
 7162SOL     OW33121   2.111   3.546  15.506 -0.2361  0.3371  0.2742
 7162SOL    HW133122   2.022   3.581  15.512  0.3071  1.1969  3.4892
 7162SOL    HW233123   2.104   3.451  15.514 -2.7084  0.4384 -0.6136
 7163SOL     OW33124   2.352   3.823   1.948 -0.5084  0.6428  0.0700
 7163SOL    HW133125   2.384   3.911   1.928  0.5737  0.5605  1.3939
 7163SOL    HW233126   2.354   3.791   1.858 -0.4975 -0.9700  0.6480
 7164SOL     OW33127   3.602   2.424   7.469  1.0999 -0.0859 -0.2268
 7164SOL    HW133128   3.552   2.418   7.550  0.1703 -1.7704 -0.9147
 7164SOL    HW233129   3.688   2.421   7.510  0.9749  0.4236  0.0591
 7165SOL     OW33130   3.810   1.307  14.979  0.2260  0.1219 -0.1244
 7165SOL    HW133131   3.819   1.362  15.056 -0.4573  2.8010 -1.9715
 7165SOL    HW233132   3.903   1.283  14.969  0.4408  0.8166  0.2662
 7166SOL     OW33133   3.351   0.324  13.538  0.1883  0.0187  0.4478
 7166SOL    HW133134   3.276   0.377  13.513 -0.1157 -1.1696 -1.1759
 7166SOL    HW233135   3.360   0.363  13.625 -0.0527  1.2072 -0.0651
 7167SOL     OW33136   1.665   2.708   8.301 -0.0091 -0.2574  0.0240
 7167SOL    HW133137   1.575   2.699   8.269  0.0921 -0.9667 -0.0690
 7167SOL    HW233138   1.682   2.636   8.362 -1.1943  1.4420  2.3793
 7168SOL     OW33139   1.476   0.027   6.462  0.1718 -0.7370 -0.0338
 7168SOL    HW133140   1.517   0.072   6.388  0.1640 -1.7598 -0.6671
 7168SOL    HW233141   1.424   0.097   6.502  0.5397 -1.1509  1.1865
 7169SOL     OW33142   3.278   0.258   6.735 -0.5165 -0.4192 -0.0393
 7169SOL    HW133143   3.303   0.171   6.768  0.3255 -0.6372 -1.2686
 7169SOL    HW233144   3.309   0.304   6.814 -1.7325  0.0083  0.1895
 7170SOL     OW33145   0.373   1.239   8.680  0.3821 -0.0373 -0.1601
 7170SOL    HW133146   0.297   1.182   8.671  0.5354 -0.2696  0.0381
 7170SOL    HW233147   0.405   1.212   8.766  2.5088 -0.8362 -1.2130
 7171SOL     OW33148   0.803   4.161   6.980 -0.0557  0.0108  0.5653
 7171SOL    HW133149   0.771   4.130   7.065  0.7196 -0.5186  0.6670
 7171SOL    HW233150   0.720   4.189   6.942 -0.6865 -0.4924  1.5601
 7172SOL     OW33151   1.637   4.341   7.715 -0.3597  0.0559 -0.3918
 7172SOL    HW133152   1.667   4.329   7.805  1.1538 -0.6768 -0.9819
 7172SOL    HW233153   1.667   4.257   7.680 -2.2670 -0.5547 -0.5279
 7173SOL     OW33154   3.218   0.007  14.757  0.0084  0.2723  1.0682
 7173SOL    HW133155   3.159   0.042  14.690  1.0611 -0.8759 -0.4627
 7173SOL    HW233156   3.151   4.687  14.795 -0.4545  1.5619  2.1605
 7174SOL     OW33157   2.577   0.299   2.005 -0.0803  0.3822 -0.4715
 7174SOL    HW133158   2.670   0.283   2.020  0.1357  1.2010 -0.9434
 7174SOL    HW233159   2.541   0.232   2.063  0.6743 -0.8011 -1.3621
 7175SOL     OW33160   3.351   2.110   8.192 -0.5998 -0.3835  0.1039
 7175SOL    HW133161   3.321   2.160   8.116  0.4985  1.2412  0.7586
 7175SOL    HW233162   3.423   2.057   8.158 -0.2491 -0.5146  1.0445
 7176SOL     OW33163   1.925   3.481   4.461  0.3946 -0.0314 -0.3245
 7176SOL    HW133164   1.979   3.518   4.391 -1.4284  0.5568 -1.3973
 7176SOL    HW233165   1.856   3.436   4.413  0.9737 -0.3633 -0.8462
 7177SOL     OW33166   3.376   4.186   9.369 -0.5948 -0.5180 -0.8541
 7177SOL    HW133167   3.408   4.130   9.440 -0.9224 -3.0885 -2.7500
 7177SOL    HW233168   3.307   4.124   9.347 -0.8031 -0.1993 -1.1050
 7178SOL     OW33169   2.660   2.193   9.873  0.2080  0.2525  0.4732
 7178SOL    HW133170   2.623   2.258   9.814 -2.1218 -0.4606  1.1163
 7178SOL    HW233171   2.718   2.244   9.929 -0.1573  3.0856 -1.7262
 7179SOL     OW33172   0.868   0.528   4.205  0.3442  0.4742 -0.4033
 7179SOL    HW133173   0.858   0.620   4.178 -1.3855  0.0598 -1.1854
 7179SOL    HW233174   0.777   0.501   4.196 -0.1204  1.1817  2.3208
 7180SOL     OW33175   1.565   3.281   1.152  0.4655 -0.6795 -0.4977
 7180SOL    HW133176   1.566   3.376   1.146 -1.4597 -0.7980 -2.7859
 7180SOL    HW233177   1.498   3.258   1.088 -0.8962  0.7464  0.4091
 7181SOL     OW33178   3.151   0.029   4.014  0.3058 -0.0251  0.4797
 7181SOL    HW133179   3.138   4.674   4.039 -2.2261 -0.1438 -1.2848
 7181SOL    HW233180   3.063   0.065   4.024  0.8101  0.4926  3.1937
 7182SOL     OW33181   4.473   0.565   6.472 -0.0278 -0.2192  0.0689
 7182SOL    HW133182   4.527   0.636   6.437 -0.5838  1.6427  2.9188
 7182SOL    HW233183   4.400   0.616   6.507  0.4788  0.2463  0.4581
 7183SOL     OW33184   3.610   1.273  14.183  0.0232  0.5676  0.0400
 7183SOL    HW133185   3.631   1.347  14.240  0.6210  0.1021  0.4256
 7183SOL    HW233186   3.678   1.278  14.116  1.1714 -0.5970  1.1246
 7184SOL     OW33187   4.466   2.529   4.446 -0.1397 -0.0060 -0.4524
 7184SOL    HW133188   4.525   2.459   4.417 -0.5741 -0.2953 -0.6518
 7184SOL    HW233189   4.403   2.533   4.374  1.0028 -0.2408 -1.4596
 7185SOL     OW33190   3.300   3.754  17.699 -0.2324  0.0728 -0.3648
 7185SOL    HW133191   3.265   3.806   0.027 -0.7994 -1.5593  0.5245
 7185SOL    HW233192   3.265   3.668  17.722  1.1092  0.6508  3.7519
 7186SOL     OW33193   1.784   3.217  15.390  0.0925  0.4161 -0.7727
 7186SOL    HW133194   1.830   3.287  15.436 -0.2369 -0.5847  1.0909
 7186SOL    HW233195   1.748   3.168  15.464 -2.9643  0.3184 -2.3159
 7187SOL     OW33196   3.169   3.811   3.226 -0.4480  0.4851  0.1135
 7187SOL    HW133197   3.223   3.866   3.284  1.9531 -1.1334 -0.6175
 7187SOL    HW233198   3.160   3.726   3.269  0.0728  1.2366  1.7009
 7188SOL     OW33199   1.140   0.664   5.503 -0.1162  0.4218 -0.1112
 7188SOL    HW133200   1.136   0.685   5.596 -2.8116  0.1800 -0.1733
 7188SOL    HW233201   1.207   0.597   5.492  0.3351  0.5908  1.6724
 7189SOL     OW33202   0.261   1.414   8.013  0.0941  0.4984 -0.2034
 7189SOL    HW133203   0.342   1.465   8.009 -1.0274  2.4085  1.4637
 7189SOL    HW233204   0.246   1.393   8.105  3.2475  1.0066  0.4333
 7190SOL     OW33205   4.079   0.884   5.371  0.3867 -0.3506  0.4866
 7190SOL    HW133206   4.167   0.847   5.379 -0.6710 -2.6912  1.0006
 7190SOL    HW233207   4.065   0.946   5.442 -0.7565  0.6723 -0.6312
 7191SOL     OW33208   0.274   1.850   4.945 -0.1941  0.8353  0.5791
 7191SOL    HW133209   0.353   1.860   4.998  0.6089  0.8740 -0.6051
 7191SOL    HW233210   0.307   1.878   4.859 -0.5037 -1.1462 -0.2036
 7192SOL     OW33211   2.005   4.501   5.284 -0.1402  0.4814  0.4079
 7192SOL    HW133212   1.947   4.437   5.325 -0.0184 -0.2887 -0.6313
 7192SOL    HW233213   1.996   4.578   5.341  1.4528 -0.2136  1.5837
 7193SOL     OW33214   2.807   1.894   6.844  0.4699  0.1407  0.0724
 7193SOL    HW133215   2.776   1.838   6.774 -1.1747 -0.2727  1.1277
 7193SOL    HW233216   2.755   1.974   6.845 -0.8849 -0.7456  2.2197
 7194SOL     OW33217   4.119   0.026   4.862 -0.3545 -0.0067 -0.2745
 7194SOL    HW133218   4.145   0.047   4.952  0.2013 -0.6297 -0.2894
 7194SOL    HW233219   4.163   4.681   4.836  0.7576  0.7889 -0.8673
 7195SOL     OW33220   1.761   3.280  10.792  0.1369  0.2864  0.0985
 7195SOL    HW133221   1.684   3.225  10.810  0.4420 -0.2845 -0.3135
 7195SOL    HW233222   1.725   3.347  10.734 -0.4106 -0.1803 -0.1129
 7196SOL     OW33223   0.422   1.127   2.942  0.0046  0.0137 -0.0015
 7196SOL    HW133224   0.484   1.191   2.907  1.1539 -1.1549 -0.1011
 7196SOL    HW233225   0.432   1.060   2.874 -0.6362 -0.7716  0.6928
 7197SOL     OW33226   2.932   3.139  15.653 -0.1637 -0.6192  0.0152
 7197SOL    HW133227   2.939   3.070  15.587 -1.0912 -0.7353  0.0351
 7197SOL    HW233228   3.007   3.197  15.638 -0.7201  0.3855  1.1770
 7198SOL     OW33229   1.226   3.424   7.121 -0.1565 -0.0834 -0.1067
 7198SOL    HW133230   1.318   3.408   7.140 -0.5080 -0.5604  1.2015
 7198SOL    HW233231   1.223   3.453   7.030 -0.3076 -2.5829 -0.8967
 7199SOL     OW33232   0.680   3.785   5.176 -0.5218 -0.3253 -0.1538
 7199SOL    HW133233   0.647   3.855   5.232  0.6575 -0.9133  1.2676
 7199SOL    HW233234   0.732   3.829   5.108  0.9642 -2.5249 -0.4413
 7200SOL     OW33235   3.963   3.882   9.009 -0.1229  0.3070 -0.2834
 7200SOL    HW133236   3.953   3.831   8.928  1.2631 -0.7291  0.2034
 7200SOL    HW233237   3.903   3.832   9.064  0.1745 -1.2750 -1.4216
 7201SOL     OW33238   2.344   4.676   2.670  0.1229  0.0392  0.3668
 7201SOL    HW133239   2.270   4.672   2.609 -0.0596  2.7096  0.4356
 7201SOL    HW233240   2.353   4.587   2.704 -1.2505 -0.0407  0.5380
 7202SOL     OW33241   1.040   2.568   0.443 -0.1682  0.0757 -0.1694
 7202SOL    HW133242   0.958   2.526   0.416  1.8105 -3.7641 -0.0851
 7202SOL    HW233243   1.008   2.624   0.514  3.2887 -0.4781  1.8012
 7203SOL     OW33244   0.414   3.955   3.080  0.0316  0.2251 -0.1552
 7203SOL    HW133245   0.403   3.987   2.990  0.1318 -0.1399 -0.2964
 7203SOL    HW233246   0.467   4.019   3.126  0.2705 -0.1911  0.1527
 7204SOL     OW33247   2.382   2.231   6.881  0.0801 -0.0581 -0.0480
 7204SOL    HW133248   2.373   2.196   6.793 -0.0892 -0.3348  0.0766
 7204SOL    HW233249   2.304   2.186   6.914 -1.0608  1.8017 -0.2154
 7205SOL     OW33250   0.972   3.447   1.573 -0.1786 -0.1925  0.3964
 7205SOL    HW133251   0.907   3.388   1.534  0.3075 -1.4383  1.4536
 7205SOL    HW233252   1.039   3.390   1.610 -1.8781 -0.4718  3.0666
 7206SOL     OW33253   4.146   0.623   6.291  0.1966  0.4155 -0.5603
 7206SOL    HW133254   4.054   0.640   6.270 -0.0902  0.6305  0.8982
 7206SOL    HW233255   4.160   0.682   6.365 -1.8743 -2.8423  2.4206
 7207SOL     OW33256   0.880   1.202   8.141  0.2081 -0.1541 -0.0021
 7207SOL    HW133257   0.888   1.296   8.153 -0.7022  0.3059 -2.8845
 7207SOL    HW233258   0.817   1.174   8.207  1.7519  0.7991  1.8792
 7208SOL     OW33259   4.524   2.019  13.315 -0.0428 -0.4772 -0.3121
 7208SOL    HW133260   4.494   1.929  13.328  1.9638 -1.3533 -1.8690
 7208SOL    HW233261   4.547   2.010  13.222  1.6541  1.4597 -0.0793
 7209SOL     OW33262   4.433   3.790   4.252 -0.0723 -0.1710 -0.2068
 7209SOL    HW133263   4.411   3.883   4.246  1.1871  0.2266  1.4858
 7209SOL    HW233264   4.347   3.756   4.276 -0.3235  0.3304 -0.3841
 7210SOL     OW33265   3.372   0.235   4.745  0.2896 -0.1265  0.4070
 7210SOL    HW133266   3.454   0.187   4.735 -0.3044 -1.1811  0.5320
 7210SOL    HW233267   3.400   0.326   4.756  0.4980 -0.2607  0.9613
 7211SOL     OW33268   4.183   3.511   3.954 -0.5039 -0.2082 -0.1862
 7211SOL    HW133269   4.089   3.495   3.962 -0.4428 -1.0017 -1.0379
 7211SOL    HW233270   4.189   3.519   3.858  0.9397 -0.4323 -0.1189
 7212SOL     OW33271   2.454   2.079   5.893 -0.5019  0.1911 -0.0874
 7212SOL    HW133272   2.525   2.015   5.887 -2.4302 -1.8714 -0.8634
 7212SOL    HW233273   2.447   2.093   5.988 -3.3398 -0.8820 -0.1274
 7213SOL     OW33274   0.462   3.913   2.293  0.4689  0.2439 -0.2530
 7213SOL    HW133275   0.378   3.919   2.248 -0.9745 -0.3882  2.3350
 7213SOL    HW233276   0.515   3.875   2.223  0.0904 -1.3173  0.2956
 7214SOL     OW33277   0.725   3.070   4.918  0.1065 -0.3778 -0.3535
 7214SOL    HW133278   0.799   3.067   4.857  1.3135  1.2668  1.0256
 7214SOL    HW233279   0.674   3.124   4.857  3.3862  0.4472 -2.3389
 7215SOL     OW33280   0.988   1.321  10.362  0.0726  0.1571  0.3283
 7215SOL    HW133281   0.947   1.330  10.448  2.7513 -1.5796  1.7874
 7215SOL    HW233282   1.079   1.318  10.393 -0.3290  1.6993  1.6396
 7216SOL     OW33283   2.698   4.304   9.830  0.0340 -0.0869  0.0363
 7216SOL    HW133284   2.719   4.241   9.761 -1.6988 -0.1469 -0.4461
 7216SOL    HW233285   2.778   4.356   9.827 -1.4548  2.0711 -2.0962
 7217SOL     OW33286   0.334   2.549   7.914 -0.1246 -0.0192  0.1591
 7217SOL    HW133287   0.393   2.496   7.968 -0.0758  0.1045  0.2272
 7217SOL    HW233288   0.279   2.591   7.980 -1.1041  1.2802 -1.4796
 7218SOL     OW33289   3.137   2.671   3.637  0.3763  0.1407 -0.0258
 7218SOL    HW133290   3.160   2.578   3.640  0.7386  0.2357  0.0802
 7218SOL    HW233291   3.055   2.656   3.590  1.5050 -0.8846 -1.6729
 7219SOL     OW33292   1.335   1.854   6.601  0.1957  0.4620  0.4176
 7219SOL    HW133293   1.337   1.885   6.691  1.5846  0.3924  0.4149
 7219SOL    HW233294   1.401   1.785   6.607 -0.6830 -0.6816 -2.8871
 7220SOL     OW33295   2.806   2.721  14.033 -0.1067 -0.3580 -0.3492
 7220SOL    HW133296   2.759   2.693  13.955 -1.4172 -1.5597  0.8825
 7220SOL    HW233297   2.878   2.659  14.017  0.1363 -0.5336  1.3877
 7221SOL     OW33298   1.619   1.605   5.955 -0.1030 -0.2355  0.3164
 7221SOL    HW133299   1.559   1.665   5.912 -1.0387 -0.6317  1.0585
 7221SOL    HW233300   1.559   1.535   5.983  0.1522 -1.1799 -1.4710
 7222SOL     OW33301   2.119   0.970   4.196  0.6439  0.1931 -0.1528
 7222SOL    HW133302   2.086   0.973   4.106  0.2101 -1.1562 -0.0324
 7222SOL    HW233303   2.047   0.939   4.250  0.3198 -1.6665 -1.6741
 7223SOL     OW33304   3.101   1.373   7.856 -0.5433  0.6203  0.0101
 7223SOL    HW133305   3.041   1.445   7.878  0.8447  2.0197 -0.7700
 7223SOL    HW233306   3.049   1.321   7.795 -0.4213  2.7969 -1.9453
 7224SOL     OW33307   0.795   4.372  11.538  0.0774  0.3682 -0.7249
 7224SOL    HW133308   0.874   4.425  11.548 -0.1468  0.5300  0.1981
 7224SOL    HW233309   0.730   4.412  11.596  0.7722 -0.1532  0.4127
 7225SOL     OW33310   2.032   1.496  14.276 -0.3641  0.9551  0.5081
 7225SOL    HW133311   1.978   1.434  14.228 -0.8504  1.5079  0.3423
 7225SOL    HW233312   2.007   1.462  14.362  1.6806 -1.2330  0.2356
 7226SOL     OW33313   2.004   4.442   2.326  0.2294 -0.0480 -0.1939
 7226SOL    HW133314   1.909   4.454   2.327  0.1261 -0.8392 -0.2351
 7226SOL    HW233315   2.015   4.349   2.348 -0.1106  0.1375  0.7370
 7227SOL     OW33316   0.273   0.784   7.888  0.0905 -0.0682 -0.1388
 7227SOL    HW133317   0.346   0.800   7.828 -0.7717  1.6707 -0.7505
 7227SOL    HW233318   0.235   0.869   7.910  0.3736 -0.6726  2.6747
 7228SOL     OW33319   0.628   0.299  15.991  0.4773 -0.1236 -0.0847
 7228SOL    HW133320   0.620   0.392  15.971 -2.4955 -0.2304  0.6996
 7228SOL    HW233321   0.662   0.296  16.080 -0.3139  1.6140  0.2713
 7229SOL     OW33322   1.241   2.224   9.745 -0.3115 -0.2142  0.1015
 7229SOL    HW133323   1.242   2.164   9.820  1.0653  1.0435  1.0996
 7229SOL    HW233324   1.160   2.272   9.760 -0.3630  0.0428 -0.9694
 7230SOL     OW33325   4.686   2.448   6.007  0.0403  0.1982  0.3932
 7230SOL    HW133326   4.734   2.465   6.089 -1.0374  1.6741  0.7323
 7230SOL    HW233327   4.710   2.358   5.987  1.3177  0.6448 -0.1558
 7231SOL     OW33328   0.247   3.579   2.715 -0.3224 -0.3158 -0.4319
 7231SOL    HW133329   0.213   3.632   2.643 -0.5941 -0.6176 -0.5271
 7231SOL    HW233330   0.339   3.605   2.708  0.1797 -2.5824 -2.4903
 7232SOL     OW33331   3.329   0.432  17.672 -0.3896  0.0918 -0.8046
 7232SOL    HW133332   3.395   0.465  17.733 -1.4445  0.4338  0.1541
 7232SOL    HW233333   3.377   0.375  17.612  0.9679 -0.5737  0.9000
 7233SOL     OW33334   2.997   1.469   0.000 -0.5014 -0.1265 -0.0630
 7233SOL    HW133335   2.938   1.535  17.710 -0.1289  0.3410  0.1912
 7233SOL    HW233336   3.057   1.462  17.670  0.0240 -1.8310  0.5053
 7234SOL     OW33337   4.233   1.131   3.398  0.1893 -0.0845  0.3844
 7234SOL    HW133338   4.215   1.149   3.490 -0.0312  0.4602  0.2334
 7234SOL    HW233339   4.309   1.187   3.383  1.2181 -1.4303  0.5797
 7235SOL     OW33340   4.037   1.067  11.181  0.0299  0.0824 -0.1620
 7235SOL    HW133341   4.104   1.046  11.115  0.2783 -1.7788  0.6910
 7235SOL    HW233342   4.043   1.162  11.177  1.1627 -0.0773 -2.5973
 7236SOL     OW33343   4.355   1.868  10.197 -0.1419 -0.2048  0.5427
 7236SOL    HW133344   4.336   1.961  10.182 -1.2979 -0.2673  1.6270
 7236SOL    HW233345   4.265   1.846  10.222 -0.6608 -2.1724 -3.0962
 7237SOL     OW33346   4.014   2.331  10.073 -0.4103  0.6540  0.1720
 7237SOL    HW133347   3.973   2.245  10.078 -1.2584  1.0476  0.0419
 7237SOL    HW233348   3.961   2.368  10.144  1.1226  2.4575  0.3868
 7238SOL     OW33349   0.725   4.542   7.797  0.4353  0.4273 -0.0479
 7238SOL    HW133350   0.742   4.537   7.891  2.2158  0.9309 -0.3420
 7238SOL    HW233351   0.683   4.458   7.778 -0.2523  1.1446 -1.6784
 7239SOL     OW33352   4.501   0.906  17.398 -0.1916 -0.1710  0.1245
 7239SOL    HW133353   4.486   0.816  17.424 -1.9560 -0.2354 -1.1072
 7239SOL    HW233354   4.465   0.950  17.475  2.4171  1.8934  0.1580
 7240SOL     OW33355   0.655   4.314   7.695 -0.2731 -0.1523 -0.1047
 7240SOL    HW133356   0.708   4.332   7.617  2.1762 -1.0236  1.3783
 7240SOL    HW233357   0.703   4.254   7.751 -0.0288 -0.4053 -0.5853
 7241SOL     OW33358   1.755   2.776   1.506  0.7603 -0.0684 -0.0849
 7241SOL    HW133359   1.845   2.805   1.522  0.4763  1.8069 -1.8063
 7241SOL    HW233360   1.716   2.817   1.583  0.9581  0.8486 -0.4703
 7242SOL     OW33361   0.109   1.766   5.191  0.8834  0.5252 -0.1891
 7242SOL    HW133362   0.091   1.692   5.133 -2.1680  1.5158 -0.5064
 7242SOL    HW233363   0.168   1.810   5.129  0.8545 -0.8898 -1.2215
 7243SOL     OW33364   0.038   3.676   5.997  0.0600 -0.7835 -0.0545
 7243SOL    HW133365   0.086   3.638   6.070 -0.1111  0.0029  0.4642
 7243SOL    HW233366   4.686   3.674   6.035 -0.3519  0.7921 -0.9168
 7244SOL     OW33367   1.243   1.698   2.761 -0.1899 -0.1166  0.1826
 7244SOL    HW133368   1.328   1.737   2.780 -0.4555  2.1676 -3.3514
 7244SOL    HW233369   1.210   1.764   2.700  0.9005  1.2114  1.0385
 7245SOL     OW33370   4.711   3.029   4.709 -0.3865  0.1778  0.3854
 7245SOL    HW133371   4.678   3.003   4.623 -0.0709  1.8516 -0.2519
 7245SOL    HW233372   0.011   3.116   4.690 -2.9955  0.5647 -2.7821
 7246SOL     OW33373   3.656   3.037   2.524  0.3593  0.5705 -0.3836
 7246SOL    HW133374   3.629   2.945   2.524  1.4604  0.2472  1.6053
 7246SOL    HW233375   3.619   3.072   2.443 -0.3518 -1.6797 -1.0413
 7247SOL     OW33376   2.701   4.676   5.662  0.3123 -0.0579  0.2908
 7247SOL    HW133377   2.644   0.005   5.621 -0.2618 -1.2475 -0.8214
 7247SOL    HW233378   2.769   4.733   5.696  1.4894 -0.9085 -0.6323
 7248SOL     OW33379   0.832   3.539   7.128  0.2401 -0.0281  0.1945
 7248SOL    HW133380   0.844   3.603   7.198  2.3868 -0.4305  0.1821
 7248SOL    HW233381   0.779   3.599   7.076 -0.3827 -0.9593 -0.2430
 7249SOL     OW33382   1.589   0.650  10.960  0.0788 -0.0519 -0.0875
 7249SOL    HW133383   1.600   0.556  10.942  1.8808  0.4304 -1.5712
 7249SOL    HW233384   1.617   0.653  11.051 -1.3082 -1.8632  0.3854
 7250SOL     OW33385   4.313   3.166   2.144 -0.2804 -0.2024  0.0326
 7250SOL    HW133386   4.219   3.152   2.156  0.0135  0.5493  3.4368
 7250SOL    HW233387   4.326   3.110   2.068 -0.3238  2.4214 -1.8844
 7251SOL     OW33388   2.311   2.864   5.117  0.6388  0.2188  0.4476
 7251SOL    HW133389   2.305   2.827   5.029  0.9739 -0.4191  0.6947
 7251SOL    HW233390   2.255   2.941   5.102  0.2025 -0.2937 -0.5146
 7252SOL     OW33391   1.516   1.676   2.483 -0.5527 -0.2172 -0.0641
 7252SOL    HW133392   1.476   1.639   2.404  1.1790  0.4558 -1.2595
 7252SOL    HW233393   1.546   1.599   2.532  1.4226  0.4865 -0.1682
 7253SOL     OW33394   0.878   2.468   4.594  0.0251 -0.0264 -0.1684
 7253SOL    HW133395   0.833   2.496   4.514 -1.5625  1.3797  1.2188
 7253SOL    HW233396   0.816   2.496   4.662  0.0133  1.7872 -0.9132
 7254SOL     OW33397   2.567   4.233   2.940  0.9634 -0.1202  0.2419
 7254SOL    HW133398   2.640   4.171   2.930  1.4500  0.2992  1.1343
 7254SOL    HW233399   2.614   4.315   2.958  0.8643  0.2421 -1.1720
 7255SOL     OW33400   3.064   3.393   4.215  0.3840 -0.5790  0.0888
 7255SOL    HW133401   3.029   3.305   4.201  1.1533 -0.9593  0.5649
 7255SOL    HW233402   3.145   3.373   4.169  0.0886  0.1044 -0.7449
 7256SOL     OW33403   3.455   4.564   3.914 -0.2184  0.5702  0.8430
 7256SOL    HW133404   3.476   4.645   3.960 -1.0786  1.2323  0.0789
 7256SOL    HW233405   3.374   4.533   3.953 -0.7910  0.2435 -0.5955
 7257SOL     OW33406   1.942   0.632   6.197  1.2331  0.1763 -0.0010
 7257SOL    HW133407   1.882   0.676   6.136  0.1524 -0.6551  0.4693
 7257SOL    HW233408   1.931   0.540   6.173  0.2796  0.2155  0.3130
 7258SOL     OW33409   2.496   0.001   7.362  0.0188 -0.0215  0.0403
 7258SOL    HW133410   2.539   4.662   7.321  0.7574  0.0171  0.7381
 7258SOL    HW233411   2.576   0.043   7.395  0.0815  0.5133 -0.7959
 7259SOL     OW33412   3.519   1.152   6.240 -0.0226  0.9029 -0.0768
 7259SOL    HW133413   3.443   1.125   6.292  0.2135  1.6915  0.6919
 7259SOL    HW233414   3.493   1.118   6.155 -2.2000  0.6590  0.6838
 7260SOL     OW33415   3.504   0.736   9.895 -0.9153  0.2691 -1.3259
 7260SOL    HW133416   3.579   0.771   9.846  1.1209  0.1057  1.7382
 7260SOL    HW233417   3.530   0.732   9.987 -1.1512 -0.3487 -1.2902
 7261SOL     OW33418   2.061   1.476   4.193  0.0033  0.4000  0.5118
 7261SOL    HW133419   2.153   1.448   4.203  0.0259  0.8397  1.4868
 7261SOL    HW233420   2.021   1.418   4.257 -1.8772 -1.0055 -1.9400
 7262SOL     OW33421   4.638   0.954   3.279 -0.3236 -0.2220 -0.2585
 7262SOL    HW133422   4.552   0.915   3.264 -1.9200  2.3905  2.1042
 7262SOL    HW233423   4.680   0.946   3.194 -1.6234 -0.0105 -0.9167
 7263SOL     OW33424   3.640   0.284   3.590  0.6661  0.0924  0.2871
 7263SOL    HW133425   3.571   0.349   3.599  0.5683  0.0410 -0.0856
 7263SOL    HW233426   3.696   0.334   3.531  1.0134 -0.6639 -0.0352
 7264SOL     OW33427   3.261   0.909   5.273 -0.5294 -0.2222 -0.4613
 7264SOL    HW133428   3.170   0.904   5.246 -0.6703  1.3028 -0.2326
 7264SOL    HW233429   3.307   0.858   5.205  1.3793  0.0168  0.6407
 7265SOL     OW33430   4.170   2.817   8.430 -0.6277  0.3025 -0.1246
 7265SOL    HW133431   4.181   2.898   8.480  1.0233  0.9059 -1.5004
 7265SOL    HW233432   4.150   2.752   8.499 -1.9145  1.8862  0.9979
 7266SOL     OW33433   1.287   0.220   7.660 -0.1468 -0.1433  0.2689
 7266SOL    HW133434   1.194   0.208   7.641 -0.2842  0.5239  0.5468
 7266SOL    HW233435   1.336   0.196   7.581 -0.3468 -0.4241  0.2286
 7267SOL     OW33436   4.593   4.053   0.205 -0.4544 -0.3700 -0.2997
 7267SOL    HW133437   4.635   4.104   0.136 -2.2361  2.2613  0.5740
 7267SOL    HW233438   4.512   4.015   0.170  0.8948 -1.4084 -2.2785
 7268SOL     OW33439   0.492   2.917   6.467 -0.2012  0.1757  0.2212
 7268SOL    HW133440   0.464   2.827   6.451  1.4160  0.1024 -2.3386
 7268SOL    HW233441   0.586   2.918   6.489 -0.1496 -2.3809  0.0837
 7269SOL     OW33442   0.601   1.186   6.051  0.5883 -0.1850 -0.4327
 7269SOL    HW133443   0.639   1.182   5.963 -1.5963 -2.9156 -1.2574
 7269SOL    HW233444   0.518   1.144   6.029 -0.1670 -0.4080  2.9030
 7270SOL     OW33445   4.649   2.221   6.523 -0.3505 -0.2474 -0.3729
 7270SOL    HW133446   4.591   2.257   6.589  1.1071  0.1324  0.6880
 7270SOL    HW233447   4.631   2.129   6.545 -0.2614 -0.2732 -0.4069
 7271SOL     OW33448   0.410   0.727   6.703 -0.2103  0.3951  0.2435
 7271SOL    HW133449   0.389   0.639   6.734 -0.9073 -0.1767 -1.8904
 7271SOL    HW233450   0.374   0.732   6.614 -0.3927 -0.5141  0.2677
 7272SOL     OW33451   4.452   4.152   4.469  0.1673  0.3775  0.2974
 7272SOL    HW133452   4.380   4.155   4.532  0.4105  0.5072  0.5716
 7272SOL    HW233453   4.528   4.131   4.524 -0.0348 -0.6144  0.2019
 7273SOL     OW33454   1.490   3.152  15.259 -0.0795 -0.2489 -0.3545
 7273SOL    HW133455   1.483   3.059  15.282  2.0758  0.3014  2.5025
 7273SOL    HW233456   1.583   3.171  15.272 -0.8820  2.2112  1.7131
 7274SOL     OW33457   3.566   3.278   6.248 -0.2441 -0.8650  0.4740
 7274SOL    HW133458   3.525   3.219   6.185  0.5745  0.0708 -0.9232
 7274SOL    HW233459   3.568   3.231   6.332 -1.0714 -0.8273  0.5187
 7275SOL     OW33460   2.355   3.457   2.731  0.5671 -0.1933  0.0890
 7275SOL    HW133461   2.440   3.493   2.756  0.7354  0.8336 -2.0350
 7275SOL    HW233462   2.322   3.530   2.680 -0.0897  0.0119  0.8078
 7276SOL     OW33463   3.801   3.016  14.342  0.0320  0.2020 -0.4766
 7276SOL    HW133464   3.878   2.991  14.392  0.4642 -0.4921 -1.4867
 7276SOL    HW233465   3.787   2.927  14.309 -0.3160  0.5553 -1.2826
 7277SOL     OW33466   0.182   3.283   5.760  0.2180  0.9054 -0.2494
 7277SOL    HW133467   0.160   3.359   5.707 -0.2626  0.0555 -1.2770
 7277SOL    HW233468   0.206   3.323   5.844 -1.9595  0.7446  0.4609
 7278SOL     OW33469   1.822   0.691  16.076 -0.2515 -0.0542 -0.3029
 7278SOL    HW133470   1.848   0.599  16.079 -1.1745 -0.2615  1.5361
 7278SOL    HW233471   1.794   0.711  16.166  0.3527 -0.9970  0.0962
 7279SOL     OW33472   1.274   1.920  16.964 -0.4139  0.3937  0.5711
 7279SOL    HW133473   1.203   1.908  16.902 -0.5366  1.6547  0.4540
 7279SOL    HW233474   1.272   1.846  17.025  1.3451 -2.2903 -2.6429
 7280SOL     OW33475   0.474   0.215  15.435  0.3881 -0.1853 -0.2116
 7280SOL    HW133476   0.500   0.164  15.512 -0.6997 -0.4718 -0.0452
 7280SOL    HW233477   0.486   0.306  15.460  1.4066 -0.0797 -1.0476
 7281SOL     OW33478   0.407   3.762  12.381  0.6937 -0.1263 -0.6242
 7281SOL    HW133479   0.401   3.668  12.365  4.5528 -0.3572 -0.7267
 7281SOL    HW233480   0.402   3.797  12.292  0.7303 -0.0340 -0.5900
 7282SOL     OW33481   1.932   2.235   1.680  0.1197  0.4849  0.5861
 7282SOL    HW133482   1.970   2.179   1.748  1.1427  0.7704  0.2548
 7282SOL    HW233483   1.939   2.179   1.602 -2.0449  0.6571  0.2586
 7283SOL     OW33484   1.404   1.348   8.598 -0.1519 -0.2007  0.3424
 7283SOL    HW133485   1.473   1.345   8.664  0.3374 -0.0490 -0.1549
 7283SOL    HW233486   1.442   1.407   8.532 -1.9788  0.4873 -0.1052
 7284SOL     OW33487   4.145   3.868  16.671  0.7587  0.5250 -0.3483
 7284SOL    HW133488   4.216   3.914  16.717  1.0979 -0.2183 -0.1189
 7284SOL    HW233489   4.191   3.822  16.600  0.1600 -0.9706  0.2450
 7285SOL     OW33490   1.735   0.263  15.618  0.5222 -0.7145  0.0693
 7285SOL    HW133491   1.792   0.301  15.552 -2.4453  2.0946 -0.8824
 7285SOL    HW233492   1.649   0.290  15.586  1.0540  0.9289  0.0071
 7286SOL     OW33493   4.682   0.808  10.208  0.0795 -0.3019 -0.1619
 7286SOL    HW133494   4.713   0.762  10.286 -0.2411  1.1103  0.7897
 7286SOL    HW233495   0.008   0.881  10.210 -0.0579 -0.2031  0.4676
 7287SOL     OW33496   1.482   2.633   2.182 -0.1495 -0.0571  0.6223
 7287SOL    HW133497   1.529   2.597   2.257 -2.3899 -0.3590  1.8771
 7287SOL    HW233498   1.396   2.595   2.200 -0.6810  0.4105 -0.8829
 7288SOL     OW33499   0.719   4.069   2.692  0.3459  0.0883  0.1011
 7288SOL    HW133500   0.647   4.128   2.715  1.0496  1.8600 -2.3021
 7288SOL    HW233501   0.796   4.112   2.728 -0.6429  0.8924  1.2573
 7289SOL     OW33502   0.480   2.939   8.866  0.3450  0.2392  0.2601
 7289SOL    HW133503   0.553   2.945   8.928  2.5776 -2.8533 -2.0442
 7289SOL    HW233504   0.509   2.878   8.798  0.2467  2.9938 -2.2092
 7290SOL     OW33505   0.867   1.659   5.722 -0.1192 -0.1894  0.3253
 7290SOL    HW133506   0.777   1.629   5.710 -0.2310  0.3501 -0.1930
 7290SOL    HW233507   0.837   1.750   5.710  0.7185  0.1408  0.7886
 7291SOL     OW33508   0.603   3.307   9.452  0.1326 -0.0348  0.2734
 7291SOL    HW133509   0.549   3.231   9.475  0.4421 -0.6719 -1.0788
 7291SOL    HW233510   0.679   3.249   9.439 -0.4603 -0.4457 -1.3282
 7292SOL     OW33511   3.877   3.966  11.889 -0.4961 -0.1054  0.0808
 7292SOL    HW133512   3.873   3.937  11.797  2.5115 -1.6814  0.4577
 7292SOL    HW233513   3.799   4.022  11.887 -0.1468  0.3266 -1.3521
 7293SOL     OW33514   0.411   1.361   1.157 -0.8086  0.4120 -0.0592
 7293SOL    HW133515   0.445   1.450   1.150  0.0811 -0.0503 -1.5052
 7293SOL    HW233516   0.462   1.310   1.219 -0.9094  1.6534  1.0508
 7294SOL     OW33517   4.254   2.679   6.265  0.0108  0.0547  0.1010
 7294SOL    HW133518   4.311   2.712   6.196 -1.3170 -0.4594 -1.2398
 7294SOL    HW233519   4.167   2.677   6.226  0.7203 -1.0381 -1.4459
 7295SOL     OW33520   1.539   1.416   0.404 -0.3119  0.0941  0.6088
 7295SOL    HW133521   1.552   1.464   0.322 -0.2963  1.0114  1.1525
 7295SOL    HW233522   1.630   1.400   0.429  0.2275  4.2590  1.2356
 7296SOL     OW33523   3.973   2.703   5.925 -0.2361  0.5999 -0.0807
 7296SOL    HW133524   4.054   2.723   5.880 -1.3338  1.7083 -1.5718
 7296SOL    HW233525   3.983   2.619   5.970  0.0902  1.3692  1.2909
 7297SOL     OW33526   2.088   4.587   4.018 -0.0355 -0.0596  0.0647
 7297SOL    HW133527   2.132   4.660   3.973 -0.9929 -1.3232 -2.9577
 7297SOL    HW233528   2.038   4.627   4.089 -2.1025  0.9359 -1.9471
 7298SOL     OW33529   1.558   1.945   5.958 -0.1148  0.4231 -0.6727
 7298SOL    HW133530   1.533   1.867   5.909 -2.1874  0.2431  0.6784
 7298SOL    HW233531   1.586   2.006   5.890 -0.5293 -0.8019 -1.9556
 7299SOL     OW33532   2.319   1.316   9.499  0.0515 -0.2107  0.1919
 7299SOL    HW133533   2.236   1.364   9.498 -0.3061 -0.7874  1.9178
 7299SOL    HW233534   2.369   1.368   9.436 -0.3559 -0.3464 -0.2377
 7300SOL     OW33535   2.118   2.718   9.560 -0.1368  0.0070  0.3087
 7300SOL    HW133536   2.108   2.813   9.561 -0.1245  0.0019  1.0525
 7300SOL    HW233537   2.039   2.682   9.521  0.7103 -0.9999 -0.5022
 7301SOL     OW33538   0.277   2.692   8.523 -0.1102 -0.2510 -0.3458
 7301SOL    HW133539   0.324   2.729   8.598  0.6248 -1.3988 -0.2551
 7301SOL    HW233540   0.206   2.634   8.551  0.7135 -0.6015  1.0257
 7302SOL     OW33541   2.082   1.878   4.790  0.1976  0.0103 -0.7775
 7302SOL    HW133542   2.026   1.925   4.852  1.1482  0.6457 -0.4085
 7302SOL    HW233543   2.041   1.865   4.704  0.6778 -2.0022 -0.6987
 7303SOL     OW33544   3.530   1.134  13.752  0.2942  0.1564 -0.1569
 7303SOL    HW133545   3.486   1.185  13.820  2.0838 -0.1583  1.2363
 7303SOL    HW233546   3.459   1.093  13.703  0.0376  2.1840 -1.4614
 7304SOL     OW33547   2.349   4.632   5.906 -0.1553 -0.2426 -0.1360
 7304SOL    HW133548   2.394   4.698   5.960 -1.3805 -2.1076  3.1294
 7304SOL    HW233549   2.331   4.567   5.974 -0.5211 -1.4951 -1.4454
 7305SOL     OW33550   3.119   2.583   1.086  0.3588  0.6918 -0.1839
 7305SOL    HW133551   3.158   2.652   1.139  0.4813  1.5222 -1.3737
 7305SOL    HW233552   3.054   2.622   1.028  0.1880 -0.3975 -0.7281
 7306SOL     OW33553   4.714   4.711   7.181 -0.1201  0.1488  0.5580
 7306SOL    HW133554   0.051   0.028   7.151 -0.9696  0.8308 -0.3056
 7306SOL    HW233555   4.649   0.001   7.116 -1.9374 -0.8407  1.9726
 7307SOL     OW33556   1.668   2.884   2.959 -1.0341 -0.1190  0.4752
 7307SOL    HW133557   1.617   2.952   2.915 -0.9836  0.3142  1.0809
 7307SOL    HW233558   1.671   2.917   3.049 -1.9681  1.6842 -0.1399
 7308SOL     OW33559   1.179   0.410  16.444 -0.1446 -0.9488  0.8780
 7308SOL    HW133560   1.257   0.355  16.436  0.2008 -0.1251 -1.5107
 7308SOL    HW233561   1.219   0.485  16.489  0.3351 -0.0211 -1.0722
 7309SOL     OW33562   2.772   3.140   7.223 -0.3460  0.5929 -0.0101
 7309SOL    HW133563   2.854   3.118   7.178  1.8027  2.4582  3.0454
 7309SOL    HW233564   2.733   3.203   7.162 -0.5893 -0.9708 -1.4762
 7310SOL     OW33565   4.066   0.800  15.154  0.5285  0.2304  0.2155
 7310SOL    HW133566   3.971   0.795  15.156  0.4191  2.2251  1.0088
 7310SOL    HW233567   4.094   0.792  15.063  0.9272 -0.1376  0.3715
 7311SOL     OW33568   2.884   3.496   7.058  0.2779 -0.0628 -0.4377
 7311SOL    HW133569   2.800   3.463   7.087  0.4621  0.1313  0.3241
 7311SOL    HW233570   2.883   3.457   6.970 -0.6064 -0.6310 -0.1645
 7312SOL     OW33571   1.048   2.771   6.625 -0.0441 -0.3991 -0.3522
 7312SOL    HW133572   0.967   2.761   6.574 -0.9648 -0.8305  1.2079
 7312SOL    HW233573   1.113   2.783   6.556  2.0901 -0.9982  1.5622
 7313SOL     OW33574   2.168   2.296   1.304  0.1414 -0.2407 -0.6192
 7313SOL    HW133575   2.156   2.360   1.234 -2.5734  0.4639  0.4916
 7313SOL    HW233576   2.078   2.300   1.338 -0.0784 -0.6546 -1.1618
 7314SOL     OW33577   1.198   1.655   5.395  0.5070 -0.1893  0.0504
 7314SOL    HW133578   1.161   1.656   5.483  1.8362 -2.1976  0.6611
 7314SOL    HW233579   1.236   1.566   5.400  0.6367 -0.0681  1.2068
 7315SOL     OW33580   2.158   3.913   0.450 -0.3169 -0.6717  0.2493
 7315SOL    HW133581   2.067   3.922   0.480 -1.0521  0.2380 -2.3073
 7315SOL    HW233582   2.189   3.844   0.509 -0.2344 -2.0418 -1.3810
 7316SOL     OW33583   2.794   0.109   0.680  0.0791  0.1070  0.0199
 7316SOL    HW133584   2.793   0.136   0.588 -0.5191  1.2604  0.3736
 7316SOL    HW233585   2.764   0.019   0.667  2.5062 -0.6145 -0.5762
 7317SOL     OW33586   3.081   2.685  15.628 -0.6731  0.2551  0.1335
 7317SOL    HW133587   3.114   2.699  15.717  0.4615 -2.3772  0.1461
 7317SOL    HW233588   3.145   2.739  15.581  0.1011 -0.9623 -0.2386
 7318SOL     OW33589   1.931   4.145   6.817 -0.1619 -0.2552 -0.4167
 7318SOL    HW133590   2.012   4.195   6.826 -0.2209 -0.3946  0.8631
 7318SOL    HW233591   1.880   4.179   6.891  3.0889  1.0313  1.2125
 7319SOL     OW33592   0.592   4.227  10.457  0.4227 -0.1191  0.1357
 7319SOL    HW133593   0.665   4.196  10.402 -0.3936 -2.0701  0.1435
 7319SOL    HW233594   0.637   4.276  10.526  2.1430 -1.1329 -0.2634
 7320SOL     OW33595   3.181   2.531   6.942 -0.2858 -0.6128  0.2361
 7320SOL    HW133596   3.143   2.615   6.916  0.6296 -0.0541  0.6568
 7320SOL    HW233597   3.209   2.495   6.858 -0.3459 -0.2436  0.0568
 7321SOL     OW33598   1.675   0.172  10.324 -0.2044 -0.7383  0.2287
 7321SOL    HW133599   1.664   0.119  10.403  0.6618 -1.0099  0.1613
 7321SOL    HW233600   1.590   0.217  10.328  1.6185  2.4854  2.0823
 7322SOL     OW33601   0.153   1.767   3.329 -0.5979 -0.5299  0.4399
 7322SOL    HW133602   0.093   1.695   3.307 -0.4559  0.0546 -1.9213
 7322SOL    HW233603   0.162   1.752   3.423 -1.1665  3.8359  1.1765
 7323SOL     OW33604   2.361   2.721   9.705 -0.2820 -0.2518 -0.7530
 7323SOL    HW133605   2.405   2.805   9.713 -0.3176 -0.2794 -0.2649
 7323SOL    HW233606   2.279   2.739   9.659 -0.1672 -2.1494 -1.7064
 7324SOL     OW33607   3.507   0.585   6.654  0.1484 -0.0430 -1.0433
 7324SOL    HW133608   3.528   0.604   6.563  1.1923  0.4844 -0.6957
 7324SOL    HW233609   3.495   0.675   6.684 -0.8953 -0.5734  0.1579
 7325SOL     OW33610   3.319   2.256  16.881 -0.4150  0.6004  0.0815
 7325SOL    HW133611   3.290   2.325  16.822 -1.4908  0.3079  0.2696
 7325SOL    HW233612   3.240   2.215  16.918 -0.8605 -0.2114 -1.7605
 7326SOL     OW33613   0.521   0.929   4.762  0.5953 -0.5783 -0.3765
 7326SOL    HW133614   0.509   0.899   4.852 -1.3564  0.4608 -0.3010
 7326SOL    HW233615   0.579   1.001   4.790 -0.2606  0.7054 -1.9066
 7327SOL     OW33616   2.088   0.474  16.199  0.7036  0.0845 -0.0914
 7327SOL    HW133617   2.000   0.444  16.178  0.2626  1.0861  0.2883
 7327SOL    HW233618   2.149   0.430  16.139  0.9463 -1.4739  1.3161
 7328SOL     OW33619   0.740   1.112   8.994 -0.3985  0.4324 -0.0998
 7328SOL    HW133620   0.814   1.087   8.939  0.4546  0.5699  1.0053
 7328SOL    HW233621   0.761   1.043   9.056  2.2820  1.9225  0.6670
 7329SOL     OW33622   1.384   1.516   7.376 -0.1992 -0.0715 -0.4162
 7329SOL    HW133623   1.289   1.515   7.362 -0.3552  2.3834  0.5742
 7329SOL    HW233624   1.416   1.500   7.287  1.1370  0.9021 -0.1094
 7330SOL     OW33625   2.930   2.043  12.001  0.5364  0.0456  0.4938
 7330SOL    HW133626   2.997   2.082  12.057 -0.6532  1.6990  0.7723
 7330SOL    HW233627   2.849   2.083  12.032  1.1042  1.0630  0.6614
 7331SOL     OW33628   1.998   1.928   9.626  0.8560  0.0294 -0.6959
 7331SOL    HW133629   1.993   1.835   9.644  0.8126  0.2556  0.4569
 7331SOL    HW233630   1.904   1.943   9.621  0.9118 -0.0603 -2.1364
 7332SOL     OW33631   3.037   4.021  15.350 -0.1682  0.3499  0.0917
 7332SOL    HW133632   2.974   4.052  15.285 -0.2005 -0.2758 -0.1696
 7332SOL    HW233633   3.026   4.091  15.414  1.0974  0.2561  0.4074
 7333SOL     OW33634   1.634   0.855   4.406  0.0168 -0.5813 -0.1576
 7333SOL    HW133635   1.567   0.824   4.467  0.8572 -0.9781  0.5724
 7333SOL    HW233636   1.600   0.934   4.365  1.0135 -0.5266 -0.8837
 7334SOL     OW33637   0.603   4.159   2.278 -0.0387 -0.2250 -0.0168
 7334SOL    HW133638   0.666   4.120   2.217 -1.0305 -0.1035 -1.1201
 7334SOL    HW233639   0.538   4.088   2.278  0.3511 -0.5967 -2.2192
 7335SOL     OW33640   1.066   0.802   8.186 -0.2808 -0.4623  0.0358
 7335SOL    HW133641   1.062   0.878   8.128 -1.4891  1.0800  2.1486
 7335SOL    HW233642   0.988   0.758   8.150  0.8802 -0.8701 -2.0070
 7336SOL     OW33643   2.322   3.197   5.971 -0.0604  0.3473 -0.0519
 7336SOL    HW133644   2.313   3.293   5.969 -1.3282  0.3205  3.2339
 7336SOL    HW233645   2.273   3.186   6.053 -0.7209 -0.9866 -0.6363
 7337SOL     OW33646   1.024   3.036  17.608 -0.0510  0.4184 -0.0470
 7337SOL    HW133647   1.039   2.953  17.563  0.0667  1.2480 -1.5193
 7337SOL    HW233648   1.097   3.040  17.670 -1.1859  0.5241  1.2880
 7338SOL     OW33649   1.701   0.454  11.854  0.4683 -0.1796 -0.3267
 7338SOL    HW133650   1.779   0.401  11.873  0.9295  1.2866  1.7691
 7338SOL    HW233651   1.638   0.382  11.845 -0.3105  0.2794  1.5932
 7339SOL     OW33652   3.786   0.454   6.929  0.1450  0.5252  0.1565
 7339SOL    HW133653   3.812   0.362   6.924  0.1834  0.4990  0.8624
 7339SOL    HW233654   3.805   0.483   6.840  1.1911 -3.2496 -0.8699
 7340SOL     OW33655   3.578   1.627   6.255  0.2403 -0.4448 -0.1010
 7340SOL    HW133656   3.611   1.538   6.251 -1.4824 -1.0695 -0.1735
 7340SOL    HW233657   3.624   1.656   6.334 -0.9180  0.7669  0.1287
 7341SOL     OW33658   2.237   0.079  17.233 -0.8376 -0.2293  0.2322
 7341SOL    HW133659   2.150   0.117  17.216  0.1289  0.8630 -2.3610
 7341SOL    HW233660   2.223   0.059  17.325  0.3769  0.0952  0.4876
 7342SOL     OW33661   1.365   4.675   8.044  0.5768 -0.2243  0.1778
 7342SOL    HW133662   1.382   4.733   7.970  1.1162 -0.5900  0.0117
 7342SOL    HW233663   1.440   4.683   8.104  2.3034 -2.1456 -1.7082
 7343SOL     OW33664   2.894   3.686  16.029  0.2418 -0.7504 -0.0571
 7343SOL    HW133665   2.839   3.718  16.100 -1.5995 -0.6527 -1.5437
 7343SOL    HW233666   2.944   3.767  16.018  0.4121 -0.9983 -1.1100
 7344SOL     OW33667   2.967   0.084  14.112  0.8874  0.3431 -0.4621
 7344SOL    HW133668   2.976   0.135  14.032  1.3984  1.7640  0.4951
 7344SOL    HW233669   2.993   4.732  14.087 -0.8145 -0.2593 -0.0724
 7345SOL     OW33670   2.012   4.610   6.090 -0.4983  0.2541 -0.0978
 7345SOL    HW133671   2.029   4.605   5.996 -1.6416  1.0708 -0.3433
 7345SOL    HW233672   1.969   4.525   6.100 -0.5845  0.5514  2.0188
 7346SOL     OW33673   3.031   2.015   6.729 -0.0884 -0.4978 -0.0819
 7346SOL    HW133674   3.062   2.075   6.797  0.9117  0.2557 -1.2135
 7346SOL    HW233675   2.946   1.987   6.765  0.6604 -0.4890  1.6646
 7347SOL     OW33676   1.971   1.174   5.110  0.3931  0.2021 -0.3396
 7347SOL    HW133677   2.010   1.189   5.024  1.7304 -1.2223  0.0192
 7347SOL    HW233678   2.039   1.204   5.171 -0.7989  1.2284  0.5024
 7348SOL     OW33679   0.336   1.683  12.956 -0.3652 -0.3732 -0.0982
 7348SOL    HW133680   0.391   1.606  12.941  1.5065  0.5666  1.9791
 7348SOL    HW233681   0.272   1.647  13.018  0.1241 -1.5289 -0.2670
 7349SOL     OW33682   0.155   1.470   6.287  0.2790 -0.4537 -0.2912
 7349SOL    HW133683   0.195   1.536   6.344 -0.1493 -0.5308  0.0964
 7349SOL    HW233684   0.164   1.507   6.199 -0.5459 -0.2233 -0.2739
 7350SOL     OW33685   4.330   0.991   6.417  0.1504  0.0898 -0.0446
 7350SOL    HW133686   4.280   1.000   6.335  0.5214  0.6039 -0.2099
 7350SOL    HW233687   4.282   0.916   6.453  0.6374 -1.0435 -1.7757
 7351SOL     OW33688   3.901   4.265  16.917 -0.4602  1.0668 -0.2614
 7351SOL    HW133689   3.830   4.216  16.875  0.7051  0.2078 -1.2251
 7351SOL    HW233690   3.981   4.216  16.899 -0.2085  1.4737 -0.2399
 7352SOL     OW33691   4.566   0.951  14.604  0.7216  0.1562 -0.6160
 7352SOL    HW133692   4.590   0.990  14.520  1.7373 -1.0810 -0.8927
 7352SOL    HW233693   4.636   0.888  14.620  0.4079 -0.0995 -0.2220
 7353SOL     OW33694   4.446   4.734   3.593  0.1263 -0.2783  0.1766
 7353SOL    HW133695   4.393   4.655   3.585 -0.9303  0.6573 -1.9176
 7353SOL    HW233696   4.436   0.006   3.688  2.2210  1.1995  0.2433
 7354SOL     OW33697   4.137   0.388   7.096 -0.6313  0.3442  0.2764
 7354SOL    HW133698   4.180   0.367   7.179 -0.8170 -0.2538  0.2149
 7354SOL    HW233699   4.071   0.320   7.103  1.1651 -1.5419 -1.1393
 7355SOL     OW33700   0.179   2.339   0.222 -0.3704 -0.1857  0.0166
 7355SOL    HW133701   0.219   2.424   0.237 -2.8258  0.9143  0.2972
 7355SOL    HW233702   0.228   2.311   0.145 -0.2927  1.4779 -0.5229
 7356SOL     OW33703   1.457   2.440   1.635 -0.1549 -0.0848  0.2129
 7356SOL    HW133704   1.413   2.426   1.719 -1.8214 -1.7081 -0.9575
 7356SOL    HW233705   1.546   2.457   1.666  1.2087 -2.7341 -2.3260
 7357SOL     OW33706   0.382   2.197   7.940  0.2790 -0.1792  0.4856
 7357SOL    HW133707   0.383   2.160   7.852 -3.1686 -0.4384  0.5386
 7357SOL    HW233708   0.287   2.193   7.951  0.1823  2.1075  0.3816
 7358SOL     OW33709   0.224   2.226   1.766  0.2188  0.0371 -0.0253
 7358SOL    HW133710   0.298   2.212   1.826  1.0018  2.3556 -0.4380
 7358SOL    HW233711   0.168   2.149   1.772  3.0685 -1.9670  0.7358
 7359SOL     OW33712   0.570   2.933   1.330 -0.0347 -0.4041 -0.3806
 7359SOL    HW133713   0.479   2.948   1.306 -0.1922 -0.5589  0.1261
 7359SOL    HW233714   0.604   3.022   1.344  0.0253 -0.5806  0.5964
 7360SOL     OW33715   2.173   1.802   9.408  0.0603 -0.4634  0.1820
 7360SOL    HW133716   2.101   1.851   9.370  1.2730 -0.8204 -2.5350
 7360SOL    HW233717   2.161   1.804   9.503 -0.3208  2.7380  0.0924
 7361SOL     OW33718   3.755   0.034   5.393 -1.0297 -0.2275  0.5613
 7361SOL    HW133719   3.693   4.699   5.394 -1.1748 -0.1050 -0.8483
 7361SOL    HW233720   3.832   4.720   5.421 -2.1593 -1.7019  0.9988
 7362SOL     OW33721   0.917   4.397   8.469  0.3633  0.2825 -0.3680
 7362SOL    HW133722   0.988   4.462   8.474 -1.3119  2.0290  0.6108
 7362SOL    HW233723   0.934   4.347   8.389 -0.3942 -1.9678  0.8832
 7363SOL     OW33724   3.185   3.347  15.550  0.0335  0.0532  0.2740
 7363SOL    HW133725   3.132   3.381  15.621  0.1771 -0.7319  0.7609
 7363SOL    HW233726   3.273   3.364  15.584 -0.9882  2.4720  1.6753
 7364SOL     OW33727   2.104   1.726   7.189  0.2293 -0.2075  0.0729
 7364SOL    HW133728   2.086   1.818   7.173 -0.0507 -0.2396  0.2199
 7364SOL    HW233729   2.017   1.686   7.181 -0.7317  1.7699  0.7946
 7365SOL     OW33730   4.131   4.155  16.845 -0.1759 -0.4075  0.3817
 7365SOL    HW133731   4.157   4.102  16.770  0.2219 -2.3553  1.8919
 7365SOL    HW233732   4.199   4.131  16.908 -1.1322  0.7049  1.8437
 7366SOL     OW33733   2.343   2.453   9.549  0.2677  0.6873  0.2959
 7366SOL    HW133734   2.361   2.543   9.576 -2.2136  0.5742  2.3593
 7366SOL    HW233735   2.303   2.471   9.464  2.8441  0.8870 -0.8854
 7367SOL     OW33736   3.318   4.124   3.017 -0.1466 -0.5221 -0.3512
 7367SOL    HW133737   3.403   4.083   3.034  0.3626  0.4425 -0.5770
 7367SOL    HW233738   3.343   4.198   2.961 -1.7272  1.5277  1.6771
 7368SOL     OW33739   4.369   0.422   6.936 -0.3274  0.4307  0.1729
 7368SOL    HW133740   4.288   0.408   6.984 -1.4266  2.2277 -1.1514
 7368SOL    HW233741   4.425   0.447   7.009 -0.5107  1.0730  0.0925
 7369SOL     OW33742   0.842   4.381   4.151 -0.0639  0.6068  0.2072
 7369SOL    HW133743   0.759   4.369   4.196 -0.0084 -0.1659  0.1177
 7369SOL    HW233744   0.882   4.421   4.228  0.9092 -2.0862  1.0984
 7370SOL     OW33745   4.175   3.210   7.035  0.4757  0.4490  0.0995
 7370SOL    HW133746   4.213   3.161   6.962  0.8009  0.7195  0.0861
 7370SOL    HW233747   4.118   3.140   7.067 -0.0086  1.0121  0.4865
 7371SOL     OW33748   1.263   3.688   4.204  0.2526 -0.1713 -0.0202
 7371SOL    HW133749   1.357   3.703   4.189  0.7292 -1.1393  1.9652
 7371SOL    HW233750   1.232   3.771   4.170 -2.2904 -1.2975 -0.4481
 7372SOL     OW33751   4.524   4.508   8.835 -0.4173 -0.4301  0.4175
 7372SOL    HW133752   4.439   4.552   8.826 -0.4019 -0.3645  0.6025
 7372SOL    HW233753   4.561   4.581   8.884 -3.7000  0.0788  2.2054
 7373SOL     OW33754   3.879   4.513   7.050 -0.2132  0.2162  0.2988
 7373SOL    HW133755   3.847   4.578   7.111 -1.0129 -0.8635  1.0368
 7373SOL    HW233756   3.912   4.448   7.112 -1.2519 -1.6669 -1.1214
 7374SOL     OW33757   3.616   2.187   3.522 -0.1038 -0.1685 -0.1186
 7374SOL    HW133758   3.602   2.253   3.454 -3.7284 -0.5930  0.2147
 7374SOL    HW233759   3.624   2.240   3.601 -1.1886 -0.7278  0.3642
 7375SOL     OW33760   3.788   0.406  15.888  0.4095  0.1931  0.5411
 7375SOL    HW133761   3.813   0.496  15.868 -0.0191  0.0045 -0.8307
 7375SOL    HW233762   3.816   0.365  15.806 -0.1964  2.2117 -0.6607
 7376SOL     OW33763   4.247   0.686   7.520 -0.5339  0.0110 -0.2127
 7376SOL    HW133764   4.251   0.673   7.425  1.1648  1.6661 -0.3638
 7376SOL    HW233765   4.234   0.780   7.528  0.8321  0.3105 -1.6102
 7377SOL     OW33766   3.426   1.100   8.763  0.0136 -0.5016  0.1563
 7377SOL    HW133767   3.459   1.020   8.722 -0.8384 -0.7521 -0.0396
 7377SOL    HW233768   3.340   1.063   8.782 -0.7426 -0.0377 -2.3496
 7378SOL     OW33769   1.443   1.500  11.274  0.0442  0.3584 -0.2740
 7378SOL    HW133770   1.353   1.510  11.246 -0.1711 -0.7158  0.0128
 7378SOL    HW233771   1.487   1.501  11.188 -1.2095  0.0288 -0.9135
 7379SOL     OW33772   2.853   4.236   4.661  0.2328 -0.2948 -0.0727
 7379SOL    HW133773   2.881   4.309   4.605 -0.3814  0.6262  0.8302
 7379SOL    HW233774   2.761   4.251   4.679  0.9531  0.8770  2.6138
 7380SOL     OW33775   0.185   4.383   0.244 -0.1998  0.6639  0.3142
 7380SOL    HW133776   0.161   4.420   0.329 -1.5358 -1.6442  0.9381
 7380SOL    HW233777   0.116   4.431   0.196  1.2231  1.3813 -1.0085
 7381SOL     OW33778   2.286   2.565   8.992  0.1264  0.1012  0.7035
 7381SOL    HW133779   2.285   2.661   8.994 -1.0897  0.1124 -0.4984
 7381SOL    HW233780   2.192   2.553   8.977 -0.0475  0.7058  1.2706
 7382SOL     OW33781   1.112   3.959   0.239 -0.1498  0.7421 -0.0175
 7382SOL    HW133782   1.194   3.965   0.288  1.0492 -1.4579 -1.7531
 7382SOL    HW233783   1.113   4.049   0.205 -0.5731 -0.1592 -2.3955
 7383SOL     OW33784   1.595   3.568   8.502  0.0956  0.2790  0.6518
 7383SOL    HW133785   1.594   3.577   8.406  2.0246 -0.2146  0.5799
 7383SOL    HW233786   1.565   3.657   8.521 -1.4034  0.1229 -1.0029
 7384SOL     OW33787   0.690   1.269  15.072 -0.4157 -0.0437 -0.1499
 7384SOL    HW133788   0.642   1.229  15.000 -0.9077 -0.3669  0.3517
 7384SOL    HW233789   0.685   1.200  15.139 -1.9652 -0.1300 -0.3452
 7385SOL     OW33790   2.391   2.652   3.080  0.2038 -0.0563  0.3054
 7385SOL    HW133791   2.375   2.680   2.990  2.1011  0.9738  0.2900
 7385SOL    HW233792   2.313   2.603   3.106 -0.0400  1.3130  2.1446
 7386SOL     OW33793   2.119   2.860   6.314 -0.4729 -0.2942 -0.7953
 7386SOL    HW133794   2.185   2.802   6.351  0.6607  2.3688  1.3485
 7386SOL    HW233795   2.072   2.882   6.394  0.2724 -1.1068 -0.1287
 7387SOL     OW33796   0.979   1.591   6.805  0.0043  0.1457  0.8768
 7387SOL    HW133797   1.065   1.605   6.845 -0.1440 -1.0916  1.6253
 7387SOL    HW233798   0.965   1.678   6.767  1.7691  0.4650  0.9478
 7388SOL     OW33799   0.233   2.116   5.992 -0.2018 -0.1535  0.3056
 7388SOL    HW133800   0.246   2.100   6.085  0.1947 -1.4734  0.0222
 7388SOL    HW233801   0.323   2.133   5.966 -0.8956  1.2616 -1.1681
 7389SOL     OW33802   1.321   3.958   8.721  0.4098 -0.5760  0.2690
 7389SOL    HW133803   1.281   3.884   8.767  1.3107 -0.1776  1.7046
 7389SOL    HW233804   1.243   4.007   8.693 -0.0090 -0.4079  1.7416
 7390SOL     OW33805   2.170   1.959   2.417 -0.2680  0.1960  0.1515
 7390SOL    HW133806   2.238   1.891   2.419  0.7318  1.2142  0.5681
 7390SOL    HW233807   2.148   1.978   2.508  0.8492  0.7668  0.3006
 7391SOL     OW33808   4.459   2.859   5.399 -0.1848  0.5560  0.2391
 7391SOL    HW133809   4.413   2.798   5.458  0.0154 -0.8312 -1.0361
 7391SOL    HW233810   4.414   2.942   5.413 -0.2536  0.1649  2.4482
 7392SOL     OW33811   1.399   0.017   7.793  0.2641  0.0543  0.0906
 7392SOL    HW133812   1.328   4.693   7.772  0.7257 -0.5711  0.3166
 7392SOL    HW233813   1.364   0.100   7.763  2.5363  2.0908  3.0807
 7393SOL     OW33814   4.019   1.195  14.510  0.0420 -0.2067  0.3502
 7393SOL    HW133815   4.077   1.125  14.541  0.5692 -0.0352 -0.2364
 7393SOL    HW233816   3.931   1.172  14.540  0.7196 -2.7055  0.3924
 7394SOL     OW33817   3.516   4.521  17.402 -0.1764 -0.0831 -0.8248
 7394SOL    HW133818   3.570   4.444  17.383 -2.2709 -1.7651  0.0377
 7394SOL    HW233819   3.475   4.525  17.316  0.3578 -3.5300 -1.2589
 7395SOL     OW33820   3.835   3.394  12.954 -0.2171 -0.3221  0.0485
 7395SOL    HW133821   3.894   3.363  13.022  0.3208 -0.0067 -0.2758
 7395SOL    HW233822   3.884   3.466  12.914 -1.8506  0.5618 -0.3477
 7396SOL     OW33823   3.414   1.073   6.986  0.1828 -0.1479  0.4419
 7396SOL    HW133824   3.378   1.108   6.904  0.7534  0.9912  0.6771
 7396SOL    HW233825   3.340   1.038   7.036  1.2170  0.1232  2.1371
 7397SOL     OW33826   1.145   3.235   6.607  0.1071 -0.2983  0.2811
 7397SOL    HW133827   1.131   3.278   6.523 -0.1529 -0.4095  0.2682
 7397SOL    HW233828   1.241   3.241   6.601  0.1466 -0.8704  0.2904
 7398SOL     OW33829   3.637   1.557   2.803 -0.6444  0.2972  0.1450
 7398SOL    HW133830   3.566   1.524   2.749 -1.4356 -0.6048  1.7339
 7398SOL    HW233831   3.604   1.646   2.809  1.0070  1.1471 -3.0275
 7399SOL     OW33832   3.245   3.433   4.577  0.5399 -0.2976  0.6258
 7399SOL    HW133833   3.293   3.354   4.551 -2.0423 -1.0201 -1.9268
 7399SOL    HW233834   3.271   3.446   4.668 -1.0288 -0.9370  1.1657
 7400SOL     OW33835   0.215   0.347   6.137  0.6405  0.6694 -0.4790
 7400SOL    HW133836   0.240   0.324   6.048 -1.1160 -1.3420 -0.4683
 7400SOL    HW233837   0.287   0.403   6.164  1.7710 -0.8095 -0.4474
 7401SOL     OW33838   3.754   0.834   6.707  0.0078 -0.3703 -0.4233
 7401SOL    HW133839   3.796   0.892   6.770  0.5035 -0.0825 -1.0264
 7401SOL    HW233840   3.675   0.885   6.689  0.3354 -0.0280 -0.8701
 7402SOL     OW33841   4.614   1.510   8.919 -0.3090  0.5416 -0.0729
 7402SOL    HW133842   4.704   1.505   8.952 -1.2059 -0.1972  2.2150
 7402SOL    HW233843   4.575   1.457   8.988  0.7955 -0.2245 -0.0372
 7403SOL     OW33844   3.141   0.558   8.205  0.6505  0.1678 -0.5626
 7403SOL    HW133845   3.103   0.639   8.172 -0.1642 -0.0302 -0.1148
 7403SOL    HW233846   3.104   0.556   8.293  0.2561 -0.5456 -0.7424
 7404SOL     OW33847   2.555   2.608   7.965  0.3624 -0.5830  0.0831
 7404SOL    HW133848   2.472   2.564   7.946  0.3499 -1.2526  1.6404
 7404SOL    HW233849   2.581   2.635   7.877  2.9922  0.8211  1.2917
 7405SOL     OW33850   2.865   2.978   3.426  0.2920  0.0965  0.5211
 7405SOL    HW133851   2.793   3.018   3.379  1.4090  1.4831 -0.0136
 7405SOL    HW233852   2.836   2.887   3.429 -1.7594  0.7899  1.3862
 7406SOL     OW33853   4.039   2.282  11.362 -0.5344  0.5007 -0.6862
 7406SOL    HW133854   4.039   2.213  11.428 -0.0586  1.9972  0.8683
 7406SOL    HW233855   4.066   2.355  11.417  0.0899  2.1805 -3.1931
 7407SOL     OW33856   0.582   3.904   3.652 -0.1712 -0.4617  1.1933
 7407SOL    HW133857   0.628   3.856   3.583 -0.1460 -0.1726  1.0140
 7407SOL    HW233858   0.641   3.971   3.687 -0.0617 -0.3807  0.8513
 7408SOL     OW33859   2.163   2.744   1.862  0.3052 -0.2930 -0.2592
 7408SOL    HW133860   2.227   2.814   1.869 -1.1380  0.8515  1.2791
 7408SOL    HW233861   2.224   2.675   1.836  0.4794 -0.6653  1.1527
 7409SOL     OW33862   4.637   2.780   2.214  1.0320 -0.8252 -0.4097
 7409SOL    HW133863   4.611   2.872   2.209  2.4758 -0.3030  2.2244
 7409SOL    HW233864   4.655   2.748   2.125  0.4492  0.9922 -1.1740
 7410SOL     OW33865   0.740   2.671   1.202 -0.2367  0.3852 -0.3434
 7410SOL    HW133866   0.757   2.760   1.231 -1.6600 -0.0214  1.7091
 7410SOL    HW233867   0.825   2.628   1.215  0.8072  3.4065  2.8512
 7411SOL     OW33868   1.881   3.638   0.600 -0.4383 -0.1584  0.1126
 7411SOL    HW133869   1.876   3.625   0.695 -2.0051 -2.6425 -0.3347
 7411SOL    HW233870   1.928   3.559   0.576 -0.7613 -0.5884  0.9042
 7412SOL     OW33871   2.372   0.144   4.564 -0.0517 -0.4247  0.4298
 7412SOL    HW133872   2.340   0.068   4.516 -1.1853  0.3761 -0.0910
 7412SOL    HW233873   2.301   0.207   4.551  0.0411 -0.9185 -2.5160
 7413SOL     OW33874   0.214   3.614  12.742 -0.3282  0.3358 -0.0398
 7413SOL    HW133875   0.255   3.684  12.692  1.0180 -0.1339  0.4000
 7413SOL    HW233876   0.282   3.584  12.802  0.2708  1.5599 -0.1274
 7414SOL     OW33877   4.069   4.520   8.270 -0.5524 -0.3359 -0.1954
 7414SOL    HW133878   3.977   4.543   8.283 -0.3201  0.5257 -0.0527
 7414SOL    HW233879   4.092   4.590   8.209 -1.0582 -0.8037 -0.9174
 7415SOL     OW33880   3.885   0.461  17.430 -0.6562 -0.6966  0.4849
 7415SOL    HW133881   3.799   0.466  17.471  1.0512 -1.2837  4.1404
 7415SOL    HW233882   3.859   0.460  17.338  2.6174 -0.2383 -0.4481
 7416SOL     OW33883   1.312   2.131   6.553  0.2459  0.1241 -0.0908
 7416SOL    HW133884   1.304   2.128   6.648  1.2962  1.2653  0.0292
 7416SOL    HW233885   1.302   2.038   6.535  1.2454 -0.0333  0.2056
 7417SOL     OW33886   0.269   2.124   4.032 -0.5507 -0.4651  0.2864
 7417SOL    HW133887   0.325   2.125   3.955 -0.0679  0.4180  0.6413
 7417SOL    HW233888   0.232   2.036   4.028  1.2670 -1.1223 -1.6672
 7418SOL     OW33889   0.982   3.359   4.471 -0.4000 -0.3373 -0.5738
 7418SOL    HW133890   1.011   3.357   4.380 -1.0419  0.1735 -0.7908
 7418SOL    HW233891   1.060   3.314   4.502 -0.2940 -0.9285 -1.7371
 7419SOL     OW33892   3.112   0.965   2.570 -0.6062 -0.3414  0.3681
 7419SOL    HW133893   3.121   0.962   2.665 -0.0532  0.6934  0.3540
 7419SOL    HW233894   3.109   0.873   2.545 -1.0717 -1.1335  3.3791
 7420SOL     OW33895   1.362   2.368   8.719  0.2999 -0.2489 -0.0910
 7420SOL    HW133896   1.355   2.275   8.696  0.6075 -0.1850 -0.4360
 7420SOL    HW233897   1.296   2.408   8.662  1.4421  1.2269 -0.3839
 7421SOL     OW33898   1.887   1.796   1.387 -0.2284 -0.0885  0.1824
 7421SOL    HW133899   1.899   1.801   1.292  1.9042 -0.0667  0.4549
 7421SOL    HW233900   1.793   1.784   1.403 -0.7984  0.2248 -2.9776
 7422SOL     OW33901   1.128   0.781  16.715 -0.7011  0.0664 -0.1143
 7422SOL    HW133902   1.195   0.738  16.662 -2.3557 -0.9639 -1.4182
 7422SOL    HW233903   1.108   0.855  16.658  0.3252 -0.7097 -1.4652
 7423SOL     OW33904   2.024   3.924   1.573 -0.2784 -0.0107  0.1091
 7423SOL    HW133905   2.085   3.885   1.510  0.7058 -2.6399  2.7146
 7423SOL    HW233906   1.955   3.957   1.515  0.4489  1.9677  0.3763
 7424SOL     OW33907   3.317   3.398   7.460 -0.4127 -0.2275  0.5617
 7424SOL    HW133908   3.387   3.388   7.525  0.2475 -0.1925 -0.1459
 7424SOL    HW233909   3.269   3.316   7.475  0.0608 -0.9149 -1.7337
 7425SOL     OW33910   2.140   4.589   2.481 -0.1279 -0.0814  0.0339
 7425SOL    HW133911   2.087   4.542   2.417 -0.3452  1.4061 -0.8798
 7425SOL    HW233912   2.103   4.571   2.567 -1.7642  0.9272 -0.4733
 7426SOL     OW33913   4.426   0.669   1.238  0.0762  0.1335  0.8302
 7426SOL    HW133914   4.371   0.628   1.170  0.8668  0.8070 -0.2159
 7426SOL    HW233915   4.491   0.600   1.244 -0.1790 -0.1461  0.4209
 7427SOL     OW33916   1.712   3.016   0.894  0.1455  0.2945 -0.1934
 7427SOL    HW133917   1.655   3.033   0.819  0.1086 -1.0981 -0.4892
 7427SOL    HW233918   1.782   3.074   0.866  0.9905 -0.4030  0.4729
 7428SOL     OW33919   0.701   3.111   6.264  0.7343  0.5291 -0.1743
 7428SOL    HW133920   0.645   3.091   6.188 -1.6096  1.6944  1.2355
 7428SOL    HW233921   0.713   3.205   6.257  0.8151  0.4711 -0.9108
 7429SOL     OW33922   4.225   2.505   9.990 -0.1081 -0.2649 -0.0159
 7429SOL    HW133923   4.199   2.589  10.029  0.9427  0.4664 -0.8789
 7429SOL    HW233924   4.142   2.458   9.984  0.4993 -1.1832 -1.3587
 7430SOL     OW33925   3.081   4.151   6.200 -0.6472  0.2331  0.4475
 7430SOL    HW133926   3.164   4.129   6.156 -0.4298 -0.8147  1.3683
 7430SOL    HW233927   3.038   4.066   6.195 -0.0269  0.1012 -3.3069
 7431SOL     OW33928   0.779   3.213   7.723  0.0266 -0.1292  0.0253
 7431SOL    HW133929   0.707   3.179   7.777  0.0615  0.2292  0.3014
 7431SOL    HW233930   0.838   3.139   7.712 -0.7661 -0.6878 -0.4619
 7432SOL     OW33931   0.125   2.971  15.992  0.2233  0.0196 -0.3093
 7432SOL    HW133932   0.035   2.974  16.024  0.6995 -1.6968  1.2228
 7432SOL    HW233933   0.132   3.061  15.960  0.6799 -0.7700 -2.4195
 7433SOL     OW33934   4.681   3.433   7.274 -0.0246 -0.5572 -0.3139
 7433SOL    HW133935   0.024   3.454   7.224 -0.7889  1.2934 -0.7597
 7433SOL    HW233936   4.608   3.444   7.214  0.6269 -1.8668 -1.3399
 7434SOL     OW33937   2.196   3.901   6.855 -0.3241  0.3319  0.5678
 7434SOL    HW133938   2.144   3.947   6.921  0.8212  0.7756  1.1565
 7434SOL    HW233939   2.184   3.935   6.767 -1.7525 -1.6662 -0.0203
 7435SOL     OW33940   2.074   2.468   2.178  0.1435  0.4661  0.4404
 7435SOL    HW133941   2.013   2.404   2.141 -0.7168  0.9839  0.9482
 7435SOL    HW233942   2.009   2.538   2.189 -0.4260 -0.0858  0.6053
 7436SOL     OW33943   4.493   3.116   4.028  0.2981  0.0239 -0.3323
 7436SOL    HW133944   4.437   3.184   3.991 -0.6671  0.1925  1.4202
 7436SOL    HW233945   4.442   3.096   4.106  1.7641 -1.7423  0.1797
 7437SOL     OW33946   3.048   1.092   7.398 -0.2586  0.7258  0.1434
 7437SOL    HW133947   3.033   1.024   7.333  0.4215  1.2947 -0.6071
 7437SOL    HW233948   3.023   1.047   7.479  1.7066  0.1276  0.4239
 7438SOL     OW33949   4.226   2.167  10.138  0.4971 -0.5604  0.1359
 7438SOL    HW133950   4.142   2.209  10.159  0.3682 -0.4144 -0.6752
 7438SOL    HW233951   4.277   2.245  10.117  0.6116 -0.2889  1.4254
 7439SOL     OW33952   2.533   0.978  12.587  0.3422 -0.0822  1.2874
 7439SOL    HW133953   2.602   1.003  12.649  0.4420 -0.0807  1.1747
 7439SOL    HW233954   2.458   0.980  12.647 -0.2112  1.2126  0.5490
 7440SOL     OW33955   0.506   2.902  12.446 -0.5279  0.4321 -0.3984
 7440SOL    HW133956   0.521   2.962  12.373 -2.1997 -0.1989 -1.2624
 7440SOL    HW233957   0.578   2.919  12.507 -0.7449 -0.7162  0.1895
 7441SOL     OW33958   1.683   0.155   3.502 -0.1265  0.8348 -0.1697
 7441SOL    HW133959   1.650   0.116   3.583 -2.7571  1.2946 -1.0162
 7441SOL    HW233960   1.622   0.228   3.500  0.0305  1.0498  2.6613
 7442SOL     OW33961   2.076   3.664   1.074  0.3843 -0.0754 -0.7327
 7442SOL    HW133962   2.166   3.631   1.076  0.7532  1.0471  1.1097
 7442SOL    HW233963   2.101   3.755   1.060 -0.2497  0.4314  1.3924
 7443SOL     OW33964   4.111   1.827   8.216 -0.0434 -0.1895  0.4912
 7443SOL    HW133965   4.152   1.784   8.141  2.0332  0.5654  1.2104
 7443SOL    HW233966   4.181   1.833   8.280  1.3527  0.8848 -1.1564
 7444SOL     OW33967   1.984   4.139  13.736  0.3417  0.2718 -0.4215
 7444SOL    HW133968   2.031   4.167  13.657  0.0120 -2.2690 -1.5399
 7444SOL    HW233969   1.910   4.089  13.702  0.5794 -0.3461 -0.0495
 7445SOL     OW33970   4.605   3.868   2.643 -0.3585  0.9812  0.5839
 7445SOL    HW133971   4.519   3.899   2.672 -0.6270  1.1451 -0.3750
 7445SOL    HW233972   4.597   3.783   2.601 -1.4675  1.3616  0.0158
 7446SOL     OW33973   4.712   0.142   2.352 -0.2247  0.5304 -0.6188
 7446SOL    HW133974   4.677   0.091   2.278 -0.5302 -2.0052  1.2673
 7446SOL    HW233975   4.701   0.232   2.323  0.2448  1.4333  2.0298
 7447SOL     OW33976   2.464   4.387  17.039 -0.6076 -0.4821  0.5288
 7447SOL    HW133977   2.468   4.442  16.961  4.2245  0.4745  1.4937
 7447SOL    HW233978   2.558   4.376  17.050 -0.3885  0.1146 -0.7700
 7448SOL     OW33979   2.733   2.132   9.329  0.3841 -0.6212  0.1050
 7448SOL    HW133980   2.790   2.157   9.256 -1.0783  0.0332 -0.8137
 7448SOL    HW233981   2.757   2.198   9.394 -0.0395 -0.5990  0.2377
 7449SOL     OW33982   4.588   2.192   9.216 -0.4807  0.4045  0.0014
 7449SOL    HW133983   4.586   2.182   9.121 -1.6817  0.5457  0.0126
 7449SOL    HW233984   4.496   2.175   9.235 -1.0014  1.0437 -1.9856
 7450SOL     OW33985   2.404   2.271   6.443 -0.6417  0.2104 -0.2103
 7450SOL    HW133986   2.317   2.252   6.476 -0.8884 -1.1369 -1.6358
 7450SOL    HW233987   2.398   2.280   6.348  2.8400 -1.2194 -0.5850
 7451SOL     OW33988   0.597   0.233   5.374  0.1484  0.2591 -0.6353
 7451SOL    HW133989   0.681   0.231   5.419 -0.2105  0.0914  0.0158
 7451SOL    HW233990   0.586   0.327   5.358  0.8610  0.3871 -0.3845
 7452SOL     OW33991   3.690   0.758   5.630 -0.0114 -0.1087  0.2440
 7452SOL    HW133992   3.684   0.690   5.696  0.5381  2.7109  3.1867
 7452SOL    HW233993   3.620   0.816   5.662  0.0632 -0.0892  0.3719
 7453SOL     OW33994   3.379   1.032   4.299  0.4594  0.7422  0.1985
 7453SOL    HW133995   3.299   1.045   4.351 -1.2110 -2.2308 -1.6943
 7453SOL    HW233996   3.345   1.009   4.213  0.7346  1.9155 -0.2229
 7454SOL     OW33997   1.848   1.245   2.269 -0.4507 -0.3569  0.4369
 7454SOL    HW133998   1.824   1.220   2.179 -0.9833  0.2227  0.4212
 7454SOL    HW233999   1.942   1.257   2.255 -0.7132  2.1623  0.8081
 7455SOL     OW34000   4.251   2.139  12.379 -0.0700  0.8298 -0.3943
 7455SOL    HW134001   4.202   2.218  12.355  1.0827  2.0162  1.1369
 7455SOL    HW234002   4.295   2.133  12.295  1.1696 -0.0412  0.3120
 7456SOL     OW34003   1.522   2.955   9.061  0.1859 -0.2353 -0.3526
 7456SOL    HW134004   1.514   2.892   8.989 -0.3161  0.3050 -0.7735
 7456SOL    HW234005   1.516   3.035   9.009  0.3742  0.8182  1.2335
 7457SOL     OW34006   0.248   2.404   6.596  0.8022 -0.1911 -0.0492
 7457SOL    HW134007   0.167   2.453   6.606  1.0246 -0.0538  1.1449
 7457SOL    HW234008   0.220   2.364   6.514  2.1013 -0.0296 -0.5695
 7458SOL     OW34009   1.802   3.994   2.831 -0.9861 -0.0557 -0.5706
 7458SOL    HW134010   1.800   3.924   2.765  0.5857 -0.2097 -0.4442
 7458SOL    HW234011   1.896   4.007   2.840 -1.1013  1.2329 -1.2065
 7459SOL     OW34012   4.631   2.140  12.356  0.2830 -0.6434 -0.2865
 7459SOL    HW134013   4.682   2.188  12.421 -1.0427  0.5182 -0.1150
 7459SOL    HW234014   4.673   2.161  12.272 -0.3349 -1.2801 -0.7592
 7460SOL     OW34015   2.873   1.068   3.653 -0.0823 -0.5187  0.3977
 7460SOL    HW134016   2.784   1.034   3.662 -0.8372  1.3439  0.0584
 7460SOL    HW234017   2.856   1.130   3.582 -0.3478 -0.3808  0.5833
 7461SOL     OW34018   4.176   3.869   7.640  0.6798  0.9532  0.7058
 7461SOL    HW134019   4.209   3.798   7.694 -0.2540  0.0925  0.1339
 7461SOL    HW234020   4.087   3.868   7.674  1.0604  1.7277  1.7267
 7462SOL     OW34021   0.536   0.172  11.895 -0.3033 -0.3036  0.2659
 7462SOL    HW134022   0.540   0.259  11.856  0.9655 -0.7977 -0.7048
 7462SOL    HW234023   0.629   0.150  11.907 -0.5995 -1.3711  0.6251
 7463SOL     OW34024   2.704   0.695  15.316 -0.3385 -0.4153  0.0676
 7463SOL    HW134025   2.653   0.705  15.397 -0.2094 -1.8163  0.3380
 7463SOL    HW234026   2.705   0.776  15.266  1.2646  0.4827  1.5691
 7464SOL     OW34027   4.576   0.329   1.976  0.1244 -0.3594  0.2796
 7464SOL    HW134028   4.623   0.343   2.058 -0.1522  0.8214  0.2301
 7464SOL    HW234029   4.503   0.272   2.000  0.1196  0.2288  1.6631
 7465SOL     OW34030   3.195   4.135   3.597  0.8144 -0.3505  0.2218
 7465SOL    HW134031   3.175   4.206   3.657  1.8596  0.6418 -0.6015
 7465SOL    HW234032   3.158   4.056   3.637  1.0288  0.2299  1.5466
 7466SOL     OW34033   1.539   3.118   4.024 -0.1543  0.4140 -0.3350
 7466SOL    HW134034   1.477   3.053   3.991  1.3453 -0.9447 -0.4872
 7466SOL    HW234035   1.545   3.173   3.946  1.3397  0.2107 -0.3629
 7467SOL     OW34036   1.276   3.760   8.415  0.1331  0.3974  0.0010
 7467SOL    HW134037   1.354   3.784   8.465  1.1703  2.2757 -2.5668
 7467SOL    HW234038   1.253   3.678   8.459 -0.9936  1.8771  2.2308
 7468SOL     OW34039   3.727   2.731   2.447  0.3119 -0.4541  0.5280
 7468SOL    HW134040   3.730   2.635   2.438  2.6406 -0.1118 -2.1531
 7468SOL    HW234041   3.648   2.749   2.498  0.2542  0.2217  0.2024
 7469SOL     OW34042   1.573   4.651   2.871 -0.2786  0.1391  0.3667
 7469SOL    HW134043   1.664   4.632   2.894  0.0143  1.4062  0.2393
 7469SOL    HW234044   1.536   4.689   2.951 -0.2596  1.0704 -0.0602
 7470SOL     OW34045   0.529   1.335  13.673  0.5101 -0.0689  0.5537
 7470SOL    HW134046   0.467   1.402  13.645  0.4433  0.4762  1.9706
 7470SOL    HW234047   0.567   1.387  13.745 -0.3903  0.8041  0.3910
 7471SOL     OW34048   1.502   1.225   1.343 -0.4510 -0.3550  0.6443
 7471SOL    HW134049   1.545   1.173   1.412  0.3906 -1.8038 -0.9555
 7471SOL    HW234050   1.426   1.172   1.320  0.7267 -1.0161 -1.7370
 7472SOL     OW34051   2.451   0.510   3.182  0.0684 -0.1159  0.3970
 7472SOL    HW134052   2.414   0.436   3.133  0.2077  0.2833 -0.3223
 7472SOL    HW234053   2.422   0.585   3.131  2.7041 -0.4909 -1.6968
 7473SOL     OW34054   0.774   4.399   0.809  0.4828 -0.4415  0.2339
 7473SOL    HW134055   0.769   4.464   0.880 -2.2443 -0.4544  0.0778
 7473SOL    HW234056   0.781   4.442   0.724  1.7013 -0.3221  0.4010
 7474SOL     OW34057   3.496   1.422   9.599  0.2654  0.6499  0.4021
 7474SOL    HW134058   3.406   1.451   9.589 -1.0382 -2.5571  2.9272
 7474SOL    HW234059   3.508   1.380   9.514  3.0385  2.6980 -0.2253
 7475SOL     OW34060   1.859   0.823   3.443 -0.7843  0.3315 -0.2260
 7475SOL    HW134061   1.776   0.854   3.481 -0.1060  1.8818  0.0045
 7475SOL    HW234062   1.872   0.745   3.496  0.0479  0.9189  0.4277
 7476SOL     OW34063   3.465   1.653   4.991 -0.0678  0.3103  0.0641
 7476SOL    HW134064   3.474   1.682   5.082  1.0416 -0.6834  0.2676
 7476SOL    HW234065   3.389   1.595   4.991 -0.4029  0.7454 -0.0285
 7477SOL     OW34066   4.589   2.595   3.795  0.2301 -0.0232  0.3433
 7477SOL    HW134067   4.547   2.681   3.801  0.1166  0.0560 -1.6206
 7477SOL    HW234068   4.610   2.582   3.703  0.0726  1.1080  0.1486
 7478SOL     OW34069   3.366   3.659   7.575 -0.5448  0.4233 -0.0739
 7478SOL    HW134070   3.348   3.572   7.538  2.3046 -0.0798 -0.2445
 7478SOL    HW234071   3.435   3.678   7.512 -0.0133  1.3549  0.7913
 7479SOL     OW34072   3.935   4.584   6.350 -0.9598 -0.3033  0.1685
 7479SOL    HW134073   4.021   4.559   6.316 -0.2706  0.4624  1.3564
 7479SOL    HW234074   3.872   4.549   6.286 -0.7597  0.9212 -0.6979
 7480SOL     OW34075   2.121   0.239   9.011 -0.3722  0.1100 -0.0927
 7480SOL    HW134076   2.124   0.169   9.077  0.1630 -1.2336 -1.5268
 7480SOL    HW234077   2.034   0.278   9.019 -1.6258 -2.7808  0.5398
 7481SOL     OW34078   3.845   3.239   0.576 -0.4201  0.1058  0.3598
 7481SOL    HW134079   3.852   3.147   0.551  0.3130  0.1134  0.5310
 7481SOL    HW234080   3.935   3.270   0.564 -0.6743 -0.0212 -1.7779
 7482SOL     OW34081   0.456   1.337  12.328  0.2215  0.6326 -0.0502
 7482SOL    HW134082   0.388   1.380  12.277  0.6111 -0.2921 -1.3606
 7482SOL    HW234083   0.422   1.358  12.415 -2.7632 -0.7179 -0.8847
 7483SOL     OW34084   1.534   2.338   6.805 -0.1400 -0.3371 -0.1480
 7483SOL    HW134085   1.619   2.336   6.848  0.0577  1.3402 -0.4607
 7483SOL    HW234086   1.533   2.429   6.773 -3.4090  0.1486  1.3125
 7484SOL     OW34087   4.682   1.491   7.006  0.2534  0.2978 -0.0553
 7484SOL    HW134088   0.029   1.463   7.043  1.7644  1.7753 -2.3702
 7484SOL    HW234089   4.625   1.415   7.017 -0.9778  1.3429  0.8405
 7485SOL     OW34090   3.128   1.466   3.671  0.2723  0.4193 -0.4438
 7485SOL    HW134091   3.183   1.537   3.637  1.2215 -1.6197 -3.1441
 7485SOL    HW234092   3.041   1.492   3.640 -0.8853 -0.4551  2.0846
 7486SOL     OW34093   0.639   2.827  12.859 -0.1961 -0.7657 -0.5092
 7486SOL    HW134094   0.664   2.908  12.904  0.0927  0.3049 -2.5445
 7486SOL    HW234095   0.546   2.828  12.880 -0.0850 -1.1578 -0.0145
 7487SOL     OW34096   3.168   3.771   5.167  0.0244  0.4050  0.4439
 7487SOL    HW134097   3.131   3.682   5.162  0.8878  0.0370  0.5767
 7487SOL    HW234098   3.103   3.838   5.147 -1.3085 -1.5570 -1.9358
 7488SOL     OW34099   0.163   2.696   7.645 -0.7898  0.4506  0.3665
 7488SOL    HW134100   0.180   2.773   7.592  2.3665 -0.6941 -0.2613
 7488SOL    HW234101   0.109   2.733   7.714 -2.0292 -0.9806  0.1780
 7489SOL     OW34102   1.648   0.079   5.959 -0.0620  0.2211 -0.4994
 7489SOL    HW134103   1.676   4.731   5.926  0.0193  1.5026 -3.6628
 7489SOL    HW234104   1.558   0.088   5.930  0.0216 -1.2121 -1.1813
 7490SOL     OW34105   1.335   1.893   2.053  0.4487 -0.1406 -0.0889
 7490SOL    HW134106   1.414   1.932   2.016  0.0943 -0.3092 -1.0336
 7490SOL    HW234107   1.309   1.948   2.128 -1.0301 -1.0785  0.0926
 7491SOL     OW34108   3.599   0.534   9.543 -0.0153  0.0161  0.0491
 7491SOL    HW134109   3.624   0.532   9.635 -0.9799  2.4072  0.3542
 7491SOL    HW234110   3.526   0.473   9.542 -1.6768  2.0445 -0.8362
 7492SOL     OW34111   2.009   3.379   7.520 -0.2270 -0.5996  0.1895
 7492SOL    HW134112   1.961   3.392   7.601  1.1295  0.0215  0.8900
 7492SOL    HW234113   1.970   3.438   7.454  0.8959  0.4983  0.5062
 7493SOL     OW34114   3.942   0.007   3.811  0.3030  0.1955 -0.2794
 7493SOL    HW134115   3.995   0.080   3.845  0.7456  0.0512 -0.6675
 7493SOL    HW234116   3.860   0.055   3.802 -0.9841 -2.2518 -1.5442
 7494SOL     OW34117   2.284   1.876   8.061 -0.1938  0.3296  0.4707
 7494SOL    HW134118   2.291   1.792   8.016 -2.3884  0.5551 -0.3162
 7494SOL    HW234119   2.189   1.891   8.064 -0.1893  0.1614  1.3618
 7495SOL     OW34120   0.862   0.560   9.299 -0.4163  0.1758 -0.1899
 7495SOL    HW134121   0.929   0.569   9.367 -0.9797  1.1873  0.2208
 7495SOL    HW234122   0.814   0.639   9.324  0.4001  0.2545  1.1346
 7496SOL     OW34123   1.829   0.906   7.313  0.0622  0.5270  0.5936
 7496SOL    HW134124   1.864   0.825   7.276  1.4256  1.3499  0.0563
 7496SOL    HW234125   1.894   0.936   7.377  1.3712 -1.1620  0.0509
 7497SOL     OW34126   3.356   4.230   8.457 -0.0169 -0.3426  0.1095
 7497SOL    HW134127   3.308   4.307   8.430 -0.3199 -0.6822 -0.3207
 7497SOL    HW234128   3.315   4.204   8.540  2.5501 -1.4654  1.0376
 7498SOL     OW34129   3.842   1.730  14.376 -0.4473  0.1481  0.0506
 7498SOL    HW134130   3.907   1.800  14.368 -1.9268  0.8823 -5.2052
 7498SOL    HW234131   3.836   1.719  14.471  0.9833  0.4853  0.1731
 7499SOL     OW34132   3.108   3.957   0.421 -0.3934  0.2730  0.8054
 7499SOL    HW134133   3.124   3.916   0.506 -0.5155 -0.0883  0.6579
 7499SOL    HW234134   3.031   3.905   0.397  0.0822 -0.4443  0.8263
 7500SOL     OW34135   0.445   1.634   2.782 -0.2798 -0.4337  0.0229
 7500SOL    HW134136   0.426   1.567   2.717  0.9063 -1.4662  0.7379
 7500SOL    HW234137   0.364   1.641   2.832  0.2733  1.3407  0.6914
 7501SOL     OW34138   0.097   0.255   3.265 -0.7144 -0.1956  0.8176
 7501SOL    HW134139   0.011   0.239   3.226 -0.8820  1.5860  0.4448
 7501SOL    HW234140   0.145   0.178   3.234 -1.9590 -2.3442  4.2375
 7502SOL     OW34141   3.152   2.733   9.502  0.1845 -0.0459  0.2459
 7502SOL    HW134142   3.136   2.807   9.561 -0.4786  0.1258 -0.1419
 7502SOL    HW234143   3.246   2.743   9.495  0.0052  1.6873  0.2425
 7503SOL     OW34144   0.249   0.126   2.328  0.4477  0.6039  0.1163
 7503SOL    HW134145   0.273   0.191   2.394 -0.2592 -1.1687  2.0950
 7503SOL    HW234146   0.154   0.125   2.337  0.5764 -2.5162  1.1156
 7504SOL     OW34147   2.290   1.631  11.762 -0.3256 -0.9665 -0.0142
 7504SOL    HW134148   2.323   1.602  11.677 -1.2829 -1.3622 -0.2555
 7504SOL    HW234149   2.376   1.659  11.793 -0.4674  0.9736 -1.3944
 7505SOL     OW34150   0.155   4.070   4.718  0.7985 -0.6739 -0.4137
 7505SOL    HW134151   0.207   3.998   4.754  0.1018 -0.4742  0.9853
 7505SOL    HW234152   0.174   4.141   4.780 -0.6128  0.7924 -1.6485
 7506SOL     OW34153   0.328   1.948   8.483  0.3112 -0.1677 -0.0574
 7506SOL    HW134154   0.268   1.945   8.558  0.9020  0.6649  0.4411
 7506SOL    HW234155   0.384   1.874   8.506 -1.3344 -1.0449  1.1739
 7507SOL     OW34156   4.677   2.727  12.276  0.2586  0.4169 -0.2624
 7507SOL    HW134157   4.676   2.756  12.185  1.7863  0.7838 -0.1567
 7507SOL    HW234158   0.022   2.772  12.299  1.2626 -0.7521 -1.5729
 7508SOL     OW34159   0.403   3.601   8.434  0.2837  0.2338 -0.2406
 7508SOL    HW134160   0.315   3.632   8.452 -0.4344 -3.2153  2.4291
 7508SOL    HW234161   0.461   3.619   8.509 -1.1575  0.4865  0.8109
 7509SOL     OW34162   3.396   1.618   4.191 -0.0376 -0.0890 -0.3577
 7509SOL    HW134163   3.305   1.638   4.167 -0.2190 -0.8134 -0.2883
 7509SOL    HW234164   3.386   1.523   4.204 -0.2292 -0.0271 -0.0616
 7510SOL     OW34165   1.877   3.798   4.321 -0.9392  0.0648  0.2793
 7510SOL    HW134166   1.857   3.855   4.247  0.3361  0.2168  0.0610
 7510SOL    HW234167   1.892   3.723   4.263  1.9094  3.0982 -2.9311
 7511SOL     OW34168   0.337   3.616   5.201  0.6793  0.4645 -0.7346
 7511SOL    HW134169   0.281   3.542   5.177  1.4076 -0.1674 -0.4988
 7511SOL    HW234170   0.273   3.671   5.247  0.9672 -0.3315  0.6425
 7512SOL     OW34171   3.066   1.091  13.758  0.0957 -0.3492 -0.7076
 7512SOL    HW134172   3.065   1.167  13.700  2.3718  0.6980  0.6369
 7512SOL    HW234173   2.990   1.107  13.813  0.3088  0.1930 -0.5638
 7513SOL     OW34174   2.350   1.845   4.859  0.1052 -0.6776 -0.2878
 7513SOL    HW134175   2.257   1.864   4.848  0.0127 -1.0165 -0.0934
 7513SOL    HW234176   2.356   1.872   4.951 -1.4092  0.8787 -0.6297
 7514SOL     OW34177   3.361   3.969   5.622  0.1057  0.1482  0.3886
 7514SOL    HW134178   3.378   4.051   5.576 -0.2456 -0.0513 -0.0978
 7514SOL    HW234179   3.449   3.958   5.659 -0.2606  0.9261  1.5082
 7515SOL     OW34180   3.193   3.311  14.203 -0.1868 -0.8983 -0.4280
 7515SOL    HW134181   3.241   3.388  14.234 -0.4945 -0.9351  0.1409
 7515SOL    HW234182   3.213   3.317  14.110  1.8799  0.7325  0.1207
 7516SOL     OW34183   3.588   2.321   7.774 -0.4184 -0.5397 -0.6785
 7516SOL    HW134184   3.658   2.386   7.768  0.1416 -1.0505  0.4760
 7516SOL    HW234185   3.510   2.370   7.747 -0.6266 -0.9709 -0.8548
 7517SOL     OW34186   3.433   1.471  12.461  0.7166 -0.3610 -0.3657
 7517SOL    HW134187   3.470   1.546  12.507 -2.7269 -0.3478  2.4109
 7517SOL    HW234188   3.514   1.441  12.421  2.0252  0.1123  1.9916
 7518SOL     OW34189   4.183   3.689   5.884 -0.4732  0.0613  0.0333
 7518SOL    HW134190   4.218   3.772   5.849  0.5233  0.0703  1.0428
 7518SOL    HW234191   4.123   3.729   5.946 -0.6266 -0.0519 -0.0415
 7519SOL     OW34192   1.768   0.128  10.932 -0.1925  0.3516  0.5156
 7519SOL    HW134193   1.780   0.071  11.008 -0.7664 -0.6989 -0.1744
 7519SOL    HW234194   1.763   0.216  10.970 -1.7419 -0.7593  2.8752
 7520SOL     OW34195   0.062   0.284   7.941 -0.5291 -1.5850  0.1401
 7520SOL    HW134196   0.102   0.350   7.998 -3.0845 -1.2594  1.5717
 7520SOL    HW234197   4.717   0.270   7.988 -1.6565  3.4949 -0.2712
 7521SOL     OW34198   1.540   2.855   4.485 -0.0474 -0.0277  0.1034
 7521SOL    HW134199   1.551   2.907   4.405 -0.8423  0.5038  0.3355
 7521SOL    HW234200   1.584   2.780   4.446  2.5747  0.5729  1.9535
 7522SOL     OW34201   3.926   1.730   5.951  0.0492  0.8151 -0.3353
 7522SOL    HW134202   3.954   1.650   5.996  0.4681  0.6383 -0.9014
 7522SOL    HW234203   3.999   1.791   5.967 -0.5120  1.1131  1.1221
 7523SOL     OW34204   1.237   0.502  15.789 -0.2011  0.1884 -0.0179
 7523SOL    HW134205   1.315   0.469  15.834 -0.3056 -1.3832 -0.9904
 7523SOL    HW234206   1.262   0.456  15.709  0.8065  0.5051  0.1194
 7524SOL     OW34207   0.012   3.364   6.377  0.0825 -0.4713  0.4549
 7524SOL    HW134208   4.678   3.382   6.315  0.4845  1.0431  0.4188
 7524SOL    HW234209   4.716   3.418   6.449 -1.6228 -0.7310 -0.1220
 7525SOL     OW34210   4.296   3.024   8.072  0.2808 -0.1500  0.1692
 7525SOL    HW134211   4.310   2.957   8.138 -3.8355  1.0094  2.2137
 7525SOL    HW234212   4.208   3.046   8.104  1.3541  0.8704  2.4163
 7526SOL     OW34213   1.210   3.690   8.822  0.0192 -0.1040  0.1905
 7526SOL    HW134214   1.139   3.665   8.881 -0.5230 -0.8865 -0.7986
 7526SOL    HW234215   1.231   3.605   8.784 -0.8712 -0.0453 -0.4334
 7527SOL     OW34216   0.656   0.465   0.941  0.1012  0.7929  0.0676
 7527SOL    HW134217   0.631   0.481   1.032 -0.3658  0.1429  0.0539
 7527SOL    HW234218   0.740   0.421   0.955  0.1174  0.6092 -0.5625
 7528SOL     OW34219   3.354   0.422  12.741 -0.3077  0.4744  0.2547
 7528SOL    HW134220   3.386   0.507  12.772 -1.4587  0.2517  2.0895
 7528SOL    HW234221   3.409   0.363  12.792  0.6385  1.9053  0.8871
 7529SOL     OW34222   1.041   2.083   6.141 -0.0490 -0.0293  0.3556
 7529SOL    HW134223   1.130   2.052   6.125 -0.0108  0.8669 -1.1478
 7529SOL    HW234224   0.991   2.005   6.163 -1.2207  0.0224 -2.1239
 7530SOL     OW34225   4.028   1.637   3.831 -0.2530 -0.1890  0.2270
 7530SOL    HW134226   4.075   1.603   3.908  1.2306  0.0269 -0.5677
 7530SOL    HW234227   4.079   1.716   3.811 -0.6884 -0.1006 -0.5101
 7531SOL     OW34228   1.313   2.887  12.705  0.2678 -0.4014 -0.5119
 7531SOL    HW134229   1.243   2.829  12.736 -1.4742  1.5354 -0.8167
 7531SOL    HW234230   1.318   2.948  12.778 -1.6749 -0.9335  0.0871
 7532SOL     OW34231   1.564   3.688   5.295 -0.2376  0.0309  0.6924
 7532SOL    HW134232   1.506   3.627   5.342  0.7286 -0.0415  1.7783
 7532SOL    HW234233   1.601   3.731   5.372  1.5062  1.3538 -0.8793
 7533SOL     OW34234   2.933   3.821  11.797 -0.0779 -0.3685  0.1697
 7533SOL    HW134235   2.852   3.782  11.831  0.4382 -1.0990  0.5590
 7533SOL    HW234236   2.936   3.788  11.707  2.4504 -0.3448  0.2539
 7534SOL     OW34237   0.550   2.063   7.525  0.5343 -0.6974 -0.1957
 7534SOL    HW134238   0.521   2.154   7.520 -4.1406 -2.2807 -1.0443
 7534SOL    HW234239   0.537   2.044   7.617  2.9751 -0.2408  0.2558
 7535SOL     OW34240   2.163   3.373   0.307 -0.5360  0.1177  0.2997
 7535SOL    HW134241   2.116   3.293   0.331  0.4573 -0.5109  0.1444
 7535SOL    HW234242   2.242   3.377   0.361  0.9024  2.8663 -2.0452
 7536SOL     OW34243   4.035   1.421   3.144  0.2308  0.0098  0.3424
 7536SOL    HW134244   3.979   1.455   3.075 -0.3442 -1.9235 -0.1360
 7536SOL    HW234245   3.981   1.429   3.223 -1.5291 -0.2321 -0.8471
 7537SOL     OW34246   3.664   0.170   6.076 -0.6952  0.2390 -0.2360
 7537SOL    HW134247   3.727   0.239   6.095  2.3636 -3.0240  1.4868
 7537SOL    HW234248   3.701   0.127   5.999  0.9281 -0.4856  0.9599
 7538SOL     OW34249   0.788   2.077  17.051 -0.3959  0.1006  0.2292
 7538SOL    HW134250   0.865   2.027  17.079 -1.0306 -1.3289 -0.5616
 7538SOL    HW234251   0.752   2.014  16.988  1.6152  0.5873 -1.4026
 7539SOL     OW34252   4.558   4.239   8.329  0.1421 -0.4987 -0.1815
 7539SOL    HW134253   4.513   4.160   8.356 -1.5068  0.6020  0.2918
 7539SOL    HW234254   4.581   4.284   8.411 -1.3415 -1.9536  1.0145
 7540SOL     OW34255   4.606   1.343  10.006 -0.1926  0.4983 -0.1742
 7540SOL    HW134256   4.611   1.403  10.080 -1.2564 -1.2447  1.3299
 7540SOL    HW234257   4.575   1.276  10.068 -0.9157  0.2109 -0.8319
 7541SOL     OW34258   1.632   4.238   3.674 -0.4313  0.0797  0.2502
 7541SOL    HW134259   1.609   4.201   3.759 -1.1625  1.2329  0.5504
 7541SOL    HW234260   1.709   4.293   3.687  0.1830 -0.4078 -1.2451
 7542SOL     OW34261   0.871   1.829  12.639 -0.4224  0.4513  0.6847
 7542SOL    HW134262   0.776   1.837  12.641 -0.4451 -0.6005  3.2856
 7542SOL    HW234263   0.894   1.822  12.546 -0.0342 -0.1697  0.8267
 7543SOL     OW34264   4.419   4.006   4.789 -0.1789  0.0394 -0.8940
 7543SOL    HW134265   4.432   4.051   4.872  1.7693 -0.0760 -1.1279
 7543SOL    HW234266   4.491   4.032   4.732  0.6242 -0.2751 -0.0297
 7544SOL     OW34267   1.067   3.643  17.318  0.6177  0.3261 -0.0163
 7544SOL    HW134268   1.079   3.736  17.336  0.3598  0.7527 -2.1002
 7544SOL    HW234269   0.971   3.640  17.320  0.6044  1.1718  0.3536
 7545SOL     OW34270   0.180   0.428   8.143  0.1799 -0.5145 -0.6888
 7545SOL    HW134271   0.214   0.433   8.233 -1.8567  0.6742  0.0074
 7545SOL    HW234272   0.150   0.517   8.127 -0.4221 -0.2803  1.7263
 7546SOL     OW34273   3.354   3.312   5.910  0.0716 -0.1880 -0.0871
 7546SOL    HW134274   3.302   3.323   5.830  1.0266  0.5077 -0.6157
 7546SOL    HW234275   3.297   3.358   5.972  0.8790  1.3381 -0.4571
 7547SOL     OW34276   3.646   1.818   0.608  0.2777  0.1063  0.1989
 7547SOL    HW134277   3.591   1.828   0.530  1.6787  0.3839 -0.7404
 7547SOL    HW234278   3.693   1.901   0.611  2.9603 -1.5062  1.7691
 7548SOL     OW34279   4.536   2.263   0.036  0.4725 -0.4103 -0.1864
 7548SOL    HW134280   4.488   2.322   0.094 -1.0575 -0.4946 -1.3692
 7548SOL    HW234281   4.516   2.318  17.705 -0.4268 -1.1338 -0.4734
 7549SOL     OW34282   1.370   2.359  12.684  0.4683  0.6077 -0.1300
 7549SOL    HW134283   1.414   2.365  12.768 -1.4552 -1.0054  0.9902
 7549SOL    HW234284   1.383   2.266  12.664 -3.9352 -0.2272  0.7463
 7550SOL     OW34285   1.837   0.376   6.044  0.5387  0.3289  0.0182
 7550SOL    HW134286   1.761   0.355   5.991  1.1943  0.0428 -0.8079
 7550SOL    HW234287   1.909   0.365   5.981  1.6655  1.8634  1.0332
 7551SOL     OW34288   2.230   1.767   4.092  0.1254  0.1290  0.1144
 7551SOL    HW134289   2.273   1.683   4.077  0.8894  0.6652 -0.7253
 7551SOL    HW234290   2.299   1.820   4.132  0.6349 -1.7701  1.7333
 7552SOL     OW34291   2.976   1.361  12.006  0.2451 -0.5163  0.2349
 7552SOL    HW134292   3.045   1.312  11.961  1.9765  0.8658  1.3774
 7552SOL    HW234293   2.906   1.296  11.999  0.8453 -1.0431 -0.7232
 7553SOL     OW34294   2.426   2.101   2.380  0.1015 -0.6640 -0.2859
 7553SOL    HW134295   2.433   2.008   2.403 -1.2260 -0.7456 -0.1755
 7553SOL    HW234296   2.498   2.127   2.436 -1.0908  1.8774  0.0633
 7554SOL     OW34297   3.782   4.027   5.113  0.2323  0.1499 -0.2434
 7554SOL    HW134298   3.691   4.039   5.141 -1.0754 -1.1367 -3.9538
 7554SOL    HW234299   3.792   4.087   5.040  1.3588  0.9018  0.5207
 7555SOL     OW34300   1.438   4.634   2.619 -0.6624  0.0242  0.0757
 7555SOL    HW134301   1.499   4.631   2.693 -1.4240 -0.6288  0.6755
 7555SOL    HW234302   1.356   4.648   2.666  1.4205 -0.8219  3.9874
 7556SOL     OW34303   4.610   3.271   2.709  0.5353  0.1245  0.0792
 7556SOL    HW134304   4.535   3.222   2.741  2.0777  0.1200  3.6512
 7556SOL    HW234305   4.578   3.361   2.711  1.8627  0.5379  2.5490
 7557SOL     OW34306   2.984   3.007   3.096  0.0367 -0.2393 -0.1295
 7557SOL    HW134307   2.961   3.053   3.177 -3.0329  0.8865 -1.6343
 7557SOL    HW234308   2.915   2.941   3.084  0.2210 -1.0410  3.2177
 7558SOL     OW34309   4.356   2.111   9.299 -0.6515 -0.0026 -0.7180
 7558SOL    HW134310   4.308   2.103   9.382  0.9972  1.4290  0.3707
 7558SOL    HW234311   4.395   2.024   9.305 -1.4205 -0.3084 -0.1215
 7559SOL     OW34312   3.037   2.354   5.501 -0.0672 -0.4299 -0.7693
 7559SOL    HW134313   3.011   2.371   5.411 -1.4985  0.8090 -0.1128
 7559SOL    HW234314   3.057   2.443   5.531 -2.0974  0.0946 -0.9794
 7560SOL     OW34315   4.602   0.033  12.957  0.5515 -0.2799 -0.5648
 7560SOL    HW134316   4.604   0.120  12.917 -3.6564  0.3524  0.6252
 7560SOL    HW234317   4.656   4.720  12.894 -0.5078 -1.4641 -0.5305
 7561SOL     OW34318   2.087   4.170  12.346 -0.3929  0.3024 -0.4016
 7561SOL    HW134319   2.046   4.142  12.264 -0.2561  1.1871 -0.7724
 7561SOL    HW234320   2.013   4.157  12.405  0.4620 -0.7171  0.4444
 7562SOL     OW34321   0.458   1.948   0.791 -0.7119 -0.3762  0.0830
 7562SOL    HW134322   0.458   1.885   0.864  0.6172 -1.7684 -1.1247
 7562SOL    HW234323   0.551   1.961   0.778 -0.2676 -2.6023  0.9227
 7563SOL     OW34324   0.667   4.604   2.233  0.2808 -0.0245 -0.0730
 7563SOL    HW134325   0.635   4.666   2.168  2.1422 -1.0809 -1.9806
 7563SOL    HW234326   0.587   4.559   2.258 -0.0326  0.1253 -0.8155
 7564SOL     OW34327   2.609   3.576  11.323 -0.1974  0.4185  0.6263
 7564SOL    HW134328   2.616   3.671  11.314 -0.1327  0.5298  1.9964
 7564SOL    HW234329   2.564   3.553  11.404 -1.4814 -2.8101 -0.9875
 7565SOL     OW34330   4.278   0.147  15.755  0.0023 -0.7057 -0.3883
 7565SOL    HW134331   4.272   0.140  15.850  0.5313 -0.9345 -0.3680
 7565SOL    HW234332   4.212   0.216  15.751 -0.6683 -1.2733  1.0512
 7566SOL     OW34333   3.163   3.243   3.850 -0.6143 -0.0831 -0.3278
 7566SOL    HW134334   3.172   3.237   3.945 -0.6924  1.0075 -0.2481
 7566SOL    HW234335   3.254   3.266   3.827 -1.1510  2.2323 -0.1583
 7567SOL     OW34336   1.487   2.837   2.534 -0.0593 -0.3637  0.1707
 7567SOL    HW134337   1.524   2.783   2.464 -1.1858 -2.0067  0.8336
 7567SOL    HW234338   1.475   2.769   2.600  0.1446  0.3277  0.9113
 7568SOL     OW34339   1.698   1.448   2.291 -0.4355  0.0728  0.0157
 7568SOL    HW134340   1.773   1.507   2.279  0.6961 -2.1954 -3.8627
 7568SOL    HW234341   1.739   1.364   2.309 -2.9992 -0.6370  2.4323
 7569SOL     OW34342   0.473   2.583   3.190  0.1578 -0.0609  0.3218
 7569SOL    HW134343   0.549   2.561   3.136  0.5627 -1.5537  1.4875
 7569SOL    HW234344   0.507   2.565   3.278  0.1815 -0.1260  0.2993
 7570SOL     OW34345   0.826   1.791   8.914  0.3143 -0.3219  0.2688
 7570SOL    HW134346   0.793   1.881   8.921  0.1912 -0.1770 -2.4091
 7570SOL    HW234347   0.897   1.795   8.978 -0.8805  0.5391  1.5453
 7571SOL     OW34348   4.252   0.504   8.957  1.0709  0.5721 -0.0498
 7571SOL    HW134349   4.215   0.537   9.039 -0.0555  0.1979 -0.4119
 7571SOL    HW234350   4.228   0.568   8.890  1.5592  0.4434 -0.3543
 7572SOL     OW34351   4.720   2.502   3.175  0.4783  0.0811  0.2553
 7572SOL    HW134352   0.031   2.420   3.180  1.1109  0.2280 -3.0376
 7572SOL    HW234353   0.058   2.562   3.181 -0.2160  0.9307  0.4992
 7573SOL     OW34354   2.580   2.202   1.886  0.4490 -0.0245 -0.2442
 7573SOL    HW134355   2.528   2.178   1.963 -0.9200  0.3198 -1.0557
 7573SOL    HW234356   2.536   2.284   1.866  0.5368 -0.2552 -1.3616
 7574SOL     OW34357   3.725   1.916   4.815 -0.2672  0.0987 -0.1022
 7574SOL    HW134358   3.785   1.985   4.786  0.3323 -1.1163 -1.6907
 7574SOL    HW234359   3.648   1.932   4.761  0.1625  0.8510 -0.4949
 7575SOL     OW34360   3.608   3.184   7.346  0.2700 -0.3849  0.5593
 7575SOL    HW134361   3.547   3.146   7.283  1.3749 -1.5077  0.1577
 7575SOL    HW234362   3.556   3.222   7.416  2.5319  2.5420  0.6642
 7576SOL     OW34363   4.490   0.851   6.076  0.4469 -0.2176 -0.2045
 7576SOL    HW134364   4.532   0.771   6.045  0.4745 -0.4499  0.4295
 7576SOL    HW234365   4.400   0.822   6.062  0.3517  0.5734 -1.2610
 7577SOL     OW34366   1.605   0.770  16.274  0.2513  0.0601 -0.0304
 7577SOL    HW134367   1.567   0.702  16.218 -1.5650  2.3323 -1.5640
 7577SOL    HW234368   1.529   0.816  16.309 -0.8805  0.1674 -2.6443
 7578SOL     OW34369   4.511   4.012   0.466 -0.1431 -0.0826  0.5608
 7578SOL    HW134370   4.508   4.102   0.498 -1.2489  0.2194 -0.4078
 7578SOL    HW234371   4.563   4.013   0.385 -0.0989 -2.1443  0.5593
 7579SOL     OW34372   2.386   0.578  12.086  0.1883  0.1406 -0.3919
 7579SOL    HW134373   2.422   0.489  12.083  0.9330  0.4392 -0.2323
 7579SOL    HW234374   2.444   0.627  12.028  1.1777 -1.5270 -0.7967
 7580SOL     OW34375   1.348   3.032   5.337 -0.0482 -0.4552 -0.2702
 7580SOL    HW134376   1.271   3.083   5.312 -0.8163 -1.8265 -0.6445
 7580SOL    HW234377   1.392   3.040   5.252 -0.2501 -1.7247 -0.4794
 7581SOL     OW34378   4.248   4.670   8.092  0.0350  0.4773  0.5207
 7581SOL    HW134379   4.244   0.026   8.116  1.4542  0.2055  1.7836
 7581SOL    HW234380   4.342   4.664   8.105  0.0826  1.3570  0.5730
 7582SOL     OW34381   0.448   0.554   8.522  0.0841  0.2487  0.4444
 7582SOL    HW134382   0.492   0.638   8.530  0.8454  0.0874 -2.1762
 7582SOL    HW234383   0.504   0.500   8.466 -0.2150  0.0301  0.3536
 7583SOL     OW34384   2.086   4.714  10.575  0.5110 -0.0645  0.4282
 7583SOL    HW134385   2.033   0.052  10.602  0.9576 -1.1855  4.4553
 7583SOL    HW234386   2.024   4.675  10.513  1.5614 -1.4917  0.2808
 7584SOL     OW34387   2.493   3.461   6.220  0.1997 -0.2526  0.5368
 7584SOL    HW134388   2.505   3.555   6.212 -1.4144 -0.0394  0.5677
 7584SOL    HW234389   2.400   3.451   6.202  0.4648 -1.7280 -0.0004
 7585SOL     OW34390   0.699   4.691  10.756  0.1840 -0.1885  0.2496
 7585SOL    HW134391   0.771   4.630  10.773  2.1411  2.2568  0.8607
 7585SOL    HW234392   0.718   4.714  10.665 -0.4617 -0.1993  0.1176
 7586SOL     OW34393   0.351   0.400   3.601 -0.4796 -0.3012  0.1733
 7586SOL    HW134394   0.423   0.405   3.664 -1.6837 -2.3219  1.7536
 7586SOL    HW234395   0.322   0.310   3.616 -1.4360 -0.2550 -1.4208
 7587SOL     OW34396   4.363   3.652  13.335  0.0087  0.7311  0.3805
 7587SOL    HW134397   4.421   3.723  13.364  2.3336 -1.3322  0.6601
 7587SOL    HW234398   4.325   3.688  13.255 -0.4267 -0.6290 -0.0182
 7588SOL     OW34399   2.193   2.939   7.975  0.6111 -0.4879 -0.8437
 7588SOL    HW134400   2.197   2.846   7.955 -3.7275 -0.2218 -2.9018
 7588SOL    HW234401   2.255   2.977   7.912  0.7747  1.0153  0.2221
 7589SOL     OW34402   2.037   4.030   4.817  0.0740  0.2154  0.3346
 7589SOL    HW134403   1.990   4.113   4.810  1.0470  0.9529  2.8643
 7589SOL    HW234404   1.963   3.970   4.829  0.3151 -0.1674 -0.0647
 7590SOL     OW34405   2.617   0.154   4.017  0.2062 -0.1721  0.4310
 7590SOL    HW134406   2.599   0.068   4.056  0.7005 -0.2115  0.5674
 7590SOL    HW234407   2.646   0.123   3.932  1.3776  2.2679 -0.0319
 7591SOL     OW34408   2.774   2.313   2.157  0.4872  0.2112  0.0137
 7591SOL    HW134409   2.746   2.222   2.169 -1.0100  0.4469 -1.6500
 7591SOL    HW234410   2.836   2.314   2.230 -0.0686 -0.0370  0.4960
 7592SOL     OW34411   0.155   4.519  16.854 -0.1734  0.4784  0.7209
 7592SOL    HW134412   0.220   4.466  16.808 -0.9387  1.7136 -1.7874
 7592SOL    HW234413   0.193   4.607  16.855  1.4377 -0.2259  1.0388
 7593SOL     OW34414   1.196   4.202   3.983  0.0330  0.2159  0.2766
 7593SOL    HW134415   1.217   4.222   3.892 -2.2281 -2.5755 -0.8401
 7593SOL    HW234416   1.248   4.268   4.029  0.1900 -0.7468  1.4689
 7594SOL     OW34417   3.631   4.500   5.655  0.1859 -0.2164  0.3941
 7594SOL    HW134418   3.636   4.570   5.591  0.2560  0.9337  1.6586
 7594SOL    HW234419   3.699   4.438   5.629 -1.4293 -1.1934 -1.5044
 7595SOL     OW34420   0.372   3.358   6.117 -0.2322 -0.0523  0.6192
 7595SOL    HW134421   0.326   3.390   6.039  0.4532  0.3274  0.3672
 7595SOL    HW234422   0.459   3.374   6.081 -0.2782 -2.3102 -0.4486
 7596SOL     OW34423   3.945   1.557   7.566 -0.0569 -0.0352  0.0533
 7596SOL    HW134424   3.866   1.602   7.537  0.7939  0.8277 -0.9061
 7596SOL    HW234425   3.909   1.480   7.610 -0.0230 -0.1553 -0.1286
 7597SOL     OW34426   2.518   2.461   6.079  0.1000  0.0527 -0.6153
 7597SOL    HW134427   2.476   2.547   6.084 -1.3752 -0.8070  1.5679
 7597SOL    HW234428   2.462   2.405   6.025 -2.0828  2.2581 -0.6579
 7598SOL     OW34429   4.099   1.661   9.560  0.3339  0.0068 -0.1907
 7598SOL    HW134430   4.153   1.732   9.593 -1.5857  0.7227  1.4155
 7598SOL    HW234431   4.024   1.718   9.542  1.3962  2.2875  2.6720
 7599SOL     OW34432   1.095   3.384   5.547  1.1721 -0.3789 -0.0842
 7599SOL    HW134433   1.058   3.301   5.576  0.2233  0.8555  2.2144
 7599SOL    HW234434   1.039   3.398   5.471  2.2190 -0.5342 -0.8877
 7600SOL     OW34435   4.393   1.000  11.467  0.2517  0.4207 -0.2315
 7600SOL    HW134436   4.303   1.031  11.460 -0.1297 -0.4526  0.9781
 7600SOL    HW234437   4.393   0.905  11.475  0.0565  0.3869 -0.6170
 7601SOL     OW34438   3.167   2.148  10.834  0.3296 -0.1065  0.5041
 7601SOL    HW134439   3.234   2.121  10.896 -0.5018 -0.3137  1.3160
 7601SOL    HW234440   3.086   2.156  10.885 -0.0989 -1.4962  0.0363
 7602SOL     OW34441   4.356   3.527   5.076  0.2147  0.3052  0.1562
 7602SOL    HW134442   4.429   3.466   5.089 -1.2868 -1.2584  1.2137
 7602SOL    HW234443   4.396   3.608   5.044 -1.5992  1.3620  0.5444
 7603SOL     OW34444   1.236   0.790   2.312  0.4885 -0.6434  0.1582
 7603SOL    HW134445   1.225   0.880   2.282  1.1348 -0.1775  1.3440
 7603SOL    HW234446   1.282   0.808   2.394  0.8375 -1.2632  0.1020
 7604SOL     OW34447   2.753   0.996  14.001  0.3464  0.2088 -0.2995
 7604SOL    HW134448   2.827   0.937  14.013 -0.8713 -1.0915  0.8775
 7604SOL    HW234449   2.690   0.932  13.966  0.7589  0.5252 -1.5891
 7605SOL     OW34450   2.176   2.028   7.198 -0.0768  0.5426 -0.1886
 7605SOL    HW134451   2.121   1.988   7.265  0.1318  0.2551 -0.1859
 7605SOL    HW234452   2.259   2.046   7.242 -0.2578 -0.9751  0.7812
 7606SOL     OW34453   2.432   3.870  15.621 -0.4951  0.2168 -0.2333
 7606SOL    HW134454   2.507   3.826  15.662  0.6418  2.3209 -0.0896
 7606SOL    HW234455   2.407   3.793  15.570  2.3155 -0.9228  0.1296
 7607SOL     OW34456   4.008   0.353   9.402 -0.3471 -0.2290 -0.3546
 7607SOL    HW134457   3.924   0.313   9.382  0.9087 -1.8801 -2.3057
 7607SOL    HW234458   3.988   0.436   9.446 -0.1195 -0.3470 -0.0231
 7608SOL     OW34459   1.017   3.123   2.445  0.5204 -0.0848 -0.0662
 7608SOL    HW134460   1.091   3.063   2.459  1.4297  0.7420 -1.2794
 7608SOL    HW234461   0.975   3.112   2.530 -0.4296 -0.4681 -0.5851
 7609SOL     OW34462   3.636   0.399   5.793 -0.0564  0.1277  0.7049
 7609SOL    HW134463   3.697   0.384   5.865 -1.6760 -0.0848  2.0222
 7609SOL    HW234464   3.581   0.454   5.848 -1.9978 -0.3124 -0.7765
 7610SOL     OW34465   1.642   1.056   6.116 -0.2786 -0.4504  0.0055
 7610SOL    HW134466   1.638   1.137   6.166  0.2570 -0.5871  0.2722
 7610SOL    HW234467   1.726   1.063   6.070 -0.3903  1.2399  0.0547
 7611SOL     OW34468   2.272   0.111  16.323 -0.6826  0.4722  0.0702
 7611SOL    HW134469   2.331   0.103  16.248 -0.0303 -1.7552  0.8348
 7611SOL    HW234470   2.182   0.095  16.293 -1.1342  0.1899  1.5965
 7612SOL     OW34471   1.596   1.983   6.240 -0.4688 -0.0942  0.2342
 7612SOL    HW134472   1.600   1.970   6.146 -4.5229  1.8717 -0.2345
 7612SOL    HW234473   1.567   2.074   6.235 -0.2909 -0.0452  0.0888
 7613SOL     OW34474   2.323   3.689   0.579 -0.1706 -0.2734 -0.0976
 7613SOL    HW134475   2.343   3.694   0.485 -2.3855  0.0476 -0.5597
 7613SOL    HW234476   2.368   3.607   0.601  0.7175  0.1894 -0.1838
 7614SOL     OW34477   2.339   1.300   2.385  0.1529  0.1927  0.6825
 7614SOL    HW134478   2.404   1.290   2.454 -1.0532  0.1688  1.8019
 7614SOL    HW234479   2.375   1.365   2.325  1.2840  0.6387  1.8698
 7615SOL     OW34480   3.199   3.062   6.055  0.1243 -0.4055 -0.2881
 7615SOL    HW134481   3.249   3.111   6.120 -0.9340  0.3219 -0.0176
 7615SOL    HW234482   3.135   3.019   6.113 -0.5906 -0.0990 -0.8417
 7616SOL     OW34483   3.616   4.162   0.505  0.3361 -0.4431 -0.8215
 7616SOL    HW134484   3.541   4.115   0.469 -1.6824  0.7646  1.8203
 7616SOL    HW234485   3.596   4.151   0.598  0.0262  0.6181 -0.7612
 7617SOL     OW34486   2.672   3.420  13.385 -0.2303 -0.0783  0.0751
 7617SOL    HW134487   2.753   3.450  13.427  1.3832  1.3210 -4.0436
 7617SOL    HW234488   2.608   3.478  13.427 -1.1196  0.7274 -2.3841
 7618SOL     OW34489   4.303   2.167  12.785 -0.6729  0.1210 -0.0157
 7618SOL    HW134490   4.370   2.181  12.719 -1.0755 -1.1176 -0.6868
 7618SOL    HW234491   4.284   2.073  12.784  0.1009 -0.0119 -1.4939
 7619SOL     OW34492   1.431   1.450   5.206 -0.1872  0.5937 -0.2806
 7619SOL    HW134493   1.373   1.383   5.169  1.5877 -0.1894 -1.6492
 7619SOL    HW234494   1.395   1.440   5.294  1.3568 -0.1698  0.2581
 7620SOL     OW34495   2.803   3.580   2.472  0.0159 -0.4968  0.2656
 7620SOL    HW134496   2.753   3.656   2.499  1.6999  0.4391  0.7529
 7620SOL    HW234497   2.838   3.570   2.560  0.0125  2.4623  0.6005
 7621SOL     OW34498   2.501   4.596   6.660 -0.2942  0.8887 -0.0622
 7621SOL    HW134499   2.523   4.503   6.657  1.7760  1.4050 -0.8762
 7621SOL    HW234500   2.423   4.585   6.715  0.4822 -0.1282  0.8432
 7622SOL     OW34501   3.513   2.790   8.239  0.6070  0.1838 -0.6085
 7622SOL    HW134502   3.594   2.739   8.234  0.6631  0.1748  0.4274
 7622SOL    HW234503   3.487   2.793   8.147 -0.6589 -2.4408 -0.3334
 7623SOL     OW34504   0.537   2.737   1.879  0.3855 -0.3020 -0.3626
 7623SOL    HW134505   0.510   2.666   1.820 -1.3963 -0.4128  0.5882
 7623SOL    HW234506   0.467   2.801   1.882 -0.1030 -0.8885  0.8060
 7624SOL     OW34507   3.754   2.564  12.096  0.1231 -0.3894 -0.4209
 7624SOL    HW134508   3.817   2.511  12.047 -1.1650 -2.2816  0.0032
 7624SOL    HW234509   3.814   2.617  12.148  0.1840 -0.0928 -0.7941
 7625SOL     OW34510   4.571   0.998   4.366  0.0507 -0.3539  0.4673
 7625SOL    HW134511   4.478   0.979   4.365  0.4456 -2.3218  1.2838
 7625SOL    HW234512   4.581   1.040   4.451  2.5154 -2.8933  1.4125
 7626SOL     OW34513   3.660   3.423   5.507  0.1298  0.1929 -0.3194
 7626SOL    HW134514   3.659   3.331   5.483 -1.6215  0.5603 -1.6327
 7626SOL    HW234515   3.753   3.429   5.529 -0.3046 -0.2662  1.6046
 7627SOL     OW34516   2.332   2.577   3.783 -0.8003  0.5143 -0.2038
 7627SOL    HW134517   2.341   2.663   3.742 -1.9680  0.6590 -0.1430
 7627SOL    HW234518   2.296   2.610   3.865 -0.6688 -0.2724  0.1728
 7628SOL     OW34519   0.810   2.818   7.908 -0.8134 -0.4452 -0.1267
 7628SOL    HW134520   0.719   2.843   7.921  0.0052  2.1834  0.5072
 7628SOL    HW234521   0.853   2.884   7.962 -0.3122  0.6208 -1.8058
 7629SOL     OW34522   1.649   2.287  15.452  0.2001  0.1828 -0.1411
 7629SOL    HW134523   1.626   2.351  15.384 -0.1224  1.1401  0.8658
 7629SOL    HW234524   1.592   2.322  15.521  1.5654 -0.1101  1.1176
 7630SOL     OW34525   2.351   2.097   7.887  0.1975 -0.7153 -0.8087
 7630SOL    HW134526   2.439   2.120   7.919 -1.1292  1.0202  1.6111
 7630SOL    HW234527   2.315   2.028   7.943 -0.0336 -0.6797 -0.9160
 7631SOL     OW34528   2.072   4.104   6.351 -0.1814  0.0712  0.4429
 7631SOL    HW134529   2.133   4.176   6.336  1.1747 -1.0148  0.7715
 7631SOL    HW234530   1.996   4.146   6.392  0.5655 -1.1460  3.0439
 7632SOL     OW34531   3.822   4.598  11.216  0.1042 -0.0892  0.1827
 7632SOL    HW134532   3.789   4.676  11.263 -0.6770  0.2391 -0.9089
 7632SOL    HW234533   3.750   4.543  11.247  0.9001  0.0384  2.2679
 7633SOL     OW34534   1.764   1.514  11.512 -0.1451  0.0781 -0.2672
 7633SOL    HW134535   1.855   1.489  11.499 -0.3654 -0.3592 -0.9807
 7633SOL    HW234536   1.732   1.541  11.425 -0.1579  0.7809 -0.0472
 7634SOL     OW34537   1.545   1.641   3.346 -0.6705  0.2376  0.1823
 7634SOL    HW134538   1.561   1.709   3.280 -0.1541 -0.1925 -0.1383
 7634SOL    HW234539   1.617   1.644   3.409 -0.4683 -1.2961  0.0379
 7635SOL     OW34540   3.895   1.057   3.164  0.0172 -0.2251 -0.2722
 7635SOL    HW134541   3.820   1.110   3.191  0.0896 -1.0124  1.4368
 7635SOL    HW234542   3.930   1.027   3.248 -0.2750  1.2952  0.3858
 7636SOL     OW34543   2.503   3.944   0.170 -0.5457  0.4161  0.5396
 7636SOL    HW134544   2.421   3.993   0.162 -0.3034  1.1550  2.5498
 7636SOL    HW234545   2.538   3.973   0.254 -0.0699 -1.0533  0.8541
 7637SOL     OW34546   2.654   0.806   1.341  0.2531  0.3775  0.0567
 7637SOL    HW134547   2.732   0.858   1.321  1.2594 -1.9379 -2.1290
 7637SOL    HW234548   2.684   0.727   1.295  2.0671  0.9236  0.3370
 7638SOL     OW34549   4.498   3.150   8.999 -0.3100 -0.8139 -0.0379
 7638SOL    HW134550   4.569   3.087   8.982  1.8410  1.4354  0.7115
 7638SOL    HW234551   4.424   3.094   8.973 -0.3727 -1.2281  1.0169
 7639SOL     OW34552   1.403   2.387   7.913 -0.5908  0.5459 -0.2315
 7639SOL    HW134553   1.346   2.370   7.988  2.3756 -1.8473  1.4734
 7639SOL    HW234554   1.376   2.474   7.884 -1.2699  0.9227  1.5268
 7640SOL     OW34555   0.574   4.295   5.096 -0.0214 -0.0004  0.2467
 7640SOL    HW134556   0.650   4.267   5.046  0.6817  0.3364  1.1279
 7640SOL    HW234557   0.585   4.389   5.084  2.1405 -0.7473 -3.7065
 7641SOL     OW34558   1.886   2.954   1.234  0.4957 -0.2001 -0.1730
 7641SOL    HW134559   1.823   2.901   1.186  0.2204  1.6157 -1.8197
 7641SOL    HW234560   1.831   3.022   1.274  0.6963  1.1619 -2.2023
 7642SOL     OW34561   4.281   1.352   5.722  0.2237 -0.0904  0.3939
 7642SOL    HW134562   4.340   1.378   5.652 -1.0006  2.2687  0.2185
 7642SOL    HW234563   4.213   1.300   5.679  0.5949  0.1470 -0.4718
 7643SOL     OW34564   1.343   3.295  12.601  0.6809  0.0969 -0.0110
 7643SOL    HW134565   1.351   3.242  12.680  1.3070 -1.7825 -1.3241
 7643SOL    HW234566   1.432   3.324  12.580 -0.0372  3.5620  1.8002
 7644SOL     OW34567   2.304   3.299   1.569 -0.2361 -0.0705 -0.0644
 7644SOL    HW134568   2.389   3.292   1.525  0.1609 -2.0154  1.0647
 7644SOL    HW234569   2.339   3.325   1.654 -2.5563 -0.2222  0.9406
 7645SOL     OW34570   0.794   2.520  17.709  0.1739  0.0612  0.2057
 7645SOL    HW134571   0.769   2.575  17.634  2.7341  2.3034  1.0058
 7645SOL    HW234572   0.775   2.430  17.685 -0.4439  0.6055 -1.3252
 7646SOL     OW34573   3.916   3.973  12.156 -0.0518 -0.4603  0.4519
 7646SOL    HW134574   3.938   3.880  12.156 -0.2016 -0.4857 -1.0725
 7646SOL    HW234575   3.903   3.985  12.062  1.7834 -1.3497  0.0763
 7647SOL     OW34576   1.549   2.907   7.587 -0.2380  0.1257  0.5887
 7647SOL    HW134577   1.556   2.813   7.569  0.5307  0.3410 -0.2593
 7647SOL    HW234578   1.621   2.920   7.648  2.3392 -0.8147 -2.2639
 7648SOL     OW34579   2.950   2.677   2.905 -0.0500 -0.2569  0.1283
 7648SOL    HW134580   2.920   2.611   2.843 -1.6290 -0.0585  0.7025
 7648SOL    HW234581   2.870   2.698   2.954 -0.0054  1.5447 -0.5869
 7649SOL     OW34582   1.792   3.148   2.063  0.0376 -0.1130  0.6189
 7649SOL    HW134583   1.865   3.151   2.125 -0.1983  1.2839  0.8379
 7649SOL    HW234584   1.819   3.069   2.017 -0.7602 -0.2613  0.4078
 7650SOL     OW34585   0.765   1.513   1.171 -0.3795  0.3199  0.0460
 7650SOL    HW134586   0.756   1.470   1.256 -0.8967 -0.2700 -0.3043
 7650SOL    HW234587   0.776   1.437   1.113  0.7905 -0.0277  0.7231
 7651SOL     OW34588   2.661   0.981   3.978  0.2148  0.2729  0.3247
 7651SOL    HW134589   2.644   0.957   3.888  0.7306  0.8997  0.0565
 7651SOL    HW234590   2.633   1.073   3.978  0.1560  0.2573  0.6359
 7652SOL     OW34591   2.607   3.377   7.116  0.2306 -0.5195  0.4886
 7652SOL    HW134592   2.546   3.409   7.182  1.4448 -0.0946  1.4030
 7652SOL    HW234593   2.552   3.386   7.038 -1.0210 -1.4317  1.2615
 7653SOL     OW34594   4.610   4.700   5.760 -0.2055 -0.1396 -0.4434
 7653SOL    HW134595   4.645   4.685   5.672  0.7053 -0.1079 -0.0841
 7653SOL    HW234596   4.530   4.647   5.762 -0.0991 -0.3271 -1.0208
 7654SOL     OW34597   1.501   0.377  15.904 -0.1170  0.2146 -0.3459
 7654SOL    HW134598   1.501   0.326  15.985 -0.8216  0.1214 -0.3985
 7654SOL    HW234599   1.581   0.344  15.864  0.1754  0.9385 -0.3550
 7655SOL     OW34600   1.198   3.390   6.840 -0.0199  0.3251  0.1600
 7655SOL    HW134601   1.199   3.482   6.815  0.2593  0.2382 -0.1409
 7655SOL    HW234602   1.264   3.352   6.783  0.0312  0.2412  0.2745
 7656SOL     OW34603   2.881   0.809   2.003 -0.5074  0.4919 -0.5021
 7656SOL    HW134604   2.922   0.895   1.994  2.2695 -0.8065 -0.0705
 7656SOL    HW234605   2.880   0.802   2.098 -1.2833  2.0609 -0.3897
 7657SOL     OW34606   0.111   0.227   7.499 -0.3586 -0.0452  0.0028
 7657SOL    HW134607   0.166   0.153   7.522  0.2707  0.4445  0.0610
 7657SOL    HW234608   0.137   0.286   7.570  0.7193 -0.0686 -0.3819
 7658SOL     OW34609   1.863   2.290   5.280  0.8055  0.2573 -0.1999
 7658SOL    HW134610   1.940   2.344   5.265  1.2604 -0.7027 -1.4479
 7658SOL    HW234611   1.892   2.232   5.350 -2.6887 -0.0936  0.9582
 7659SOL     OW34612   2.288   3.827  14.798 -0.4459 -0.0216 -0.5293
 7659SOL    HW134613   2.277   3.820  14.893 -2.0171 -1.9562 -0.8582
 7659SOL    HW234614   2.356   3.764  14.774 -0.4595  0.5068 -1.9671
 7660SOL     OW34615   4.546   1.652   2.501 -0.1408  0.4999  0.4701
 7660SOL    HW134616   4.577   1.663   2.591 -1.9909  0.7632  1.0667
 7660SOL    HW234617   4.576   1.563   2.479 -1.8743  0.0342  0.0038
 7661SOL     OW34618   4.146   4.296   8.182  0.3005  0.3016 -0.5590
 7661SOL    HW134619   4.105   4.254   8.258  1.0714  1.3311  0.4259
 7661SOL    HW234620   4.130   4.389   8.192 -2.8183 -0.1565 -1.2563
 7662SOL     OW34621   1.579   4.197  16.298  0.1281 -0.1047  0.0060
 7662SOL    HW134622   1.537   4.192  16.213 -0.7111  1.5167  0.3126
 7662SOL    HW234623   1.653   4.143  16.272  0.1114  0.6480 -1.5748
 7663SOL     OW34624   2.275   2.081   9.192  0.4286  0.2629 -0.0715
 7663SOL    HW134625   2.292   1.993   9.157 -0.7325 -0.1607  0.3985
 7663SOL    HW234626   2.354   2.111   9.237  0.6715 -1.0293  0.3870
 7664SOL     OW34627   1.175   2.891   7.898 -0.1563  0.3588  0.0257
 7664SOL    HW134628   1.224   2.906   7.817  0.6885  1.4295  0.7409
 7664SOL    HW234629   1.102   2.953   7.892 -0.3946  0.1526  0.7468
 7665SOL     OW34630   3.842   1.204  11.349  0.0407  0.2423  0.0141
 7665SOL    HW134631   3.896   1.152  11.290 -1.7909 -0.3331 -1.1392
 7665SOL    HW234632   3.834   1.149  11.427  0.0526 -0.0158 -0.1690
 7666SOL     OW34633   2.655   1.650   9.070  0.0865 -0.1906  0.3408
 7666SOL    HW134634   2.642   1.590   9.144  1.3520 -0.6209  0.2165
 7666SOL    HW234635   2.639   1.587   8.999  0.7329  0.0129  0.0128
 7667SOL     OW34636   1.495   2.401   2.952 -0.8314  0.1952  0.2799
 7667SOL    HW134637   1.498   2.375   3.044 -2.0922 -2.0625 -0.3451
 7667SOL    HW234638   1.406   2.370   2.937 -0.2082 -1.0637 -0.7135
 7668SOL     OW34639   0.240   1.656   9.180  0.1929 -0.4743 -0.3769
 7668SOL    HW134640   0.168   1.594   9.195 -1.1114  0.9728 -0.6501
 7668SOL    HW234641   0.242   1.645   9.085 -1.0305  0.4898 -0.5057
 7669SOL     OW34642   4.669   2.481   0.435 -0.1764  0.1622  0.2825
 7669SOL    HW134643   4.650   2.407   0.378  0.6824  1.1101 -1.2438
 7669SOL    HW234644   0.003   2.447   0.491  1.9434  2.7465 -0.7755
 7670SOL     OW34645   3.033   0.906  15.229 -0.0138  0.2481  0.6860
 7670SOL    HW134646   3.024   0.905  15.134  1.3932  0.9335  0.5356
 7670SOL    HW234647   3.071   0.820  15.249 -0.1928  0.0930  0.3482
 7671SOL     OW34648   4.576   3.557  11.035 -0.1674  0.7665  0.5008
 7671SOL    HW134649   4.542   3.499  11.103 -0.5923  0.6633  0.2005
 7671SOL    HW234650   4.659   3.566  11.081  0.0942  0.6274  0.0556
 7672SOL     OW34651   3.303   2.706   7.739  0.0196  0.0590  0.1399
 7672SOL    HW134652   3.293   2.717   7.645  1.9913 -4.3113 -0.5811
 7672SOL    HW234653   3.273   2.792   7.769 -0.3741  0.5234 -1.6287
 7673SOL     OW34654   0.640   0.994   8.692  0.5429 -0.1902 -0.0631
 7673SOL    HW134655   0.606   1.048   8.763 -0.3742 -2.4888  1.2461
 7673SOL    HW234656   0.733   1.004   8.711  0.7119  0.4510 -1.2387
 7674SOL     OW34657   2.475   0.621   6.369 -0.2331 -0.0868  0.4368
 7674SOL    HW134658   2.562   0.595   6.337  0.0482 -1.4678  2.3145
 7674SOL    HW234659   2.475   0.715   6.355 -1.4201 -0.1966 -0.2610
 7675SOL     OW34660   3.171   2.132  15.519 -0.2132  0.1838 -0.6626
 7675SOL    HW134661   3.104   2.171  15.462  0.6899 -0.7597 -2.3791
 7675SOL    HW234662   3.167   2.042  15.487 -1.8043  0.5342 -1.4435
 7676SOL     OW34663   3.326   2.259   8.427 -0.1666  0.3992 -0.7173
 7676SOL    HW134664   3.371   2.331   8.384  0.5858  0.1140 -0.4029
 7676SOL    HW234665   3.343   2.183   8.372  0.7702 -0.0236  0.1504
 7677SOL     OW34666   1.561   3.992  12.229  0.9836  0.3634  0.4452
 7677SOL    HW134667   1.601   3.935  12.295 -1.2903  0.3536  1.8175
 7677SOL    HW234668   1.525   3.930  12.165  0.6899 -0.5095  1.4579
 7678SOL     OW34669   0.514   3.689   8.202 -0.7186 -0.0936  0.2702
 7678SOL    HW134670   0.472   3.770   8.173 -0.3513  0.0650  0.1817
 7678SOL    HW234671   0.470   3.672   8.285 -1.1853  0.2984  0.1052
 7679SOL     OW34672   0.629   0.095   9.589  0.0554 -0.0750  0.0834
 7679SOL    HW134673   0.662   0.008   9.607  2.5811  1.0886  1.1085
 7679SOL    HW234674   0.709   0.145   9.605 -0.7315  1.5791 -1.0850
 7680SOL     OW34675   2.782   1.139   3.095 -0.1539  0.1047 -0.3693
 7680SOL    HW134676   2.764   1.045   3.091  2.2382 -0.3936  0.2994
 7680SOL    HW234677   2.703   1.170   3.052 -2.0101 -0.0439  2.9451
 7681SOL     OW34678   3.003   3.603   5.457 -1.0266 -0.3449  0.5286
 7681SOL    HW134679   3.074   3.559   5.411 -3.7189 -1.7640 -2.2438
 7681SOL    HW234680   3.058   3.656   5.516 -0.3966 -0.0141 -0.3641
 7682SOL     OW34681   0.052   2.889  14.691 -0.0818 -0.3707 -0.0343
 7682SOL    HW134682   0.098   2.868  14.772 -1.4656  0.8197  1.0625
 7682SOL    HW234683   0.108   2.833  14.637 -1.4520 -0.2295 -1.5914
 7683SOL     OW34684   1.997   2.525   8.430  0.2377 -0.9014 -0.0745
 7683SOL    HW134685   1.985   2.440   8.472  1.6531 -0.6838  0.7684
 7683SOL    HW234686   2.005   2.497   8.339 -0.0821  0.5511 -0.5518
 7684SOL     OW34687   1.615   2.574   2.407  0.5587  0.6858  0.1999
 7684SOL    HW134688   1.672   2.549   2.480  2.8746  1.3674 -1.3425
 7684SOL    HW234689   1.676   2.625   2.353 -2.4825  1.3485 -2.5402
 7685SOL     OW34690   2.098   4.242   8.516  0.1645  0.2602  0.0468
 7685SOL    HW134691   2.067   4.221   8.428 -0.9178  1.2866  0.1988
 7685SOL    HW234692   2.038   4.203   8.580  0.8119  1.1759  1.2115
 7686SOL     OW34693   1.461   0.400  14.985  0.2273  0.3085 -0.2319
 7686SOL    HW134694   1.427   0.326  14.935  0.9766 -2.3542  3.1788
 7686SOL    HW234695   1.444   0.476  14.929 -0.8604 -0.6176 -1.1578
 7687SOL     OW34696   0.583   1.892  12.667 -0.0571  0.1780 -0.2885
 7687SOL    HW134697   0.550   1.959  12.607 -1.3726 -1.1544 -1.0698
 7687SOL    HW234698   0.512   1.828  12.667  1.1211 -1.1238 -0.0590
 7688SOL     OW34699   3.324   1.937  11.778 -0.2939  0.7703  0.1438
 7688SOL    HW134700   3.310   2.031  11.770 -0.9123  0.6471 -0.1618
 7688SOL    HW234701   3.415   1.928  11.806  0.2958  0.9051 -1.7362
 7689SOL     OW34702   4.140   4.119  17.255 -0.4408 -0.3730  0.2403
 7689SOL    HW134703   4.047   4.096  17.247 -0.6204  0.9184 -1.5698
 7689SOL    HW234704   4.168   4.055  17.190 -1.4333  0.3009 -0.8622
 7690SOL     OW34705   2.532   0.929  10.837  0.0718 -0.5678 -0.5785
 7690SOL    HW134706   2.558   1.004  10.891 -0.7135 -1.0930  0.5413
 7690SOL    HW234707   2.442   0.913  10.864 -0.0201  0.2650 -0.3800
 7691SOL     OW34708   2.874   1.701   8.661  0.5188 -0.6019  0.1613
 7691SOL    HW134709   2.829   1.618   8.644  1.1957 -0.7542 -0.8580
 7691SOL    HW234710   2.818   1.743   8.726 -0.9365  1.1342 -2.2128
 7692SOL     OW34711   1.238   2.453  12.962  0.2400  0.0797  0.6824
 7692SOL    HW134712   1.238   2.531  13.018 -0.0221  0.0319  0.7506
 7692SOL    HW234713   1.160   2.479  12.913 -0.0062 -0.9090  0.5511
 7693SOL     OW34714   2.021   3.734   9.838  0.2737  0.1974  0.0532
 7693SOL    HW134715   2.102   3.686   9.857  0.9281  0.2075 -2.6881
 7693SOL    HW234716   2.038   3.772   9.752  0.6504  2.5365  1.1785
 7694SOL     OW34717   1.895   3.550   2.184  0.2631  0.3875  0.1568
 7694SOL    HW134718   1.830   3.615   2.160 -1.0596 -0.9700  0.0495
 7694SOL    HW234719   1.908   3.510   2.098 -1.9222  0.9457 -0.4432
 7695SOL     OW34720   2.648   1.995  16.433 -1.1698 -0.1203  0.0742
 7695SOL    HW134721   2.620   2.005  16.524 -0.2842  1.0561  0.2235
 7695SOL    HW234722   2.705   1.921  16.453 -0.3655  0.3402 -0.5062
 7696SOL     OW34723   2.677   0.041   6.784 -0.5140  1.0040  0.9684
 7696SOL    HW134724   2.621   4.715   6.737 -0.2176 -0.2614  2.3048
 7696SOL    HW234725   2.701   0.103   6.715  0.2968 -0.5905 -0.2082
 7697SOL     OW34726   0.133   3.782   5.324  0.3032 -0.0751  0.7489
 7697SOL    HW134727   0.056   3.787   5.267  2.0012  2.4293 -1.3393
 7697SOL    HW234728   0.170   3.870   5.329  0.9975 -0.2816 -0.8076
 7698SOL     OW34729   0.960   4.263   1.145 -0.1915  0.0431  0.6951
 7698SOL    HW134730   0.984   4.193   1.083  0.4122  0.4389  0.4748
 7698SOL    HW234731   1.039   4.317   1.142  0.2831 -0.7080 -0.4869
 7699SOL     OW34732   2.835   3.482  14.490  0.8037  0.2414 -0.2731
 7699SOL    HW134733   2.871   3.559  14.446 -1.4263  0.0238 -2.4792
 7699SOL    HW234734   2.908   3.443  14.538 -0.1317 -1.3580 -0.1712
 7700SOL     OW34735   0.304   4.086   7.620  0.4943 -0.6458 -0.1347
 7700SOL    HW134736   0.219   4.117   7.588  0.3753 -0.3700  0.4429
 7700SOL    HW234737   0.317   4.156   7.684 -2.3912  0.9876 -1.3532
 7701SOL     OW34738   4.601   2.806   5.757  0.0901 -0.1511 -0.0138
 7701SOL    HW134739   4.562   2.880   5.711 -0.5462 -0.8124 -0.5468
 7701SOL    HW234740   4.643   2.851   5.830  1.5764 -1.6861  0.0807
 7702SOL     OW34741   3.159   1.828   6.607  0.2326  0.0292 -0.2373
 7702SOL    HW134742   3.121   1.806   6.522 -2.9513  0.2762  1.1278
 7702SOL    HW234743   3.106   1.899   6.644 -1.5377 -2.4681  2.0110
 7703SOL     OW34744   2.236   4.166  15.966 -0.3387 -0.7212 -0.3903
 7703SOL    HW134745   2.261   4.078  15.995  2.3432  0.1041 -0.1704
 7703SOL    HW234746   2.265   4.160  15.875 -0.6584  0.5945 -0.5830
 7704SOL     OW34747   2.110   0.434   3.240 -0.1662  0.1679 -0.3921
 7704SOL    HW134748   2.142   0.408   3.327 -0.1456 -1.6789 -0.9584
 7704SOL    HW234749   2.015   0.422   3.252  0.2161 -2.0340  0.3394
 7705SOL     OW34750   4.171   2.152   9.499 -0.1751 -0.3646 -0.1942
 7705SOL    HW134751   4.078   2.142   9.479 -0.3706  2.0578 -0.5363
 7705SOL    HW234752   4.165   2.225   9.561 -1.8133 -1.0111  0.4104
 7706SOL     OW34753   2.685   2.125  12.091  0.6515 -0.0332 -0.3447
 7706SOL    HW134754   2.609   2.181  12.111  1.4451  1.2218 -0.8513
 7706SOL    HW234755   2.670   2.047  12.144 -0.2741 -0.6227 -1.4858
 7707SOL     OW34756   3.928   2.502   8.432  0.4066 -0.2511  0.1271
 7707SOL    HW134757   3.964   2.556   8.503  0.6351  0.6811 -0.7025
 7707SOL    HW234758   3.932   2.414   8.469 -0.8581 -1.1361 -1.8482
 7708SOL     OW34759   0.249   0.229  11.164  0.4962 -0.0498 -0.0924
 7708SOL    HW134760   0.236   0.312  11.117  0.4522  0.5067  0.8892
 7708SOL    HW234761   0.256   0.265  11.253  0.6154  1.6682 -0.7904
 7709SOL     OW34762   1.160   1.011   8.453  0.3588  0.7794  0.7282
 7709SOL    HW134763   1.158   1.070   8.528  4.3405 -0.7622  2.0391
 7709SOL    HW234764   1.240   1.048   8.415 -1.2014  1.6437 -1.6767
 7710SOL     OW34765   3.619   2.777   3.710  0.5218 -0.1434  0.1753
 7710SOL    HW134766   3.687   2.805   3.649 -0.2733  0.1596 -0.5682
 7710SOL    HW234767   3.608   2.864   3.748 -0.6860 -1.7478  3.5380
 7711SOL     OW34768   0.726   0.646   5.626  0.0373  0.2378 -0.5058
 7711SOL    HW134769   0.766   0.724   5.664 -1.2794  1.0895 -0.8569
 7711SOL    HW234770   0.802   0.619   5.575 -1.6611 -0.3521 -2.7384
 7712SOL     OW34771   3.078   1.155   2.348 -0.0917  0.6681  0.0463
 7712SOL    HW134772   2.989   1.123   2.332  0.1291  1.4711 -2.7428
 7712SOL    HW234773   3.109   1.104   2.423  1.2791  0.2728 -0.7923
 7713SOL     OW34774   0.586   0.002   0.303  0.1353 -0.2230  0.0901
 7713SOL    HW134775   0.570   0.047   0.220  0.9243  1.7541  1.0043
 7713SOL    HW234776   0.508   4.688   0.321 -1.1553  2.4717  1.9518
 7714SOL     OW34777   4.199   0.612   7.873 -0.3515  0.0858 -0.2793
 7714SOL    HW134778   4.114   0.582   7.839  0.6398 -2.9780 -0.0761
 7714SOL    HW234779   4.261   0.564   7.818 -0.0074 -1.2944  1.3087
 7715SOL     OW34780   3.381   2.736   3.223  0.1576  0.3795  0.1090
 7715SOL    HW134781   3.305   2.761   3.171  2.2923  1.2704 -2.6183
 7715SOL    HW234782   3.351   2.767   3.308 -1.3400  1.0575 -0.6788
 7716SOL     OW34783   2.050   3.624   1.836 -0.2519  0.5346  0.0290
 7716SOL    HW134784   1.997   3.557   1.880  0.6854  0.1844  0.6252
 7716SOL    HW234785   1.985   3.691   1.816 -0.5868  0.2308  0.1091
 7717SOL     OW34786   3.587   1.526   0.980 -0.4551 -0.1587 -0.2269
 7717SOL    HW134787   3.567   1.553   1.069  0.3004  2.2868 -0.7835
 7717SOL    HW234788   3.499   1.517   0.943 -0.4508  1.0377 -0.5439
 7718SOL     OW34789   1.912   1.532   7.318 -0.1320  0.1861 -0.1110
 7718SOL    HW134790   1.836   1.579   7.286 -1.4267 -1.8204  0.0439
 7718SOL    HW234791   1.873   1.463   7.372 -0.8671  1.5444  1.0992
 7719SOL     OW34792   1.753   2.102  10.372 -0.1121 -0.3313  0.2393
 7719SOL    HW134793   1.724   2.042  10.441 -1.8919  2.0271  1.5354
 7719SOL    HW234794   1.718   2.054  10.297 -1.9994 -0.3231  1.1330
 7720SOL     OW34795   0.230   4.273  11.214  0.0754  0.3685 -0.1308
 7720SOL    HW134796   0.138   4.298  11.210  0.0271  0.1944 -0.1114
 7720SOL    HW234797   0.294   4.340  11.189  1.4100 -0.2013  1.7168
 7721SOL     OW34798   3.055   2.220   9.619 -0.6793 -0.0351 -0.0663
 7721SOL    HW134799   3.080   2.312   9.626  4.0867 -1.4668  1.2075
 7721SOL    HW234800   3.139   2.178   9.634 -1.1739 -0.7286  0.7112
 7722SOL     OW34801   0.692   4.245   5.518 -0.7516 -0.6773  0.1875
 7722SOL    HW134802   0.710   4.191   5.595  1.4626 -0.6176 -0.3080
 7722SOL    HW234803   0.596   4.252   5.525 -0.5893  1.1534  0.5743
 7723SOL     OW34804   4.189   4.676   5.852 -0.1771  0.5222  0.1072
 7723SOL    HW134805   4.138   4.650   5.929 -0.9824  0.2374 -0.5187
 7723SOL    HW234806   4.269   4.638   5.888 -0.4042  0.0863  0.1573
 7724SOL     OW34807   1.804   0.929   1.755 -0.1145  0.5069 -0.2340
 7724SOL    HW134808   1.847   0.844   1.751 -0.4282  0.2097  3.1684
 7724SOL    HW234809   1.712   0.906   1.742  0.4990 -1.2849 -1.3103
 7725SOL     OW34810   4.563   3.701   8.077  0.2792  1.2024  0.3590
 7725SOL    HW134811   4.561   3.716   7.982  1.4995 -0.2190  0.1105
 7725SOL    HW234812   4.632   3.635   8.086 -0.3022  0.7315  1.3999
 7726SOL     OW34813   0.419   3.725   6.269  0.2289  0.1098 -0.1122
 7726SOL    HW134814   0.329   3.695   6.261  0.1365  0.7070 -1.2639
 7726SOL    HW234815   0.434   3.716   6.363  0.4512 -1.3729 -0.2858
 7727SOL     OW34816   2.720   0.539   2.714  0.8909  0.4609 -0.3286
 7727SOL    HW134817   2.769   0.519   2.634  0.2673 -0.2618 -0.5280
 7727SOL    HW234818   2.693   0.623   2.675 -1.7377 -0.1270  0.2508
 7728SOL     OW34819   3.192   3.786  11.783 -0.3821  0.3099 -0.3386
 7728SOL    HW134820   3.102   3.798  11.814 -0.3680 -1.1161  0.2584
 7728SOL    HW234821   3.192   3.820  11.694  1.7675 -2.0819 -1.2555
 7729SOL     OW34822   1.102   0.817   9.537  0.4141 -0.4638  0.1770
 7729SOL    HW134823   1.187   0.780   9.560  0.1220 -1.2665 -0.0294
 7729SOL    HW234824   1.058   0.747   9.489 -0.2602 -0.9244  1.4740
 7730SOL     OW34825   2.109   1.804  17.417  0.3050  0.0111  0.0810
 7730SOL    HW134826   2.038   1.868  17.409  0.3408  0.1471  0.8572
 7730SOL    HW234827   2.160   1.847  17.485  2.2487 -2.3304  0.0907
 7731SOL     OW34828   0.070   1.578   8.220 -0.2970 -0.2290  0.3309
 7731SOL    HW134829   0.101   1.489   8.204 -0.1933 -0.3068  0.9817
 7731SOL    HW234830   0.150   1.611   8.260 -1.0439  0.9199  0.8697
 7732SOL     OW34831   3.260   1.268   6.824  0.5549  0.3573  0.1117
 7732SOL    HW134832   3.230   1.343   6.876  0.8956  0.7317 -0.2343
 7732SOL    HW234833   3.236   1.298   6.737 -0.8966 -0.4542  0.2352
 7733SOL     OW34834   4.712   0.875   3.005 -0.2889 -0.7010 -0.2187
 7733SOL    HW134835   4.655   0.805   3.038  0.0592 -0.8028  0.1628
 7733SOL    HW234836   0.052   0.820   2.990  0.6407  0.4916  0.1876
 7734SOL     OW34837   3.739   2.631   0.783 -0.5825 -0.5936 -0.4992
 7734SOL    HW134838   3.729   2.653   0.690  1.0394  2.3441  0.0282
 7734SOL    HW234839   3.683   2.554   0.792 -2.9848  1.2193  0.0554
 7735SOL     OW34840   3.695   0.549   6.141  0.6934 -0.1430  0.8768
 7735SOL    HW134841   3.759   0.484   6.112  0.5359 -0.0870  0.4135
 7735SOL    HW234842   3.759   0.611   6.177 -0.2383  0.4955  1.4415
 7736SOL     OW34843   4.649   0.241   5.491  0.4155  0.0974 -0.1934
 7736SOL    HW134844   4.569   0.288   5.514  0.1080  0.7035 -2.5220
 7736SOL    HW234845   4.652   0.249   5.396 -0.3405  1.1873 -0.1230
 7737SOL     OW34846   3.716   1.121   0.409  0.0672 -0.6052  0.3977
 7737SOL    HW134847   3.630   1.103   0.372  0.4253 -0.1333 -0.6526
 7737SOL    HW234848   3.775   1.087   0.342  0.3541 -0.0071  0.3433
 7738SOL     OW34849   0.417   3.322   5.400  0.0421 -0.6816  0.1679
 7738SOL    HW134850   0.453   3.251   5.346  0.6904 -0.6571  0.5606
 7738SOL    HW234851   0.325   3.307   5.380 -0.1534  1.5365 -0.5836
 7739SOL     OW34852   1.541   2.250   9.786  0.0215 -0.3811 -0.0290
 7739SOL    HW134853   1.450   2.277   9.774 -0.9306 -3.0273  1.0964
 7739SOL    HW234854   1.538   2.227   9.879 -0.0584  2.1383  0.5923
 7740SOL     OW34855   4.635   0.182  15.293  0.0416 -0.0569  0.0640
 7740SOL    HW134856   4.676   0.136  15.367 -0.8560 -2.2905 -0.8464
 7740SOL    HW234857   4.666   0.127  15.221  1.9148  0.4873  0.4464
 7741SOL     OW34858   1.929   2.190   4.366 -0.0097 -0.1715  0.1182
 7741SOL    HW134859   1.833   2.194   4.372 -0.0264 -1.7761  0.7037
 7741SOL    HW234860   1.956   2.208   4.456  0.3100 -1.4224  0.2649
 7742SOL     OW34861   2.830   0.980   0.746 -0.0848 -0.4898 -0.0187
 7742SOL    HW134862   2.748   0.987   0.697  1.6736 -1.7000 -3.1062
 7742SOL    HW234863   2.804   0.949   0.833  1.7975  0.6144  0.9381
 7743SOL     OW34864   2.348   3.629   1.077  0.6799  0.2316  0.0682
 7743SOL    HW134865   2.423   3.637   1.136  1.9545  0.4242 -1.5602
 7743SOL    HW234866   2.383   3.667   0.996  0.1789  0.6063  0.0300
 7744SOL     OW34867   0.920   1.089  13.385  0.3805 -0.1636 -0.0307
 7744SOL    HW134868   0.843   1.144  13.374 -0.4935 -1.5151 -0.6256
 7744SOL    HW234869   0.886   1.022  13.326 -2.2794 -0.1623  1.4784
 7745SOL     OW34870   0.832   2.254   3.843 -0.3958  0.5689 -0.5686
 7745SOL    HW134871   0.762   2.320   3.838 -0.8108  0.1292 -0.4955
 7745SOL    HW234872   0.902   2.299   3.892 -2.0401  1.3432  1.0623
 7746SOL     OW34873   0.565   1.973  17.538 -0.6555 -0.0853  0.2592
 7746SOL    HW134874   0.584   2.022  17.458 -0.1463 -2.0765 -0.8448
 7746SOL    HW234875   0.585   2.039  17.605  1.4574 -1.9921  1.4796
 7747SOL     OW34876   4.728   4.367   6.188  0.0470  0.4878 -0.1295
 7747SOL    HW134877   4.736   4.454   6.228 -0.1215  0.3814  0.1338
 7747SOL    HW234878   0.067   4.354   6.130 -2.0888  0.1966 -2.8497
 7748SOL     OW34879   1.092   3.936  12.074 -0.2457  0.2271  0.1379
 7748SOL    HW134880   1.018   3.888  12.111  0.4865 -0.1698  1.1025
 7748SOL    HW234881   1.133   3.871  12.016  1.8350 -0.6704  2.5952
 7749SOL     OW34882   1.966   3.825   6.353  0.2857  0.3020 -0.1047
 7749SOL    HW134883   1.879   3.838   6.317 -0.2068 -1.6173  0.4100
 7749SOL    HW234884   1.995   3.915   6.365  0.3762  0.0692  1.5082
 7750SOL     OW34885   4.107   2.121   5.456 -0.3527  0.1958 -0.2592
 7750SOL    HW134886   4.062   2.181   5.397 -0.5707 -0.7898 -1.1013
 7750SOL    HW234887   4.172   2.184   5.486 -0.0185  0.0164 -0.6053
 7751SOL     OW34888   4.629   1.012  13.760 -0.1672  0.8245  0.1730
 7751SOL    HW134889   4.626   0.918  13.776  0.0554  0.8370  0.2889
 7751SOL    HW234890   4.541   1.042  13.736  1.0189  1.5726 -3.3021
 7752SOL     OW34891   4.655   2.145   0.944  0.0316 -0.1751 -0.4939
 7752SOL    HW134892   4.638   2.236   0.921 -0.8043 -0.2922 -0.3308
 7752SOL    HW234893   4.593   2.101   0.885  0.0550 -0.9579  0.0743
 7753SOL     OW34894   0.449   0.900   2.144 -0.5079 -0.4166  0.0280
 7753SOL    HW134895   0.466   0.975   2.202 -0.8885  0.7572 -1.3731
 7753SOL    HW234896   0.373   0.877   2.197  1.1962 -1.9217  1.8069
 7754SOL     OW34897   4.125   3.302   8.069  0.0604 -0.0434 -0.4389
 7754SOL    HW134898   4.093   3.260   7.989 -1.7723 -1.1881  0.9022
 7754SOL    HW234899   4.189   3.365   8.035 -0.5539  0.0261 -1.4992
 7755SOL     OW34900   1.014   4.675   2.206 -0.3450  0.8265  0.1147
 7755SOL    HW134901   1.033   4.699   2.297 -1.1204 -1.9052  0.9965
 7755SOL    HW234902   0.927   4.639   2.220  0.0744  0.4986  1.8673
 7756SOL     OW34903   1.930   4.464   7.155  0.7981  0.2442 -0.0218
 7756SOL    HW134904   1.860   4.509   7.203 -2.5950 -1.6385 -3.1972
 7756SOL    HW234905   1.950   4.528   7.087  0.3972 -0.8099 -1.1139
 7757SOL     OW34906   0.321   2.648  17.680  0.2354  0.6769  0.5371
 7757SOL    HW134907   0.244   2.699  17.705 -0.6294 -0.1101 -0.5498
 7757SOL    HW234908   0.391   2.712  17.694  2.3302 -1.2504 -1.1790
 7758SOL     OW34909   3.296   2.247   6.312  0.0874  0.2823 -0.0588
 7758SOL    HW134910   3.217   2.295   6.339 -1.0116 -1.6850  0.1898
 7758SOL    HW234911   3.308   2.295   6.230 -0.5999  0.7936  0.1321
 7759SOL     OW34912   2.529   0.886   1.878 -0.3870  0.9423 -0.5532
 7759SOL    HW134913   2.559   0.799   1.905  0.3219  0.7958 -1.8381
 7759SOL    HW234914   2.591   0.906   1.808  0.1570 -0.7204 -0.5369
 7760SOL     OW34915   0.100   3.284   9.939  0.3324 -0.1226  0.4699
 7760SOL    HW134916   0.134   3.367   9.971  0.4658 -0.3885  1.0174
 7760SOL    HW234917   0.169   3.260   9.878 -0.3986  0.2114 -0.4896
 7761SOL     OW34918   0.989   2.978  10.226 -0.4024 -0.0147 -0.2411
 7761SOL    HW134919   0.929   2.910  10.258 -0.5439  0.5488  0.7017
 7761SOL    HW234920   0.949   3.010  10.145 -1.9296  0.4120  0.6847
 7762SOL     OW34921   3.955   2.576  11.302  0.3351  0.2210  0.7545
 7762SOL    HW134922   3.964   2.483  11.280 -2.1721 -0.1715  1.4363
 7762SOL    HW234923   3.925   2.565  11.392  0.3896 -1.9626  0.4968
 7763SOL     OW34924   1.102   0.488  11.739 -0.7559 -0.0683  0.3545
 7763SOL    HW134925   1.067   0.577  11.730 -2.8380 -1.1554 -2.4330
 7763SOL    HW234926   1.061   0.449  11.661  2.1703 -1.4113 -0.5098
 7764SOL     OW34927   0.909   1.249   2.705 -0.1241 -0.3723 -0.1516
 7764SOL    HW134928   0.955   1.179   2.659 -0.1146  0.7262 -1.8158
 7764SOL    HW234929   0.959   1.317   2.658 -1.6725  0.8138 -0.0738
 7765SOL     OW34930   3.259   2.202   0.705 -0.0120  0.1027 -0.3319
 7765SOL    HW134931   3.274   2.290   0.741  0.5300 -1.9814  4.5258
 7765SOL    HW234932   3.163   2.205   0.712 -0.0148 -1.8945  0.3698
 7766SOL     OW34933   3.675   0.789  17.437  0.0083  0.0229 -0.4048
 7766SOL    HW134934   3.590   0.748  17.454  0.7159 -1.0832  0.4825
 7766SOL    HW234935   3.648   0.864  17.384  0.8298  0.8286  0.3140
 7767SOL     OW34936   0.307   2.506   9.943 -0.4705 -0.1434  0.0618
 7767SOL    HW134937   0.381   2.534   9.889  0.3671  1.3215  1.9347
 7767SOL    HW234938   0.237   2.553   9.900 -2.6850 -3.3485  0.1289
 7768SOL     OW34939   1.455   3.000   5.070  0.0628  0.5789 -0.6689
 7768SOL    HW134940   1.422   2.923   5.024  0.8622  0.8898 -1.7535
 7768SOL    HW234941   1.479   3.050   4.992  0.5016 -0.1364 -0.9845
 7769SOL     OW34942   3.801   0.165   4.067 -0.2926 -0.5005  0.3102
 7769SOL    HW134943   3.834   0.232   4.007  2.4548 -2.5807 -0.4562
 7769SOL    HW234944   3.739   0.117   4.013  0.7263  0.2717 -1.5260
 7770SOL     OW34945   1.019   3.815   1.832 -0.0863  0.0962  0.0637
 7770SOL    HW134946   1.008   3.731   1.876 -0.7795  0.4801  0.6135
 7770SOL    HW234947   1.079   3.862   1.890 -1.1545  0.2656  1.0373
 7771SOL     OW34948   1.852   1.552   0.967 -0.1025  0.8081 -0.1829
 7771SOL    HW134949   1.790   1.601   0.912  0.3385 -2.4270 -3.5547
 7771SOL    HW234950   1.848   1.467   0.925 -2.7553  0.5081  0.7047
 7772SOL     OW34951   2.965   4.325   7.172  0.5124 -0.2719 -0.1457
 7772SOL    HW134952   2.925   4.292   7.252 -4.0401  1.3488 -1.7666
 7772SOL    HW234953   2.884   4.335   7.122 -0.2623 -0.0206  1.1537
 7773SOL     OW34954   2.691   0.921   4.632 -0.1714  0.1788 -0.1374
 7773SOL    HW134955   2.689   0.964   4.547 -1.0688 -2.4308 -1.4082
 7773SOL    HW234956   2.700   0.998   4.689 -0.3421 -0.2326  0.4436
 7774SOL     OW34957   0.779   0.047   2.762 -0.2615 -0.4217  0.5117
 7774SOL    HW134958   0.755   0.083   2.848  1.7297  1.9658  0.0986
 7774SOL    HW234959   0.694   0.015   2.734  1.8708 -2.4390 -3.5915
 7775SOL     OW34960   4.619   0.170   6.544 -0.3272 -0.0395 -0.2783
 7775SOL    HW134961   4.550   0.104   6.551 -0.8773  0.3059 -2.2894
 7775SOL    HW234962   4.577   0.228   6.480  1.8587  1.6272 -0.2014
 7776SOL     OW34963   1.103   3.149   0.833 -0.2632 -0.3084 -0.0274
 7776SOL    HW134964   1.176   3.089   0.852 -0.1632 -0.7110 -1.6809
 7776SOL    HW234965   1.044   3.081   0.801 -0.7190  0.0964 -0.0388
 7777SOL     OW34966   4.563   3.598   7.018  0.3279 -0.1802 -0.5208
 7777SOL    HW134967   4.519   3.573   7.099 -0.2480 -1.0124 -1.0942
 7777SOL    HW234968   4.513   3.673   6.984  0.2422 -0.8229 -1.8280
 7778SOL     OW34969   0.200   1.001   3.488  0.3694  0.4646  0.1450
 7778SOL    HW134970   0.215   0.913   3.453  1.1555 -0.3452  2.4784
 7778SOL    HW234971   0.157   0.987   3.572 -0.5570 -3.0957 -0.9238
 7779SOL     OW34972   3.491   3.275   8.378  0.0892  0.5493  0.4513
 7779SOL    HW134973   3.463   3.350   8.324 -0.1208 -1.2470 -1.9338
 7779SOL    HW234974   3.448   3.210   8.323 -0.6921 -0.8956  2.7973
 7780SOL     OW34975   3.991   2.294   3.590  0.5949 -0.3653  0.7517
 7780SOL    HW134976   3.998   2.199   3.577  0.0225 -0.3911  0.6626
 7780SOL    HW234977   3.967   2.310   3.498 -0.7085  0.6283  1.2675
 7781SOL     OW34978   1.072   3.511  17.073 -0.2180 -0.3143  0.1092
 7781SOL    HW134979   1.025   3.434  17.106 -0.5729  0.4523  1.3892
 7781SOL    HW234980   1.077   3.559  17.156  1.3938 -2.1278  1.0743
 7782SOL     OW34981   2.427   2.603   0.975 -0.1752 -0.2427 -0.0402
 7782SOL    HW134982   2.443   2.697   0.971  1.5951 -0.6258 -2.2251
 7782SOL    HW234983   2.491   2.582   1.043  0.4934  0.6624 -0.3857
 7783SOL     OW34984   3.069   2.002   1.964 -0.3499  0.4233 -0.6415
 7783SOL    HW134985   3.052   2.079   1.911 -1.9412  0.5567  0.0482
 7783SOL    HW234986   3.025   1.927   1.924  0.9473 -1.6119  1.7243
 7784SOL     OW34987   2.795   3.079  14.858 -0.1376  0.2065 -0.1175
 7784SOL    HW134988   2.757   3.114  14.939  0.1061  0.9660 -0.3340
 7784SOL    HW234989   2.804   2.990  14.894  2.6915  0.3506 -0.4432
 7785SOL     OW34990   1.049   4.345   5.746  0.1724 -0.3449  0.0262
 7785SOL    HW134991   0.999   4.263   5.745 -2.2290  1.1213  0.9507
 7785SOL    HW234992   0.985   4.416   5.739  0.6838  0.2156  0.9952
 7786SOL     OW34993   3.596   3.992   4.851 -0.5245 -0.1861  0.4695
 7786SOL    HW134994   3.645   4.033   4.922  1.4981 -0.9288 -0.5041
 7786SOL    HW234995   3.562   4.073   4.813  3.2521  1.9438  1.6090
 7787SOL     OW34996   3.538   3.433   1.458  0.0145 -0.1557 -0.3812
 7787SOL    HW134997   3.540   3.410   1.551  0.9510 -0.7770 -0.5451
 7787SOL    HW234998   3.621   3.478   1.443  0.5203 -0.6970  0.8379
 7788SOL     OW34999   3.915   2.647   5.487 -0.0711  0.3488 -0.3043
 7788SOL    HW135000   3.976   2.654   5.414 -1.2756  0.5963 -1.2892
 7788SOL    HW235001   3.884   2.737   5.496  2.5551  1.2474 -0.0488
 7789SOL     OW35002   3.028   1.543   9.393 -0.2138  0.0748  0.3598
 7789SOL    HW135003   3.097   1.510   9.335 -0.2234  0.6858 -0.0009
 7789SOL    HW235004   3.077   1.610   9.441  0.8127  0.0466 -0.6496
 7790SOL     OW35005   4.323   4.726   4.149  0.1159  0.6441  0.5153
 7790SOL    HW135006   4.290   4.693   4.233  0.2722 -0.0106  0.3148
 7790SOL    HW235007   4.322   4.650   4.091  0.0781  1.2484 -0.2756
 7791SOL     OW35008   4.582   3.101  11.046 -0.1955  0.2110 -0.6928
 7791SOL    HW135009   4.609   3.191  11.028 -0.0264  0.6382  1.7053
 7791SOL    HW235010   4.492   3.091  11.016 -0.6974  4.0143 -0.4808
 7792SOL     OW35011   3.868   0.578   5.163  0.6593 -0.5386  0.2658
 7792SOL    HW135012   3.829   0.541   5.242 -2.5364  1.7558 -0.2282
 7792SOL    HW235013   3.796   0.634   5.135  2.3511  0.4968 -2.0033
 7793SOL     OW35014   4.664   0.083   8.526  0.1970 -0.0800 -0.1280
 7793SOL    HW135015   4.706   0.003   8.497 -2.6128 -1.1095 -1.3684
 7793SOL    HW235016   4.573   0.056   8.540  1.1415 -2.8940  0.5118
 7794SOL     OW35017   2.333   2.352   5.928 -0.2151  0.7516 -0.6156
 7794SOL    HW135018   2.268   2.417   5.900  0.1233  1.9289  1.3065
 7794SOL    HW235019   2.329   2.307   5.844 -0.8309 -1.6472  0.7071
 7795SOL     OW35020   0.722   1.722   7.073  0.1541  0.2973  0.9040
 7795SOL    HW135021   0.747   1.659   7.006 -2.2861  0.6446 -0.3293
 7795SOL    HW235022   0.706   1.650   7.135  2.6158 -0.7662  0.2730
 7796SOL     OW35023   4.091   4.338   4.947 -0.6818  0.2429 -0.2484
 7796SOL    HW135024   4.085   4.245   4.928 -1.2108  0.0458  0.9086
 7796SOL    HW235025   4.102   4.354   5.040  0.5111 -2.0432 -0.0209
 7797SOL     OW35026   0.449   1.724  13.780 -0.1476 -0.4955 -0.0158
 7797SOL    HW135027   0.460   1.715  13.874  2.9807  0.8490 -0.2758
 7797SOL    HW235028   0.530   1.757  13.741 -1.5069  2.5355 -0.2888
 7798SOL     OW35029   3.726   4.211   6.167  0.1428 -0.9980 -0.6018
 7798SOL    HW135030   3.640   4.249   6.149  1.6118  2.0307 -1.3070
 7798SOL    HW235031   3.707   4.119   6.153  0.2792 -1.2385  0.7658
 7799SOL     OW35032   4.362   2.639   5.541 -0.1311  0.3234  0.4678
 7799SOL    HW135033   4.338   2.668   5.629 -0.8570 -0.0412  0.3851
 7799SOL    HW235034   4.430   2.574   5.560  0.0931  0.5167  0.3279
 7800SOL     OW35035   2.889   1.797   9.019 -0.2388  0.2287 -0.0605
 7800SOL    HW135036   2.801   1.769   9.043 -0.1621  0.8658  0.9520
 7800SOL    HW235037   2.881   1.891   9.002 -2.0235  0.7986  3.8442
 7801SOL     OW35038   2.581   4.357   3.351 -0.3175 -0.9678 -0.0948
 7801SOL    HW135039   2.515   4.366   3.282 -0.1543 -1.4292 -0.3085
 7801SOL    HW235040   2.640   4.424   3.318 -0.5156 -0.1565  1.2118
 7802SOL     OW35041   2.017   3.291   8.624 -0.2769  0.2061 -0.3038
 7802SOL    HW135042   1.932   3.322   8.591 -0.9294  1.5557  2.5997
 7802SOL    HW235043   2.024   3.214   8.567 -0.0848 -1.4775  1.9567
 7803SOL     OW35044   0.765   0.247  15.733 -0.3734  0.4560  0.7476
 7803SOL    HW135045   0.756   0.306  15.807  0.0087  1.3175  0.1091
 7803SOL    HW235046   0.845   0.197  15.749 -0.0976  0.3262 -0.9726
 7804SOL     OW35047   0.918   1.844   6.783 -0.1345 -0.5132  0.1267
 7804SOL    HW135048   0.827   1.861   6.759 -0.2945 -1.3175  0.1708
 7804SOL    HW235049   0.943   1.924   6.830 -0.8164  0.1391 -0.5994
 7805SOL     OW35050   3.902   2.463   4.341  0.1442  0.8407 -0.3501
 7805SOL    HW135051   3.808   2.477   4.339  0.2330  1.6151  0.6253
 7805SOL    HW235052   3.923   2.549   4.377  0.2895  1.7768 -2.6515
 7806SOL     OW35053   3.024   2.609   5.380  0.3926  0.2848  0.9374
 7806SOL    HW135054   2.938   2.639   5.351 -0.6747 -1.0891  2.7445
 7806SOL    HW235055   3.079   2.632   5.305  2.0882  0.3909  2.1975
 7807SOL     OW35056   0.886   0.895  14.376  0.1630 -0.1359 -0.4283
 7807SOL    HW135057   0.954   0.831  14.399 -0.8092 -0.8042  0.6313
 7807SOL    HW235058   0.929   0.980  14.387 -0.0952  0.2374 -2.3828
 7808SOL     OW35059   3.795   3.458   8.951  0.6191 -0.5740  0.0391
 7808SOL    HW135060   3.734   3.529   8.931  1.9177  0.6895  0.6071
 7808SOL    HW235061   3.825   3.471   9.041 -1.8296 -0.4951  0.8486
 7809SOL     OW35062   2.025   1.355   1.765  0.1598 -0.2719  0.1377
 7809SOL    HW135063   1.966   1.400   1.704 -0.6419 -0.4294  0.7981
 7809SOL    HW235064   2.018   1.267   1.729  1.2592 -0.4334  0.3289
 7810SOL     OW35065   0.005   4.620  15.412 -0.0164 -0.0241  0.1845
 7810SOL    HW135066   4.674   4.608  15.479 -0.9158 -1.4830 -1.0000
 7810SOL    HW235067   4.730   4.533  15.374  2.1433 -0.6293  0.9397
 7811SOL     OW35068   2.614   4.545  14.169 -0.2435 -0.7448  0.3257
 7811SOL    HW135069   2.709   4.537  14.176 -0.3627 -2.0559  0.5658
 7811SOL    HW235070   2.598   4.598  14.248 -0.2538  1.3559 -1.0827
 7812SOL     OW35071   4.424   1.648  16.962  0.1488 -0.3585 -0.0177
 7812SOL    HW135072   4.481   1.621  16.891  0.6552 -0.3824  0.3948
 7812SOL    HW235073   4.338   1.640  16.921  0.5211  0.0090 -0.8633
 7813SOL     OW35074   0.568   3.304   2.792 -0.0764  0.2247 -0.3952
 7813SOL    HW135075   0.644   3.348   2.756 -0.5607  0.5801 -0.9800
 7813SOL    HW235076   0.517   3.290   2.713  0.7326  0.5740 -0.9783
 7814SOL     OW35077   1.521   3.295  16.653 -0.3385  0.0061  0.2817
 7814SOL    HW135078   1.516   3.215  16.704 -2.2844 -0.5374 -0.7626
 7814SOL    HW235079   1.502   3.268  16.563 -0.0814 -0.0668  0.2509
 7815SOL     OW35080   1.366   2.251   5.636 -0.6673 -0.3300  0.0406
 7815SOL    HW135081   1.403   2.312   5.572 -1.4140 -0.2153 -0.2746
 7815SOL    HW235082   1.288   2.293   5.673 -0.0760  0.4257  0.4360
 7816SOL     OW35083   1.476   1.601   8.777 -0.4210 -0.2554  0.0411
 7816SOL    HW135084   1.437   1.536   8.719  1.8707 -2.1159  0.5651
 7816SOL    HW235085   1.547   1.545   8.808  0.5238  0.1292 -1.4304
 7817SOL     OW35086   1.844   0.261  13.400  0.9938 -0.9006 -0.1369
 7817SOL    HW135087   1.877   0.231  13.315 -0.9359 -3.3315 -0.0311
 7817SOL    HW235088   1.755   0.227  13.390  0.6043 -0.1454  0.7989
 7818SOL     OW35089   2.784   4.022   8.376  0.5289 -0.2337  0.3606
 7818SOL    HW135090   2.867   4.000   8.418 -0.3274 -1.9032  1.1415
 7818SOL    HW235091   2.759   4.106   8.416 -1.1499 -1.6863  2.3190
 7819SOL     OW35092   0.282   1.797   7.979 -0.5457  0.0808  0.0432
 7819SOL    HW135093   0.298   1.706   7.955 -2.1109 -0.7304  2.0874
 7819SOL    HW235094   0.276   1.827   7.889 -2.8000  0.4237  0.3145
 7820SOL     OW35095   3.005   2.011   2.238 -0.0245 -0.6078  0.5642
 7820SOL    HW135096   3.042   2.077   2.296  0.6799 -1.9257  1.6099
 7820SOL    HW235097   3.037   2.034   2.151  0.7042 -0.7599  0.7887
 7821SOL     OW35098   2.102   1.449   6.552 -0.6331 -0.3138 -0.0158
 7821SOL    HW135099   2.030   1.424   6.610 -0.7537 -1.0857 -0.4966
 7821SOL    HW235100   2.117   1.360   6.520 -0.6273  0.4462 -2.1123
 7822SOL     OW35101   1.210   4.468   0.280  0.1308  0.6379 -0.1569
 7822SOL    HW135102   1.288   4.498   0.234  0.1815  0.0934 -0.4250
 7822SOL    HW235103   1.155   4.539   0.247 -1.2645  0.4155  1.7006
 7823SOL     OW35104   2.214   3.168   6.252  0.2221  0.3004 -0.4565
 7823SOL    HW135105   2.216   3.074   6.273  0.1736  0.5918  0.8229
 7823SOL    HW235106   2.304   3.198   6.264  0.2277  0.2497 -0.3724
 7824SOL     OW35107   2.166   3.437  11.721 -0.1119  0.1021  0.0276
 7824SOL    HW135108   2.207   3.418  11.637 -0.5673 -0.6643 -0.0182
 7824SOL    HW235109   2.111   3.514  11.703 -1.4697 -0.8608  0.0457
 7825SOL     OW35110   4.412   1.614   8.073  0.4954  0.1254 -0.1291
 7825SOL    HW135111   4.454   1.601   7.988 -1.0493 -0.5927 -0.7960
 7825SOL    HW235112   4.352   1.686   8.053 -1.6716 -1.3564  1.0578
 7826SOL     OW35113   4.181   1.387   6.171  0.1700  0.0855 -0.1473
 7826SOL    HW135114   4.090   1.413   6.155 -0.6906 -3.4380 -1.0101
 7826SOL    HW235115   4.233   1.439   6.110 -0.8598 -0.0177 -1.1170
 7827SOL     OW35116   3.092   1.285   9.791  0.7759  0.5874  0.0054
 7827SOL    HW135117   3.115   1.211   9.847  1.3910  1.5856  1.0722
 7827SOL    HW235118   3.028   1.341   9.835  0.7079  2.0698 -1.9891
 7828SOL     OW35119   1.289   0.582   8.399 -0.5179 -0.0304 -0.4030
 7828SOL    HW135120   1.300   0.652   8.335 -0.7111  0.6194  0.2766
 7828SOL    HW235121   1.327   0.507   8.353 -0.2380  0.1423 -0.4514
 7829SOL     OW35122   1.280   4.016   5.006 -0.0339 -0.0368 -0.3853
 7829SOL    HW135123   1.331   4.088   5.042  1.6943 -0.4323 -1.9807
 7829SOL    HW235124   1.320   3.941   5.050  2.1646  1.2524 -0.1806
 7830SOL     OW35125   1.320   4.587  12.433  0.3949 -0.2730 -0.1768
 7830SOL    HW135126   1.261   4.541  12.374 -0.0481 -1.3992  1.1472
 7830SOL    HW235127   1.381   4.515  12.451 -0.0986 -0.8489 -0.8254
 7831SOL     OW35128   4.051   1.496   6.535 -0.5784  0.3591  0.4204
 7831SOL    HW135129   4.108   1.423   6.510 -0.6865 -0.5563  2.7986
 7831SOL    HW235130   3.964   1.456   6.531 -0.8962  1.0770  0.3213
 7832SOL     OW35131   4.324   1.778  17.540 -0.2089 -0.5979 -0.6586
 7832SOL    HW135132   4.325   1.697  17.592  2.1481  1.1431  1.9632
 7832SOL    HW235133   4.230   1.794  17.531 -0.2071  0.3375  0.9735
 7833SOL     OW35134   3.937   1.437   0.424 -0.2827  0.0965  0.6340
 7833SOL    HW135135   3.868   1.484   0.472 -1.4611  0.2174 -1.1928
 7833SOL    HW235136   3.954   1.378   0.497  1.6338  0.1334  0.2116
 7834SOL     OW35137   4.080   1.643   2.065  0.3577  0.3916 -0.1819
 7834SOL    HW135138   4.042   1.725   2.095 -0.4842 -0.9609  2.4102
 7834SOL    HW235139   4.157   1.639   2.121 -0.7823 -0.5525  1.3203
 7835SOL     OW35140   0.722   0.969   3.834 -0.1384 -0.3296  0.4572
 7835SOL    HW135141   0.787   0.933   3.773 -2.3503 -0.7709 -1.6159
 7835SOL    HW235142   0.647   0.937   3.785  0.6700  0.8653 -1.5620
 7836SOL     OW35143   3.473   1.062   9.589  0.6133  0.3534  0.1389
 7836SOL    HW135144   3.402   1.012   9.550 -1.4063  2.8798  0.5948
 7836SOL    HW235145   3.456   1.153   9.565  3.8218  0.6993 -0.8480
 7837SOL     OW35146   2.488   4.357   4.770  0.5756  0.2858 -0.0175
 7837SOL    HW135147   2.453   4.271   4.795  1.9904 -0.0068  0.9600
 7837SOL    HW235148   2.410   4.411   4.784  0.8658  0.7303 -0.0953
 7838SOL     OW35149   1.610   2.695   3.377  0.2804 -0.3851  0.2879
 7838SOL    HW135150   1.662   2.647   3.312 -0.1325 -1.0148  0.4202
 7838SOL    HW235151   1.609   2.634   3.451 -1.1922  1.1876  1.5633
 7839SOL     OW35152   0.879   2.799   0.563  0.2389 -0.4735 -0.1480
 7839SOL    HW135153   0.952   2.857   0.583  0.3464 -0.6162 -0.1223
 7839SOL    HW235154   0.875   2.811   0.468 -0.5717 -0.6347 -0.1316
 7840SOL     OW35155   2.479   1.820   5.568 -0.3229 -0.3380  0.4452
 7840SOL    HW135156   2.536   1.872   5.625 -1.1028  0.3861  0.5627
 7840SOL    HW235157   2.404   1.800   5.623 -1.0633  0.5579 -0.2278
 7841SOL     OW35158   1.108   4.392  15.386 -0.6620  0.3926 -0.7116
 7841SOL    HW135159   1.073   4.362  15.469 -2.1945 -0.6510 -1.7303
 7841SOL    HW235160   1.195   4.352  15.379 -0.7738  0.0437 -0.1163
 7842SOL     OW35161   4.638   1.943  16.265  0.3270 -0.2850  0.2790
 7842SOL    HW135162   4.590   2.017  16.227 -0.0339 -1.0877 -0.8567
 7842SOL    HW235163   4.722   1.986  16.258 -0.2590  0.8362  0.1753
 7843SOL     OW35164   0.662   2.358   4.137 -0.1122 -0.0151 -0.3562
 7843SOL    HW135165   0.687   2.270   4.110  0.1051  0.1757 -0.7864
 7843SOL    HW235166   0.566   2.360   4.132 -0.0907 -0.0314 -0.7722
 7844SOL     OW35167   1.602   1.941   6.840 -0.1678 -0.0834 -0.1007
 7844SOL    HW135168   1.641   1.932   6.753 -0.4402 -1.3320 -0.0846
 7844SOL    HW235169   1.678   1.973   6.888 -0.1783 -1.1188  0.6027
 7845SOL     OW35170   3.484   1.665  14.585 -0.8780 -1.2519  0.4030
 7845SOL    HW135171   3.576   1.689  14.599  0.2974 -5.0130 -0.7709
 7845SOL    HW235172   3.486   1.651  14.490 -2.3795 -0.2301  0.2329
 7846SOL     OW35173   0.441   3.942   1.682  0.2525  0.1923  0.0908
 7846SOL    HW135174   0.388   3.999   1.738  0.0481 -3.2115  3.3936
 7846SOL    HW235175   0.525   3.986   1.673 -0.2247  1.0987  0.1216
 7847SOL     OW35176   1.513   0.343   7.794 -0.0335 -0.1490  0.0091
 7847SOL    HW135177   1.486   0.427   7.829  2.2007 -0.0285  1.4709
 7847SOL    HW235178   1.427   0.308   7.774 -0.6639  2.3639 -1.5907
 7848SOL     OW35179   1.613   2.914  15.391 -0.0491 -0.0350  0.3567
 7848SOL    HW135180   1.673   2.844  15.418  0.0157  0.7702  2.2855
 7848SOL    HW235181   1.554   2.918  15.466 -0.3530 -3.0765  0.2888
 7849SOL     OW35182   2.709   4.665   7.896  0.0394  0.5156 -0.0640
 7849SOL    HW135183   2.734   4.619   7.976 -0.6029  0.1126 -0.0997
 7849SOL    HW235184   2.627   4.616   7.886 -0.2926  0.6520  2.0906
 7850SOL     OW35185   2.902   1.522   7.658  0.4389  0.2187  0.4119
 7850SOL    HW135186   2.980   1.542   7.606  0.8680 -0.5279  0.7565
 7850SOL    HW235187   2.877   1.445   7.606  0.1646 -0.4543  1.5432
 7851SOL     OW35188   0.147   0.491   8.631 -0.3355  0.1497 -0.3641
 7851SOL    HW135189   0.136   0.399   8.655  1.8357  0.1554  0.6512
 7851SOL    HW235190   0.241   0.488   8.613  0.2550  0.6082  2.6145
 7852SOL     OW35191   3.985   3.150   5.428 -0.0607  0.8716 -0.4938
 7852SOL    HW135192   4.029   3.066   5.428 -1.7213  0.0015  0.1671
 7852SOL    HW235193   3.946   3.155   5.516 -0.0872 -1.6892 -0.3771
 7853SOL     OW35194   3.097   1.054   3.070 -0.0244 -0.6837 -0.5272
 7853SOL    HW135195   3.047   1.086   2.995  0.3491 -0.0268 -0.4895
 7853SOL    HW235196   3.123   1.132   3.119 -0.4340 -1.2310  0.5614
 7854SOL     OW35197   1.376   1.356  14.711 -0.0431 -0.6743 -0.4583
 7854SOL    HW135198   1.471   1.364  14.706 -0.0973  0.8203  0.8991
 7854SOL    HW235199   1.339   1.444  14.704 -0.9552 -1.1067 -1.1261
 7855SOL     OW35200   3.723   1.039   2.653  0.0326  0.3572 -0.1569
 7855SOL    HW135201   3.754   0.964   2.602  1.5305  1.4281 -0.8161
 7855SOL    HW235202   3.730   1.117   2.597 -1.4337  1.2373  0.8816
 7856SOL     OW35203   2.402   3.570   1.444 -0.0194  0.1691 -0.1632
 7856SOL    HW135204   2.379   3.656   1.480 -0.9382 -0.1430 -0.0246
 7856SOL    HW235205   2.323   3.518   1.454 -1.4331  2.0719 -1.4081
 7857SOL     OW35206   2.611   3.002   8.239 -0.1847  0.2742 -0.0562
 7857SOL    HW135207   2.577   2.912   8.236 -0.7663  0.4970 -0.0065
 7857SOL    HW235208   2.617   3.027   8.147 -1.7621  1.1881  0.0996
 7858SOL     OW35209   0.186   1.818   9.440 -0.4358 -0.1348 -0.2806
 7858SOL    HW135210   0.146   1.896   9.403 -2.9758 -1.2731  0.0279
 7858SOL    HW235211   0.200   1.760   9.365 -3.4723 -1.4983  0.2029
 7859SOL     OW35212   3.646   0.578   3.000  0.0624 -0.2046  0.2835
 7859SOL    HW135213   3.723   0.605   3.051  0.6175 -0.5043 -0.3989
 7859SOL    HW235214   3.621   0.662   2.962  0.2066  0.7004  2.1885
 7860SOL     OW35215   1.307   4.357  16.302  0.3635  0.1950 -0.0656
 7860SOL    HW135216   1.313   4.265  16.275 -0.6204 -0.2082  1.1049
 7860SOL    HW235217   1.252   4.394  16.232  0.9179  1.7022  0.3050
 7861SOL     OW35218   1.817   0.322   1.955 -0.2752  0.1498  0.5205
 7861SOL    HW135219   1.871   0.301   1.879  0.8233  1.1805  1.0192
 7861SOL    HW235220   1.836   0.416   1.960  0.2761 -0.0474  2.1528
 7862SOL     OW35221   2.949   3.110   2.348  0.0965 -0.2404 -0.2228
 7862SOL    HW135222   2.967   3.146   2.435 -1.8902 -1.2209  0.5805
 7862SOL    HW235223   3.004   3.169   2.296  1.3567 -0.1320  1.2254
 7863SOL     OW35224   3.852   2.061   2.462 -0.1914 -0.9118  0.2326
 7863SOL    HW135225   3.936   2.025   2.488  0.7086  0.0038 -1.3570
 7863SOL    HW235226   3.813   2.081   2.547 -0.5679 -2.8994  0.5339
 7864SOL     OW35227   2.059   3.618  14.713  0.3945  0.1928  0.2642
 7864SOL    HW135228   2.110   3.563  14.654  1.8134  0.7058  1.0220
 7864SOL    HW235229   2.096   3.592  14.797 -0.2851 -0.2889  0.4187
 7865SOL     OW35230   0.321   1.021   1.692 -0.1088 -0.7641 -0.2466
 7865SOL    HW135231   0.241   1.071   1.711 -1.4351 -2.5987 -0.8953
 7865SOL    HW235232   0.374   1.100   1.689  0.2443 -0.9621  0.7349
 7866SOL     OW35233   0.485   1.202   8.981  0.0660 -0.5406 -0.0755
 7866SOL    HW135234   0.576   1.172   8.970 -0.2580 -1.1693 -1.0689
 7866SOL    HW235235   0.436   1.121   8.966 -0.6535 -0.3984  1.4816
 7867SOL     OW35236   1.729   2.462  11.206 -0.2649  0.5682  0.0481
 7867SOL    HW135237   1.786   2.410  11.262  1.0113  2.0214  0.0824
 7867SOL    HW235238   1.748   2.553  11.227  0.1086  0.5805 -0.3264
 7868SOL     OW35239   2.487   2.114   7.166  0.3910  0.3853  0.2753
 7868SOL    HW135240   2.435   2.172   7.221  1.7273  1.2151  0.6588
 7868SOL    HW235241   2.527   2.181   7.111 -3.3017  1.6287 -0.9600
 7869SOL     OW35242   0.033   2.286   7.471  0.4129 -0.3222 -0.3469
 7869SOL    HW135243   4.710   2.290   7.545  1.7467 -1.0995  0.7527
 7869SOL    HW235244   0.061   2.377   7.458 -1.9085  0.5229  0.6690
 7870SOL     OW35245   0.218   4.198   6.002  0.0686  0.0905  0.1065
 7870SOL    HW135246   0.149   4.136   5.980  0.0613  0.7517 -1.7409
 7870SOL    HW235247   0.242   4.142   6.076  2.8402  0.1883 -0.7485
 7871SOL     OW35248   2.000   0.049  16.318 -0.6959 -0.3825 -0.0256
 7871SOL    HW135249   1.962   4.699  16.308  0.6927 -0.9604 -0.2325
 7871SOL    HW235250   2.011   0.043  16.413 -0.4378 -1.0805 -0.0996
 7872SOL     OW35251   1.827   1.110   1.992 -0.1244  0.7005  0.7379
 7872SOL    HW135252   1.816   1.049   1.919  2.6700 -0.0743  0.9592
 7872SOL    HW235253   1.921   1.116   2.006 -0.2250  1.4761  1.0960
 7873SOL     OW35254   3.320   1.069  16.137  0.0566  0.5642  0.0578
 7873SOL    HW135255   3.288   1.077  16.047 -2.3918  0.3709  0.9188
 7873SOL    HW235256   3.392   1.008  16.124 -0.8979 -0.6460  0.4113
 7874SOL     OW35257   2.865   2.501   6.517 -0.2690 -0.3079 -0.3219
 7874SOL    HW135258   2.872   2.408   6.542  0.3764 -0.3566 -0.7060
 7874SOL    HW235259   2.770   2.506   6.500  0.0753  1.5697 -1.6836
 7875SOL     OW35260   3.031   0.214   7.613  0.6209  0.1352 -0.1503
 7875SOL    HW135261   3.002   0.124   7.626  2.4970 -0.6526 -1.4258
 7875SOL    HW235262   2.950   0.264   7.626  0.9778  0.7590 -0.3431
 7876SOL     OW35263   1.838   0.202  15.241  0.4665  0.3891  0.1300
 7876SOL    HW135264   1.846   0.165  15.153 -1.6975 -0.8350  0.4650
 7876SOL    HW235265   1.750   0.237  15.234  0.0641 -0.2134  2.3501
 7877SOL     OW35266   0.553   0.570   4.551  0.1021  0.2112  0.3263
 7877SOL    HW135267   0.638   0.612   4.538 -1.2829  2.4976 -1.3463
 7877SOL    HW235268   0.557   0.548   4.645  2.0630  1.5313  0.5403
 7878SOL     OW35269   3.363   4.311  12.032 -0.7327  0.4544 -1.0857
 7878SOL    HW135270   3.279   4.265  12.022 -1.4699  2.4247 -4.0160
 7878SOL    HW235271   3.364   4.333  12.125  0.5038 -1.7795 -0.5689
 7879SOL     OW35272   3.803   0.364   4.271  0.2605  0.1677  0.2431
 7879SOL    HW135273   3.839   0.297   4.329 -1.1033 -2.5661 -2.0702
 7879SOL    HW235274   3.785   0.314   4.192  2.9940 -0.6322  0.1307
 7880SOL     OW35275   4.536   3.939   5.510 -0.4875  0.0604 -0.3596
 7880SOL    HW135276   4.491   3.859   5.540 -1.4840  0.5491 -0.5529
 7880SOL    HW235277   4.513   3.920   5.419 -1.5833  1.1017 -0.2892
 7881SOL     OW35278   2.881   4.254   8.909 -0.1268  0.5952  0.3354
 7881SOL    HW135279   2.873   4.345   8.881  1.4843  0.2779 -1.2009
 7881SOL    HW235280   2.788   4.232   8.917  0.0951  0.1057  1.5666
 7882SOL     OW35281   2.060   3.006   5.042 -0.6933 -0.0550 -0.0504
 7882SOL    HW135282   2.047   3.082   4.986  0.3422 -0.8962 -1.4509
 7882SOL    HW235283   1.975   3.003   5.086 -0.1205 -0.4568  1.0264
 7883SOL     OW35284   0.016   0.067   4.158 -0.4246 -0.2795  0.3537
 7883SOL    HW135285   0.006   4.722   4.208  0.2819  0.1516  1.1871
 7883SOL    HW235286   4.719   0.038   4.073 -2.5995 -0.1341  1.1634
 7884SOL     OW35287   0.676   4.345   9.764 -0.3895  0.3180  0.0013
 7884SOL    HW135288   0.639   4.432   9.755  1.2130  0.9443 -0.6236
 7884SOL    HW235289   0.644   4.315   9.849 -1.7634 -2.0971 -1.3460
 7885SOL     OW35290   2.739   2.945   3.794  0.0039 -0.1968 -0.2439
 7885SOL    HW135291   2.787   2.901   3.864  1.5863  2.8444  0.5614
 7885SOL    HW235292   2.812   2.991   3.752  1.8064 -1.1912  1.7894
 7886SOL     OW35293   1.793   3.569   2.867  0.1593 -1.0364  0.3406
 7886SOL    HW135294   1.770   3.661   2.853  1.7972 -0.7858 -0.6994
 7886SOL    HW235295   1.884   3.583   2.895 -0.0702 -0.7486  0.9425
 7887SOL     OW35296   1.155   3.291  14.991 -0.0876 -0.1803 -0.6702
 7887SOL    HW135297   1.141   3.352  14.918 -1.9081 -0.5506 -0.6271
 7887SOL    HW235298   1.244   3.317  15.015  0.7542 -3.1149 -0.6633
 7888SOL     OW35299   2.765   4.638   5.391  0.0555  0.3307  0.1664
 7888SOL    HW135300   2.725   4.593   5.465  1.4879 -0.1514  0.6418
 7888SOL    HW235301   2.779   4.571   5.324  0.5060  0.7658 -0.1710
 7889SOL     OW35302   1.084   2.277   5.516  0.2344  0.0809 -0.2444
 7889SOL    HW135303   1.158   2.295   5.457  0.4134 -0.0637 -0.0659
 7889SOL    HW235304   1.117   2.326   5.591  0.8778  0.4304 -0.7508
 7890SOL     OW35305   3.296   1.847   7.421  0.0624 -0.0046 -0.4162
 7890SOL    HW135306   3.320   1.855   7.513  2.1108  0.4182 -0.9690
 7890SOL    HW235307   3.221   1.906   7.427  0.1670  0.3554 -2.6153
 7891SOL     OW35308   3.507   2.682   7.935  0.0189 -0.3823  0.0634
 7891SOL    HW135309   3.580   2.654   7.879 -0.7598  0.7849 -1.5504
 7891SOL    HW235310   3.429   2.651   7.888  0.9858 -0.9556 -1.1623
 7892SOL     OW35311   3.116   2.138   5.652 -0.5542  0.6181  0.0795
 7892SOL    HW135312   3.110   2.172   5.742  2.3521  2.5197 -0.4644
 7892SOL    HW235313   3.072   2.213   5.612 -1.2519  0.3854  0.3954
 7893SOL     OW35314   3.740   2.260  12.993  0.8846  0.2137 -0.1073
 7893SOL    HW135315   3.832   2.238  12.976  0.7560 -1.0558  0.8258
 7893SOL    HW235316   3.746   2.299  13.080 -3.4552 -0.8770  0.6691
 7894SOL     OW35317   2.231   1.590   5.629 -0.5433  0.3265 -0.0402
 7894SOL    HW135318   2.198   1.649   5.561  0.8380  0.6160 -0.4549
 7894SOL    HW235319   2.281   1.521   5.586 -0.6213 -1.1449  2.2461
 7895SOL     OW35320   0.497   1.312   4.251 -0.4875  0.0683  0.6008
 7895SOL    HW135321   0.491   1.407   4.240  1.8104 -0.1276 -2.2035
 7895SOL    HW235322   0.416   1.293   4.297  0.0293  0.2233  1.5724
 7896SOL     OW35323   1.436   2.813  13.482  0.2950 -0.2215  0.0392
 7896SOL    HW135324   1.416   2.734  13.532  0.5397  0.0196  0.5208
 7896SOL    HW235325   1.461   2.876  13.550 -0.2975  0.6492 -0.5517
 7897SOL     OW35326   0.800   1.973   8.403  0.1920  0.1240 -0.0887
 7897SOL    HW135327   0.763   1.884   8.401  0.4614  0.0744 -2.3052
 7897SOL    HW235328   0.858   1.969   8.327  0.0228  1.4539 -0.2845
 7898SOL     OW35329   1.447   3.359   9.171 -0.3149 -0.5123  0.4949
 7898SOL    HW135330   1.478   3.316   9.250  0.3599 -0.1800  0.4081
 7898SOL    HW235331   1.406   3.297   9.111  0.2544 -2.4061  2.0693
 7899SOL     OW35332   4.185   2.441   8.321  0.0093  0.4013 -0.0229
 7899SOL    HW135333   4.113   2.504   8.319  0.1533  0.5998  1.2490
 7899SOL    HW235334   4.202   2.442   8.415 -1.1032  0.8715  0.1812
 7900SOL     OW35335   0.337   1.000   7.614 -0.1160 -0.2947  0.5773
 7900SOL    HW135336   0.385   1.001   7.697 -1.0490  0.0286  1.1113
 7900SOL    HW235337   0.393   1.052   7.556 -0.0979 -0.4493  0.4595
 7901SOL     OW35338   4.344   3.068   5.526  1.0477 -0.3430  0.8572
 7901SOL    HW135339   4.261   3.038   5.562  0.5921 -1.9884 -1.5551
 7901SOL    HW235340   4.381   3.123   5.595  1.7153  1.1401 -0.6547
 7902SOL     OW35341   1.889   3.932  12.345  0.5134  0.1152 -0.4007
 7902SOL    HW135342   1.890   3.993  12.271 -0.5863  0.7379  0.1030
 7902SOL    HW235343   1.972   3.888  12.328 -2.0517 -3.5387 -3.4715
 7903SOL     OW35344   1.948   0.314   6.903 -0.2218 -0.4050  0.2445
 7903SOL    HW135345   1.856   0.325   6.927  0.2048  1.4275  1.0784
 7903SOL    HW235346   1.952   0.223   6.875 -0.3230 -0.1185 -0.7209
 7904SOL     OW35347   3.605   3.488   5.893  0.3799  0.1895  0.0781
 7904SOL    HW135348   3.532   3.426   5.895 -1.3213  2.2438  1.4478
 7904SOL    HW235349   3.580   3.560   5.951 -2.8444  0.0282 -1.1268
 7905SOL     OW35350   4.141   3.786   8.087 -0.0184  0.4292 -0.3436
 7905SOL    HW135351   4.050   3.759   8.097 -0.2987  1.1429 -0.9144
 7905SOL    HW235352   4.131   3.881   8.096  2.5387  0.7063 -0.3187
 7906SOL     OW35353   2.662   0.882   3.003 -0.1473 -0.0194 -0.4151
 7906SOL    HW135354   2.697   0.801   3.041  0.2178 -0.5390 -1.8640
 7906SOL    HW235355   2.583   0.894   3.056 -1.1815 -1.0619 -1.7365
 7907SOL     OW35356   3.399   2.239   8.940 -0.8613 -0.8231 -0.2288
 7907SOL    HW135357   3.390   2.194   8.856  2.4251 -0.7900 -0.5887
 7907SOL    HW235358   3.316   2.213   8.979 -1.0761 -1.1136 -0.8918
 7908SOL     OW35359   2.744   3.854  17.312  0.2532 -0.5857  0.0532
 7908SOL    HW135360   2.793   3.911  17.253  0.3696 -1.3273 -0.5682
 7908SOL    HW235361   2.792   3.874  17.392  0.6272  0.8740 -0.5335
 7909SOL     OW35362   2.126   3.801  12.287  0.3987  0.4687 -0.0580
 7909SOL    HW135363   2.147   3.864  12.219 -0.0242  1.1643  0.4596
 7909SOL    HW235364   2.194   3.734  12.282 -0.6483 -0.7042  1.0750
 7910SOL     OW35365   2.460   1.196  12.278  0.3112 -0.1829  0.7277
 7910SOL    HW135366   2.521   1.262  12.309 -2.7556  3.6276 -1.2993
 7910SOL    HW235367   2.395   1.202  12.349  1.6346  0.5215  1.8619
 7911SOL     OW35368   2.917   0.721   6.425  0.6049  0.0234  0.0764
 7911SOL    HW135369   2.904   0.696   6.517  0.1163 -0.5597 -0.1535
 7911SOL    HW235370   2.905   0.632   6.392 -0.4318  0.4778 -0.7770
 7912SOL     OW35371   2.424   2.983   7.819  0.1003 -0.3546 -0.0081
 7912SOL    HW135372   2.467   3.017   7.898  0.1642  0.6407 -0.4639
 7912SOL    HW235373   2.468   3.040   7.756 -0.5881  2.4767  2.0548
 7913SOL     OW35374   3.166   4.236   3.907  0.8293  0.2407  0.5427
 7913SOL    HW135375   3.079   4.257   3.942  1.2105  0.4837  1.3620
 7913SOL    HW235376   3.197   4.327   3.917  0.3591  0.3400  1.1333
 7914SOL     OW35377   2.536   2.422   8.621  0.0057 -0.1129 -0.5729
 7914SOL    HW135378   2.473   2.379   8.563  1.4240 -1.1720 -1.3055
 7914SOL    HW235379   2.493   2.498   8.661  2.1320  1.2351 -0.8674
 7915SOL     OW35380   2.365   3.887   3.005 -0.2676  0.0230  0.0351
 7915SOL    HW135381   2.411   3.831   3.068  2.1495  2.4025  0.3834
 7915SOL    HW235382   2.314   3.826   2.950  0.5201 -1.7218  1.2360
 7916SOL     OW35383   0.886   4.683   5.491 -0.2122 -0.1416  0.1030
 7916SOL    HW135384   0.887   4.649   5.580 -2.6761  0.7923  0.4931
 7916SOL    HW235385   0.980   4.699   5.479  0.0331 -1.9775 -0.5427
 7917SOL     OW35386   4.049   3.459  17.002  0.3039 -0.5098 -0.3582
 7917SOL    HW135387   4.044   3.532  17.064  2.8848  1.1103 -2.0783
 7917SOL    HW235388   4.025   3.506  16.922  1.3700 -0.3386 -0.5727
 7918SOL     OW35389   0.879   3.397   5.914 -0.0995  0.7741 -0.1719
 7918SOL    HW135390   0.958   3.448   5.896  0.7261  0.2843  2.0978
 7918SOL    HW235391   0.837   3.401   5.828 -0.4811 -0.0108 -0.0224
 7919SOL     OW35392   3.838   0.847   2.518  0.4446 -0.0063  0.1741
 7919SOL    HW135393   3.891   0.775   2.553 -0.4899 -1.0711 -0.5962
 7919SOL    HW235394   3.905   0.857   2.450  0.0806  0.4875 -0.1107
 7920SOL     OW35395   3.905   1.850  17.726  0.3848  0.3519 -0.5208
 7920SOL    HW135396   3.930   1.943  17.727 -3.3968  1.3950 -1.3319
 7920SOL    HW235397   3.837   1.847   0.049  0.3539  0.6956 -0.5342
 7921SOL     OW35398   4.016   1.464   3.623 -0.1164 -0.4108  0.3822
 7921SOL    HW135399   4.082   1.409   3.665  0.1920  0.6424  1.2522
 7921SOL    HW235400   4.008   1.534   3.687 -0.8433 -0.0353 -0.1084
 7922SOL     OW35401   0.248   2.485   2.667 -0.7377  0.1044 -0.4050
 7922SOL    HW135402   0.342   2.476   2.685 -1.1781  2.4428  3.1748
 7922SOL    HW235403   0.215   2.546   2.734  1.5863  1.7093 -0.7243
 7923SOL     OW35404   0.064   1.493   1.965  0.2732 -0.6428  0.6892
 7923SOL    HW135405   0.156   1.515   1.978  0.4403 -1.4078  0.7956
 7923SOL    HW235406   0.048   1.455   1.879 -0.6524 -0.2034  0.6663
 7924SOL     OW35407   0.920   0.279   3.711 -0.0578 -0.2670  0.2301
 7924SOL    HW135408   0.962   0.361   3.733 -0.4131 -0.3303  1.1266
 7924SOL    HW235409   0.894   0.243   3.796 -1.8136 -0.0549 -0.2239
 7925SOL     OW35410   1.990   2.056   1.470 -0.0999  0.0213  0.6450
 7925SOL    HW135411   2.081   2.082   1.457 -0.8681  1.8563 -1.0818
 7925SOL    HW235412   1.981   1.961   1.468 -1.5147  0.1649  0.1607
 7926SOL     OW35413   0.765   1.775   7.883  0.5003  0.1269 -0.2774
 7926SOL    HW135414   0.846   1.742   7.843 -0.6500  0.5301 -2.8686
 7926SOL    HW235415   0.789   1.862   7.915 -2.4171  0.4522  0.9700
 7927SOL     OW35416   0.368   4.395   6.725  0.5954  0.5331 -0.4447
 7927SOL    HW135417   0.326   4.471   6.685  1.9425  0.9540 -1.0768
 7927SOL    HW235418   0.296   4.333   6.720  1.2460 -0.4393  2.0684
 7928SOL     OW35419   1.272   0.255   7.014 -0.4189 -0.6598 -0.0006
 7928SOL    HW135420   1.224   0.173   7.024 -2.0643  0.2747 -0.3955
 7928SOL    HW235421   1.350   0.226   6.966 -0.7725 -1.6012 -0.0049
 7929SOL     OW35422   4.454   0.619   2.035  0.0704  0.3703 -0.3961
 7929SOL    HW135423   4.547   0.634   2.018  0.4895 -2.1010 -0.2113
 7929SOL    HW235424   4.415   0.627   1.948 -2.6054 -1.1454  0.6904
 7930SOL     OW35425   4.576   4.373  15.482 -0.3094  0.0495 -0.6241
 7930SOL    HW135426   4.549   4.308  15.547 -2.1762  0.7208 -0.7064
 7930SOL    HW235427   4.532   4.333  15.407 -1.3738 -0.6230  0.3651
 7931SOL     OW35428   4.554   2.554  16.565 -0.5995  0.5673  0.0862
 7931SOL    HW135429   4.576   2.619  16.498  1.3609 -1.6951 -1.4580
 7931SOL    HW235430   4.603   2.478  16.536 -1.2737 -1.6333  4.6693
 7932SOL     OW35431   3.507   4.435   3.419 -0.4050 -0.0063 -0.5021
 7932SOL    HW135432   3.577   4.370   3.426 -0.4801  0.0778  0.9477
 7932SOL    HW235433   3.430   4.379   3.426  0.7858 -1.4160  1.2720
 7933SOL     OW35434   0.154   0.725  13.862  0.5994 -0.1289 -0.6923
 7933SOL    HW135435   0.220   0.732  13.932 -1.0921  2.1751  0.6895
 7933SOL    HW235436   0.089   0.671  13.907  1.1132 -0.1428  0.0345
 7934SOL     OW35437   0.991   1.508   3.478  0.0564  0.1800  0.2520
 7934SOL    HW135438   0.916   1.465   3.438 -0.5192  2.1299 -0.7931
 7934SOL    HW235439   1.030   1.562   3.409  0.3280 -0.2487  0.0685
 7935SOL     OW35440   4.102   2.076   3.343 -0.0218  0.3186  0.0622
 7935SOL    HW135441   4.045   2.085   3.267  0.3270 -2.1622 -0.4890
 7935SOL    HW235442   4.191   2.096   3.313 -0.4659 -0.8241 -1.9642
 7936SOL     OW35443   1.465   1.995   4.280  0.1349  0.2969  0.2789
 7936SOL    HW135444   1.511   1.966   4.359 -0.0853 -0.1254  0.2501
 7936SOL    HW235445   1.398   2.058   4.307 -0.5886  0.0205 -0.8615
 7937SOL     OW35446   2.199   4.535   7.281  0.2743  0.0972 -0.4781
 7937SOL    HW135447   2.197   4.569   7.370 -0.7822 -0.4731 -0.2772
 7937SOL    HW235448   2.128   4.472   7.285 -0.5622  1.0503 -0.0852
 7938SOL     OW35449   3.766   3.481  16.609 -0.2277  0.6885 -0.0250
 7938SOL    HW135450   3.695   3.417  16.606  2.6627 -2.5050 -0.4963
 7938SOL    HW235451   3.835   3.421  16.638 -0.9517 -0.4628 -0.7097
 7939SOL     OW35452   1.381   2.131   8.382 -0.0005  0.1018 -0.2065
 7939SOL    HW135453   1.326   2.055   8.362  0.1532 -0.1584  0.3645
 7939SOL    HW235454   1.368   2.138   8.477  1.1200 -0.7864  0.0034
 7940SOL     OW35455   0.849   0.815   4.080  0.1535  0.2554 -0.3838
 7940SOL    HW135456   0.761   0.851   4.066 -0.1112 -0.4573 -0.6075
 7940SOL    HW235457   0.903   0.894   4.081 -1.4203  1.3178  0.5954
 7941SOL     OW35458   1.651   0.224   5.334  0.1076  0.0921  0.1941
 7941SOL    HW135459   1.651   0.157   5.265  2.0914 -0.1514  0.4208
 7941SOL    HW235460   1.594   0.290   5.295  0.9205  0.9560  0.4749
 7942SOL     OW35461   3.742   3.979   8.479  0.3304 -0.5016 -0.2304
 7942SOL    HW135462   3.782   3.910   8.531  1.4598  1.2580  1.2078
 7942SOL    HW235463   3.651   3.979   8.509 -0.1610 -4.1158 -1.7328
 7943SOL     OW35464   3.662   4.268  12.104 -0.4538 -0.4727  0.3428
 7943SOL    HW135465   3.676   4.216  12.025  0.6708 -1.5490  1.2565
 7943SOL    HW235466   3.570   4.245  12.119 -0.8881  1.0792  0.1123
 7944SOL     OW35467   4.215   2.109   2.261  0.3275 -0.4292  0.2931
 7944SOL    HW135468   4.224   2.204   2.261 -0.2572 -0.3869 -2.4531
 7944SOL    HW235469   4.305   2.075   2.258  0.3159 -0.3692 -0.7209
 7945SOL     OW35470   2.879   3.197   9.344  0.3307 -0.1233 -0.1424
 7945SOL    HW135471   2.791   3.181   9.376  0.0907 -0.0388 -0.7582
 7945SOL    HW235472   2.855   3.210   9.252 -1.7362 -1.3997  0.2314
 7946SOL     OW35473   4.700   0.145  12.517 -0.1130 -0.5175  0.2445
 7946SOL    HW135474   4.642   0.213  12.483  2.7392  1.4005 -0.8191
 7946SOL    HW235475   4.655   0.067  12.486 -0.7880  0.9191 -2.4587
 7947SOL     OW35476   4.244   0.756   6.552  0.0758  0.1156  0.4187
 7947SOL    HW135477   4.151   0.773   6.565  0.1930  1.4550 -0.4313
 7947SOL    HW235478   4.267   0.730   6.641  3.8971  0.5710 -0.4146
 7948SOL     OW35479   0.987   0.204  16.456  0.7225  0.4309 -0.0224
 7948SOL    HW135480   1.056   0.271  16.455 -0.0584  1.2637  1.1690
 7948SOL    HW235481   1.019   0.158  16.534 -0.4156 -0.8684 -0.3269
 7949SOL     OW35482   3.637   4.150   3.636 -0.0827 -0.3928 -0.2068
 7949SOL    HW135483   3.660   4.188   3.551  1.3981  0.4877  0.5885
 7949SOL    HW235484   3.611   4.230   3.682 -2.3392 -1.5806  0.5872
 7950SOL     OW35485   1.910   0.329  11.986  0.2065  0.4172  0.0497
 7950SOL    HW135486   1.885   0.262  12.050  2.5501  0.9960  1.5757
 7950SOL    HW235487   2.005   0.315  11.986  0.1108 -0.2536 -1.7736
 7951SOL     OW35488   3.462   0.737   4.395  0.2129 -0.5253  0.1463
 7951SOL    HW135489   3.443   0.799   4.324 -0.0839 -2.4721 -1.4857
 7951SOL    HW235490   3.553   0.712   4.380  0.4424  1.0833 -1.1950
 7952SOL     OW35491   1.392   1.545   6.368 -0.2593  0.0951 -0.5622
 7952SOL    HW135492   1.449   1.478   6.405 -0.4808 -0.4258 -1.1723
 7952SOL    HW235493   1.447   1.619   6.393 -1.6180  1.1474 -0.7027
 7953SOL     OW35494   1.196   3.125   8.308  0.1717 -0.3309 -0.2133
 7953SOL    HW135495   1.256   3.120   8.233 -0.2955 -0.5507 -0.5770
 7953SOL    HW235496   1.156   3.039   8.295 -0.8884  0.5661 -3.0645
 7954SOL     OW35497   1.414   0.404   3.902 -0.2676 -0.9095 -0.1247
 7954SOL    HW135498   1.501   0.402   3.942 -1.1143  2.0512  1.8706
 7954SOL    HW235499   1.382   0.493   3.911  2.9888  0.3015 -0.4123
 7955SOL     OW35500   1.165   3.725  15.581 -0.3111  0.3562 -0.2933
 7955SOL    HW135501   1.090   3.666  15.589  0.4878 -0.3563  1.7501
 7955SOL    HW235502   1.231   3.674  15.535 -0.7792 -2.1259  1.7681
 7956SOL     OW35503   1.651   0.389   6.282 -0.2582  0.3473  0.6294
 7956SOL    HW135504   1.712   0.397   6.355 -1.3732 -1.9907  1.8455
 7956SOL    HW235505   1.711   0.407   6.210  0.9806  0.3348  1.6550
 7957SOL     OW35506   2.648   2.029   3.261 -0.2609 -0.4658  0.3126
 7957SOL    HW135507   2.628   2.007   3.170  0.1735 -1.6710  0.5076
 7957SOL    HW235508   2.640   1.944   3.305 -0.6000  0.1672  1.4712
 7958SOL     OW35509   2.620   0.689  10.676 -0.5110  0.0085 -0.1273
 7958SOL    HW135510   2.574   0.755  10.727  0.1509  0.5721 -0.2520
 7958SOL    HW235511   2.594   0.724  10.591 -0.2410 -1.9263 -1.0132
 7959SOL     OW35512   1.877   2.095   2.824 -0.2004  1.0524  0.4719
 7959SOL    HW135513   1.862   2.037   2.899 -0.1543  1.3030  0.6760
 7959SOL    HW235514   1.839   2.179   2.852 -0.1275  0.4722  2.3340
 7960SOL     OW35515   0.094   3.041   1.933 -0.2331 -0.2610 -0.3955
 7960SOL    HW135516   0.149   3.120   1.928 -0.2204 -0.1018  2.0036
 7960SOL    HW235517   0.023   3.094   1.969 -0.4661 -0.5857 -0.3795
 7961SOL     OW35518   1.922   0.895   4.425  0.0005  0.0611  0.3800
 7961SOL    HW135519   1.827   0.895   4.414  0.2189 -0.0768 -1.4757
 7961SOL    HW235520   1.932   0.805   4.455  0.1071 -0.6902 -1.9691
 7962SOL     OW35521   3.296   1.133   1.771  0.1341  0.3297 -0.0138
 7962SOL    HW135522   3.295   1.098   1.682 -2.4036 -1.6339  0.7935
 7962SOL    HW235523   3.350   1.065   1.812 -1.8887 -0.5347  1.2032
 7963SOL     OW35524   2.739   0.612   2.991  0.1200 -0.4611 -0.3069
 7963SOL    HW135525   2.743   0.517   3.004 -0.4656 -0.5245 -0.6151
 7963SOL    HW235526   2.741   0.606   2.896 -3.2785 -0.2119 -0.3917
 7964SOL     OW35527   2.564   1.701   8.399 -0.1931  0.1139  0.1948
 7964SOL    HW135528   2.560   1.684   8.304 -0.2214  0.7640  0.0795
 7964SOL    HW235529   2.475   1.735   8.411 -0.1120  0.8137 -1.0759
 7965SOL     OW35530   2.933   3.959   2.555  0.0753  0.4343  0.0137
 7965SOL    HW135531   2.942   4.054   2.561 -0.4807  0.5078 -0.3931
 7965SOL    HW235532   2.899   3.948   2.466  0.1439 -0.1032  0.0551
 7966SOL     OW35533   0.885   4.499  14.679  0.0614  0.1088  0.3966
 7966SOL    HW135534   0.831   4.536  14.749 -0.3561  2.1233 -0.9984
 7966SOL    HW235535   0.904   4.412  14.715  0.3607  0.0022 -0.0205
 7967SOL     OW35536   1.493   3.511   5.939 -0.0260  0.1009 -0.2719
 7967SOL    HW135537   1.409   3.498   5.984  1.5202 -3.1016  1.7245
 7967SOL    HW235538   1.513   3.418   5.926  1.0174  0.3603 -0.5024
 7968SOL     OW35539   0.257   3.975  13.023 -0.1451 -0.2177 -0.1141
 7968SOL    HW135540   0.178   3.920  13.025 -0.0201 -0.3919  0.0342
 7968SOL    HW235541   0.244   4.010  12.935 -1.2646 -0.2038  0.0452
 7969SOL     OW35542   1.888   1.509   3.344  0.5434  0.0211 -0.5026
 7969SOL    HW135543   1.833   1.448   3.296 -1.9020  1.8060  0.0176
 7969SOL    HW235544   1.916   1.568   3.274  2.9874 -0.5918 -0.0347
 7970SOL     OW35545   2.925   2.946   6.170  0.5519 -0.1418 -0.0066
 7970SOL    HW135546   2.916   2.871   6.229 -1.2137  0.0564 -0.0167
 7970SOL    HW235547   2.886   2.908   6.091  0.9031 -2.9041  1.1216
 7971SOL     OW35548   4.586   3.315   4.861  0.1454  0.5569  0.5180
 7971SOL    HW135549   4.639   3.288   4.936  0.1935 -0.8696 -0.0119
 7971SOL    HW235550   4.636   3.390   4.832  1.0131 -0.6786 -1.1898
 7972SOL     OW35551   1.246   3.130  16.242 -0.4824  0.2014  0.3441
 7972SOL    HW135552   1.322   3.187  16.253 -0.8020  0.6300  0.3643
 7972SOL    HW235553   1.183   3.184  16.290  1.0268  1.0265  1.4025
 7973SOL     OW35554   1.891   3.910  10.109 -0.3414  0.4792 -0.0792
 7973SOL    HW135555   1.946   3.917  10.187 -0.9583  2.9651  0.1463
 7973SOL    HW235556   1.812   3.948  10.146  0.4846  0.3791  1.7491
 7974SOL     OW35557   3.328   0.043  10.408 -0.0485 -0.2691 -0.3796
 7974SOL    HW135558   3.413   0.040  10.452 -0.8822 -0.8053  1.2203
 7974SOL    HW235559   3.281   0.113  10.453 -0.5293  0.9684 -2.8253
 7975SOL     OW35560   2.127   4.422   6.764  0.4589 -0.6777 -0.0669
 7975SOL    HW135561   2.159   4.344   6.810  0.5029  0.8955  2.5894
 7975SOL    HW235562   2.189   4.485   6.799 -0.8419  1.0262 -0.8726
 7976SOL     OW35563   3.723   1.581   1.340 -0.3228  0.1107 -0.2197
 7976SOL    HW135564   3.741   1.632   1.419  1.6929  3.0388 -2.6031
 7976SOL    HW235565   3.628   1.595   1.330  0.0017  1.7731 -0.9944
 7977SOL     OW35566   2.279   1.215   3.102  0.2056 -0.7764 -0.0648
 7977SOL    HW135567   2.320   1.301   3.094 -0.6486 -0.3699 -0.0099
 7977SOL    HW235568   2.197   1.233   3.147 -0.9364 -0.6392 -2.1756
 7978SOL     OW35569   4.000   1.753   6.516 -0.3986 -0.0830  0.1691
 7978SOL    HW135570   4.028   1.778   6.604  2.8416 -0.7677 -0.6832
 7978SOL    HW235571   4.037   1.665   6.517  1.0394  0.5065 -1.7843
 7979SOL     OW35572   4.541   4.705   1.122 -0.0604 -0.1205 -0.5938
 7979SOL    HW135573   4.541   0.053   1.166  1.3670 -1.3485  1.8285
 7979SOL    HW235574   4.632   4.682   1.105  0.2494  1.1879 -0.6945
 7980SOL     OW35575   0.468   3.070   5.243  0.1891 -0.3585  0.1042
 7980SOL    HW135576   0.470   3.060   5.147  0.0137  0.6655 -0.0112
 7980SOL    HW235577   0.434   2.986   5.272 -0.5535 -0.2725 -0.5181
 7981SOL     OW35578   2.305   3.983   7.388  0.4278 -0.1131 -0.1462
 7981SOL    HW135579   2.274   4.034   7.463  1.8684  1.2484 -0.4782
 7981SOL    HW235580   2.227   3.931   7.372  0.4976 -1.0039  2.3204
 7982SOL     OW35581   3.668   3.649   5.695 -0.2354 -0.3083 -0.0666
 7982SOL    HW135582   3.639   3.589   5.764 -2.5647 -1.0375 -1.6925
 7982SOL    HW235583   3.653   3.589   5.622 -2.4522 -0.6200  0.6397
 7983SOL     OW35584   0.982   0.872   1.063 -0.2681 -0.1463  0.0839
 7983SOL    HW135585   0.977   0.876   1.158  0.8758  0.3584  0.1243
 7983SOL    HW235586   0.926   0.796   1.047 -0.6964 -0.0502  1.1229
 7984SOL     OW35587   2.399   0.031   7.707 -0.2649  0.1505 -0.6033
 7984SOL    HW135588   2.405   0.028   7.612 -0.3462  1.2357 -0.6392
 7984SOL    HW235589   2.370   4.677   7.723 -1.4093  1.2601  3.6402
 7985SOL     OW35590   2.099   1.522  17.468  0.4569 -0.5376  0.4322
 7985SOL    HW135591   2.191   1.512  17.442  0.5097 -2.2398  1.2404
 7985SOL    HW235592   2.086   1.609  17.432  0.8231 -0.3429  0.7670
 7986SOL     OW35593   1.131   0.767   7.685 -0.5808 -0.6054 -0.5093
 7986SOL    HW135594   1.105   0.784   7.595  2.8770 -0.5310 -1.4752
 7986SOL    HW235595   1.049   0.799   7.722 -0.3171 -0.7836  0.2261
 7987SOL     OW35596   4.082   3.685   7.027 -0.2311  0.2581  0.3316
 7987SOL    HW135597   4.076   3.612   6.965 -1.0305 -1.0707  1.9944
 7987SOL    HW235598   4.099   3.641   7.110 -1.6226  0.7426  0.8686
 7988SOL     OW35599   4.214   3.146   3.465  0.1104 -0.4556 -0.0452
 7988SOL    HW135600   4.146   3.099   3.417 -0.8399  1.0007 -0.1158
 7988SOL    HW235601   4.239   3.209   3.396 -0.4337  0.6706  0.7994
 7989SOL     OW35602   1.822   3.061   3.747  0.2411  0.3820 -0.2041
 7989SOL    HW135603   1.831   3.050   3.842 -0.9942 -1.2528 -0.2785
 7989SOL    HW235604   1.907   3.099   3.724  0.8034  0.5504  2.1890
 7990SOL     OW35605   0.585   2.826   8.344 -0.2455  0.4117 -0.2709
 7990SOL    HW135606   0.604   2.761   8.276 -0.5213 -0.4878  0.5144
 7990SOL    HW235607   0.489   2.819   8.347 -0.2207 -0.2850 -1.0729
 7991SOL     OW35608   2.676   4.119  10.547 -0.6187  0.0216 -0.1283
 7991SOL    HW135609   2.669   4.215  10.549  0.6512  0.0462  2.6575
 7991SOL    HW235610   2.661   4.100  10.454 -0.7711 -1.1130  0.1344
 7992SOL     OW35611   4.158   1.092   6.204 -0.3260 -0.2580  0.2230
 7992SOL    HW135612   4.196   1.084   6.116  2.2653  0.4755  1.2632
 7992SOL    HW235613   4.164   1.187   6.215  3.2265 -0.7407  2.6015
 7993SOL     OW35614   0.171   1.701   8.845  0.3666  0.5445  0.0637
 7993SOL    HW135615   0.148   1.654   8.765  0.1914 -0.5329  0.7543
 7993SOL    HW235616   0.263   1.677   8.845 -0.3229 -2.2058 -3.2094
 7994SOL     OW35617   1.033   2.253   4.484 -0.4532 -0.0368 -0.0082
 7994SOL    HW135618   1.007   2.221   4.571  2.3110 -4.2391 -0.7247
 7994SOL    HW235619   0.973   2.328   4.477  0.9329  1.0042 -0.7013
 7995SOL     OW35620   1.712   2.669   5.299  0.1865 -0.0071  0.2424
 7995SOL    HW135621   1.802   2.677   5.266  0.2371  1.0214  0.6323
 7995SOL    HW235622   1.684   2.760   5.300 -0.2395 -0.1407  0.3040
 7996SOL     OW35623   2.303   2.778   3.969  0.3212 -0.0834 -0.1201
 7996SOL    HW135624   2.287   2.871   3.984  0.7387 -0.0523  0.1275
 7996SOL    HW235625   2.342   2.769   4.056 -0.2804  0.3396  0.1942
 7997SOL     OW35626   2.813   0.697  13.799  0.2665 -0.6712 -0.0790
 7997SOL    HW135627   2.741   0.750  13.830 -0.6165 -1.2476 -1.1363
 7997SOL    HW235628   2.770   0.649  13.728  0.6836  1.1676 -1.5704
 7998SOL     OW35629   0.058   2.993   6.437  0.2854 -0.4173 -0.1398
 7998SOL    HW135630   0.114   3.067   6.417  0.5744 -1.1385 -2.0487
 7998SOL    HW235631   0.102   2.932   6.496 -2.7031 -2.3566  0.0855
 7999SOL     OW35632   0.031   3.137   3.939 -0.5595 -0.2299  0.6940
 7999SOL    HW135633   0.050   3.082   3.862  2.5341  1.4341  0.2684
 7999SOL    HW235634   4.676   3.116   3.958 -0.3815 -0.9028  0.8162
 8000SOL     OW35635   0.515   1.377   7.156 -0.3258 -0.3139 -0.1884
 8000SOL    HW135636   0.530   1.340   7.069  1.6943  1.0865 -0.4207
 8000SOL    HW235637   0.423   1.403   7.165 -0.2726 -0.1284 -0.1749
 8001SOL     OW35638   2.883   3.774   2.955 -0.2006 -0.1303 -0.0709
 8001SOL    HW135639   2.864   3.695   3.005 -0.3171  0.6442  1.1234
 8001SOL    HW235640   2.977   3.764   2.967 -0.1694  0.4527  0.1998
 8002SOL     OW35641   4.118   0.693   8.805 -0.1451 -0.6231  0.2134
 8002SOL    HW135642   4.076   0.645   8.734 -0.3981 -0.1307  0.0307
 8002SOL    HW235643   4.172   0.755   8.756 -0.6555  1.4969  2.3542
 8003SOL     OW35644   0.307   0.670   8.329  0.0390  0.6857 -0.2790
 8003SOL    HW135645   0.304   0.754   8.374 -0.3430  1.9798 -2.7396
 8003SOL    HW235646   0.360   0.621   8.392 -0.6970 -0.2117 -0.3425
 8004SOL     OW35647   4.298   2.344   2.625 -0.0338 -0.2883  0.2700
 8004SOL    HW135648   4.268   2.427   2.661  0.2564  0.6429 -1.6374
 8004SOL    HW235649   4.257   2.338   2.539  2.0586 -1.2341 -0.6742
 8005SOL     OW35650   1.769   0.707   6.011  0.5947  0.1320 -0.3783
 8005SOL    HW135651   1.739   0.642   5.947  0.6684 -1.5932  1.3044
 8005SOL    HW235652   1.699   0.771   5.998 -0.9164 -1.9775 -2.5744
 8006SOL     OW35653   2.037   4.645   3.128 -0.5691  0.2765 -0.6990
 8006SOL    HW135654   2.083   4.677   3.050  0.3481 -2.2632 -1.2303
 8006SOL    HW235655   2.067   4.554   3.127 -0.7736  0.1982  0.6813
 8007SOL     OW35656   3.113   3.692  13.145 -0.2218  0.0671  0.2716
 8007SOL    HW135657   3.204   3.666  13.136 -0.0217  0.9111 -0.1076
 8007SOL    HW235658   3.075   3.622  13.091 -0.7257  1.1558 -0.7964
 8008SOL     OW35659   3.311   3.867   8.367 -0.4285  0.4477  0.0957
 8008SOL    HW135660   3.296   3.778   8.398 -0.0714 -0.2724 -1.8001
 8008SOL    HW235661   3.336   3.855   8.276  0.7326  0.7472  0.3745
 8009SOL     OW35662   4.099   2.143  11.582  0.7827 -0.2792  0.0108
 8009SOL    HW135663   4.126   2.053  11.603 -1.5124 -0.3211  2.7710
 8009SOL    HW235664   4.052   2.166  11.662  0.1907  0.5955 -0.5978
 8010SOL     OW35665   2.900   4.229   4.004  0.2418  0.0090 -0.0801
 8010SOL    HW135666   2.884   4.140   4.033 -0.5281  0.6117  1.2926
 8010SOL    HW235667   2.846   4.234   3.925 -0.8956  0.2126  0.7097
 8011SOL     OW35668   0.474   4.609   5.436 -0.1737 -0.3886 -0.5397
 8011SOL    HW135669   0.468   4.667   5.512  0.7078  0.9947 -1.5121
 8011SOL    HW235670   0.562   4.635   5.408 -0.6716  0.1792 -1.5987
 8012SOL     OW35671   2.442   4.431  14.966 -0.0303  0.0695  0.6332
 8012SOL    HW135672   2.505   4.359  14.966  1.1138  1.0618  0.3018
 8012SOL    HW235673   2.507   4.499  14.984 -1.6095  2.3367 -2.1259
 8013SOL     OW35674   0.118   2.653   3.852  0.0423  0.3559 -0.8478
 8013SOL    HW135675   0.030   2.615   3.854  0.3677 -0.3768 -0.5551
 8013SOL    HW235676   0.159   2.582   3.802 -2.0434 -2.3480  1.2734
 8014SOL     OW35677   1.840   4.698   5.650  0.5052  0.4575 -0.6442
 8014SOL    HW135678   1.912   4.704   5.713 -1.3362  0.0363  1.4926
 8014SOL    HW235679   1.778   4.650   5.704  0.6717  2.3297  1.2300
 8015SOL     OW35680   4.546   3.353   4.412 -0.0986 -0.1452  0.2673
 8015SOL    HW135681   4.462   3.371   4.370  0.4187  0.1857 -0.6320
 8015SOL    HW235682   4.572   3.444   4.428 -0.3854  0.2015 -1.1663
 8016SOL     OW35683   4.333   3.422   6.734 -0.0246  0.2004  0.3149
 8016SOL    HW135684   4.404   3.398   6.794  0.8046 -2.0335 -1.5519
 8016SOL    HW235685   4.390   3.440   6.659 -1.0979 -2.9821 -1.2623
 8017SOL     OW35686   0.055   0.245   9.368  0.5930 -0.3578  0.1510
 8017SOL    HW135687   0.023   0.245   9.278 -2.6167 -1.1404  1.2986
 8017SOL    HW235688   0.150   0.254   9.359  0.7480 -1.3044  0.8593
 8018SOL     OW35689   0.667   2.487   3.508  0.2986  0.6214 -0.1033
 8018SOL    HW135690   0.585   2.532   3.528 -0.7681 -0.4186 -2.0359
 8018SOL    HW235691   0.669   2.402   3.552 -2.1325  0.8679  0.4726
 8019SOL     OW35692   3.308   1.969   5.131  0.4091 -0.5251  0.3407
 8019SOL    HW135693   3.246   1.907   5.093  1.1021 -0.6021 -0.6653
 8019SOL    HW235694   3.253   2.045   5.149  0.6716  0.0982 -1.5361
 8020SOL     OW35695   2.119   3.202   5.441 -0.7815  0.3327  0.2659
 8020SOL    HW135696   2.114   3.210   5.346  1.5409 -0.7350  0.0670
 8020SOL    HW235697   2.171   3.281   5.455  0.1491 -0.7071  2.7612
 8021SOL     OW35698   2.101   2.390   6.698 -0.0915 -0.5268  0.7693
 8021SOL    HW135699   2.094   2.418   6.789 -0.0827  1.8203  0.0529
 8021SOL    HW235700   2.061   2.466   6.655  0.8432 -1.3572 -1.5676
 8022SOL     OW35701   2.978   0.763  14.405  0.1154  0.2298  0.1616
 8022SOL    HW135702   2.952   0.675  14.379  1.6791 -0.3716  0.6063
 8022SOL    HW235703   3.069   0.771  14.374  0.3413 -3.3766 -0.0355
 8023SOL     OW35704   3.194   3.645   1.220 -0.2878 -0.0158  0.7235
 8023SOL    HW135705   3.247   3.586   1.167 -0.5029  0.1579  0.3186
 8023SOL    HW235706   3.233   3.619   1.304 -0.2509 -2.0457  0.0861
 8024SOL     OW35707   1.001   2.628   3.382  0.2472 -0.5807 -0.1481
 8024SOL    HW135708   0.973   2.593   3.467  1.2445  1.6357  1.0870
 8024SOL    HW235709   1.053   2.702   3.412  0.0412  0.2116 -1.7878
 8025SOL     OW35710   0.139   4.400  17.592  0.0832 -0.6304  0.2143
 8025SOL    HW135711   0.186   4.478  17.622 -0.7271 -0.5384  1.2583
 8025SOL    HW235712   0.056   4.427  17.552  1.5789  1.4265 -1.4816
 8026SOL     OW35713   3.155   2.464   9.693 -0.4122 -0.4677  0.3653
 8026SOL    HW135714   3.167   2.487   9.785  1.2679 -1.0023  0.2830
 8026SOL    HW235715   3.132   2.549   9.656  1.1850 -0.6953 -1.1340
 8027SOL     OW35716   1.010   4.246   7.563 -0.8951  0.5907 -0.8499
 8027SOL    HW135717   1.069   4.301   7.512 -2.0431  1.7011 -0.9844
 8027SOL    HW235718   1.003   4.297   7.644  1.7610 -0.9054  0.3327
 8028SOL     OW35719   0.702   3.747   7.040  0.0390 -0.3305  1.0198
 8028SOL    HW135720   0.607   3.746   7.054 -0.0063  0.2664  0.7198
 8028SOL    HW235721   0.700   3.802   6.962 -0.5092 -2.3458 -0.3926
 8029SOL     OW35722   1.109   1.343   9.575  0.4714 -0.4466 -0.0404
 8029SOL    HW135723   1.029   1.359   9.625  1.5257 -0.6645  1.7189
 8029SOL    HW235724   1.108   1.248   9.576  0.2826 -0.4279  2.4170
 8030SOL     OW35725   1.735   3.975   0.813  0.3270  0.0436 -0.5926
 8030SOL    HW135726   1.731   3.920   0.735  1.5637 -0.5355 -0.2378
 8030SOL    HW235727   1.670   4.041   0.786 -0.8778 -1.3192 -1.0296
 8031SOL     OW35728   1.146   3.001   6.186 -0.5806 -0.2008  0.4908
 8031SOL    HW135729   1.064   3.003   6.138  0.1467  0.3995 -0.7236
 8031SOL    HW235730   1.201   2.980   6.111 -2.0187  0.4940 -0.7603
 8032SOL     OW35731   2.333   3.372   6.964  0.0219 -0.5162  0.4004
 8032SOL    HW135732   2.351   3.419   6.882 -1.2992  1.8487  1.4485
 8032SOL    HW235733   2.330   3.447   7.023 -1.9079  2.2706 -3.2017
 8033SOL     OW35734   1.329   2.894  15.548 -0.3419 -0.2373 -0.1990
 8033SOL    HW135735   1.301   2.962  15.609  2.7764  0.0399  0.9507
 8033SOL    HW235736   1.304   2.924  15.461 -0.8095  0.3734  0.1482
 8034SOL     OW35737   4.248   3.939  17.065 -0.2346 -0.1977 -0.5118
 8034SOL    HW135738   4.339   3.956  17.093  0.4070 -0.1499 -2.6365
 8034SOL    HW235739   4.253   3.850  17.030 -0.2694 -1.3384  2.3861
 8035SOL     OW35740   2.105   3.317  17.079 -0.3162  0.2178 -0.1752
 8035SOL    HW135741   2.166   3.371  17.029  1.3638  0.1308  1.7533
 8035SOL    HW235742   2.036   3.352  17.023 -1.5875 -2.3676 -0.2114
 8036SOL     OW35743   4.394   0.757  14.660  0.4260 -0.2796  0.3578
 8036SOL    HW135744   4.414   0.846  14.631 -0.2507 -0.2340  0.0263
 8036SOL    HW235745   4.430   0.758  14.749  1.2070 -0.7544  0.0474
 8037SOL     OW35746   3.206   0.022   4.782  0.5703  0.3598 -0.2964
 8037SOL    HW135747   3.253   0.102   4.759 -0.6849  0.7507 -1.5426
 8037SOL    HW235748   3.187   0.052   4.871 -1.3640  2.2392 -1.3344
 8038SOL     OW35749   1.184   4.114   0.661  0.5346 -0.1357  1.0328
 8038SOL    HW135750   1.098   4.152   0.677 -0.4587 -0.1837 -4.1840
 8038SOL    HW235751   1.222   4.169   0.593  0.4202 -0.6630  0.5426
 8039SOL     OW35752   2.405   1.563  11.188 -0.2973  0.3562 -0.0846
 8039SOL    HW135753   2.448   1.648  11.189  0.9540 -0.2703 -0.0957
 8039SOL    HW235754   2.333   1.573  11.127 -0.5300 -1.4938 -0.1236
 8040SOL     OW35755   2.846   0.366   1.181 -0.3009  0.2952 -0.1973
 8040SOL    HW135756   2.767   0.324   1.148  1.1998 -1.6440 -1.3351
 8040SOL    HW235757   2.882   0.297   1.237 -1.3007  1.6004  2.0506
 8041SOL     OW35758   1.492   1.574  17.114  0.5059 -0.1847  0.0711
 8041SOL    HW135759   1.489   1.625  17.032 -1.3267  0.9740  0.8411
 8041SOL    HW235760   1.402   1.595  17.141  0.5218  3.2756 -2.4563
 8042SOL     OW35761   1.964   0.102  14.182  0.3638 -0.0756 -0.0609
 8042SOL    HW135762   1.970   0.025  14.237 -0.4440 -0.8936 -1.1115
 8042SOL    HW235763   1.888   0.142  14.226  1.0525 -0.4322  1.4451
 8043SOL     OW35764   0.234   3.219   6.400 -0.5921 -0.2911  0.5395
 8043SOL    HW135765   0.294   3.280   6.442  0.6000  1.2560 -3.4209
 8043SOL    HW235766   0.165   3.283   6.388 -0.7219 -0.3050  1.2163
 8044SOL     OW35767   1.274   1.620  13.466 -0.2879 -0.0379  0.4517
 8044SOL    HW135768   1.236   1.682  13.527 -0.7438  0.2532 -0.1272
 8044SOL    HW235769   1.214   1.608  13.392 -2.7127 -1.8350  2.6956
 8045SOL     OW35770   2.561   1.240   1.656 -0.5634  0.6768  0.5122
 8045SOL    HW135771   2.597   1.268   1.571  0.3007 -1.5498  0.1567
 8045SOL    HW235772   2.516   1.166   1.615  0.2381  0.5263 -0.0968
 8046SOL     OW35773   3.154   1.699   2.645 -0.1423  0.3433  0.5306
 8046SOL    HW135774   3.138   1.757   2.719 -1.0158  1.4784 -0.5557
 8046SOL    HW235775   3.071   1.653   2.632 -0.3502  0.9444 -0.2023
 8047SOL     OW35776   3.858   0.040   5.876 -0.3992  0.5270 -0.3088
 8047SOL    HW135777   3.908   4.728   5.942 -0.6983 -0.4810 -0.8297
 8047SOL    HW235778   3.926   0.056   5.812  0.8904  0.6282  1.0771
 8048SOL     OW35779   1.592   4.448   4.015  0.5466  0.0472 -0.5028
 8048SOL    HW135780   1.497   4.441   4.019  0.5491  0.8859  1.1022
 8048SOL    HW235781   1.608   4.533   3.975 -0.9351  0.2170 -0.7111
 8049SOL     OW35782   1.040   4.668   8.238  0.3763  0.5620  0.7324
 8049SOL    HW135783   1.062   0.022   8.220  1.8627  0.2411  0.9774
 8049SOL    HW235784   1.062   4.662   8.331 -1.3271 -1.8649  0.9996
 8050SOL     OW35785   3.414   4.284   2.812 -0.3629 -0.3991 -0.6093
 8050SOL    HW135786   3.351   4.260   2.744  0.2715  2.2245 -2.1029
 8050SOL    HW235787   3.461   4.353   2.765 -1.5087 -1.2971 -3.0967
 8051SOL     OW35788   2.462   2.877   9.363 -0.2481 -0.4392 -0.0504
 8051SOL    HW135789   2.497   2.826   9.435 -1.5145 -0.6180  0.4379
 8051SOL    HW235790   2.511   2.828   9.297  2.7241 -1.1046  2.7049
 8052SOL     OW35791   2.237   2.316   8.807  0.2701 -0.1027 -0.7137
 8052SOL    HW135792   2.267   2.372   8.879 -1.1307  0.3230 -0.4601
 8052SOL    HW235793   2.271   2.231   8.838 -0.9965  0.5333  2.3733
 8053SOL     OW35794   0.213   3.093  10.229  0.3351  0.9713  0.1372
 8053SOL    HW135795   0.216   3.189  10.220  0.9621  0.7632 -1.8776
 8053SOL    HW235796   0.305   3.075  10.206  0.6631  2.0741  0.5569
 8054SOL     OW35797   0.364   0.310  15.077  0.2573  0.3961 -0.4739
 8054SOL    HW135798   0.441   0.349  15.120  0.1762  0.2614 -0.2072
 8054SOL    HW235799   0.302   0.301  15.149 -0.0282 -0.6876 -0.8576
 8055SOL     OW35800   4.076   4.189   0.677 -0.2547 -0.6872 -0.3201
 8055SOL    HW135801   4.107   4.100   0.697 -0.4982 -0.5634  0.6461
 8055SOL    HW235802   4.151   4.244   0.700 -1.1551 -0.0729  1.1917
 8056SOL     OW35803   1.286   0.213   5.186 -0.3068  0.0568  0.4769
 8056SOL    HW135804   1.311   0.123   5.166 -0.7154  0.2715 -0.9784
 8056SOL    HW235805   1.195   0.213   5.159 -0.2104 -2.9955  0.1099
 8057SOL     OW35806   1.926   0.752   6.738 -0.4209 -0.1738  0.0388
 8057SOL    HW135807   1.846   0.699   6.738 -1.5070  1.4549  0.0858
 8057SOL    HW235808   1.951   0.749   6.646  2.0615 -3.1054  0.8002
 8058SOL     OW35809   0.357   2.410   8.289  0.2823  0.3661 -1.0518
 8058SOL    HW135810   0.314   2.325   8.288 -0.2321  0.6231 -0.0218
 8058SOL    HW235811   0.281   2.468   8.294  0.7364  0.8455  0.3450
 8059SOL     OW35812   0.599   3.488   6.329  0.2405 -0.0524 -0.7836
 8059SOL    HW135813   0.538   3.561   6.313  0.4699  0.4016  0.4023
 8059SOL    HW235814   0.539   3.415   6.346 -1.3671  1.5808  0.6112
 8060SOL     OW35815   2.373   4.164   8.324  0.0055  0.6117  0.2160
 8060SOL    HW135816   2.435   4.093   8.307 -1.5254 -0.2308 -1.7735
 8060SOL    HW235817   2.298   4.134   8.272  1.6436 -0.6044 -1.4199
 8061SOL     OW35818   0.412   3.915   6.700 -0.4920 -0.3414  0.0094
 8061SOL    HW135819   0.409   3.884   6.791 -2.4455  0.3572  0.2004
 8061SOL    HW235820   0.467   3.993   6.712 -1.3840  0.1857  0.7747
 8062SOL     OW35821   1.918   4.343   6.099 -0.1022  0.1130  0.3198
 8062SOL    HW135822   1.884   4.274   6.042  1.7870 -0.3039 -0.2951
 8062SOL    HW235823   2.011   4.320   6.100 -0.4802 -1.3987 -0.9749
 8063SOL     OW35824   1.002   2.712   2.090  0.1168  0.5658 -0.8116
 8063SOL    HW135825   0.926   2.714   2.148 -0.2003 -0.0498 -1.2095
 8063SOL    HW235826   1.042   2.795   2.117 -2.5553  1.8322 -0.6747
 8064SOL     OW35827   4.065   2.382   1.098 -0.0532  0.4026 -0.7906
 8064SOL    HW135828   4.010   2.454   1.068 -1.6373 -1.0344 -1.3450
 8064SOL    HW235829   4.147   2.422   1.068  0.4269  1.1927  1.5224
 8065SOL     OW35830   3.122   4.295   6.472 -0.3818 -0.4696 -0.2250
 8065SOL    HW135831   3.094   4.280   6.382  0.5204  0.6372 -0.6801
 8065SOL    HW235832   3.107   4.208   6.509 -1.5536 -0.5158 -0.7921
 8066SOL     OW35833   0.292   4.142   5.737  0.2009 -0.2464  0.2592
 8066SOL    HW135834   0.221   4.081   5.716 -0.4984  0.6897 -0.0890
 8066SOL    HW235835   0.247   4.200   5.798 -1.6455  0.3049 -1.6234
 8067SOL     OW35836   2.464   1.059  13.764 -0.7279  0.0421 -0.8012
 8067SOL    HW135837   2.386   1.015  13.729 -1.7058  1.9762 -1.0738
 8067SOL    HW235838   2.516   1.061  13.684 -0.3405 -0.7054 -0.5686
 8068SOL     OW35839   3.266   4.522   4.924  0.1045 -0.4838 -0.2690
 8068SOL    HW135840   3.259   4.609   4.885 -1.9130 -0.2212  0.7292
 8068SOL    HW235841   3.180   4.496   4.892 -0.7726  1.7770  0.3016
 8069SOL     OW35842   0.640   0.873  11.686  0.4940  0.3285  0.2667
 8069SOL    HW135843   0.658   0.783  11.713  1.3035  1.0122  1.9526
 8069SOL    HW235844   0.696   0.926  11.742  1.5977  0.7420 -1.2085
 8070SOL     OW35845   1.528   3.540   1.133 -0.4806  0.3013 -0.3822
 8070SOL    HW135846   1.502   3.575   1.219 -0.2089  0.2518 -0.2814
 8070SOL    HW235847   1.596   3.601   1.107 -0.7306  0.9915  0.5430
 8071SOL     OW35848   1.229   3.447  10.120  0.0319 -0.2666 -0.1714
 8071SOL    HW135849   1.281   3.515  10.078  0.3436 -0.0709  0.5460
 8071SOL    HW235850   1.180   3.421  10.042  2.4535  0.4451 -1.9393
 8072SOL     OW35851   4.020   2.278  12.925  0.1580 -0.4317 -0.0488
 8072SOL    HW135852   4.080   2.339  12.969 -1.5684  2.6936 -2.0553
 8072SOL    HW235853   4.080   2.265  12.852 -2.3403 -1.0917 -1.9486
 8073SOL     OW35854   2.278   3.394   8.966  0.0992 -0.2516 -0.6963
 8073SOL    HW135855   2.325   3.362   9.043  0.9703  0.8870 -0.7471
 8073SOL    HW235856   2.248   3.325   8.907  0.7521  1.4095 -2.9557
 8074SOL     OW35857   0.862   0.699   1.973 -0.3905  0.4586  0.6126
 8074SOL    HW135858   0.918   0.709   2.051 -0.7808 -1.1835  1.0859
 8074SOL    HW235859   0.797   0.634   1.998  0.8712 -1.3674 -0.9089
 8075SOL     OW35860   2.675   0.896   1.633  0.2251 -0.1352 -0.4065
 8075SOL    HW135861   2.624   0.881   1.554  1.1072  0.2304 -1.0455
 8075SOL    HW235862   2.688   0.991   1.634 -0.7829 -0.0042 -0.5707
 8076SOL     OW35863   3.966   1.752   3.418  0.2604  0.2567  0.0001
 8076SOL    HW135864   4.015   1.761   3.336  1.9684 -2.7272  0.6900
 8076SOL    HW235865   4.029   1.782   3.483  0.5154  1.7107 -0.9050
 8077SOL     OW35866   4.094   4.695   0.573 -0.2693 -0.0577  0.2305
 8077SOL    HW135867   4.011   4.688   0.527 -0.6004  0.3572  0.7699
 8077SOL    HW235868   4.156   4.634   0.533 -1.1911 -1.2218  0.5408
 8078SOL     OW35869   0.821   2.075   7.274 -0.1015  0.2293  0.1307
 8078SOL    HW135870   0.801   2.087   7.367  0.6751 -3.0103  0.6879
 8078SOL    HW235871   0.785   2.156   7.238 -1.9482 -0.7083 -0.1112
 8079SOL     OW35872   2.224   1.371   8.746 -0.0382 -0.2538 -0.3450
 8079SOL    HW135873   2.228   1.463   8.721 -1.2238 -0.2150 -0.4027
 8079SOL    HW235874   2.219   1.325   8.663 -0.8791 -0.8344  0.0224
 8080SOL     OW35875   2.083   0.060   8.001 -0.1490  0.1330 -0.5909
 8080SOL    HW135876   2.064   0.136   8.056 -0.5156  0.3348 -0.9999
 8080SOL    HW235877   2.151   0.097   7.945 -1.4462  0.9876 -1.5944
 8081SOL     OW35878   3.610   0.385   0.108  0.3758  0.3128 -0.7135
 8081SOL    HW135879   3.696   0.346   0.122 -0.0870  0.0104  1.2376
 8081SOL    HW235880   3.620   0.477   0.133  3.0164 -0.6856  1.7989
 8082SOL     OW35881   2.754   2.566  14.638 -0.0337  0.4747 -0.6195
 8082SOL    HW135882   2.695   2.595  14.568 -1.5398 -1.5449 -0.2016
 8082SOL    HW235883   2.796   2.489  14.600  0.6736 -0.2317  1.5823
 8083SOL     OW35884   0.298   0.216   5.408 -0.5940  0.0837 -0.4961
 8083SOL    HW135885   0.273   0.292   5.355  0.9555 -0.9469 -2.7327
 8083SOL    HW235886   0.392   0.214   5.390 -0.7201 -1.1198 -1.0577
 8084SOL     OW35887   3.029   1.020  10.619 -0.4821  1.0651  0.5595
 8084SOL    HW135888   3.009   1.055  10.532  0.4255  0.1181 -0.0235
 8084SOL    HW235889   2.947   0.982  10.652  0.6772 -2.1819 -0.3340
 8085SOL     OW35890   1.029   1.707  12.056 -0.4733 -0.1242  0.3046
 8085SOL    HW135891   0.943   1.743  12.034 -0.0716  0.5235 -0.2061
 8085SOL    HW235892   1.011   1.614  12.046 -1.0529 -0.0010  0.1785
 8086SOL     OW35893   3.794   2.748  17.479  0.0511  0.0346 -0.1742
 8086SOL    HW135894   3.785   2.695  17.399  0.1386  0.0774 -0.2132
 8086SOL    HW235895   3.724   2.812  17.470 -0.9481 -1.0645 -0.1738
 8087SOL     OW35896   0.856   3.851   5.777 -0.0453 -0.4783  0.5914
 8087SOL    HW135897   0.794   3.781   5.754  0.7532 -0.1951 -2.4436
 8087SOL    HW235898   0.916   3.811   5.839  0.3156  0.0291  0.5649
 8088SOL     OW35899   0.283   1.026  15.671 -0.1308  0.4507  0.3023
 8088SOL    HW135900   0.351   0.967  15.636  1.6066  1.9127  1.2020
 8088SOL    HW235901   0.210   1.000  15.615 -1.2622  1.0614  1.5130
 8089SOL     OW35902   2.453   1.811   9.489  0.3527  0.2180  0.4435
 8089SOL    HW135903   2.368   1.789   9.452 -0.7443  1.2977  2.3109
 8089SOL    HW235904   2.497   1.850   9.413  0.6842  1.6055  1.3358
 8090SOL     OW35905   0.077   1.058   3.971 -0.5075 -0.1346  0.7129
 8090SOL    HW135906   0.080   1.088   4.062 -0.3517  1.3146  0.2402
 8090SOL    HW235907   0.009   0.992   3.974 -0.1000 -0.5781  0.2297
 8091SOL     OW35908   1.956   1.844   6.939 -0.4491  0.0158 -0.5885
 8091SOL    HW135909   1.920   1.757   6.922  1.0519 -0.9768  1.4117
 8091SOL    HW235910   1.877   1.883   6.977  1.4426  2.3153  0.9860
 8092SOL     OW35911   2.156   3.153   8.826 -0.2036 -0.5788 -0.7389
 8092SOL    HW135912   2.122   3.204   8.753  0.7451  2.3048  0.8543
 8092SOL    HW235913   2.110   3.069   8.818  0.3826 -1.1920  2.3428
 8093SOL     OW35914   0.692   3.697   3.489 -0.0287 -0.0048 -0.1274
 8093SOL    HW135915   0.700   3.704   3.394  0.3826 -0.2089 -0.1040
 8093SOL    HW235916   0.656   3.609   3.491 -2.6442  1.0751  1.5177
 8094SOL     OW35917   2.212   1.900   2.809  0.2654 -0.4829 -0.0080
 8094SOL    HW135918   2.217   1.821   2.863  2.4382  0.2544  0.8917
 8094SOL    HW235919   2.295   1.882   2.765  0.1144  0.8516 -0.8201
 8095SOL     OW35920   1.322   1.412   5.431 -0.3588 -0.0416  0.6217
 8095SOL    HW135921   1.392   1.383   5.489 -0.4348 -1.6262 -0.0672
 8095SOL    HW235922   1.266   1.337   5.451 -0.0135 -0.2231  0.8923
 8096SOL     OW35923   2.461   3.454  15.284  0.0037  0.1106  0.2441
 8096SOL    HW135924   2.552   3.482  15.294 -0.3627  1.0868  0.8216
 8096SOL    HW235925   2.473   3.389  15.215  0.2619  0.5482 -0.1266
 8097SOL     OW35926   2.267   3.770   4.669 -0.2112 -0.2282 -0.5403
 8097SOL    HW135927   2.214   3.818   4.606  0.5461  0.5567 -0.5797
 8097SOL    HW235928   2.206   3.705   4.704  0.3310  0.4533  1.6975
 8098SOL     OW35929   4.688   3.555   8.370  0.1273 -0.6873 -0.0077
 8098SOL    HW135930   4.697   3.460   8.365 -0.6174 -0.7768  0.3310
 8098SOL    HW235931   0.027   3.578   8.316 -1.2811  0.6167 -1.3915
 8099SOL     OW35932   2.413   0.548   2.779 -0.3069  0.6033 -0.3312
 8099SOL    HW135933   2.394   0.587   2.864 -3.7854 -1.2076 -0.2940
 8099SOL    HW235934   2.489   0.604   2.762 -0.6884  1.2997  0.2700
 8100SOL     OW35935   4.306   2.152   6.927  0.3462 -0.2958 -0.0197
 8100SOL    HW135936   4.311   2.088   6.998  1.3889 -0.9826 -0.7167
 8100SOL    HW235937   4.318   2.230   6.981  1.2141  0.1526 -0.8683
 8101SOL     OW35938   2.431   1.792   2.713 -0.2616  0.0001  0.2703
 8101SOL    HW135939   2.504   1.731   2.721  1.3634  1.8636 -0.2779
 8101SOL    HW235940   2.421   1.779   2.619  1.8400  2.4519 -0.3103
 8102SOL     OW35941   3.861   1.640  15.613 -0.3066  0.5186  0.0146
 8102SOL    HW135942   3.902   1.667  15.696  0.1321  2.2637 -0.7681
 8102SOL    HW235943   3.940   1.611  15.567 -0.4336 -0.6516  0.5246
 8103SOL     OW35944   3.227   3.714   2.198 -0.0587 -0.7596  0.1816
 8103SOL    HW135945   3.141   3.757   2.197  0.0959 -0.4807 -1.0868
 8103SOL    HW235946   3.293   3.774   2.162 -1.9015  0.2177 -1.5984
 8104SOL     OW35947   1.495   3.353   2.821 -0.0156  0.0358 -0.3531
 8104SOL    HW135948   1.472   3.369   2.913 -0.7301 -1.2521 -0.3124
 8104SOL    HW235949   1.415   3.335   2.773  0.2672 -3.0995  0.3478
 8105SOL     OW35950   2.063   0.557  13.344  0.1853 -1.0777  0.3650
 8105SOL    HW135951   2.138   0.609  13.315 -1.2819  0.6812 -0.3325
 8105SOL    HW235952   2.091   0.471  13.312 -1.5461 -2.7609  3.3927
 8106SOL     OW35953   4.667   3.526  17.129  0.5457 -0.1902 -0.6227
 8106SOL    HW135954   4.651   3.466  17.057 -0.7360  1.2086 -1.4865
 8106SOL    HW235955   4.585   3.515  17.176  0.4936  1.8844 -0.2041
 8107SOL     OW35956   3.870   1.118   0.982 -0.3338 -0.3111  0.0261
 8107SOL    HW135957   3.849   1.211   0.975 -0.0349 -0.2356  0.1414
 8107SOL    HW235958   3.855   1.090   0.892  0.6253  0.5005 -0.3937
 8108SOL     OW35959   2.174   1.396   0.318 -0.4830  0.0591  0.1102
 8108SOL    HW135960   2.190   1.477   0.270 -0.2062  0.6544  1.2005
 8108SOL    HW235961   2.212   1.338   0.252  0.4306  1.4208 -0.5504
 8109SOL     OW35962   0.967   2.519   9.597  0.0937 -0.0025  0.4593
 8109SOL    HW135963   0.895   2.455   9.603  2.0261 -2.0010  2.2236
 8109SOL    HW235964   0.998   2.513   9.688 -2.0532  0.5090  1.2316
 8110SOL     OW35965   0.079   1.537  13.724  0.2596  0.0992  0.2514
 8110SOL    HW135966   4.731   1.535  13.679  0.6727 -0.7456 -0.4945
 8110SOL    HW235967   0.081   1.460  13.782  3.0278  1.5914  2.1502
 8111SOL     OW35968   1.158   2.570   2.610 -0.6313  0.1716  0.1288
 8111SOL    HW135969   1.204   2.538   2.533 -1.5569 -2.2938  0.6101
 8111SOL    HW235970   1.171   2.504   2.679 -0.0735  0.2751  0.1240
 8112SOL     OW35971   2.779   2.537   5.047  0.5112 -0.2083 -0.1875
 8112SOL    HW135972   2.846   2.530   4.979  0.4092  1.9783 -0.4920
 8112SOL    HW235973   2.813   2.611   5.098  0.6708 -0.3541 -0.0821
 8113SOL     OW35974   0.407   4.472   4.159 -0.2016 -0.3118  0.4467
 8113SOL    HW135975   0.314   4.476   4.182 -0.7780  0.7972 -2.0820
 8113SOL    HW235976   0.430   4.398   4.214  0.3355 -1.3924 -1.2114
 8114SOL     OW35977   2.063   2.540   5.635  0.1645 -0.5805  0.5706
 8114SOL    HW135978   2.068   2.615   5.575  1.3153  0.0603  1.4498
 8114SOL    HW235979   1.996   2.574   5.695  2.5180  0.4302  2.6479
 8115SOL     OW35980   3.103   3.560   9.560 -0.8247  0.4088  0.1023
 8115SOL    HW135981   3.142   3.509   9.489 -1.0947 -1.3466  1.2124
 8115SOL    HW235982   3.014   3.525   9.555 -1.8211  2.9543  0.0374
 8116SOL     OW35983   2.725   3.672  11.899  0.4342  1.0677 -0.1578
 8116SOL    HW135984   2.643   3.624  11.912  0.9994 -0.1787 -1.1668
 8116SOL    HW235985   2.797   3.619  11.931 -0.0684  1.2312  1.2438
 8117SOL     OW35986   0.151   4.380   8.128  0.1733 -0.0585  0.0558
 8117SOL    HW135987   0.242   4.401   8.149  1.3212 -1.6927 -3.3076
 8117SOL    HW235988   0.141   4.419   8.041  1.6265  0.8787  0.2906
 8118SOL     OW35989   2.790   3.635   3.219  0.0448  0.2141  0.2784
 8118SOL    HW135990   2.817   3.572   3.286 -0.1256  0.9846  1.0725
 8118SOL    HW235991   2.774   3.710   3.276  1.8954  0.9714 -0.1922
 8119SOL     OW35992   0.437   1.522   3.290  0.2353 -0.0989  0.6754
 8119SOL    HW135993   0.387   1.523   3.208  0.8315  0.4990  0.3103
 8119SOL    HW235994   0.515   1.472   3.266 -1.2335 -2.8581  1.7048
 8120SOL     OW35995   3.021   0.149  10.481 -0.0651  0.1941 -0.3531
 8120SOL    HW135996   2.948   0.192  10.526 -0.7194  0.1291 -1.3477
 8120SOL    HW235997   3.094   0.157  10.542  0.1984  0.8217 -0.7517
 8121SOL     OW35998   0.812   0.829   9.422  0.3327 -0.2969 -0.0878
 8121SOL    HW135999   0.872   0.877   9.479 -1.7498 -0.4647  2.2400
 8121SOL    HW236000   0.738   0.827   9.482 -0.8466 -0.3999 -1.5345
 8122SOL     OW36001   1.804   1.487   0.482  0.2024 -0.5559 -0.3814
 8122SOL    HW136002   1.818   1.480   0.576  0.9934  0.6829 -0.4156
 8122SOL    HW236003   1.894   1.502   0.451  0.3448  0.8744  0.7840
 8123SOL     OW36004   3.829   2.952   0.169 -0.4967  0.5335  0.7183
 8123SOL    HW136005   3.767   2.920   0.235  1.0656 -2.2154  0.8657
 8123SOL    HW236006   3.773   2.974   0.094 -0.6436  1.8676  1.2285
 8124SOL     OW36007   2.576   1.775  14.014 -0.5409  0.0150  0.0042
 8124SOL    HW136008   2.545   1.685  14.020 -2.2719  0.7351  1.5877
 8124SOL    HW236009   2.590   1.801  14.105 -1.1120 -0.3351  0.1850
 8125SOL     OW36010   2.320   1.859   8.345 -0.4342 -0.2173 -0.1845
 8125SOL    HW136011   2.340   1.948   8.372 -1.2234 -0.1516  0.1823
 8125SOL    HW236012   2.295   1.870   8.253  2.4887  2.1830 -0.6828
 8126SOL     OW36013   4.732   1.384   5.869  0.0481  0.4833  0.0522
 8126SOL    HW136014   0.000   1.345   5.956  2.2759 -0.2233 -0.3783
 8126SOL    HW236015   0.086   1.415   5.857 -1.1839  3.3559 -1.8904
 8127SOL     OW36016   0.847   0.936   9.151  0.0498 -0.0559 -0.4409
 8127SOL    HW136017   0.941   0.940   9.134  0.4722  0.7139  2.0171
 8127SOL    HW236018   0.842   0.889   9.235 -0.7081 -0.6583 -0.8199
 8128SOL     OW36019   4.633   3.928   1.797 -0.0422 -0.3421 -0.2385
 8128SOL    HW136020   4.666   3.965   1.879 -1.0978  1.1241 -0.4766
 8128SOL    HW236021   4.632   3.999   1.734 -0.7049  2.1074  2.5309
 8129SOL     OW36022   1.239   3.477   6.378 -0.1898  0.2602 -0.3673
 8129SOL    HW136023   1.289   3.540   6.326  3.4297 -1.8882  0.5473
 8129SOL    HW236024   1.233   3.404   6.317  0.7039 -0.2134  0.1145
 8130SOL     OW36025   1.027   4.446  10.040 -0.0496  0.1570 -0.1550
 8130SOL    HW136026   0.980   4.365  10.022  0.1398 -0.5316  2.4000
 8130SOL    HW236027   1.052   4.432  10.131  1.4168  0.2265 -0.5446
 8131SOL     OW36028   0.720   1.974   3.137 -0.3948 -0.2539  0.3996
 8131SOL    HW136029   0.706   2.052   3.191  0.1753  0.9186 -1.1312
 8131SOL    HW236030   0.752   1.907   3.197  1.3629  0.0726 -0.1897
 8132SOL     OW36031   4.675   2.362  15.663  0.5323 -0.1227 -0.2846
 8132SOL    HW136032   4.604   2.422  15.638  0.0330 -0.1753  1.0007
 8132SOL    HW236033   4.636   2.275  15.651 -2.0053  0.8950  0.3902
 8133SOL     OW36034   2.632   4.002   0.423 -0.3753  0.2063 -0.2708
 8133SOL    HW136035   2.705   3.940   0.425 -0.8827 -0.2090  4.0346
 8133SOL    HW236036   2.684   4.082   0.434  0.3692 -0.1394 -1.1785
 8134SOL     OW36037   2.821   3.790   5.687  0.4928 -0.0841  0.1296
 8134SOL    HW136038   2.900   3.832   5.720  0.1477 -0.0127  0.8524
 8134SOL    HW236039   2.830   3.814   5.594 -1.2453 -0.1661 -0.0623
 8135SOL     OW36040   0.167   4.122   4.160  0.4968 -0.4657 -0.1347
 8135SOL    HW136041   0.141   4.040   4.117 -0.5934 -0.9109  1.3828
 8135SOL    HW236042   0.255   4.092   4.183 -0.9620 -3.0658  2.1223
 8136SOL     OW36043   0.393   2.811   5.320 -0.3153 -0.0780 -0.0128
 8136SOL    HW136044   0.426   2.734   5.367 -0.5832 -1.0075 -1.3552
 8136SOL    HW236045   0.305   2.778   5.304  0.1656 -0.4967 -1.8228
 8137SOL     OW36046   1.008   0.887   5.332 -0.5279  0.2866  0.1245
 8137SOL    HW136047   1.047   0.893   5.245 -0.0384  0.4755  0.3588
 8137SOL    HW236048   1.076   0.850   5.388  0.8197  0.6088 -1.2984
 8138SOL     OW36049   2.654   1.674   2.590 -0.5530  0.6071  0.1329
 8138SOL    HW136050   2.689   1.657   2.502 -3.1255 -1.9640 -0.3815
 8138SOL    HW236051   2.735   1.702   2.634 -0.0955  2.1519 -1.6637
 8139SOL     OW36052   0.155   3.541   7.787 -0.4096  0.5266  0.0844
 8139SOL    HW136053   0.231   3.576   7.740  0.0055 -0.6654 -0.1388
 8139SOL    HW236054   0.097   3.520   7.713  0.4998  0.4715 -0.6189
 8140SOL     OW36055   2.426   4.410   2.668  0.3788 -0.4006 -0.2008
 8140SOL    HW136056   2.499   4.376   2.720 -1.3709  0.2468  2.6410
 8140SOL    HW236057   2.382   4.326   2.650 -0.9549  0.2722 -0.0782
 8141SOL     OW36058   1.428   3.512   3.892 -0.5138 -0.1352 -0.0734
 8141SOL    HW136059   1.372   3.579   3.853 -1.0042  0.0477  0.9584
 8141SOL    HW236060   1.492   3.562   3.943 -0.8374  0.0685  0.1305
 8142SOL     OW36061   0.603   2.999   5.683 -0.6803  0.6411  0.5340
 8142SOL    HW136062   0.679   2.992   5.741 -1.5418 -0.6928  1.4995
 8142SOL    HW236063   0.578   3.089   5.702  1.6664  0.9613  2.0903
 8143SOL     OW36064   3.162   1.774   7.927  0.0241  0.2496  0.0769
 8143SOL    HW136065   3.074   1.763   7.890 -0.3578 -0.7679  1.3043
 8143SOL    HW236066   3.148   1.719   8.004  0.0488 -1.1618 -0.9221
 8144SOL     OW36067   2.180   1.223   3.762  0.3893  0.2276  0.3857
 8144SOL    HW136068   2.177   1.130   3.783  0.3597 -0.0744 -0.9840
 8144SOL    HW236069   2.090   1.231   3.732  0.8482  0.2687 -0.9729
 8145SOL     OW36070   3.313   3.639   8.527 -0.3394  0.6841  0.0788
 8145SOL    HW136071   3.321   3.546   8.548  1.2217  0.3219 -2.0341
 8145SOL    HW236072   3.375   3.682   8.586  0.1575 -0.8692  0.6759
 8146SOL     OW36073   0.211   1.113  14.696  0.2844 -0.4633  0.0928
 8146SOL    HW136074   0.241   1.122  14.606 -2.0533 -1.1490 -0.7327
 8146SOL    HW236075   0.240   1.198  14.730  0.3257  0.5572 -2.5187
 8147SOL     OW36076   4.507   2.374   7.230  0.1323 -0.1297  0.5327
 8147SOL    HW136077   4.533   2.446   7.288 -2.5780 -1.3164  3.2441
 8147SOL    HW236078   4.593   2.341   7.204  0.0341  0.3927 -0.4355
 8148SOL     OW36079   2.813   0.492  10.611  0.2313 -0.2750 -0.4130
 8148SOL    HW136080   2.842   0.538  10.533 -0.9423 -0.4320 -0.9303
 8148SOL    HW236081   2.752   0.553  10.652  0.7499 -0.6104  0.8828
 8149SOL     OW36082   3.168   0.191   8.377 -0.1033 -0.3167  0.7996
 8149SOL    HW136083   3.122   0.108   8.392  1.3022 -1.0608  1.0224
 8149SOL    HW236084   3.105   0.260   8.398 -1.2400 -0.9848 -0.4108
 8150SOL     OW36085   3.434   3.264   9.698 -0.2180  0.3144 -0.2040
 8150SOL    HW136086   3.418   3.184   9.648  1.7477 -0.7920  0.9511
 8150SOL    HW236087   3.509   3.296   9.646  1.7493 -1.0529  1.7955
 8151SOL     OW36088   1.433   1.827  14.382 -0.5883 -0.0450  0.2300
 8151SOL    HW136089   1.494   1.853  14.313 -1.5609  1.3741 -0.1079
 8151SOL    HW236090   1.445   1.735  14.404 -1.1456 -0.0265  0.6197
 8152SOL     OW36091   1.743   1.164   0.386  0.0367 -0.0835  0.2912
 8152SOL    HW136092   1.837   1.161   0.399 -0.0042  0.4186  0.7066
 8152SOL    HW236093   1.730   1.225   0.314 -1.4203 -1.4264 -0.5954
 8153SOL     OW36094   4.405   1.751   4.659 -0.0558  0.6296 -0.0235
 8153SOL    HW136095   4.321   1.787   4.686 -0.9103 -0.8126 -0.7376
 8153SOL    HW236096   4.377   1.670   4.616  2.0586 -0.5365  0.7827
 8154SOL     OW36097   2.415   2.802   4.229  0.2326  0.2565 -0.1316
 8154SOL    HW136098   2.466   2.881   4.210 -2.2470  1.8059 -0.3546
 8154SOL    HW236099   2.466   2.754   4.294  0.4631  0.3996 -0.2073
 8155SOL     OW36100   0.970   0.697   2.228  0.0279 -0.0802  0.4032
 8155SOL    HW136101   0.933   0.780   2.258 -1.3262 -0.5187 -0.0429
 8155SOL    HW236102   1.059   0.716   2.258  0.3831  3.6851 -3.1869
 8156SOL     OW36103   2.222   4.643   1.661  0.4317 -0.1066 -0.1145
 8156SOL    HW136104   2.255   4.733   1.667  1.8003 -0.5471 -1.0481
 8156SOL    HW236105   2.214   4.616   1.752 -0.2778 -0.0756 -0.1697
 8157SOL     OW36106   3.219   0.858  16.694 -0.9850  0.0770  0.4478
 8157SOL    HW136107   3.281   0.867  16.622 -0.2740  0.5261  1.1038
 8157SOL    HW236108   3.166   0.937  16.681 -1.4637  0.1259  2.6306
 8158SOL     OW36109   1.630   1.240  16.095  0.9245  0.3407  0.1365
 8158SOL    HW136110   1.543   1.210  16.121  0.6485 -1.1506 -2.4545
 8158SOL    HW236111   1.679   1.167  16.133 -0.2348  0.5892  2.0977
 8159SOL     OW36112   4.365   1.461   3.402  0.0495  0.5379 -0.8648
 8159SOL    HW136113   4.429   1.415   3.455 -2.3641  0.4418  1.9389
 8159SOL    HW236114   4.314   1.505   3.470 -0.3621 -0.1542 -0.7316
 8160SOL     OW36115   0.062   4.465   2.669 -0.2461  0.0482  0.4124
 8160SOL    HW136116   0.060   4.550   2.624 -1.8392  0.4287  1.1923
 8160SOL    HW236117   0.002   4.413   2.614  0.1092 -0.2867  0.3462
 8161SOL     OW36118   4.046   4.452   3.389  0.4575  0.1705  0.5232
 8161SOL    HW136119   4.060   4.401   3.469 -0.9881  3.0561  2.6117
 8161SOL    HW236120   4.135   4.483   3.373  0.0390  0.6402 -0.8838
 8162SOL     OW36121   0.328   3.785   3.607 -0.3362  0.0582 -0.3301
 8162SOL    HW136122   0.418   3.817   3.616  0.5208 -2.4191 -0.1824
 8162SOL    HW236123   0.307   3.794   3.514  0.6348  0.5189 -0.4955
 8163SOL     OW36124   3.022   3.558   8.052 -0.5877 -0.4568 -0.2758
 8163SOL    HW136125   2.996   3.639   8.096 -0.3901 -0.8406  0.5634
 8163SOL    HW236126   3.116   3.565   8.041 -0.7400  1.7536 -0.1971
 8164SOL     OW36127   3.306   3.840   3.867 -0.0419  0.2956 -0.1253
 8164SOL    HW136128   3.305   3.885   3.951 -0.1370 -0.1419  0.1079
 8164SOL    HW236129   3.395   3.864   3.842  0.6581  0.5285  2.5667
 8165SOL     OW36130   0.610   4.670  11.009  1.0534 -0.1870 -0.0437
 8165SOL    HW136131   0.634   4.688  10.918 -0.1815 -1.0651 -0.5432
 8165SOL    HW236132   0.608   4.575  11.010  1.0350 -0.1696  1.2145
 8166SOL     OW36133   1.557   0.399  13.270  0.4369  0.0293 -0.0321
 8166SOL    HW136134   1.524   0.364  13.187  1.0537  1.1779 -0.7540
 8166SOL    HW236135   1.560   0.320  13.323  0.3124 -0.3961 -0.6503
 8167SOL     OW36136   3.621   1.983   6.586  0.1612 -0.3913  0.3899
 8167SOL    HW136137   3.560   1.922   6.628 -0.0201 -0.3934  0.1200
 8167SOL    HW236138   3.616   2.065   6.635 -1.8348 -1.0258  1.2608
 8168SOL     OW36139   2.441   1.174  15.261  0.5161  0.0425  0.0109
 8168SOL    HW136140   2.484   1.257  15.281 -1.4987  2.0067 -3.9367
 8168SOL    HW236141   2.379   1.158  15.332  0.5031  1.0647  0.2209
 8169SOL     OW36142   1.973   1.830   5.793 -0.1243  0.4086 -0.1047
 8169SOL    HW136143   1.982   1.783   5.876  1.8250 -0.5277 -0.8383
 8169SOL    HW236144   1.914   1.768   5.749  0.0623 -0.3370  0.6872
 8170SOL     OW36145   1.018   3.440   9.952 -0.0130 -0.6523 -0.6260
 8170SOL    HW136146   0.939   3.493   9.958  0.9812  0.9029 -1.3112
 8170SOL    HW236147   1.046   3.479   9.869  0.3319 -0.7414 -0.5502
 8171SOL     OW36148   2.657   0.615   0.913 -0.1216 -0.5742  0.4629
 8171SOL    HW136149   2.594   0.680   0.883  0.3097  0.1853  1.2042
 8171SOL    HW236150   2.614   0.532   0.893 -0.7429 -0.3134  0.7546
 8172SOL     OW36151   2.724   1.143  14.222 -0.2638 -0.2022  0.1055
 8172SOL    HW136152   2.741   1.092  14.143  0.0185 -0.4951  0.3518
 8172SOL    HW236153   2.759   1.090  14.294  0.4886  0.5998  0.3243
 8173SOL     OW36154   1.976   2.484  11.636 -0.4592  0.1011 -0.2525
 8173SOL    HW136155   1.952   2.523  11.720  1.8405  3.9233 -1.4040
 8173SOL    HW236156   2.070   2.495  11.633 -0.4324 -0.5525 -1.6627
 8174SOL     OW36157   1.081   4.353   6.565  0.6605  0.0796 -0.0691
 8174SOL    HW136158   1.041   4.287   6.621  1.5299  0.8554  1.4764
 8174SOL    HW236159   1.019   4.354   6.492  1.1647  1.8903 -0.4894
 8175SOL     OW36160   1.126   0.191   8.254  0.7153  0.2292  0.0210
 8175SOL    HW136161   1.169   0.217   8.172  1.5953 -2.0390 -0.2325
 8175SOL    HW236162   1.071   0.266   8.279 -1.6596 -1.5450  0.0388
 8176SOL     OW36163   3.068   0.777   3.094 -0.1073  0.2827  0.5007
 8176SOL    HW136164   3.086   0.871   3.097 -2.5265  0.7304  1.3217
 8176SOL    HW236165   2.991   0.771   3.151  1.5542  0.8052  2.7400
 8177SOL     OW36166   2.763   3.131  15.282  0.5413 -0.0473  0.4617
 8177SOL    HW136167   2.748   3.184  15.204  1.2413 -2.3035 -1.2108
 8177SOL    HW236168   2.858   3.145  15.280  0.5506  0.0288  1.3064
 8178SOL     OW36169   3.409   0.580   5.494 -0.2071 -0.4061 -0.0719
 8178SOL    HW136170   3.417   0.609   5.585 -1.2346  0.0337 -0.1257
 8178SOL    HW236171   3.455   0.496   5.497 -0.7117 -0.6751  0.1915
 8179SOL     OW36172   0.126   0.161   6.452 -0.0661  0.6812  0.3464
 8179SOL    HW136173   0.043   0.148   6.498 -0.4332 -0.8659 -0.7664
 8179SOL    HW236174   0.195   0.132   6.511  2.2595  1.7213 -1.8850
 8180SOL     OW36175   1.272   1.702   9.067  0.8430 -0.0439 -0.5398
 8180SOL    HW136176   1.337   1.746   9.123  0.2904  2.3475 -1.7794
 8180SOL    HW236177   1.252   1.622   9.116  0.9886  0.8665  1.0082
 8181SOL     OW36178   2.560   2.393   1.674  0.2744  0.3392  0.8841
 8181SOL    HW136179   2.556   2.439   1.590  1.1652 -0.5706  0.3356
 8181SOL    HW236180   2.571   2.463   1.739 -0.4474  0.3470  0.9888
 8182SOL     OW36181   4.591   3.278   5.885 -0.6511  1.0365 -0.2526
 8182SOL    HW136182   4.636   3.194   5.881  0.7566  1.6894  1.8233
 8182SOL    HW236183   4.499   3.252   5.897 -0.1543 -0.1383  1.0359
 8183SOL     OW36184   3.511   0.072   5.186  0.3420  0.6290 -0.1961
 8183SOL    HW136185   3.502   0.061   5.091  0.6251 -1.5269  0.0385
 8183SOL    HW236186   3.523   4.717   5.208 -0.5722  0.4169 -0.5907
 8184SOL     OW36187   2.817   1.555   5.653  0.3081  0.2808  0.3778
 8184SOL    HW136188   2.784   1.592   5.571 -0.5042 -3.8512 -1.1408
 8184SOL    HW236189   2.750   1.576   5.718  1.0032 -1.5454  1.6851
 8185SOL     OW36190   0.199   0.850   2.336 -0.1174  0.2763  0.2698
 8185SOL    HW136191   0.264   0.885   2.397 -0.1459  0.3780  0.2423
 8185SOL    HW236192   0.161   0.927   2.294 -0.4558  0.4253  0.8566
 8186SOL     OW36193   3.727   2.093   6.330 -0.3314  0.1371  0.2939
 8186SOL    HW136194   3.771   2.107   6.246 -2.2703 -1.2217 -0.9614
 8186SOL    HW236195   3.784   2.033   6.379 -0.5815 -0.2813  0.0772
 8187SOL     OW36196   0.477   0.383  14.781 -0.6898 -0.7413  0.5348
 8187SOL    HW136197   0.559   0.418  14.744 -2.0520  1.5747 -0.3174
 8187SOL    HW236198   0.430   0.464  14.800  1.5893  1.0859 -1.5433
 8188SOL     OW36199   1.597   1.913   2.546  0.6810  0.6026  0.1123
 8188SOL    HW136200   1.669   1.935   2.487  1.0313 -1.0094 -0.0586
 8188SOL    HW236201   1.568   1.826   2.518 -3.4461  2.3343 -0.9585
 8189SOL     OW36202   4.551   4.239   6.341 -0.3084 -0.3789  0.3634
 8189SOL    HW136203   4.473   4.241   6.285  0.5370  0.6284 -0.7730
 8189SOL    HW236204   4.616   4.253   6.273 -1.8196 -1.8573 -1.3701
 8190SOL     OW36205   2.290   4.010   6.183 -0.1752 -0.3047 -0.0241
 8190SOL    HW136206   2.291   4.090   6.237  1.6101 -0.6625  0.4677
 8190SOL    HW236207   2.262   3.938   6.240  0.7492 -0.0855  0.7233
 8191SOL     OW36208   1.591   4.271   0.492 -0.0291  0.3045  0.3028
 8191SOL    HW136209   1.558   4.361   0.487 -1.3585 -0.2815 -1.3812
 8191SOL    HW236210   1.677   4.279   0.450 -1.0423 -0.7299 -1.9815
 8192SOL     OW36211   4.046   1.060   9.597 -0.4387 -0.2482  0.3670
 8192SOL    HW136212   4.063   1.038   9.688 -2.9212 -2.6795  0.2162
 8192SOL    HW236213   3.961   1.101   9.611  0.4865  0.5210  3.6535
 8193SOL     OW36214   2.969   3.265   1.893 -0.0486 -0.2054  0.5723
 8193SOL    HW136215   2.928   3.248   1.808 -0.9299  0.8839  0.7858
 8193SOL    HW236216   2.887   3.266   1.943  0.0542  0.6723  0.7208
 8194SOL     OW36217   1.314   2.090   4.593 -0.0636 -0.1131 -0.4720
 8194SOL    HW136218   1.259   2.157   4.634 -2.4977 -1.7343 -1.0914
 8194SOL    HW236219   1.368   2.146   4.538 -1.4739 -0.6278 -2.3927
 8195SOL     OW36220   1.626   2.008   3.012 -0.0213  1.6401  0.1246
 8195SOL    HW136221   1.541   2.031   3.050  0.0757  1.1167  0.6617
 8195SOL    HW236222   1.606   1.971   2.926 -0.6294  0.3414  0.8218
 8196SOL     OW36223   0.585   0.635   7.883 -0.0567  0.3037 -0.6188
 8196SOL    HW136224   0.577   0.731   7.880  0.2562  0.2630 -3.5218
 8196SOL    HW236225   0.520   0.611   7.949  1.0231 -1.0892 -0.0709
 8197SOL     OW36226   3.532   4.050   5.236  0.2253  0.4054  0.0131
 8197SOL    HW136227   3.479   4.098   5.173 -0.7884 -3.0931 -1.8208
 8197SOL    HW236228   3.465   4.000   5.282 -0.6779  2.8925  1.3655
 8198SOL     OW36229   0.718   0.960   7.313 -0.0204  0.3264  0.5171
 8198SOL    HW136230   0.622   0.962   7.308 -0.0042 -1.7231 -0.9387
 8198SOL    HW236231   0.738   0.980   7.222 -2.0530 -0.9687 -0.2207
 8199SOL     OW36232   3.334   2.589   6.473  0.5625 -0.7987 -0.1617
 8199SOL    HW136233   3.249   2.575   6.431  1.3559 -0.3845 -1.9374
 8199SOL    HW236234   3.323   2.545   6.557  1.0157 -0.1003  0.2602
 8200SOL     OW36235   0.715   4.382   6.581  0.5763 -0.1291 -0.1269
 8200SOL    HW136236   0.670   4.464   6.602  1.3975  0.0134  1.1319
 8200SOL    HW236237   0.802   4.409   6.552  0.2854 -0.3788 -1.2199
 8201SOL     OW36238   1.031   0.890   7.184  0.1192  0.0640 -0.2719
 8201SOL    HW136239   0.987   0.811   7.153  2.0870 -0.9925 -0.3830
 8201SOL    HW236240   1.015   0.944   7.107  1.8681  0.1519 -0.5764
 8202SOL     OW36241   4.230   0.038   6.952 -0.0032  0.3181  0.1657
 8202SOL    HW136242   4.155   0.074   6.999 -0.2725 -0.3607  0.2503
 8202SOL    HW236243   4.224   0.063   6.860 -1.1478  0.5164  0.2927
 8203SOL     OW36244   3.969   3.308   5.901  0.1322 -0.7597 -0.0241
 8203SOL    HW136245   3.918   3.339   5.976  1.5835 -0.5413  0.8795
 8203SOL    HW236246   3.965   3.213   5.911 -0.6151 -0.5891  1.4038
 8204SOL     OW36247   4.298   1.699  15.128 -0.0516  0.2831  0.2004
 8204SOL    HW136248   4.378   1.651  15.107  0.4497  0.9369  0.6230
 8204SOL    HW236249   4.319   1.791  15.112 -0.6119 -0.1719 -3.0937
 8205SOL     OW36250   4.696   1.023   5.063  0.2161 -0.6839 -0.2026
 8205SOL    HW136251   4.669   0.950   5.008  0.8576  0.3838 -1.9313
 8205SOL    HW236252   0.055   1.019   5.060  0.2559  0.1937 -0.1736
 8206SOL     OW36253   4.233   3.617   4.283 -0.4821 -0.2612 -0.4644
 8206SOL    HW136254   4.143   3.626   4.252 -1.0596 -0.8624  1.0457
 8206SOL    HW236255   4.227   3.532   4.327  2.6430 -0.3965 -0.2754
 8207SOL     OW36256   2.746   1.018   6.096  0.0587  0.0989 -0.0672
 8207SOL    HW136257   2.752   0.993   6.189 -1.3733  1.1979  0.3258
 8207SOL    HW236258   2.796   0.952   6.047  0.5932  1.0566 -0.7871
 8208SOL     OW36259   4.242   0.207   8.125 -0.1990  0.0364 -0.1278
 8208SOL    HW136260   4.219   0.216   8.218  1.4416  1.6104  0.1225
 8208SOL    HW236261   4.167   0.238   8.074  0.5775  0.3762 -1.0550
 8209SOL     OW36262   3.652   2.111  12.371 -0.3030 -0.6695 -0.2920
 8209SOL    HW136263   3.748   2.118  12.367 -0.3267 -0.2168 -0.1274
 8209SOL    HW236264   3.627   2.191  12.325 -2.5706 -1.2031  0.0270
 8210SOL     OW36265   2.423   3.545  15.553  0.6949 -0.0430 -0.2646
 8210SOL    HW136266   2.413   3.510  15.465  1.5649 -0.6739 -0.1101
 8210SOL    HW236267   2.337   3.525  15.590  0.6165  1.5863  0.4824
 8211SOL     OW36268   3.728   4.725   8.981 -0.2202  0.1975 -0.7972
 8211SOL    HW136269   3.708   0.039   9.059  0.0823 -2.9288  1.2893
 8211SOL    HW236270   3.661   4.656   8.985  0.2150 -0.2009 -0.4010
 8212SOL     OW36271   4.684   3.004   5.538  0.3984 -0.6682  0.5750
 8212SOL    HW136272   4.631   2.975   5.463 -1.7328 -0.2102  1.8842
 8212SOL    HW236273   0.032   2.978   5.503 -0.2551 -0.5623 -1.0862
 8213SOL     OW36274   0.631   1.840  12.946 -0.0330 -0.4338  0.2833
 8213SOL    HW136275   0.538   1.822  12.954  0.1523 -1.4241  0.1985
 8213SOL    HW236276   0.634   1.865  12.854 -2.2478 -2.9002 -0.4381
 8214SOL     OW36277   1.960   2.379   3.761  0.6386  0.1724 -0.0903
 8214SOL    HW136278   2.030   2.323   3.727 -0.4842 -0.6620 -1.0360
 8214SOL    HW236279   1.881   2.352   3.714 -0.1754 -1.6205  2.2959
 8215SOL     OW36280   3.138   0.741   0.104 -0.3045 -0.5343 -0.3256
 8215SOL    HW136281   3.213   0.745   0.045 -1.3414  1.3301 -1.4909
 8215SOL    HW236282   3.159   0.664   0.158 -1.5967 -0.8343 -0.2419
 8216SOL     OW36283   0.268   2.612   9.121  0.3676  0.0630 -0.4711
 8216SOL    HW136284   0.355   2.599   9.083  0.4475 -0.4527 -0.1181
 8216SOL    HW236285   0.279   2.621   9.216  2.4546 -0.9727 -0.6225
 8217SOL     OW36286   3.434   2.570  17.456 -0.0070  0.5219  0.2978
 8217SOL    HW136287   3.521   2.530  17.454  1.5836  3.8333  2.2931
 8217SOL    HW236288   3.379   2.493  17.471 -1.0218  0.7118 -2.3973
 8218SOL     OW36289   4.441   3.718  16.186 -0.3669  0.0634  0.0209
 8218SOL    HW136290   4.485   3.649  16.235  0.6511  0.0925 -0.8359
 8218SOL    HW236291   4.372   3.675  16.135  1.2810 -0.9614 -1.3527
 8219SOL     OW36292   3.044   0.728  13.590  0.2374 -0.1826  0.1703
 8219SOL    HW136293   3.118   0.758  13.643 -0.0861  1.5822 -0.3920
 8219SOL    HW236294   2.985   0.715  13.664 -0.7885  0.9065 -0.4805
 8220SOL     OW36295   2.645   2.207  11.723  0.1095  0.3890 -0.0050
 8220SOL    HW136296   2.740   2.201  11.713 -0.0718  1.2808 -2.1590
 8220SOL    HW236297   2.613   2.121  11.752  0.4748 -1.0765 -3.9752
 8221SOL     OW36298   0.103   1.521   7.333 -0.1819  0.1029 -0.1295
 8221SOL    HW136299   0.150   1.518   7.250  0.4458  0.7510  0.1910
 8221SOL    HW236300   0.170   1.564   7.388  0.8797  1.9803 -2.8770
 8222SOL     OW36301   3.909   1.906   5.461  0.1824  0.1920 -0.0445
 8222SOL    HW136302   3.855   1.917   5.383  0.4798 -0.7840 -0.3894
 8222SOL    HW236303   3.970   1.980   5.462  1.1989 -0.6767  2.8170
 8223SOL     OW36304   3.782   2.894   5.446  0.0609  0.3815  0.3164
 8223SOL    HW136305   3.688   2.879   5.460  0.8769 -2.4997  2.6325
 8223SOL    HW236306   3.803   2.954   5.518 -0.0716  1.5105 -0.5823
 8224SOL     OW36307   1.522   0.893   5.931  0.0003 -0.3825 -0.3347
 8224SOL    HW136308   1.541   0.938   5.848 -1.4456 -0.0524 -0.4772
 8224SOL    HW236309   1.562   0.953   5.994  0.4830 -1.6961  0.6167
 8225SOL     OW36310   2.580   0.346   0.889  0.0516 -0.1344 -0.1708
 8225SOL    HW136311   2.644   0.276   0.880  0.7324  0.7172 -2.0042
 8225SOL    HW236312   2.513   0.300   0.838  1.3405 -0.5862 -1.4525
 8226SOL     OW36313   1.648   0.866   9.609 -0.0121 -0.1884  0.1019
 8226SOL    HW136314   1.738   0.861   9.640 -0.2518 -1.5436  0.5673
 8226SOL    HW236315   1.618   0.933   9.671  2.1871  0.8355  0.0797
 8227SOL     OW36316   0.453   2.991  11.585  0.0118 -0.0687  0.0241
 8227SOL    HW136317   0.458   2.922  11.651  0.7678 -0.9985 -1.0075
 8227SOL    HW236318   0.464   2.947  11.501  1.4773 -1.7439  1.1141
 8228SOL     OW36319   1.830   3.002   5.171  0.5771 -0.2783 -0.2608
 8228SOL    HW136320   1.800   2.972   5.257  1.6579 -0.7263 -0.0336
 8228SOL    HW236321   1.744   3.016   5.132  0.5203  2.0107  0.6980
 8229SOL     OW36322   2.019   0.902  12.782  0.1477  0.1285 -0.0727
 8229SOL    HW136323   2.092   0.905  12.720  0.3611 -2.1980  0.0649
 8229SOL    HW236324   2.077   0.854  12.841 -2.2047 -0.8526  1.3917
 8230SOL     OW36325   1.304   4.557  10.673  0.3400  0.0530  0.1717
 8230SOL    HW136326   1.287   4.470  10.709 -0.7728  0.9835  1.8616
 8230SOL    HW236327   1.316   4.517  10.587  0.3621  0.3367  0.0430
 8231SOL     OW36328   2.979   2.588   7.561  0.4366 -0.4187 -1.0240
 8231SOL    HW136329   2.920   2.521   7.526 -0.9338 -0.5580  1.5117
 8231SOL    HW236330   2.950   2.664   7.511  2.9983  0.5678 -1.0282
 8232SOL     OW36331   3.131   3.101   0.854 -0.1446  0.6587 -0.0201
 8232SOL    HW136332   3.107   3.193   0.867  2.3899  1.3833 -0.6102
 8232SOL    HW236333   3.154   3.113   0.762 -0.0869 -0.6034 -0.1624
 8233SOL     OW36334   0.170   1.922   5.635  0.1267 -0.3900 -0.1259
 8233SOL    HW136335   0.084   1.906   5.596 -1.1291 -0.8457  2.8525
 8233SOL    HW236336   0.231   1.886   5.571 -0.7353  0.4064 -1.3905
 8234SOL     OW36337   0.349   3.171  16.229 -0.0539  0.0687 -0.3280
 8234SOL    HW136338   0.295   3.118  16.288  1.9190  0.2963  1.6845
 8234SOL    HW236339   0.285   3.178  16.158  0.9395  2.7093 -0.9639
 8235SOL     OW36340   4.608   3.030   3.191 -1.1190 -0.2320  0.1275
 8235SOL    HW136341   4.559   2.962   3.238 -1.1894 -0.9944 -1.0384
 8235SOL    HW236342   4.693   3.012   3.232 -2.4204 -1.9006  2.0955
 8236SOL     OW36343   2.291   4.379  13.715 -0.2590  0.1988 -0.2890
 8236SOL    HW136344   2.228   4.450  13.730  0.2785  1.2528 -3.1837
 8236SOL    HW236345   2.366   4.404  13.768  0.6366 -4.9611  0.8590
 8237SOL     OW36346   3.925   3.469   9.649 -0.1922 -1.0445 -0.0596
 8237SOL    HW136347   3.954   3.430   9.566 -2.4183 -3.2653  0.1863
 8237SOL    HW236348   3.911   3.392   9.704 -1.7957 -1.0917 -0.5284
 8238SOL     OW36349   4.346   0.868   3.354  0.1272  0.3011 -0.2484
 8238SOL    HW136350   4.309   0.954   3.373 -1.1561 -0.1616 -0.6772
 8238SOL    HW236351   4.307   0.802   3.411 -2.3779  2.1367  0.1481
 8239SOL     OW36352   0.427   2.056   9.602 -0.3837 -0.2321 -0.3241
 8239SOL    HW136353   0.392   2.052   9.512 -0.1507  1.3329 -0.4910
 8239SOL    HW236354   0.383   1.981   9.642  1.2590 -0.1138  1.7119
 8240SOL     OW36355   1.571   1.742   6.426 -0.3011 -0.6806  0.1179
 8240SOL    HW136356   1.597   1.814   6.369 -0.2115 -0.0863  0.9140
 8240SOL    HW236357   1.654   1.712   6.461 -0.0507 -0.4685 -0.2922
 8241SOL     OW36358   1.799   2.122   1.271  0.1038 -0.9965  0.0467
 8241SOL    HW136359   1.870   2.085   1.323 -0.1947 -0.4025  0.8778
 8241SOL    HW236360   1.746   2.164   1.338 -0.4190 -1.2807 -0.1868
 8242SOL     OW36361   3.997   3.004   7.057  0.1888 -0.5709 -0.2963
 8242SOL    HW136362   3.934   3.028   7.125  1.8378 -2.1754  1.7801
 8242SOL    HW236363   4.005   2.909   7.065  2.8441 -0.4066 -1.0476
 8243SOL     OW36364   2.838   0.516   8.367 -0.7868 -0.1478  0.1003
 8243SOL    HW136365   2.792   0.433   8.380  1.5620 -1.2245  1.5857
 8243SOL    HW236366   2.764   0.557   8.322  0.7780 -0.0166 -2.3775
 8244SOL     OW36367   3.355   4.461   6.832 -0.4872 -0.0851 -0.4131
 8244SOL    HW136368   3.313   4.454   6.746 -0.6130 -3.1777 -0.1025
 8244SOL    HW236369   3.316   4.384   6.872 -1.1408 -0.0710 -1.0087
 8245SOL     OW36370   1.215   1.153  15.367 -0.0130  0.2532 -0.1774
 8245SOL    HW136371   1.296   1.113  15.397  0.3598  1.4787  0.4405
 8245SOL    HW236372   1.196   1.121  15.279  1.2699  0.2592 -0.4496
 8246SOL     OW36373   2.862   0.973  15.654  0.1831 -0.1937 -0.4243
 8246SOL    HW136374   2.910   1.048  15.687 -0.0649 -1.5131  2.9190
 8246SOL    HW236375   2.788   1.017  15.613  0.6788  1.2805  0.2652
 8247SOL     OW36376   3.220   0.704   3.922 -0.3306 -0.3515 -0.9070
 8247SOL    HW136377   3.172   0.743   3.849  0.9797  0.3881 -1.3657
 8247SOL    HW236378   3.150   0.653   3.962 -1.0444  0.9340 -0.4890
 8248SOL     OW36379   2.954   1.174  10.405  0.1769  0.3986  0.3140
 8248SOL    HW136380   2.930   1.253  10.453 -1.2154  0.2222 -0.0990
 8248SOL    HW236381   2.976   1.203  10.317  1.4652 -1.0039  0.1683
 8249SOL     OW36382   3.693   0.115   7.729 -0.2237 -0.1323 -0.1399
 8249SOL    HW136383   3.682   0.186   7.665 -0.5897 -0.2605 -0.2193
 8249SOL    HW236384   3.765   0.072   7.683 -2.0172 -2.2620 -0.9338
 8250SOL     OW36385   4.574   0.714   9.678  0.1905 -0.2287 -0.7665
 8250SOL    HW136386   4.553   0.739   9.588 -0.6965 -1.1033 -0.8076
 8250SOL    HW236387   4.559   0.619   9.678 -1.7514  0.0845  1.6384
 8251SOL     OW36388   1.398   4.547  16.851 -0.2410 -0.1487  0.1272
 8251SOL    HW136389   1.444   4.545  16.935  0.7067  0.2504 -0.3830
 8251SOL    HW236390   1.471   4.561  16.791  0.5903 -0.9029  0.9470
 8252SOL     OW36391   1.928   0.044  17.701  0.3419 -0.3776  0.0779
 8252SOL    HW136392   1.891   4.707   0.006  1.6242 -0.8230  0.3825
 8252SOL    HW236393   1.923   0.109   0.027 -1.0586 -0.6473  0.2375
 8253SOL     OW36394   4.508   4.295   4.100 -0.0717 -0.0232  0.0395
 8253SOL    HW136395   4.413   4.287   4.100 -0.0217 -0.6324 -0.7449
 8253SOL    HW236396   4.523   4.279   4.007 -0.0491  1.5523 -0.2202
 8254SOL     OW36397   4.647   1.178   7.929  0.3623 -0.0561 -0.4875
 8254SOL    HW136398   4.572   1.174   7.870 -0.1909  1.8429  0.0617
 8254SOL    HW236399   4.617   1.243   7.993  1.0030  0.7837 -1.0449
 8255SOL     OW36400   1.918   1.327   8.856 -0.8250 -0.6230 -0.0736
 8255SOL    HW136401   1.926   1.236   8.883  2.4989 -0.3899 -0.2564
 8255SOL    HW236402   2.006   1.334   8.818 -1.2657  0.6246 -0.8421
 8256SOL     OW36403   0.406   3.335  14.985  0.1328  0.1655  0.3324
 8256SOL    HW136404   0.418   3.312  14.893 -1.6315  0.1100  0.1098
 8256SOL    HW236405   0.482   3.284  15.014 -1.0115 -2.5077 -1.4011
 8257SOL     OW36406   0.271   2.481   5.147 -0.2079  0.3554  0.0677
 8257SOL    HW136407   0.259   2.452   5.238 -0.1230 -2.2552 -0.7711
 8257SOL    HW236408   0.339   2.419   5.123 -0.7784  0.7129 -2.4217
 8258SOL     OW36409   0.488   1.521   2.507 -0.1956 -0.1996  0.1947
 8258SOL    HW136410   0.575   1.482   2.499 -0.0113  0.6872 -1.9882
 8258SOL    HW236411   0.478   1.575   2.428  3.1098  1.2749  0.7682
 8259SOL     OW36412   3.562   0.839   9.028 -0.0650 -0.2967  0.2961
 8259SOL    HW136413   3.609   0.783   9.090 -2.3275 -0.1340  2.2010
 8259SOL    HW236414   3.490   0.779   9.007  0.1963 -0.1424 -1.0215
 8260SOL     OW36415   2.241   2.720  16.268 -0.1679  0.1369 -0.3700
 8260SOL    HW136416   2.229   2.630  16.301 -0.8763  0.0890 -0.7432
 8260SOL    HW236417   2.210   2.777  16.339 -0.4295  0.0949 -0.4474
 8261SOL     OW36418   0.259   2.861   4.292  0.0313 -0.1076  0.2979
 8261SOL    HW136419   0.179   2.907   4.268 -1.4244 -2.6902  0.1302
 8261SOL    HW236420   0.249   2.856   4.387 -0.3698  1.1422  0.3142
 8262SOL     OW36421   3.904   0.065   6.679 -0.1675 -0.0372 -0.0521
 8262SOL    HW136422   3.871   0.062   6.590  2.5547 -1.5171 -1.0031
 8262SOL    HW236423   3.988   0.100   6.649 -0.2700 -1.0081 -1.4823
 8263SOL     OW36424   1.568   2.104   5.739 -0.0578  0.4916  0.5100
 8263SOL    HW136425   1.643   2.132   5.687  0.4811 -2.6349 -0.3914
 8263SOL    HW236426   1.491   2.153   5.709  0.0201  1.0521  1.2308
 8264SOL     OW36427   1.389   1.627   4.029  0.3932 -0.5828 -0.5046
 8264SOL    HW136428   1.367   1.621   3.936  0.5379  1.7763 -0.6861
 8264SOL    HW236429   1.379   1.721   4.042  0.7064 -0.5724 -0.3453
 8265SOL     OW36430   3.244   0.379   8.663 -0.4074 -0.5737 -0.3730
 8265SOL    HW136431   3.328   0.346   8.695  0.4777  1.1345 -0.9566
 8265SOL    HW236432   3.199   0.302   8.628 -2.0807  0.8172 -1.2819
 8266SOL     OW36433   3.424   0.017   5.843  0.5540  0.1146 -0.1687
 8266SOL    HW136434   3.471   0.055   5.768  1.0366  1.6759  0.9146
 8266SOL    HW236435   3.428   4.660   5.823 -1.1878 -0.0719  0.4310
 8267SOL     OW36436   0.037   2.220  14.078 -0.0390 -0.8383 -0.1032
 8267SOL    HW136437   4.708   2.221  14.147  1.7727 -0.9853  1.6158
 8267SOL    HW236438   0.037   2.313  14.055  0.5140 -0.7801  0.1272
 8268SOL     OW36439   4.122   4.726   2.562 -0.0473 -0.4928 -0.1053
 8268SOL    HW136440   4.142   4.670   2.637  1.0477 -0.1694 -0.1609
 8268SOL    HW236441   4.187   4.693   2.499  0.5499 -0.2260  0.3796
 8269SOL     OW36442   2.480   2.304   8.088 -0.5441 -0.3377 -0.1788
 8269SOL    HW136443   2.559   2.279   8.041  0.0030 -2.0830  1.7150
 8269SOL    HW236444   2.509   2.274   8.174 -0.5385  0.1594 -0.0067
 8270SOL     OW36445   3.626   0.948   3.522 -0.0965  0.2338 -0.3015
 8270SOL    HW136446   3.615   0.855   3.540  2.1743  0.3318  1.5444
 8270SOL    HW236447   3.540   0.980   3.551 -0.5357  0.4412 -1.8162
 8271SOL     OW36448   2.957   2.057   6.319 -0.5156 -0.3667  0.1612
 8271SOL    HW136449   2.879   2.001   6.323 -1.8640  1.4740 -0.2377
 8271SOL    HW236450   3.014   1.991   6.280  1.6714  1.7263 -0.1573
 8272SOL     OW36451   4.098   3.621   5.175  0.1734 -0.3695  0.0655
 8272SOL    HW136452   4.091   3.569   5.255  0.4672 -0.8460 -0.2258
 8272SOL    HW236453   4.183   3.597   5.139  0.5082  0.1175  0.5215
 8273SOL     OW36454   1.215   3.811   2.535  0.8075 -0.0315 -0.0824
 8273SOL    HW136455   1.124   3.789   2.557  0.3839  0.5096 -1.3088
 8273SOL    HW236456   1.271   3.751   2.585  0.1550 -0.4979  0.0875
 8274SOL     OW36457   0.767   1.679  15.706  0.5516 -0.2066 -0.0489
 8274SOL    HW136458   0.686   1.723  15.730  0.3718 -1.4462  1.6167
 8274SOL    HW236459   0.752   1.587  15.727  1.5548  0.0677  1.8478
 8275SOL     OW36460   2.719   2.548   0.037 -0.0143  0.5038  0.1900
 8275SOL    HW136461   2.716   2.465   0.086 -2.0448  1.6801  2.0139
 8275SOL    HW236462   2.642   2.595   0.067 -1.7381 -1.5013 -1.1528
 8276SOL     OW36463   0.723   1.882   0.361  0.2727  0.0114 -0.1520
 8276SOL    HW136464   0.727   1.787   0.361  0.7597  0.0184  1.7242
 8276SOL    HW236465   0.810   1.908   0.392  0.0097 -0.5499  1.0754
 8277SOL     OW36466   3.933   1.058   9.911  0.5215  0.3040  0.1612
 8277SOL    HW136467   3.902   1.148   9.916 -0.6496 -0.0903  0.0101
 8277SOL    HW236468   3.848   1.016   9.897  0.6743 -0.0533  0.3084
 8278SOL     OW36469   1.086   0.836   1.861  0.8623  0.2511  0.2544
 8278SOL    HW136470   1.056   0.749   1.890  2.0516 -1.3585 -3.3057
 8278SOL    HW236471   1.010   0.891   1.882 -1.3543 -3.1615  1.2693
 8279SOL     OW36472   0.279   2.180   4.868  0.4150 -0.2280  0.3929
 8279SOL    HW136473   0.373   2.183   4.849  0.6569 -2.0058  1.3114
 8279SOL    HW236474   0.244   2.194   4.780 -0.7779 -1.0363  0.7349
 8280SOL     OW36475   3.036   0.425   5.818 -0.6591  0.2360  0.1421
 8280SOL    HW136476   3.085   0.416   5.900 -0.5487  1.1101  0.1732
 8280SOL    HW236477   3.058   0.516   5.800 -1.9496  0.3315 -0.9221
 8281SOL     OW36478   0.140   2.907   3.746 -0.1404  1.2418 -0.0915
 8281SOL    HW136479   0.134   2.826   3.795  1.7509  0.8126 -0.5608
 8281SOL    HW236480   0.207   2.879   3.684 -1.8407  0.3423 -1.5412
 8282SOL     OW36481   3.523   2.531   6.268 -0.4387 -0.2104 -0.1272
 8282SOL    HW136482   3.464   2.579   6.209  1.2985  2.2254  0.1417
 8282SOL    HW236483   3.477   2.538   6.352 -1.0218 -0.8863 -0.3903
 8283SOL     OW36484   2.894   4.666  13.073  0.0394  0.4335  0.8180
 8283SOL    HW136485   2.982   4.628  13.069 -0.7199 -1.2028 -0.2074
 8283SOL    HW236486   2.841   4.612  13.015  1.9924 -0.0219 -0.5669
 8284SOL     OW36487   2.047   1.670   9.715  0.0347 -0.2838  0.0104
 8284SOL    HW136488   2.117   1.718   9.759  1.2672 -1.5958 -0.5470
 8284SOL    HW236489   1.992   1.641   9.788  0.6365 -1.8838 -0.1716
 8285SOL     OW36490   4.002   1.196   2.142  0.2528 -0.3114 -0.3418
 8285SOL    HW136491   4.086   1.231   2.170  0.6121  0.7488 -2.7410
 8285SOL    HW236492   4.002   1.207   2.047 -0.3376 -0.7302 -0.3937
 8286SOL     OW36493   0.797   1.675   1.713 -0.3979 -0.1160 -0.0123
 8286SOL    HW136494   0.826   1.766   1.722  2.0758 -0.9339  0.2333
 8286SOL    HW236495   0.704   1.687   1.699 -0.0577 -1.1673 -3.0379
 8287SOL     OW36496   4.606   2.473   8.435  0.1166 -0.2127  0.1427
 8287SOL    HW136497   4.575   2.405   8.374  0.4898  0.4983 -0.8247
 8287SOL    HW236498   4.584   2.428   8.517 -2.8831  3.2613  1.2290
 8288SOL     OW36499   1.073   1.419   2.109  0.5331 -0.2625  0.3246
 8288SOL    HW136500   1.037   1.451   2.026  1.3884 -0.4943 -0.1384
 8288SOL    HW236501   1.115   1.338   2.080  1.5232 -0.3639  2.0690
 8289SOL     OW36502   2.407   4.206   3.758 -0.2187 -0.0738 -0.1785
 8289SOL    HW136503   2.330   4.254   3.788 -1.4112 -1.6911 -0.6081
 8289SOL    HW236504   2.387   4.226   3.666 -0.5954 -0.5853 -0.2130
 8290SOL     OW36505   4.330   0.745   3.122  0.2341  0.1598 -0.1854
 8290SOL    HW136506   4.349   0.797   3.200  2.1937  0.2265 -0.7135
 8290SOL    HW236507   4.412   0.700   3.106  0.8787  0.1370  3.0692
 8291SOL     OW36508   3.588   0.454   7.104 -0.3099  0.6642 -0.6799
 8291SOL    HW136509   3.639   0.440   7.024  0.8175  0.7146  0.0455
 8291SOL    HW236510   3.643   0.517   7.151  3.0081 -0.4202 -3.1683
 8292SOL     OW36511   1.128   3.506   5.775  0.1690 -0.0647  0.3125
 8292SOL    HW136512   1.117   3.461   5.691 -0.3686 -0.7707  0.7541
 8292SOL    HW236513   1.154   3.589   5.735  1.6248 -0.9496 -0.5294
 8293SOL     OW36514   2.933   0.737   0.597  0.0198 -0.5679  0.1809
 8293SOL    HW136515   2.953   0.668   0.660 -0.5320 -0.9400 -0.0438
 8293SOL    HW236516   2.853   0.699   0.559  0.8176 -2.2854  0.2403
 8294SOL     OW36517   4.039   0.067   5.674  0.0149  0.0069  0.0073
 8294SOL    HW136518   4.084   4.735   5.723  1.5442  1.8675  1.2348
 8294SOL    HW236519   4.021   0.027   5.590  2.5648 -1.7205  0.2986
 8295SOL     OW36520   3.880   2.474   7.185  0.2250  0.2579  0.0214
 8295SOL    HW136521   3.915   2.387   7.164  1.2973  0.8213 -0.5354
 8295SOL    HW236522   3.790   2.442   7.192  0.6711 -1.3175 -1.4010
 8296SOL     OW36523   1.744   1.946   7.077  0.4009  0.4478  0.2111
 8296SOL    HW136524   1.708   2.032   7.100 -0.9432 -0.4555  1.4815
 8296SOL    HW236525   1.675   1.888   7.110  0.5734  1.3786  2.2206
 8297SOL     OW36526   3.758   3.912   4.374 -0.4654 -0.4333  0.0560
 8297SOL    HW136527   3.832   3.897   4.315  0.0580  0.3086  0.5419
 8297SOL    HW236528   3.710   3.975   4.320 -1.0546 -1.1656 -0.2820
 8298SOL     OW36529   2.631   2.800   0.658  0.2797  0.0668 -0.0977
 8298SOL    HW136530   2.582   2.828   0.736  1.2795  2.4688 -0.3445
 8298SOL    HW236531   2.590   2.846   0.585 -1.3150 -2.2090 -0.6306
 8299SOL     OW36532   3.219   4.484   4.072 -0.2416 -0.3453 -0.4755
 8299SOL    HW136533   3.151   4.496   4.005 -0.4260  0.1362 -0.2030
 8299SOL    HW236534   3.176   4.451   4.151  1.3999 -0.6648  0.2786
 8300SOL     OW36535   3.014   3.660   9.964 -0.0732  0.1744  0.6506
 8300SOL    HW136536   3.006   3.579  10.015  0.0640 -0.2429  0.0120
 8300SOL    HW236537   3.099   3.696   9.989  1.1769 -2.0644 -0.3429
 8301SOL     OW36538   4.595   1.853   4.047  0.2903 -0.8076  0.8770
 8301SOL    HW136539   4.616   1.936   4.004 -0.3259 -1.3914 -0.5255
 8301SOL    HW236540   4.684   1.828   4.073  0.6505 -0.2696  0.1452
 8302SOL     OW36541   0.583   2.802   2.973 -0.3567  0.0404  0.7646
 8302SOL    HW136542   0.652   2.742   3.003  0.9907  1.3036  0.2316
 8302SOL    HW236543   0.636   2.882   2.973  1.3104 -1.0572  1.7002
 8303SOL     OW36544   0.624   1.417  14.253  0.1044 -0.6335 -0.7174
 8303SOL    HW136545   0.580   1.499  14.276  2.1265 -0.1360  1.3016
 8303SOL    HW236546   0.710   1.446  14.223  0.1768  0.9660  1.1061
 8304SOL     OW36547   3.194   0.934  11.870  0.1337  0.5699  0.2110
 8304SOL    HW136548   3.135   0.996  11.827  0.7276  0.9023 -0.1273
 8304SOL    HW236549   3.249   0.992  11.923 -0.3708  0.3650  0.9529
 8305SOL     OW36550   0.726   0.608  12.104 -0.0757 -0.6280 -0.2893
 8305SOL    HW136551   0.722   0.635  12.196  2.7053 -2.3706  0.3405
 8305SOL    HW236552   0.642   0.564  12.092  0.5959 -2.1032  0.3564
 8306SOL     OW36553   2.275   2.550   9.303  0.1669 -0.5584  0.3724
 8306SOL    HW136554   2.227   2.632   9.306  0.0869 -0.6028  0.3195
 8306SOL    HW236555   2.300   2.551   9.211 -1.4688 -0.4326 -0.0538
 8307SOL     OW36556   1.574   2.336   5.450 -0.4224  0.7570 -0.2579
 8307SOL    HW136557   1.637   2.281   5.403 -2.0223 -1.1966 -0.1118
 8307SOL    HW236558   1.625   2.385   5.515 -0.0876 -2.0633  1.5919
 8308SOL     OW36559   3.311   0.433   6.505  0.0378  0.1084 -0.3458
 8308SOL    HW136560   3.285   0.379   6.580  1.3306  1.8338  1.3538
 8308SOL    HW236561   3.381   0.487   6.542 -0.4472 -0.0484  0.8242
 8309SOL     OW36562   4.003   3.501   7.737  0.2070 -0.0709 -0.6063
 8309SOL    HW136563   4.088   3.539   7.759 -0.9307  3.0016 -1.4690
 8309SOL    HW236564   3.939   3.572   7.748  0.6876  0.3520 -0.5195
 8310SOL     OW36565   0.144   0.087   3.849 -0.1411 -0.5858 -0.4887
 8310SOL    HW136566   0.171   0.110   3.760  1.7048  0.8575  0.4589
 8310SOL    HW236567   0.189   0.006   3.872  1.4195  0.2457 -0.6290
 8311SOL     OW36568   2.990   2.942   4.937 -0.1336 -0.2693 -0.0316
 8311SOL    HW136569   2.911   2.968   4.985 -0.4003  1.5198 -1.4164
 8311SOL    HW236570   2.974   2.985   4.853  0.1323  0.8457  0.4765
 8312SOL     OW36571   1.564   1.024   0.524 -0.0145 -0.3708  0.2919
 8312SOL    HW136572   1.490   1.048   0.468  1.6982  0.8522 -1.4314
 8312SOL    HW236573   1.638   1.074   0.489 -0.1118 -0.1514  0.3990
 8313SOL     OW36574   1.626   2.604   0.652  0.1597 -0.0471  0.1852
 8313SOL    HW136575   1.575   2.577   0.576 -0.4301  1.0048  0.2070
 8313SOL    HW236576   1.642   2.521   0.698  0.8131 -0.4255 -0.7343
 8314SOL     OW36577   4.157   1.792   1.834  0.0193 -0.1721  0.4839
 8314SOL    HW136578   4.112   1.752   1.908 -0.4422 -0.3327  0.1203
 8314SOL    HW236579   4.128   1.883   1.843  3.1376  1.0081 -1.2375
 8315SOL     OW36580   4.096   4.684   8.496  0.4615 -0.0055 -0.2104
 8315SOL    HW136581   4.101   4.615   8.429 -2.2850 -0.2754 -0.1389
 8315SOL    HW236582   4.180   4.729   8.489  1.1147 -1.3120 -0.8384
 8316SOL     OW36583   2.303   1.232   4.498 -0.5789 -0.3350 -0.3830
 8316SOL    HW136584   2.307   1.296   4.570  2.0330 -0.3112 -0.5542
 8316SOL    HW236585   2.301   1.147   4.542 -0.5918  1.6416  3.4894
 8317SOL     OW36586   2.858   1.666  17.602  0.5572  0.3559  0.1528
 8317SOL    HW136587   2.811   1.607  17.543  0.0312 -1.5229  2.4768
 8317SOL    HW236588   2.913   1.714  17.539 -0.0449 -0.4618 -0.9883
 8318SOL     OW36589   0.257   1.417  16.589  0.4345 -0.6523  0.2278
 8318SOL    HW136590   0.213   1.335  16.611  0.4272 -0.8703 -0.5791
 8318SOL    HW236591   0.269   1.449  16.678  1.3580  0.2678 -0.2219
 8319SOL     OW36592   2.200   3.167  17.287 -1.0179 -0.1490 -0.0393
 8319SOL    HW136593   2.170   3.239  17.231  0.2665 -0.6521 -1.3656
 8319SOL    HW236594   2.262   3.118  17.233 -0.7890  1.2390 -1.0323
 8320SOL     OW36595   2.281   3.672   2.529 -0.4022  0.0793  0.1765
 8320SOL    HW136596   2.199   3.676   2.480 -0.0117 -2.1342 -0.6553
 8320SOL    HW236597   2.332   3.749   2.503 -2.4484  0.8463 -1.5913
 8321SOL     OW36598   1.874   2.663   8.122 -0.0329 -0.1430 -0.0975
 8321SOL    HW136599   1.951   2.627   8.166 -0.0457 -0.8009 -0.6266
 8321SOL    HW236600   1.814   2.657   8.197 -0.0114 -1.1404 -0.1618
 8322SOL     OW36601   1.936   4.498   8.221 -0.1398  0.3046 -0.0390
 8322SOL    HW136602   1.958   4.584   8.258 -1.8132  0.3582  0.8456
 8322SOL    HW236603   1.880   4.531   8.150  1.1095  0.3824 -0.9760
 8323SOL     OW36604   4.703   1.683  10.047  0.0135 -0.1563 -0.1197
 8323SOL    HW136605   4.693   1.762   9.994 -0.8881 -0.8453 -0.9689
 8323SOL    HW236606   4.614   1.667  10.079 -0.0166 -0.2588 -0.2542
 8324SOL     OW36607   3.842   0.568   2.613 -0.2261 -0.7860  0.4736
 8324SOL    HW136608   3.891   0.600   2.689  1.1775  0.3371 -0.9040
 8324SOL    HW236609   3.892   0.495   2.577 -1.8888 -1.8610  0.3155
 8325SOL     OW36610   0.223   3.087   0.636  0.1599  0.2192  0.7321
 8325SOL    HW136611   0.265   3.011   0.676 -3.5155 -0.1728  3.8536
 8325SOL    HW236612   0.209   3.142   0.713 -0.5355  0.9631  0.0876
 8326SOL     OW36613   3.312   2.306   9.368  0.0452  0.4267 -0.1507
 8326SOL    HW136614   3.250   2.364   9.325 -1.1967 -1.6123 -1.1384
 8326SOL    HW236615   3.258   2.227   9.358 -0.8761  1.3026 -2.0367
 8327SOL     OW36616   0.517   1.768   6.653  0.3187 -0.1653  0.3042
 8327SOL    HW136617   0.568   1.800   6.727 -1.0390 -0.1503  1.2363
 8327SOL    HW236618   0.542   1.829   6.584  0.7260 -0.0046  0.5985
 8328SOL     OW36619   0.901   3.784   4.739  0.2809 -0.2853 -0.5554
 8328SOL    HW136620   0.911   3.692   4.715 -3.0046 -0.1490 -2.5204
 8328SOL    HW236621   0.809   3.778   4.766  1.3717  1.1671  3.4921
 8329SOL     OW36622   2.991   1.873   5.697  0.5013 -0.3126  0.3169
 8329SOL    HW136623   3.032   1.959   5.690 -2.8519  1.3671  1.3463
 8329SOL    HW236624   3.044   1.841   5.770  2.5864  0.8052 -0.7402
 8330SOL     OW36625   2.803   3.738   9.526  0.2061 -0.1732  0.5520
 8330SOL    HW136626   2.711   3.761   9.535  0.4573  0.9670  0.2104
 8330SOL    HW236627   2.816   3.688   9.607 -1.8703  0.9436  1.5731
 8331SOL     OW36628   4.080   2.572   6.675  0.3591 -0.3732 -0.0017
 8331SOL    HW136629   3.994   2.540   6.704 -0.2091 -1.2694 -2.6770
 8331SOL    HW236630   4.069   2.667   6.669 -0.2417 -0.3535  1.3565
 8332SOL     OW36631   4.447   4.699   2.594 -0.0429 -0.2238  0.0688
 8332SOL    HW136632   4.380   4.655   2.645 -2.1517  1.1669 -1.4672
 8332SOL    HW236633   4.462   4.620   2.543 -3.9015 -0.4868 -0.7018
 8333SOL     OW36634   1.887   0.885  17.227  0.6611  0.1143 -0.5256
 8333SOL    HW136635   1.824   0.859  17.294 -1.4832 -0.0101 -2.5982
 8333SOL    HW236636   1.835   0.860  17.151 -0.0361  4.7885 -1.5913
 8334SOL     OW36637   3.403   3.152  15.606 -0.4559  0.2014  0.1189
 8334SOL    HW136638   3.356   3.157  15.523  0.5587 -1.6460 -0.5628
 8334SOL    HW236639   3.463   3.221  15.577 -0.5892 -0.7857 -2.4962
 8335SOL     OW36640   0.417   2.959   9.478  0.3043 -0.1227  0.4330
 8335SOL    HW136641   0.328   2.939   9.506  0.1939  0.6762  0.6753
 8335SOL    HW236642   0.461   2.886   9.520 -2.0649 -1.8041 -0.0460
 8336SOL     OW36643   0.728   1.340   2.373  0.2976  0.1925  0.0187
 8336SOL    HW136644   0.783   1.410   2.408  1.5797 -0.6298 -0.3504
 8336SOL    HW236645   0.749   1.271   2.436  0.1848 -0.5925 -0.8034
 8337SOL     OW36646   1.846   4.230   5.449  0.1219  0.5616  0.7170
 8337SOL    HW136647   1.807   4.178   5.379 -0.1681 -0.1853  1.4312
 8337SOL    HW236648   1.924   4.175   5.461 -0.1521  0.1532  0.6334
 8338SOL     OW36649   0.993   1.021   6.908  0.1999  0.1718  0.4751
 8338SOL    HW136650   1.051   1.096   6.895  0.0843  0.2434  0.3736
 8338SOL    HW236651   0.912   1.054   6.869  0.3269  1.0351  0.9385
 8339SOL     OW36652   0.722   1.141   4.025  0.4515 -0.1284 -0.4999
 8339SOL    HW136653   0.784   1.209   4.001  0.4868 -0.3141 -0.9322
 8339SOL    HW236654   0.719   1.092   3.943 -2.8619 -3.2056  1.4141
 8340SOL     OW36655   3.807   2.905   4.067 -0.3892 -0.0041  0.8622
 8340SOL    HW136656   3.717   2.871   4.061 -0.2067 -0.6729  2.0061
 8340SOL    HW236657   3.856   2.830   4.036 -0.9100 -0.9343  2.2711
 8341SOL     OW36658   4.466   2.776   6.124  0.2981 -0.1722 -0.3151
 8341SOL    HW136659   4.471   2.707   6.058 -0.9920  0.8767 -1.4944
 8341SOL    HW236660   4.551   2.816   6.104  0.1408 -0.6962 -2.0397
 8342SOL     OW36661   0.669   0.782   8.268 -0.6363  0.0594 -0.9194
 8342SOL    HW136662   0.652   0.779   8.363 -1.9305 -0.7677 -1.1742
 8342SOL    HW236663   0.581   0.805   8.239 -1.2597  0.6172  1.4133
 8343SOL     OW36664   0.836   2.556   5.346  0.3820  0.4097 -0.0210
 8343SOL    HW136665   0.912   2.614   5.342  0.5501  0.0358 -2.5016
 8343SOL    HW236666   0.845   2.519   5.258  2.2179 -0.1937  0.4095
 8344SOL     OW36667   0.903   1.901   5.470  0.1458  0.0589  0.5305
 8344SOL    HW136668   0.940   1.855   5.394 -1.0345  2.4724 -1.5031
 8344SOL    HW236669   0.815   1.912   5.435  0.3341 -3.0947 -0.9410
 8345SOL     OW36670   1.401   3.149  12.817 -0.0638 -0.9708  0.2431
 8345SOL    HW136671   1.481   3.099  12.827 -0.3784 -0.9415  2.8509
 8345SOL    HW236672   1.372   3.148  12.908 -2.3989 -0.5484 -0.4763
 8346SOL     OW36673   2.950   0.820   8.380  0.3252  0.3933  0.0040
 8346SOL    HW136674   2.979   0.733   8.409  0.7151  0.0362 -1.4669
 8346SOL    HW236675   2.873   0.827   8.437 -1.6313  0.8964 -2.6978
 8347SOL     OW36676   0.042   2.072   2.136  0.1457  0.0140  0.0090
 8347SOL    HW136677   0.123   2.123   2.139  0.7454 -0.8899 -1.0982
 8347SOL    HW236678   0.077   1.985   2.116  0.9668  0.1484  0.8175
 8348SOL     OW36679   2.673   3.193   3.121  0.5502 -0.2140  0.1415
 8348SOL    HW136680   2.722   3.191   3.203 -1.8535  2.8151  1.6716
 8348SOL    HW236681   2.741   3.181   3.054  0.2128 -2.8478  0.2679
 8349SOL     OW36682   1.332   3.813   1.848 -0.8026  0.3082  0.7761
 8349SOL    HW136683   1.326   3.742   1.785 -0.8807 -0.1168  1.2661
 8349SOL    HW236684   1.384   3.773   1.917 -0.4755  1.2194  1.0655
 8350SOL     OW36685   1.387   1.064   9.677 -0.0564 -0.3097  0.1854
 8350SOL    HW136686   1.403   1.159   9.683 -0.6621 -0.1472 -0.6714
 8350SOL    HW236687   1.442   1.026   9.745  0.0699  0.5418  0.5632
 8351SOL     OW36688   0.799   3.211   1.861 -0.0923  0.3019  0.0545
 8351SOL    HW136689   0.862   3.225   1.932  0.2939 -0.0342 -0.2155
 8351SOL    HW236690   0.721   3.195   1.913 -1.1877 -0.7089 -1.9134
 8352SOL     OW36691   3.026   2.961  15.446  0.4247 -0.4738  0.6899
 8352SOL    HW136692   3.119   2.982  15.437  0.4685 -1.1209 -0.2610
 8352SOL    HW236693   3.008   2.883  15.395  0.0668 -0.1776  0.3703
 8353SOL     OW36694   1.293   1.172  14.530 -0.6344  0.4971 -0.0519
 8353SOL    HW136695   1.308   1.211  14.616  2.0744  1.1824 -0.8503
 8353SOL    HW236696   1.377   1.129  14.518 -1.9214 -1.7797 -0.8995
 8354SOL     OW36697   2.345   2.445   7.907  0.0559 -0.0193 -0.2753
 8354SOL    HW136698   2.271   2.390   7.931  0.4401 -1.5921 -2.6950
 8354SOL    HW236699   2.408   2.396   7.961 -0.9758 -1.1676 -0.1318
 8355SOL     OW36700   3.004   3.456   4.465  0.1873  0.3386 -0.3589
 8355SOL    HW136701   2.994   3.413   4.380  0.5802  0.1205 -0.2932
 8355SOL    HW236702   3.098   3.453   4.482  0.3189 -0.4615 -1.2965
 8356SOL     OW36703   2.977   3.689   4.880 -0.2055 -0.0084 -0.3411
 8356SOL    HW136704   3.029   3.707   4.801 -0.3573  0.4595 -0.3362
 8356SOL    HW236705   2.999   3.771   4.925 -2.6141 -0.0788  0.9709
 8357SOL     OW36706   3.520   2.553   3.591 -0.1437 -0.1637  0.4374
 8357SOL    HW136707   3.600   2.529   3.543 -1.5578  1.5709 -2.7765
 8357SOL    HW236708   3.549   2.622   3.650 -1.4111  0.1592  0.6790
 8358SOL     OW36709   3.379   4.360   2.034 -0.1271 -0.1976  0.0002
 8358SOL    HW136710   3.401   4.445   1.996  1.9959 -0.7914 -0.0634
 8358SOL    HW236711   3.284   4.359   2.021 -0.6667  0.7251  3.7972
 8359SOL     OW36712   4.429   2.368   1.366  0.0634 -0.0126  0.3154
 8359SOL    HW136713   4.400   2.279   1.387 -0.9379  0.3045  0.2676
 8359SOL    HW236714   4.491   2.387   1.436 -0.9811  0.0888  1.2179
 8360SOL     OW36715   3.731   0.800   8.207 -0.3275 -0.1803  0.1511
 8360SOL    HW136716   3.657   0.742   8.224 -0.3216 -0.8144 -1.9322
 8360SOL    HW236717   3.701   0.836   8.124 -0.0552  0.8030  0.4826
 8361SOL     OW36718   3.717   1.561   9.413 -0.1642  1.0088 -0.3239
 8361SOL    HW136719   3.716   1.488   9.475 -2.1581  2.0577  0.8951
 8361SOL    HW236720   3.777   1.519   9.351 -0.7886  0.2179 -0.3893
 8362SOL     OW36721   2.757   3.579   4.105 -0.0318  0.1205  0.0381
 8362SOL    HW136722   2.843   3.608   4.137  0.9067 -2.2537 -0.3509
 8362SOL    HW236723   2.709   3.653   4.067 -0.1969 -0.3035 -0.5891
 8363SOL     OW36724   1.645   1.809   2.015  0.8119  0.4446  0.6845
 8363SOL    HW136725   1.562   1.786   2.056  0.0830  1.9148  0.0581
 8363SOL    HW236726   1.690   1.727   1.997 -0.1701  0.5087 -2.0157
 8364SOL     OW36727   2.101   3.819   7.358 -0.3803  0.6385  0.1398
 8364SOL    HW136728   2.112   3.792   7.450  1.3169  0.8572  0.0057
 8364SOL    HW236729   2.014   3.784   7.337  0.1408 -0.9118  0.5692
 8365SOL     OW36730   1.151   1.051  17.713  0.1566  0.3597  0.0706
 8365SOL    HW136731   1.153   0.967  17.667 -0.4048  1.3245 -1.7221
 8365SOL    HW236732   1.166   1.024   0.059  0.7124 -0.0015 -0.1241
 8366SOL     OW36733   3.520   3.383   7.650 -0.3641  0.3014 -0.4932
 8366SOL    HW136734   3.518   3.335   7.733 -1.9841  0.9052 -0.1935
 8366SOL    HW236735   3.551   3.464   7.691  1.5779 -0.0543 -1.2391
 8367SOL     OW36736   3.223   4.569  10.243  0.1808 -0.1973  0.4492
 8367SOL    HW136737   3.277   4.638  10.281  0.5073 -0.3351  0.2324
 8367SOL    HW236738   3.149   4.575  10.303 -1.3591 -1.1976 -1.3379
 8368SOL     OW36739   2.539   0.388   5.734 -0.2043 -0.1356  0.2328
 8368SOL    HW136740   2.504   0.414   5.649 -0.4872 -1.2675 -0.0045
 8368SOL    HW236741   2.633   0.398   5.716  0.3455 -1.6937  2.2471
 8369SOL     OW36742   2.684   3.904   4.812  0.2461  0.4871 -0.9060
 8369SOL    HW136743   2.746   3.928   4.743 -0.3873  1.3876 -1.1620
 8369SOL    HW236744   2.687   3.809   4.816 -1.0641  0.4220 -1.2759
 8370SOL     OW36745   0.790   0.016  16.471  0.1189  0.2393  0.1661
 8370SOL    HW136746   0.835   4.694  16.532  4.3440 -0.1377 -3.2648
 8370SOL    HW236747   0.867   0.068  16.446 -1.2764  2.2616  0.0134
 8371SOL     OW36748   1.523   2.452   4.233 -0.4373 -0.8049  0.0718
 8371SOL    HW136749   1.592   2.410   4.183 -0.5514 -1.5903  0.5779
 8371SOL    HW236750   1.473   2.485   4.158 -0.9515 -2.1065 -0.1434
 8372SOL     OW36751   3.707   1.431  14.755  0.6787  1.0356 -0.0207
 8372SOL    HW136752   3.754   1.387  14.826  1.2850 -0.4353 -1.3331
 8372SOL    HW236753   3.648   1.477  14.815 -0.1299 -1.6081  1.2395
 8373SOL     OW36754   3.891   1.428   5.817  0.4814  0.2434 -0.0711
 8373SOL    HW136755   3.841   1.429   5.735 -0.5860 -1.7516  0.5699
 8373SOL    HW236756   3.951   1.358   5.794 -1.8965 -1.0438 -2.3739
 8374SOL     OW36757   2.864   3.196  14.630  0.0264  0.3630  0.5657
 8374SOL    HW136758   2.873   3.120  14.572  1.9683  0.8836  0.1874
 8374SOL    HW236759   2.824   3.155  14.707  1.2598 -0.9765  0.5121
 8375SOL     OW36760   0.146   4.478  12.207 -0.0218 -0.4101 -0.5266
 8375SOL    HW136761   0.127   4.564  12.168 -0.8847 -1.1843 -1.8353
 8375SOL    HW236762   0.152   4.435  12.122 -0.1639  1.7587 -1.6295
 8376SOL     OW36763   0.827   4.662   4.562  0.1680 -0.2117 -0.1421
 8376SOL    HW136764   0.805   0.014   4.593 -0.3754 -0.4608  0.1724
 8376SOL    HW236765   0.765   4.660   4.489  0.5776  3.6779 -0.5957
 8377SOL     OW36766   0.023   0.860   4.695  0.1053  0.2747  0.7133
 8377SOL    HW136767   0.066   0.806   4.761  0.3832 -0.7838 -0.3337
 8377SOL    HW236768   0.096   0.916   4.669  0.5167  0.0228  1.3250
 8378SOL     OW36769   3.600   3.927   8.165 -0.3699 -0.3808  0.4060
 8378SOL    HW136770   3.552   3.861   8.116 -1.6144  0.2968  0.7137
 8378SOL    HW236771   3.612   3.882   8.248 -1.3761  0.6819  1.1252
 8379SOL     OW36772   2.936   2.774  15.252  0.1314  0.4615  0.4153
 8379SOL    HW136773   3.023   2.742  15.226 -0.4651  0.7807 -1.9478
 8379SOL    HW236774   2.903   2.762  15.163 -0.8514 -1.1038  1.0015
 8380SOL     OW36775   0.377   1.166   6.986  0.1829  0.3885 -0.2393
 8380SOL    HW136776   0.355   1.075   6.967  1.2903  0.0758 -0.0296
 8380SOL    HW236777   0.331   1.163   7.070  0.8500 -2.2714  0.0515
 8381SOL     OW36778   2.512   0.296   3.337 -0.1170  0.2671  0.6879
 8381SOL    HW136779   2.607   0.305   3.323 -0.2559  0.5978 -0.0430
 8381SOL    HW236780   2.475   0.381   3.313 -0.4003  0.2888  1.1901
 8382SOL     OW36781   2.543   1.649   8.128 -0.9452 -0.2409 -0.1161
 8382SOL    HW136782   2.597   1.569   8.122  0.6040  0.7442  0.7090
 8382SOL    HW236783   2.479   1.647   8.057 -0.8369  0.6401 -0.2390
 8383SOL     OW36784   3.540   1.876   2.229 -0.3353 -0.2430 -0.3085
 8383SOL    HW136785   3.506   1.802   2.280 -0.7252 -0.0217 -0.2562
 8383SOL    HW236786   3.462   1.902   2.181 -1.6143 -2.7388  0.4060
 8384SOL     OW36787   0.668   0.410   8.427 -0.1640  0.2177  0.3146
 8384SOL    HW136788   0.666   0.419   8.331 -0.7063  0.8259  0.3843
 8384SOL    HW236789   0.740   0.468   8.449 -0.0382 -0.5584  1.9011
 8385SOL     OW36790   0.934   4.440   4.389  1.4262 -0.3459  0.4061
 8385SOL    HW136791   0.896   4.371   4.443  0.9029  0.2559  0.8086
 8385SOL    HW236792   0.904   4.519   4.434 -1.9419  0.7019 -3.6520
 8386SOL     OW36793   2.251   1.435   2.832  0.1826 -0.0989 -0.1614
 8386SOL    HW136794   2.218   1.390   2.754  0.6377 -0.1644 -0.3124
 8386SOL    HW236795   2.345   1.433   2.818  0.1483  0.2173 -0.4340
 8387SOL     OW36796   2.553   3.573  15.948 -0.1639 -0.3964  0.3524
 8387SOL    HW136797   2.469   3.554  15.907  0.5850  2.6016 -2.5017
 8387SOL    HW236798   2.537   3.511  16.020  0.0959 -2.2291 -1.1569
 8388SOL     OW36799   2.087   1.112   8.308 -0.8288 -0.4910 -0.0139
 8388SOL    HW136800   2.049   1.173   8.245  0.8863  0.8182  0.2227
 8388SOL    HW236801   2.112   1.037   8.255 -0.9466  0.4409 -1.3643
 8389SOL     OW36802   2.643   1.770   8.797  0.8160  0.5651 -0.0944
 8389SOL    HW136803   2.629   1.705   8.865 -1.4092 -1.2297 -2.2608
 8389SOL    HW236804   2.660   1.848   8.849  2.5797  1.1429 -1.5356
 8390SOL     OW36805   4.188   1.748   6.119  0.1166 -0.0805  0.0926
 8390SOL    HW136806   4.207   1.712   6.033  0.8795  0.1579  0.1629
 8390SOL    HW236807   4.274   1.742   6.159  1.3253  1.9349 -2.2089
 8391SOL     OW36808   4.703   2.053   4.567  0.1231  0.3591 -0.0470
 8391SOL    HW136809   0.015   2.041   4.648 -0.6872 -2.1700  0.0781
 8391SOL    HW236810   0.014   1.994   4.509 -2.0842 -0.4332 -1.0787
 8392SOL     OW36811   2.623   0.989   0.585  0.1146  0.2949 -0.0047
 8392SOL    HW136812   2.705   0.994   0.535  0.2858  1.4381  0.3865
 8392SOL    HW236813   2.567   0.948   0.518  0.1628  1.0027 -0.4861
 8393SOL     OW36814   3.983   1.553   5.317 -0.1346  0.4550 -0.3660
 8393SOL    HW136815   4.060   1.590   5.275  1.2907 -1.4434  0.5418
 8393SOL    HW236816   3.910   1.576   5.261 -0.5963  1.1574  0.5213
 8394SOL     OW36817   4.572   0.016   2.165 -0.3079  0.4932  0.2040
 8394SOL    HW136818   4.614   4.719   2.086  0.2377  1.2822  0.1540
 8394SOL    HW236819   4.486   4.712   2.166 -0.0556 -0.0174  2.1115
 8395SOL     OW36820   0.116   2.540   8.310  0.9124  0.3071 -0.0758
 8395SOL    HW136821   0.109   2.469   8.374 -0.9315  0.9232  0.4141
 8395SOL    HW236822   0.022   2.556   8.297  1.0724  2.1386  0.9675
 8396SOL     OW36823   0.444   1.204   3.208  1.0129 -0.3488 -0.0525
 8396SOL    HW136824   0.357   1.177   3.237  1.6540 -0.3050  1.9306
 8396SOL    HW236825   0.438   1.163   3.122 -1.2199  0.7472 -0.4299
 8397SOL     OW36826   4.333   0.987   7.558 -0.2902 -0.3703 -0.0030
 8397SOL    HW136827   4.350   0.924   7.629 -2.6843 -1.9176 -0.8044
 8397SOL    HW236828   4.422   1.012   7.533 -0.3393  1.7656  1.9505
 8398SOL     OW36829   3.622   1.197   3.727  0.5812  0.6107  0.6475
 8398SOL    HW136830   3.548   1.160   3.680  1.0301 -0.5469  0.8479
 8398SOL    HW236831   3.614   1.293   3.722  1.0916  0.4735 -2.5581
 8399SOL     OW36832   2.629   1.919   9.963  0.3034 -0.0897 -0.1788
 8399SOL    HW136833   2.672   2.004   9.951  0.9674 -0.0447  2.4202
 8399SOL    HW236834   2.599   1.895   9.876  0.3734  1.3288 -0.5864
 8400SOL     OW36835   4.712   2.231   3.570 -0.0880  0.0738  0.3103
 8400SOL    HW136836   4.684   2.143   3.545  0.4307  0.2518 -0.9206
 8400SOL    HW236837   4.641   2.285   3.536  1.8424  3.3180  1.4606
 8401SOL     OW36838   1.016   3.020   6.752 -0.2487 -0.3320 -0.3302
 8401SOL    HW136839   1.050   3.095   6.704  2.1349  0.5804  2.7403
 8401SOL    HW236840   1.042   2.949   6.694  3.1352 -0.6939  1.6181
 8402SOL     OW36841   4.350   2.316  11.621  0.4042  0.3544  0.5322
 8402SOL    HW136842   4.298   2.396  11.612  0.3091  0.1722 -0.6195
 8402SOL    HW236843   4.319   2.272  11.541 -0.2738 -1.2453  1.6864
 8403SOL     OW36844   1.280   4.058   2.668 -0.0799 -0.1864  0.2430
 8403SOL    HW136845   1.272   3.980   2.613  0.2834  0.2680 -0.4533
 8403SOL    HW236846   1.234   4.120   2.611 -0.6219 -0.8748 -0.0816
 8404SOL     OW36847   3.657   3.335   5.117  0.0346 -0.4802 -0.1410
 8404SOL    HW136848   3.698   3.419   5.141 -0.0405  0.2317 -2.4471
 8404SOL    HW236849   3.680   3.286   5.195 -0.4243  0.7936  0.8036
 8405SOL     OW36850   3.717   3.056  13.552  0.0324  0.3695 -0.2888
 8405SOL    HW136851   3.769   3.136  13.545 -1.1837  1.3020  1.1446
 8405SOL    HW236852   3.653   3.068  13.623  0.5287 -1.6320  0.4810
 8406SOL     OW36853   1.645   1.360   8.700 -0.1173 -0.2027 -0.0537
 8406SOL    HW136854   1.701   1.416   8.646  0.7373 -2.2092 -1.2516
 8406SOL    HW236855   1.709   1.334   8.766  1.4991  2.2258 -0.6623
 8407SOL     OW36856   1.001   2.341   9.827 -0.0099 -1.2166  0.3179
 8407SOL    HW136857   0.935   2.295   9.774 -0.4430  1.1043 -1.1804
 8407SOL    HW236858   0.968   2.339   9.917  0.2467  2.0025  0.5066
 8408SOL     OW36859   2.499   2.024   3.581  0.0550 -0.0605 -0.5072
 8408SOL    HW136860   2.473   2.047   3.670  0.4436  2.1535 -0.9725
 8408SOL    HW236861   2.517   1.930   3.592 -0.7268 -0.1172  0.2990
 8409SOL     OW36862   2.917   1.275   5.973 -0.5051 -0.5627 -0.4976
 8409SOL    HW136863   2.992   1.234   6.015  0.2961  3.5755  2.0998
 8409SOL    HW236864   2.946   1.366   5.976  1.0727 -1.0389 -1.2575
 8410SOL     OW36865   3.769   4.260   2.470  0.3675  0.1714 -0.1899
 8410SOL    HW136866   3.756   4.202   2.544 -3.7611  1.0751 -0.2024
 8410SOL    HW236867   3.693   4.319   2.470  0.0890 -0.1863  2.9712
 8411SOL     OW36868   2.681   1.916   6.209 -0.1276  0.1044  0.0138
 8411SOL    HW136869   2.630   1.979   6.260 -3.4593 -1.7446 -0.9896
 8411SOL    HW236870   2.689   1.964   6.127  1.1295 -1.9898 -1.1010
 8412SOL     OW36871   4.111   0.242   6.093 -0.9415  0.2432 -0.2772
 8412SOL    HW136872   4.101   0.241   5.997 -0.9287 -0.1376 -0.2767
 8412SOL    HW236873   4.136   0.152   6.113 -2.9813 -0.2571 -0.0633
 8413SOL     OW36874   1.496   1.197   2.405  0.2167  0.1649  0.1705
 8413SOL    HW136875   1.556   1.133   2.367  0.2745  0.1915  0.2176
 8413SOL    HW236876   1.468   1.156   2.487  0.4401  1.5013  0.9073
 8414SOL     OW36877   1.103   1.868  16.766  0.8590  0.0750  0.0830
 8414SOL    HW136878   1.132   1.810  16.695 -0.6811 -3.3787  2.2577
 8414SOL    HW236879   1.010   1.880  16.746  0.5512  0.4240  1.7651
 8415SOL     OW36880   2.798   3.643   1.895  0.5946  0.5023 -0.2123
 8415SOL    HW136881   2.719   3.625   1.946 -0.0399 -2.4244 -2.2066
 8415SOL    HW236882   2.793   3.568   1.835 -0.7618 -0.0749  0.6092
 8416SOL     OW36883   2.274   3.308   4.187 -0.1954  0.5110 -0.3453
 8416SOL    HW136884   2.277   3.358   4.268  0.0213 -0.3616  0.1874
 8416SOL    HW236885   2.368   3.296   4.173 -0.1041 -0.6859  1.2136
 8417SOL     OW36886   3.744   3.034   4.954 -0.2970 -0.2072  0.0396
 8417SOL    HW136887   3.755   3.009   5.046  0.0495  1.0853  0.3457
 8417SOL    HW236888   3.807   3.103   4.934 -0.4629  0.2094  0.9769
 8418SOL     OW36889   3.214   2.208   2.348 -0.5320 -0.4239  0.3959
 8418SOL    HW136890   3.261   2.172   2.422  1.1516  0.5851 -0.1880
 8418SOL    HW236891   3.253   2.138   2.296 -2.5374  0.4646 -2.3346
 8419SOL     OW36892   2.261   4.444   6.531 -0.1938 -0.3483 -0.4274
 8419SOL    HW136893   2.344   4.454   6.578 -0.7625 -0.3734  0.5889
 8419SOL    HW236894   2.195   4.441   6.600  0.5311 -0.1704  0.2744
 8420SOL     OW36895   2.626   4.514   7.289 -0.4956 -0.4343  0.0198
 8420SOL    HW136896   2.631   4.461   7.369 -0.0616 -0.2036  0.1440
 8420SOL    HW236897   2.682   4.461   7.232 -2.9827 -1.2919 -1.6303
 8421SOL     OW36898   1.705   4.062   1.832  0.2583 -0.0836 -0.5867
 8421SOL    HW136899   1.677   4.122   1.901  1.6070 -2.3201  1.9050
 8421SOL    HW236900   1.775   4.015   1.877 -0.6265 -0.1319  0.7297
 8422SOL     OW36901   2.126   0.787  16.019 -0.1133  0.3907 -0.0351
 8422SOL    HW136902   2.113   0.754  16.109  0.7964  1.2833  0.4128
 8422SOL    HW236903   2.178   0.716  15.981  0.0011  0.4536  0.0043
 8423SOL     OW36904   2.127   0.749   7.874 -0.6621  0.7422  0.0623
 8423SOL    HW136905   2.143   0.763   7.780 -0.3660  0.6197  0.0931
 8423SOL    HW236906   2.032   0.751   7.884 -0.4432  3.0965  1.6532
 8424SOL     OW36907   1.878   4.115   4.417  0.0534  0.3524 -0.7858
 8424SOL    HW136908   1.867   4.187   4.355  1.2359  1.5592  0.4011
 8424SOL    HW236909   1.811   4.052   4.390  1.4775 -1.3649 -0.3357
 8425SOL     OW36910   3.215   1.029   5.754  0.9828  0.5305  0.3309
 8425SOL    HW136911   3.188   1.086   5.682  1.2307 -0.8502 -0.8283
 8425SOL    HW236912   3.127   0.994   5.770  0.3733  1.3847 -1.1966
 8426SOL     OW36913   3.282   2.059   6.082  0.0185  0.3081 -0.3959
 8426SOL    HW136914   3.364   2.052   6.131  0.2800  0.6785 -0.7836
 8426SOL    HW236915   3.255   2.150   6.096  0.3917  0.4164 -0.3719
 8427SOL     OW36916   0.803   2.478  10.439 -0.0302 -0.2505 -0.3265
 8427SOL    HW136917   0.824   2.392  10.477  1.6573  2.0045  3.8465
 8427SOL    HW236918   0.708   2.481  10.428  0.1227 -0.8983 -1.8234
 8428SOL     OW36919   1.245   0.713   6.948  0.3586 -0.4052  0.7395
 8428SOL    HW136920   1.325   0.697   6.999  0.4593 -0.6732  0.4974
 8428SOL    HW236921   1.281   0.763   6.875 -1.3770  0.2220  0.3183
 8429SOL     OW36922   1.223   2.826   6.426  0.3193 -0.1059  0.2120
 8429SOL    HW136923   1.209   2.865   6.340  0.2313 -1.1196 -0.2337
 8429SOL    HW236924   1.305   2.873   6.444  0.2719 -0.8736  2.4659
 8430SOL     OW36925   4.006   4.541   0.312  0.2133  1.0356 -0.0842
 8430SOL    HW136926   4.087   4.553   0.361 -0.2931 -0.0414  1.0299
 8430SOL    HW236927   3.982   4.452   0.337 -0.7521  1.0081 -1.0970
 8431SOL     OW36928   3.608   3.714   5.094  0.0704  0.4772 -0.1932
 8431SOL    HW136929   3.670   3.784   5.075 -0.3641 -0.0530 -3.5048
 8431SOL    HW236930   3.611   3.660   5.015  1.9383  0.1072  0.1257
 8432SOL     OW36931   2.553   3.503   5.384 -0.2362  0.3870 -0.0396
 8432SOL    HW136932   2.500   3.423   5.389  0.0969  0.2567  1.3572
 8432SOL    HW236933   2.592   3.500   5.296  0.4682  2.2423  0.2072
 8433SOL     OW36934   4.600   4.449  11.956 -0.1059  0.1021 -0.6414
 8433SOL    HW136935   4.693   4.447  11.978 -0.1940 -2.7668 -0.6037
 8433SOL    HW236936   4.614   4.378  11.894 -0.0843 -2.0385  1.8388
 8434SOL     OW36937   3.440   3.863  17.088 -0.2421  0.2172  0.4265
 8434SOL    HW136938   3.516   3.891  17.036  1.2076 -0.6013  2.0934
 8434SOL    HW236939   3.482   3.803  17.150 -0.5357  0.4382  0.8352
 8435SOL     OW36940   1.127   1.073   9.603  0.1340 -0.5442 -0.7778
 8435SOL    HW136941   1.112   0.979   9.593 -0.3360 -0.3248 -2.1383
 8435SOL    HW236942   1.217   1.050   9.626 -0.5975  0.5530  3.2082
 8436SOL     OW36943   4.037   3.131   0.117  0.3595  0.6072  0.4604
 8436SOL    HW136944   3.979   3.064   0.152  0.7959 -0.0419 -0.0537
 8436SOL    HW236945   4.050   3.192   0.189  1.1559  3.1328 -1.8225
 8437SOL     OW36946   1.205   4.536   6.322  0.1008  0.3784 -0.3488
 8437SOL    HW136947   1.205   4.456   6.270  0.2952  0.5568 -0.6236
 8437SOL    HW236948   1.263   4.520   6.396 -2.8217  0.2107  1.8894
 8438SOL     OW36949   3.713   3.290   3.747 -0.2527  0.1148 -0.2346
 8438SOL    HW136950   3.701   3.377   3.784  0.7904 -0.2935  1.0544
 8438SOL    HW236951   3.622   3.263   3.752 -0.5141  1.3324  1.4426
 8439SOL     OW36952   1.928   2.370   6.211 -0.0187  0.4401  0.2444
 8439SOL    HW136953   1.902   2.388   6.301 -1.1530  1.1856 -0.2336
 8439SOL    HW236954   1.915   2.461   6.185  0.1536 -0.0850 -1.6928
 8440SOL     OW36955   1.513   3.238   1.752 -0.8167 -0.6917 -0.0939
 8440SOL    HW136956   1.515   3.271   1.663  0.7801  1.4036  0.7177
 8440SOL    HW236957   1.469   3.156   1.732 -0.6675 -0.8181  0.0971
 8441SOL     OW36958   4.112   3.083  16.557 -0.0937 -0.0915 -0.3273
 8441SOL    HW136959   4.130   3.022  16.629 -0.1213  2.0885  1.5087
 8441SOL    HW236960   4.035   3.037  16.524 -1.2441 -0.3114  2.6618
 8442SOL     OW36961   0.264   2.588   9.400  0.3300 -0.1766  1.1454
 8442SOL    HW136962   0.243   2.658   9.462 -1.1510 -0.0077  0.4476
 8442SOL    HW236963   0.317   2.531   9.456  0.7278 -0.6786  0.2572
 8443SOL     OW36964   2.507   0.275   2.832 -0.5419 -0.4310 -0.2488
 8443SOL    HW136965   2.444   0.263   2.903  0.3891  0.7479  0.7705
 8443SOL    HW236966   2.490   0.367   2.810  1.0467 -0.0866 -0.0308
 8444SOL     OW36967   0.045   2.998   9.941 -0.2813  0.6755 -0.2167
 8444SOL    HW136968   0.067   3.091   9.951  1.6593  0.2488 -0.6133
 8444SOL    HW236969   0.126   2.955   9.967 -0.3781  1.1250  0.8241
 8445SOL     OW36970   4.383   2.330   4.810 -0.3158  0.1707  0.1184
 8445SOL    HW136971   4.378   2.243   4.771  3.4042  0.2980 -0.5923
 8445SOL    HW236972   4.462   2.323   4.864 -0.9764  3.2348  1.4909
 8446SOL     OW36973   4.432   3.082   2.526 -0.4003 -0.6168 -0.2855
 8446SOL    HW136974   4.413   2.990   2.510 -1.0559 -0.2714 -1.4922
 8446SOL    HW236975   4.387   3.090   2.610 -0.0917  1.5662 -0.3221
 8447SOL     OW36976   1.122   2.234   8.617  0.5309 -0.5364 -0.0713
 8447SOL    HW136977   1.170   2.189   8.686  0.2770 -1.0483 -0.2288
 8447SOL    HW236978   1.054   2.168   8.602  2.1140 -2.4523  1.2343
 8448SOL     OW36979   4.437   1.295   2.077 -0.1085  0.6759 -0.6387
 8448SOL    HW136980   4.372   1.250   2.023  0.8618  0.6192 -1.7441
 8448SOL    HW236981   4.496   1.222   2.094 -0.0351  1.4210  2.3439
 8449SOL     OW36982   0.639   3.603   3.833 -0.2246 -0.1834 -0.3424
 8449SOL    HW136983   0.563   3.556   3.798 -0.7675 -1.7665  2.9514
 8449SOL    HW236984   0.703   3.532   3.843 -0.3038 -0.0742  0.9507
 8450SOL     OW36985   2.532   3.652   8.134 -0.3915  0.1503 -0.3503
 8450SOL    HW136986   2.489   3.577   8.174 -0.6750  0.2541 -0.4599
 8450SOL    HW236987   2.607   3.659   8.193 -0.6607 -1.7536  0.2283
 8451SOL     OW36988   3.073   0.285   0.004 -0.0470  0.4408 -0.1227
 8451SOL    HW136989   3.075   0.353   0.071  0.0443  0.8550 -0.5409
 8451SOL    HW236990   3.158   0.295  17.705 -0.5605  0.9017 -1.0140
 8452SOL     OW36991   3.094   3.378   0.904 -0.0928 -0.6170  0.4076
 8452SOL    HW136992   3.186   3.403   0.909 -0.8457  1.7986  1.7981
 8452SOL    HW236993   3.066   3.449   0.847  0.7710  0.3469  1.1945
 8453SOL     OW36994   3.756   4.483   7.474  0.0375 -0.2927 -0.5714
 8453SOL    HW136995   3.691   4.499   7.405 -2.7664 -0.5190  2.0351
 8453SOL    HW236996   3.809   4.416   7.430 -0.3691 -1.7153  1.1123
 8454SOL     OW36997   3.408   1.366   7.194  0.0273 -0.4522 -0.4613
 8454SOL    HW136998   3.373   1.280   7.219 -1.1350  0.5736  1.3875
 8454SOL    HW236999   3.325   1.399   7.159 -0.8510 -2.0636  0.0743
 8455SOL     OW37000   0.202   2.707   3.175  0.3856 -0.0051  0.2723
 8455SOL    HW137001   0.292   2.672   3.174 -0.0979 -1.2177 -1.5014
 8455SOL    HW237002   0.214   2.757   3.094  2.2216 -1.8798 -0.6498
 8456SOL     OW37003   4.116   1.860   2.817  0.1172 -0.0626 -0.0459
 8456SOL    HW137004   4.104   1.770   2.787 -1.3544 -0.0648  0.5422
 8456SOL    HW237005   4.188   1.852   2.879 -0.6813 -0.2995  0.8559
 8457SOL     OW37006   3.336   4.362   9.656  0.2257 -0.4870  0.0266
 8457SOL    HW137007   3.287   4.419   9.715  1.1155  0.9668 -0.6247
 8457SOL    HW237008   3.397   4.426   9.618 -1.9378  1.9096  0.6021
 8458SOL     OW37009   2.801   2.551   8.059 -0.0080  0.3904 -0.5396
 8458SOL    HW137010   2.723   2.574   8.009 -0.1034 -1.6665 -1.3192
 8458SOL    HW237011   2.866   2.576   7.993 -0.3924 -2.0561 -1.8207
 8459SOL     OW37012   3.034   2.400   7.280 -0.1533 -0.3456 -0.0321
 8459SOL    HW137013   2.985   2.436   7.206 -1.1079  0.1707  0.8528
 8459SOL    HW237014   2.956   2.391   7.335 -0.2859  0.6146 -0.0628
 8460SOL     OW37015   1.057   0.224  11.398  0.1167  0.2469 -0.0143
 8460SOL    HW137016   1.092   0.150  11.447  1.0916  0.1590 -0.8281
 8460SOL    HW237017   0.975   0.181  11.374  0.7611 -0.4330 -1.0361
 8461SOL     OW37018   2.188   3.668   3.693  0.4966 -0.4677 -0.0872
 8461SOL    HW137019   2.189   3.761   3.671  0.6925 -0.3537  0.3981
 8461SOL    HW237020   2.255   3.677   3.761  0.4617  1.3530 -0.3127
 8462SOL     OW37021   1.934   0.052   9.935 -0.1606 -0.1980  0.1163
 8462SOL    HW137022   1.861   0.085   9.987  1.3287 -0.3728  2.3204
 8462SOL    HW237023   1.895   0.031   9.850 -1.3176 -1.1709  0.8890
 8463SOL     OW37024   1.216   2.437   3.876  0.1992 -0.0819 -0.4429
 8463SOL    HW137025   1.268   2.397   3.807 -1.4420  2.0260 -2.8897
 8463SOL    HW237026   1.281   2.498   3.912  1.3975 -1.1301 -0.8260
 8464SOL     OW37027   2.517   2.248  14.258  0.2157  0.1746 -0.2317
 8464SOL    HW137028   2.518   2.154  14.244  0.6554  0.3759 -1.6084
 8464SOL    HW237029   2.553   2.283  14.177 -0.4901 -0.0070 -0.6266
 8465SOL     OW37030   2.356   1.634   7.915 -0.0018 -0.2579  0.0462
 8465SOL    HW137031   2.361   1.603   7.824  2.5247 -1.5789  0.6293
 8465SOL    HW237032   2.291   1.578   7.957 -1.5398 -0.9700 -3.2495
 8466SOL     OW37033   1.101   3.737   2.810  0.3059 -0.1841 -0.2781
 8466SOL    HW137034   1.061   3.700   2.732  0.1005  0.9427 -0.7076
 8466SOL    HW237035   1.048   3.816   2.820 -1.2572 -1.2964  0.1835
 8467SOL     OW37036   4.149   4.628   4.365  0.1665  0.1489  0.0501
 8467SOL    HW137037   4.083   4.558   4.364  0.0444  0.2265  2.4745
 8467SOL    HW237038   4.107   4.695   4.311  0.7862 -0.0640 -0.6882
 8468SOL     OW37039   1.572   0.677   6.796 -0.4575 -0.3809  0.2639
 8468SOL    HW137040   1.603   0.655   6.708  0.3145 -1.4475  0.8005
 8468SOL    HW237041   1.579   0.772   6.798  0.4767 -0.4032 -2.1378
 8469SOL     OW37042   2.284   2.203   9.884 -0.4132  0.0707  0.4442
 8469SOL    HW137043   2.336   2.163   9.954 -1.3336 -1.4100  0.2851
 8469SOL    HW237044   2.263   2.284   9.931  1.2697  0.8065 -0.0776
 8470SOL     OW37045   3.121   3.503   6.710 -0.3981 -0.3005  0.1934
 8470SOL    HW137046   3.207   3.540   6.686  0.2118 -0.7443  1.7184
 8470SOL    HW237047   3.103   3.551   6.790 -0.7433  0.4302 -0.3259
 8471SOL     OW37048   4.572   4.453  15.159 -0.3510  0.7452 -0.2947
 8471SOL    HW137049   4.497   4.462  15.218 -0.1046  1.1583 -0.0439
 8471SOL    HW237050   4.531   4.470  15.074 -1.7282 -1.0137  0.0240
 8472SOL     OW37051   2.678   2.722   9.157  0.1618 -0.1210 -0.1179
 8472SOL    HW137052   2.716   2.674   9.231  2.3548  0.6433 -0.7552
 8472SOL    HW237053   2.753   2.777   9.133  0.2835 -0.3253 -0.2031
 8473SOL     OW37054   1.139   1.672   1.202 -0.0713  0.1380  0.0426
 8473SOL    HW137055   1.232   1.686   1.188  0.1713 -0.5188  1.0280
 8473SOL    HW237056   1.125   1.737   1.271  0.3455 -0.0399  0.2912
 8474SOL     OW37057   2.334   3.589  13.157 -0.0261  0.6423  0.1147
 8474SOL    HW137058   2.421   3.629  13.156  0.2373  0.0712  0.1519
 8474SOL    HW237059   2.325   3.552  13.245  0.9761 -2.3768 -1.0639
 8475SOL     OW37060   0.351   3.418   6.551  0.0084  0.1228 -0.2212
 8475SOL    HW137061   0.398   3.501   6.547  0.8463 -0.3408  0.0251
 8475SOL    HW237062   0.270   3.458   6.582  0.0910  1.4031 -1.6605
 8476SOL     OW37063   2.585   4.068   1.561  0.2474 -0.9432 -0.5000
 8476SOL    HW137064   2.492   4.068   1.583  0.2996  2.5479 -0.3311
 8476SOL    HW237065   2.578   4.098   1.470 -0.6274 -0.8673 -0.4094
 8477SOL     OW37066   1.750   3.288   4.300 -0.0790  0.0752 -0.0112
 8477SOL    HW137067   1.752   3.221   4.369  5.0912  0.3168  0.0460
 8477SOL    HW237068   1.779   3.237   4.225  0.7013  1.7586 -0.8435
 8478SOL     OW37069   1.325   0.363   3.643  0.2548  0.2370 -0.4923
 8478SOL    HW137070   1.374   0.366   3.726 -0.8182  2.4045  0.0538
 8478SOL    HW237071   1.257   0.429   3.654  1.5476  1.8451 -2.1693
 8479SOL     OW37072   1.089   3.188   6.976 -0.0264 -0.0900 -0.2064
 8479SOL    HW137073   1.060   3.148   6.894 -1.6032  2.0489 -0.6983
 8479SOL    HW237074   1.124   3.266   6.934 -1.2707  1.5011  1.7505
 8480SOL     OW37075   3.322   4.495   5.562  0.0781 -0.1974 -0.6302
 8480SOL    HW137076   3.390   4.549   5.602 -0.6508 -0.1682  0.5716
 8480SOL    HW237077   3.265   4.486   5.639  0.6777  0.9561 -0.0634
 8481SOL     OW37078   3.437   2.743  17.678  0.3880 -0.1221 -0.2512
 8481SOL    HW137079   3.346   2.773  17.678  0.2344 -0.5880  0.1060
 8481SOL    HW237080   3.432   2.687  17.601 -2.1840  0.1208 -0.2630
 8482SOL     OW37081   2.734   3.245   5.192 -0.0140  0.2926 -0.0610
 8482SOL    HW137082   2.803   3.255   5.258  0.6035 -1.3873 -0.4305
 8482SOL    HW237083   2.657   3.250   5.248  0.0688  1.9798 -0.1236
 8483SOL     OW37084   4.261   4.621   8.787 -0.5073  0.2026 -0.1765
 8483SOL    HW137085   4.241   4.689   8.851  0.2153  0.3375 -0.1015
 8483SOL    HW237086   4.170   4.591   8.775  0.6353 -1.8067 -4.0550
 8484SOL     OW37087   1.927   4.145   3.874  0.2273  1.2325 -0.0593
 8484SOL    HW137088   1.909   4.128   3.782  1.3150 -1.4684  0.2150
 8484SOL    HW237089   1.903   4.237   3.884 -1.0959  0.8341  0.4136
 8485SOL     OW37090   4.088   1.140   4.262  0.2244  0.4492 -0.6093
 8485SOL    HW137091   4.110   1.130   4.169  0.9413 -1.8226 -0.1849
 8485SOL    HW237092   3.996   1.165   4.251  0.2173  0.4106 -0.6372
 8486SOL     OW37093   4.337   2.718  17.245  0.1950  0.1885 -0.3125
 8486SOL    HW137094   4.399   2.786  17.219  1.7311 -2.0892 -2.6876
 8486SOL    HW237095   4.343   2.722  17.340 -0.7078  0.0321 -0.2530
 8487SOL     OW37096   1.311   2.757   5.327  0.5586  0.0998 -0.5543
 8487SOL    HW137097   1.322   2.852   5.334 -1.0569  0.3926 -1.8958
 8487SOL    HW237098   1.365   2.727   5.400 -0.1257  0.0979 -0.0501
 8488SOL     OW37099   3.077   2.201   6.938  0.2282 -0.2191 -0.2192
 8488SOL    HW137100   3.026   2.281   6.943  0.8467  0.2765 -1.8433
 8488SOL    HW237101   3.164   2.225   6.971  1.2089 -1.5351 -1.7545
 8489SOL     OW37102   3.945   2.406  11.967  0.0302 -0.3547  0.0790
 8489SOL    HW137103   4.009   2.442  11.905  0.3451 -0.8806  0.0961
 8489SOL    HW237104   3.940   2.313  11.945  0.1295  0.0093 -1.4861
 8490SOL     OW37105   4.150   1.138   3.103 -0.2622  0.3779 -0.4108
 8490SOL    HW137106   4.157   1.231   3.124 -0.5537  0.4112 -0.4548
 8490SOL    HW237107   4.059   1.119   3.128  0.6354 -0.4953  2.2173
 8491SOL     OW37108   2.467   0.761   2.239  0.0647 -0.3536  0.4287
 8491SOL    HW137109   2.445   0.691   2.301  0.6771 -0.6832  0.2798
 8491SOL    HW237110   2.490   0.702   2.167  2.3054  2.7387 -1.3874
 8492SOL     OW37111   0.545   0.490   4.811 -0.2504 -0.5615  0.3383
 8492SOL    HW137112   0.461   0.447   4.826  0.3054 -1.6187  0.4513
 8492SOL    HW237113   0.547   0.536   4.895 -0.9001 -1.0709  0.6312
 8493SOL     OW37114   3.315   2.978  15.379  0.0598  0.5802  0.5992
 8493SOL    HW137115   3.325   2.907  15.442  0.6014 -1.3351 -1.6280
 8493SOL    HW237116   3.366   2.954  15.301 -0.5445  0.6251  0.1857
 8494SOL     OW37117   0.154   2.771   6.918  0.4721 -0.0163  0.2967
 8494SOL    HW137118   0.227   2.761   6.857 -0.3416  1.7004 -0.9510
 8494SOL    HW237119   0.096   2.717   6.865  0.8982 -1.0174  0.8561
 8495SOL     OW37120   4.695   4.080  11.234 -0.2990 -0.2890 -0.4851
 8495SOL    HW137121   0.031   4.018  11.228  0.4842  0.7974 -2.2612
 8495SOL    HW237122   4.622   4.043  11.186  0.0481  0.6803 -1.7604
 8496SOL     OW37123   1.328   2.131   7.080 -0.1456 -0.3080  0.2141
 8496SOL    HW137124   1.374   2.193   7.137 -2.0361  0.1746  1.2316
 8496SOL    HW237125   1.244   2.169   7.054 -0.4910 -0.5720  0.9393
 8497SOL     OW37126   2.888   1.875   4.694  0.0937  0.1826  0.0390
 8497SOL    HW137127   2.825   1.903   4.627  0.8565 -1.3271 -1.3003
 8497SOL    HW237128   2.950   1.821   4.646  3.0553  1.9487  1.8527
 8498SOL     OW37129   3.688   0.942  11.283  0.3124 -0.1952  1.6472
 8498SOL    HW137130   3.684   0.897  11.367  1.0845  2.0488  2.8808
 8498SOL    HW237131   3.625   1.013  11.295  1.1378  0.7685  0.3310
 8499SOL     OW37132   4.527   1.285   7.084  0.2643  0.0657  0.3480
 8499SOL    HW137133   4.467   1.314   7.151  1.7142 -0.4215  1.8536
 8499SOL    HW237134   4.463   1.228   7.040  0.5753 -0.2683  0.3244
 8500SOL     OW37135   1.917   2.911   8.011  0.1259 -0.0311  0.0626
 8500SOL    HW137136   1.908   2.821   8.043 -0.2984 -0.2807 -0.7462
 8500SOL    HW237137   2.010   2.923   7.995  0.1207  2.0048  1.5666
 8501SOL     OW37138   1.089   1.856   1.804 -0.9197  0.5396  0.0057
 8501SOL    HW137139   1.022   1.911   1.764 -1.0062 -0.1600 -0.8274
 8501SOL    HW237140   1.154   1.926   1.817 -0.0441 -0.3554  0.4707
 8502SOL     OW37141   2.794   4.689   2.284 -0.1533  0.5283  0.9951
 8502SOL    HW137142   2.808   0.039   2.323  0.3565  0.9775 -0.1913
 8502SOL    HW237143   2.705   4.703   2.252  0.7273  0.3375 -1.5341
 8503SOL     OW37144   0.837   0.227   3.228 -0.7914 -0.5310 -0.1399
 8503SOL    HW137145   0.865   0.136   3.240  2.3858  0.2102 -1.9388
 8503SOL    HW237146   0.800   0.256   3.312  3.9477  0.4437  1.5958
 8504SOL     OW37147   3.238   1.784  16.846  0.3992  0.0109 -0.1616
 8504SOL    HW137148   3.266   1.866  16.804 -0.0192 -0.2945 -1.0515
 8504SOL    HW237149   3.311   1.722  16.847  2.0476  1.9325  0.1004
 8505SOL     OW37150   4.156   3.118   1.081 -0.4407 -0.4801  0.0626
 8505SOL    HW137151   4.125   3.028   1.094 -0.9316 -0.5944 -1.9320
 8505SOL    HW237152   4.070   3.158   1.067  0.1490  0.4853 -0.7926
 8506SOL     OW37153   4.285   4.613   2.783  0.3208  0.2832 -0.0087
 8506SOL    HW137154   4.277   4.659   2.866 -1.2359 -0.3753  0.1977
 8506SOL    HW237155   4.303   4.526   2.818  0.3000  0.5289  0.5982
 8507SOL     OW37156   4.444   3.729   2.314 -0.4264  0.0844 -0.0115
 8507SOL    HW137157   4.431   3.634   2.323  1.9410 -0.2275  0.1958
 8507SOL    HW237158   4.452   3.722   2.219 -0.4717 -0.1929  0.0034
 8508SOL     OW37159   1.281   1.345   6.698  0.0566  0.7063  0.4809
 8508SOL    HW137160   1.267   1.355   6.604  0.1227 -0.1585  0.3726
 8508SOL    HW237161   1.192   1.348   6.733  0.5640  3.5454  1.5059
 8509SOL     OW37162   2.391   3.629   8.877  0.2177 -0.2879  0.9558
 8509SOL    HW137163   2.321   3.676   8.831  0.4001 -2.2119 -1.2665
 8509SOL    HW237164   2.335   3.559   8.911 -0.2367 -0.1974  0.3906
 8510SOL     OW37165   4.432   0.365   9.259 -0.1925  0.3815  0.1564
 8510SOL    HW137166   4.364   0.424   9.228  0.0125 -0.2200 -1.4027
 8510SOL    HW237167   4.389   0.279   9.259  3.3665 -1.4177  0.3992
 8511SOL     OW37168   0.981   3.041   8.563  0.2437  0.1190 -0.2173
 8511SOL    HW137169   0.894   3.009   8.542  0.0736  1.1166 -1.0464
 8511SOL    HW237170   0.986   3.120   8.508  2.2510 -0.5777 -1.0607
 8512SOL     OW37171   3.358   3.439   1.928  0.1186  0.0782 -0.4683
 8512SOL    HW137172   3.288   3.504   1.942 -0.0520 -1.0778  4.1930
 8512SOL    HW237173   3.309   3.358   1.945  0.0833  0.1905 -0.0181
 8513SOL     OW37174   1.195   3.702   7.737  0.1334  0.3598 -0.0557
 8513SOL    HW137175   1.283   3.679   7.765  0.8501  0.1984 -2.4433
 8513SOL    HW237176   1.157   3.747   7.813  1.8512 -1.3200  1.8083
 8514SOL     OW37177   1.733   2.970   4.851  0.3475  0.7250  0.2759
 8514SOL    HW137178   1.810   2.927   4.814  0.6807 -0.9112  2.8837
 8514SOL    HW237179   1.664   2.906   4.832 -0.6763  1.4163  1.7122
 8515SOL     OW37180   2.649   3.524   4.407  0.3005 -0.3687 -0.2176
 8515SOL    HW137181   2.710   3.595   4.426  0.3211 -0.9285  1.7540
 8515SOL    HW237182   2.566   3.569   4.388  0.2583 -0.4199 -0.1568
 8516SOL     OW37183   4.095   1.400   9.467  0.0988 -0.1130 -0.0253
 8516SOL    HW137184   4.137   1.428   9.386  0.5311 -0.8226 -0.0463
 8516SOL    HW237185   4.098   1.482   9.517  1.1367 -0.7471  0.9482
 8517SOL     OW37186   3.627   2.788   1.360 -0.2521  0.0698 -0.4504
 8517SOL    HW137187   3.598   2.698   1.374  2.0481 -0.6643 -0.3710
 8517SOL    HW237188   3.571   2.807   1.285 -0.4316  2.8539  0.3860
 8518SOL     OW37189   3.116   1.673  11.034  0.1213 -0.4929 -0.1618
 8518SOL    HW137190   3.104   1.705  10.944  0.1085  2.2945  0.8611
 8518SOL    HW237191   3.211   1.673  11.048  0.4110  0.8622 -2.1396
 8519SOL     OW37192   4.581   0.838   6.391  0.3256 -0.1476  0.4104
 8519SOL    HW137193   4.610   0.922   6.425 -0.3296 -0.0745  0.8015
 8519SOL    HW237194   4.492   0.856   6.359  0.7448 -1.0164 -1.2394
 8520SOL     OW37195   0.556   0.544   2.977 -0.1838  0.6101 -0.2236
 8520SOL    HW137196   0.526   0.455   2.994  1.5749  0.5379  2.6061
 8520SOL    HW237197   0.651   0.533   2.980 -0.0092  2.1405  0.4543
 8521SOL     OW37198   2.937   0.296   2.605  0.4939  0.1845 -0.2144
 8521SOL    HW137199   2.937   0.204   2.630  3.1053  0.1237 -0.4985
 8521SOL    HW237200   2.970   0.331   2.688  1.2025  0.7498 -0.7362
 8522SOL     OW37201   0.320   2.065   5.283  0.1333  0.4481 -0.4408
 8522SOL    HW137202   0.336   2.145   5.332 -2.8568  0.9808 -0.3355
 8522SOL    HW237203   0.243   2.079   5.228 -0.9191 -0.0546  0.9154
 8523SOL     OW37204   0.239   0.534   2.335 -0.5341  0.7711 -0.3212
 8523SOL    HW137205   0.290   0.613   2.353 -0.9400  0.8689  0.3925
 8523SOL    HW237206   0.303   0.475   2.295 -0.1134  1.1428 -0.1864
 8524SOL     OW37207   2.760   0.928   3.324 -0.6015 -0.1519  0.7852
 8524SOL    HW137208   2.665   0.925   3.333 -0.3075 -1.0829  3.4890
 8524SOL    HW237209   2.786   0.844   3.285  0.9094  1.8595 -2.5125
 8525SOL     OW37210   1.158   3.421   8.797 -0.0349  0.5123 -0.0539
 8525SOL    HW137211   1.063   3.421   8.784  0.0015  0.3201 -0.3076
 8525SOL    HW237212   1.172   3.358   8.868 -2.4165 -1.8395 -1.6921
 8526SOL     OW37213   3.878   1.795   5.009  0.2934  0.0683  0.6000
 8526SOL    HW137214   3.932   1.872   5.028  0.5892 -0.1407  0.5931
 8526SOL    HW237215   3.823   1.827   4.937 -0.3127  0.6172  1.3130
 8527SOL     OW37216   4.428   0.867   2.849 -0.4171 -0.7079 -0.1019
 8527SOL    HW137217   4.427   0.957   2.880  1.1494 -1.2534  1.5332
 8527SOL    HW237218   4.335   0.844   2.842 -1.1467  2.0245  0.6422
 8528SOL     OW37219   2.308   2.695  10.092 -0.0851  0.0955  0.1664
 8528SOL    HW137220   2.349   2.616  10.128  0.6545 -0.0108 -0.8963
 8528SOL    HW237221   2.317   2.673   9.999  0.4473  0.1928  0.1931
 8529SOL     OW37222   4.618   0.210   5.209  0.1330  0.2880 -0.0950
 8529SOL    HW137223   4.537   0.197   5.160 -0.6748  1.3310  0.9754
 8529SOL    HW237224   4.659   0.125   5.189 -0.7231 -0.0031 -0.6075
 8530SOL     OW37225   3.988   3.333   8.576  0.1613  0.1815 -0.3924
 8530SOL    HW137226   3.916   3.318   8.515 -0.2816  0.9459 -0.0611
 8530SOL    HW237227   4.052   3.356   8.508  1.0671 -0.3741  0.2623
 8531SOL     OW37228   0.972   0.660   3.475 -0.2332 -0.5743 -0.6103
 8531SOL    HW137229   1.023   0.738   3.452 -0.9974  0.7367  2.1303
 8531SOL    HW237230   0.886   0.699   3.488  0.0759  0.0361 -0.3714
 8532SOL     OW37231   3.619   0.042   5.638 -0.2043  0.0952 -0.0522
 8532SOL    HW137232   3.675   0.060   5.563 -1.0208  1.8835 -0.2311
 8532SOL    HW237233   3.684   0.021   5.705 -1.8071  0.4339  1.6281
 8533SOL     OW37234   0.513   1.256   1.701  0.1931 -0.1140  0.1347
 8533SOL    HW137235   0.480   1.302   1.624 -3.5132  0.7842  2.2899
 8533SOL    HW237236   0.599   1.228   1.668 -0.0443  1.0065 -1.4549
 8534SOL     OW37237   0.971   0.148  10.712 -0.1944 -0.0356  0.8698
 8534SOL    HW137238   0.884   0.180  10.733 -1.6067 -2.3195 -1.3788
 8534SOL    HW237239   0.968   0.172  10.619  3.5198 -0.6842  0.5978
 8535SOL     OW37240   2.566   1.907  16.197  0.6556 -0.1795  0.1475
 8535SOL    HW137241   2.644   1.899  16.141  0.0961 -2.9882 -0.2350
 8535SOL    HW237242   2.605   1.931  16.281  2.7760  0.6519 -1.0667
 8536SOL     OW37243   0.867   1.272   7.126 -0.1957  0.3805  0.1418
 8536SOL    HW137244   0.832   1.343   7.072 -1.4126 -0.9187 -0.7855
 8536SOL    HW237245   0.817   1.200   7.086  0.1178  0.9559 -1.2975
 8537SOL     OW37246   2.238   0.072   4.872  0.4919  0.8725 -0.0614
 8537SOL    HW137247   2.227   0.070   4.967  0.4292 -2.3179 -0.1322
 8537SOL    HW237248   2.327   0.035   4.869 -0.0017 -0.1390 -2.0648
 8538SOL     OW37249   4.210   1.015  10.958  0.3275 -0.3859 -0.4036
 8538SOL    HW137250   4.196   1.075  10.884 -0.5055 -0.8574 -0.6261
 8538SOL    HW237251   4.270   0.957  10.912  0.4342  0.2735 -1.1044
 8539SOL     OW37252   2.928   2.527   4.346 -0.4257 -0.1668  0.1110
 8539SOL    HW137253   2.928   2.441   4.304 -1.0828 -0.4850  0.7695
 8539SOL    HW237254   2.996   2.576   4.299  0.2984 -0.6361  0.6666
 8540SOL     OW37255   0.204   1.488  10.794 -0.2027  0.1736 -0.2117
 8540SOL    HW137256   0.186   1.459  10.884  0.1095  0.1671 -0.1540
 8540SOL    HW237257   0.287   1.444  10.777 -0.8240 -1.5182  1.0413
 8541SOL     OW37258   1.660   2.617   8.565 -0.3354  0.2675 -0.1516
 8541SOL    HW137259   1.570   2.649   8.570 -0.5675 -0.1300 -1.6571
 8541SOL    HW237260   1.666   2.585   8.655 -1.9038 -0.2961 -0.2429
 8542SOL     OW37261   3.147   4.598   7.336 -0.4090  0.1134  0.2441
 8542SOL    HW137262   3.193   4.578   7.254  0.8383  1.6277  0.5655
 8542SOL    HW237263   3.091   4.668   7.303 -1.4608 -2.6246 -3.8833
 8543SOL     OW37264   0.068   4.098   9.457  0.2560 -0.8113 -0.2611
 8543SOL    HW137265   0.049   4.184   9.418  2.0300 -0.7451 -0.9684
 8543SOL    HW237266   4.721   4.075   9.496 -0.5165  0.4102 -1.1642
 8544SOL     OW37267   0.177   3.164  13.919  0.5513 -0.4439  0.5384
 8544SOL    HW137268   0.097   3.206  13.952  1.4633  2.2913 -0.8016
 8544SOL    HW237269   0.225   3.240  13.887  1.1814 -1.3132 -0.5769
 8545SOL     OW37270   3.074   2.442   3.161 -0.0967  0.1181 -0.0337
 8545SOL    HW137271   2.989   2.473   3.130  0.1175  1.8521  1.1731
 8545SOL    HW237272   3.082   2.362   3.109 -0.9118  0.5669 -0.8374
 8546SOL     OW37273   0.198   3.843   5.702  0.3345  1.0470  0.4373
 8546SOL    HW137274   0.140   3.908   5.662  1.2065  0.4674 -1.7704
 8546SOL    HW237275   0.134   3.772   5.710  0.9460  0.6040  1.3971
 8547SOL     OW37276   2.655   1.520   2.971  0.2858  0.1073 -0.1526
 8547SOL    HW137277   2.750   1.525   2.959 -0.1646  0.6500 -3.3634
 8547SOL    HW237278   2.624   1.482   2.889  0.3856  0.6184 -0.4224
 8548SOL     OW37279   3.732   2.875   4.713 -0.5720 -0.3128  0.4028
 8548SOL    HW137280   3.781   2.905   4.790  0.9467  1.1015 -1.1222
 8548SOL    HW237281   3.662   2.834   4.764 -1.0796 -0.5786 -0.5092
 8549SOL     OW37282   1.881   2.612   4.258 -0.2427  0.4062  0.1606
 8549SOL    HW137283   1.943   2.685   4.248  2.0872 -1.2034  2.9809
 8549SOL    HW237284   1.940   2.542   4.232  1.1316  1.8148 -0.5548
 8550SOL     OW37285   0.807   2.707   4.865 -0.1396 -0.6598 -0.7433
 8550SOL    HW137286   0.760   2.696   4.948 -1.1622  1.0845 -1.0779
 8550SOL    HW237287   0.740   2.729   4.800  0.2371  0.0323 -0.9041
 8551SOL     OW37288   0.530   1.249   3.534 -0.0140  0.0597  0.2546
 8551SOL    HW137289   0.489   1.291   3.458 -2.2183  0.2213  1.5488
 8551SOL    HW237290   0.496   1.293   3.612  0.1917 -1.8041  1.3982
 8552SOL     OW37291   3.800   4.036   8.023  0.5031 -0.1355 -0.2562
 8552SOL    HW137292   3.739   3.974   8.063  1.6480 -0.9949  0.1774
 8552SOL    HW237293   3.747   4.071   7.952 -0.3957  0.9126  0.9227
 8553SOL     OW37294   3.345   3.822   8.093  0.0580  0.0398  0.5589
 8553SOL    HW137295   3.328   3.897   8.036  2.4181  1.0027  1.1073
 8553SOL    HW237296   3.360   3.751   8.030  0.7236 -0.4559  1.2687
 8554SOL     OW37297   3.835   4.691   7.277 -0.8023  0.2796  0.3650
 8554SOL    HW137298   3.922   4.702   7.314  0.1624 -2.2596 -1.1615
 8554SOL    HW237299   3.792   4.679   7.361 -1.5822 -1.2595 -0.2503
 8555SOL     OW37300   4.380   1.724   6.988 -0.3912 -0.0929  0.0374
 8555SOL    HW137301   4.295   1.749   7.025 -0.4874  1.0954 -0.9998
 8555SOL    HW237302   4.404   1.650   7.044 -0.3821 -0.3323 -0.2845
 8556SOL     OW37303   0.359   3.392   6.927  0.1068 -0.6828 -0.6071
 8556SOL    HW137304   0.365   3.321   6.863 -1.5427 -0.0283 -1.4939
 8556SOL    HW237305   0.451   3.401   6.953 -0.2308  0.4834  0.1973
 8557SOL     OW37306   2.747   4.513  12.880  0.2312  0.4632 -0.6747
 8557SOL    HW137307   2.761   4.466  12.799  4.1066 -1.0900  0.8838
 8557SOL    HW237308   2.701   4.590  12.846 -1.7712 -0.1773  0.6018
 8558SOL     OW37309   3.839   0.302  10.556  0.3546  0.5592 -0.1027
 8558SOL    HW137310   3.907   0.259  10.608 -1.3092 -1.9965 -0.0356
 8558SOL    HW237311   3.854   0.255  10.474 -0.8025  0.1840 -0.0968
 8559SOL     OW37312   1.365   3.281   2.147  0.0073  0.0912 -0.4310
 8559SOL    HW137313   1.391   3.253   2.235  0.7174 -0.1628 -0.7224
 8559SOL    HW237314   1.450   3.307   2.112  0.5709 -0.1330  0.7697
 8560SOL     OW37315   2.279   0.210   5.776  0.1095  0.1192 -0.5099
 8560SOL    HW137316   2.359   0.225   5.826  0.3495 -0.7925 -0.6103
 8560SOL    HW237317   2.297   0.245   5.689 -1.1190 -0.2192 -0.9061
 8561SOL     OW37318   2.236   4.434  17.305  0.4165 -0.1653  0.1219
 8561SOL    HW137319   2.251   4.402  17.216  0.1272 -1.5645  0.5864
 8561SOL    HW237320   2.310   4.495  17.309 -0.7460  1.3053 -0.5578
 8562SOL     OW37321   3.065   0.242   0.645  0.0564  0.1947  0.1873
 8562SOL    HW137322   2.974   0.215   0.660  0.0548  0.4895  0.7025
 8562SOL    HW237323   3.109   0.230   0.729  1.2705  1.3917 -0.2831
 8563SOL     OW37324   3.054   1.294   1.878  0.1856 -0.4981 -0.1662
 8563SOL    HW137325   3.100   1.315   1.960 -2.7948 -0.6368  1.5478
 8563SOL    HW237326   3.103   1.221   1.840  2.2989  0.2422  1.1149
 8564SOL     OW37327   0.700   1.722   7.607  0.2114  0.5242  0.0168
 8564SOL    HW137328   0.692   1.742   7.700  0.9937  3.6831 -0.5904
 8564SOL    HW237329   0.762   1.650   7.594 -1.2776 -0.3969 -1.9113
 8565SOL     OW37330   1.411   3.324   6.678  0.1548 -0.4964 -0.0286
 8565SOL    HW137331   1.484   3.361   6.728  0.0795 -1.2209  0.6242
 8565SOL    HW237332   1.415   3.388   6.607 -0.4069  0.3978  0.7516
 8566SOL     OW37333   3.596   1.126   7.377  0.2089  0.2382  0.8788
 8566SOL    HW137334   3.511   1.083   7.390  0.9757 -1.2549  0.9880
 8566SOL    HW237335   3.644   1.063   7.323 -0.0364 -0.0083  0.9448
 8567SOL     OW37336   4.494   0.603   4.350 -0.4082 -0.1226 -0.3892
 8567SOL    HW137337   4.580   0.618   4.387 -0.5559 -0.3844  0.0572
 8567SOL    HW237338   4.473   0.515   4.381  0.9168 -0.8472 -1.5904
 8568SOL     OW37339   3.951   3.411   0.246 -0.1557  0.8209 -0.0496
 8568SOL    HW137340   3.999   3.492   0.230 -1.3499  1.7457  0.9925
 8568SOL    HW237341   3.873   3.416   0.190 -1.3506 -1.4253  1.3903
 8569SOL     OW37342   0.832   3.596   1.375 -0.1278  0.4846 -0.0561
 8569SOL    HW137343   0.874   3.624   1.294  0.5827  0.2515  0.2258
 8569SOL    HW237344   0.901   3.560   1.432  1.7165  0.0981 -2.5493
 8570SOL     OW37345   4.468   0.468   9.705  0.1168  0.3427  0.6426
 8570SOL    HW137346   4.510   0.403   9.648 -0.6012 -0.3404  0.8809
 8570SOL    HW237347   4.409   0.418   9.763  1.9363 -2.4854  0.0819
 8571SOL     OW37348   1.938   0.320   9.921 -0.1252  0.3734  0.0245
 8571SOL    HW137349   2.018   0.372   9.922  0.7980 -1.0439 -0.5452
 8571SOL    HW237350   1.976   0.235   9.945 -1.4824 -0.1520  0.3451
 8572SOL     OW37351   0.835   3.564   5.045  0.3546  0.2140 -0.1707
 8572SOL    HW137352   0.805   3.515   4.968  2.7877 -0.7314 -0.5099
 8572SOL    HW237353   0.779   3.641   5.037 -0.3065 -0.3182 -0.7685
 8573SOL     OW37354   2.019   0.958   7.537 -0.0570 -0.2683 -0.3873
 8573SOL    HW137355   2.041   1.044   7.502  0.4318 -0.0555  0.4541
 8573SOL    HW237356   2.083   0.900   7.495 -0.6264 -0.4881 -0.9620
 8574SOL     OW37357   0.036   1.777  12.745 -0.2527  0.2109 -0.7401
 8574SOL    HW137358   4.681   1.794  12.765  0.4550  0.3108  2.4231
 8574SOL    HW237359   0.040   1.845  12.677  0.6777  0.7028 -0.1971
 8575SOL     OW37360   2.710   0.953   2.650  0.3146 -0.1495  0.4442
 8575SOL    HW137361   2.788   0.923   2.603  0.9954  0.4632  1.1753
 8575SOL    HW237362   2.709   0.900   2.730  0.5749 -3.5802 -1.8047
 8576SOL     OW37363   1.852   1.186   7.941 -0.0170 -0.2702 -0.3615
 8576SOL    HW137364   1.857   1.230   8.026  1.6759 -1.0403 -0.0604
 8576SOL    HW237365   1.860   1.099   7.982 -0.7762 -0.6933 -1.1147
 8577SOL     OW37366   0.767   4.131  11.451  0.1850 -0.0522  0.0157
 8577SOL    HW137367   0.797   4.211  11.493 -0.8823  0.8638 -0.9707
 8577SOL    HW237368   0.842   4.117  11.393  0.3091 -0.1782  0.2068
 8578SOL     OW37369   3.104   2.246   5.899 -0.2502  0.0105  0.4343
 8578SOL    HW137370   3.087   2.272   5.990  2.2527  0.2975  0.8263
 8578SOL    HW237371   3.145   2.329   5.873 -0.4524 -0.1594 -0.4090
 8579SOL     OW37372   4.682   2.213   0.263 -0.0778  0.2833 -0.2134
 8579SOL    HW137373   4.650   2.209   0.173 -2.0975  0.7918  0.4922
 8579SOL    HW237374   0.035   2.248   0.253 -0.0780  0.1839 -0.5842
 8580SOL     OW37375   3.874   4.102  17.191  0.4052  0.1211 -0.3746
 8580SOL    HW137376   3.857   4.147  17.108 -0.0692 -2.4228 -1.6571
 8580SOL    HW237377   3.783   4.086  17.215  0.3919  0.5133 -0.1591
 8581SOL     OW37378   0.911   2.449   5.109  0.1815 -0.0298  0.0340
 8581SOL    HW137379   0.985   2.507   5.128  1.5329 -1.5401 -0.5518
 8581SOL    HW237380   0.923   2.431   5.015 -0.1415  0.4175 -0.0942
 8582SOL     OW37381   3.909   2.751  12.236  0.2478  0.2729 -0.0500
 8582SOL    HW137382   3.866   2.778  12.317  0.6350  0.1950  0.1802
 8582SOL    HW237383   3.988   2.805  12.249  0.9726  0.1094 -3.5457
 8583SOL     OW37384   3.190   2.468  14.903  0.7915 -0.0356  0.7630
 8583SOL    HW137385   3.116   2.463  14.964  0.7663 -1.3778  0.6120
 8583SOL    HW237386   3.143   2.434  14.827  2.3642  0.9076 -0.6285
 8584SOL     OW37387   4.211   3.130   8.362  0.4034  0.2316  0.1021
 8584SOL    HW137388   4.158   3.140   8.283 -1.8033 -1.6390  1.3594
 8584SOL    HW237389   4.291   3.178   8.340 -0.4825  1.6354 -0.0340
 8585SOL     OW37390   2.031   3.049   2.194  0.1153  0.5241  0.0532
 8585SOL    HW137391   2.028   3.060   2.289  0.8125  0.4944  0.0772
 8585SOL    HW237392   2.074   2.966   2.175  0.4373  0.4475  1.1321
 8586SOL     OW37393   3.887   1.161   1.848  0.2227 -0.2306 -0.0663
 8586SOL    HW137394   3.923   1.169   1.759 -1.3712 -3.2813 -0.9909
 8586SOL    HW237395   3.826   1.234   1.863 -0.3305 -1.0241  1.4831
 8587SOL     OW37396   3.012   4.007  10.816  0.1425  0.2954  0.7946
 8587SOL    HW137397   2.967   4.091  10.828 -1.2895 -0.2139 -1.0419
 8587SOL    HW237398   2.945   3.950  10.778 -0.2957  1.5624 -0.3250
 8588SOL     OW37399   4.445   1.875  17.113 -0.2815  0.0177 -0.1262
 8588SOL    HW137400   4.373   1.919  17.066  0.3988 -1.4288 -2.5472
 8588SOL    HW237401   4.420   1.790  17.079 -0.3213 -0.7228  1.7817
 8589SOL     OW37402   4.386   2.662  15.539 -0.0737  0.3655 -0.3869
 8589SOL    HW137403   4.291   2.673  15.542  0.2099  2.8576 -0.5994
 8589SOL    HW237404   4.383   2.580  15.587  0.4119 -0.1404 -1.2274
 8590SOL     OW37405   3.998   4.664  11.020 -0.0893 -0.5253 -0.2028
 8590SOL    HW137406   4.001   4.573  10.989 -0.0612 -0.2267 -1.0947
 8590SOL    HW237407   3.955   4.647  11.103  1.4720  1.2788  0.9563
 8591SOL     OW37408   0.281   3.122  12.948 -0.4323  0.7597 -0.1251
 8591SOL    HW137409   0.332   3.176  13.008  0.2681 -1.0883  0.9370
 8591SOL    HW237410   0.188   3.131  12.970 -0.7933 -0.0959 -1.2800
 8592SOL     OW37411   3.880   3.058   5.663  0.4365 -0.0435  0.0108
 8592SOL    HW137412   3.799   3.106   5.678  0.2481  0.0112 -1.1973
 8592SOL    HW237413   3.882   3.012   5.747  2.6256 -0.3106 -0.2016
 8593SOL     OW37414   4.075   3.392  12.215 -1.0398  0.0234  0.3660
 8593SOL    HW137415   4.033   3.306  12.211 -0.0391 -0.3791 -1.9184
 8593SOL    HW237416   4.075   3.421  12.123  0.4022 -1.6484 -0.1638
 8594SOL     OW37417   3.288   0.890  10.568 -0.3447 -0.1323  0.3401
 8594SOL    HW137418   3.296   0.929  10.656 -0.1225  0.0832  0.2274
 8594SOL    HW237419   3.195   0.902  10.550  0.0059  0.6307 -0.9639
 8595SOL     OW37420   3.107   3.240  12.179  0.5625  0.2920  0.8198
 8595SOL    HW137421   3.185   3.234  12.124  0.2602  1.0782  0.3126
 8595SOL    HW237422   3.121   3.307  12.246 -1.0128  1.0129  0.4295
 8596SOL     OW37423   3.417   4.321  15.088  0.0756  0.1689 -0.6389
 8596SOL    HW137424   3.343   4.296  15.144  1.9677  1.3288  2.4087
 8596SOL    HW237425   3.366   4.338  15.009 -0.2430 -0.8694 -0.6542
 8597SOL     OW37426   1.504   3.862   4.534  0.2438  0.1126  0.5241
 8597SOL    HW137427   1.419   3.835   4.567  0.1415  0.1740  0.3089
 8597SOL    HW237428   1.542   3.776   4.548 -3.4938 -1.7081 -0.7343
 8598SOL     OW37429   1.844   4.253   7.394  0.4689  0.3704 -0.5919
 8598SOL    HW137430   1.899   4.291   7.326  0.3481  0.7776 -0.4603
 8598SOL    HW237431   1.783   4.195   7.348  1.9906 -2.1528  0.5443
 8599SOL     OW37432   3.685   0.643   9.176 -0.1630  0.0475  0.4377
 8599SOL    HW137433   3.733   0.584   9.118 -0.0696  2.7135 -2.2364
 8599SOL    HW237434   3.604   0.595   9.189  1.0607 -2.1059  0.0601
 8600SOL     OW37435   0.013   2.374   7.903  0.1748 -0.1990  0.1231
 8600SOL    HW137436   0.028   2.284   7.931 -1.7340 -0.7621 -0.6460
 8600SOL    HW237437   0.080   2.375   7.835 -0.6722  0.8347 -0.6853
 8601SOL     OW37438   0.556   1.597   5.918  0.2840  0.1177  0.4856
 8601SOL    HW137439   0.542   1.687   5.890  0.2056  0.3016  1.1071
 8601SOL    HW237440   0.507   1.602   6.000 -0.4132  1.5652 -0.0348
 8602SOL     OW37441   3.234   4.070  12.110  0.2629 -0.6187  0.0190
 8602SOL    HW137442   3.184   4.098  12.186  0.0145 -1.2481  0.0852
 8602SOL    HW237443   3.323   4.073  12.145  0.4901  0.0765 -0.6066
 8603SOL     OW37444   0.288   0.742  12.042 -0.3960 -0.6559  0.0550
 8603SOL    HW137445   0.195   0.747  12.022 -0.5713 -1.2129  0.7322
 8603SOL    HW237446   0.333   0.794  11.975  2.3743 -1.1061  1.5769
 8604SOL     OW37447   2.761   0.215   6.600  0.0603  0.5416  0.4678
 8604SOL    HW137448   2.783   0.207   6.507 -0.3627 -1.2054  0.5179
 8604SOL    HW237449   2.739   0.308   6.608 -0.8013  0.3012  0.8107
 8605SOL     OW37450   1.924   2.723   3.086  0.2459  0.0056 -0.1883
 8605SOL    HW137451   1.850   2.666   3.107  0.9124 -0.8405 -0.1349
 8605SOL    HW237452   1.875   2.805   3.090  0.8924  0.2778  2.3876
 8606SOL     OW37453   2.515   2.457   7.294  0.2588  0.1642  0.2065
 8606SOL    HW137454   2.490   2.419   7.378 -0.6431 -0.7785 -0.4879
 8606SOL    HW237455   2.443   2.443   7.233  0.8220  1.0939 -0.6701
 8607SOL     OW37456   1.774   2.113   4.614  0.3356 -0.1898  0.0382
 8607SOL    HW137457   1.831   2.186   4.635 -1.3604  1.3273 -0.6842
 8607SOL    HW237458   1.737   2.097   4.701 -0.2018 -3.1992 -0.7406
 8608SOL     OW37459   0.885   0.593   3.878  0.1994 -0.3372  0.7294
 8608SOL    HW137460   0.866   0.681   3.911  0.8343  0.3193 -0.6495
 8608SOL    HW237461   0.846   0.541   3.948  0.3859  0.2162  1.2385
 8609SOL     OW37462   2.129   0.840  11.749  0.0746  0.8101 -0.5424
 8609SOL    HW137463   2.092   0.852  11.661  0.1503  1.1042 -0.5341
 8609SOL    HW237464   2.223   0.836  11.732 -0.0502  0.1918 -1.1057
 8610SOL     OW37465   1.068   3.937  16.847 -0.1568 -0.0962  0.0957
 8610SOL    HW137466   0.995   3.949  16.908 -0.1598  0.0587  0.0635
 8610SOL    HW237467   1.078   4.027  16.815 -0.1293  0.4528  1.6439
 8611SOL     OW37468   3.914   1.287   5.221 -0.2345  0.2318 -0.1275
 8611SOL    HW137469   3.921   1.355   5.289 -0.9787  0.2239 -0.0380
 8611SOL    HW237470   3.859   1.324   5.152  0.5785 -0.8553 -1.3342
 8612SOL     OW37471   0.460   3.751  13.066 -0.0008 -0.0008 -0.3675
 8612SOL    HW137472   0.515   3.738  13.143 -0.7701  1.0291  0.3415
 8612SOL    HW237473   0.425   3.839  13.074  0.9974  0.2754  1.0237
 8613SOL     OW37474   0.498   3.729   7.825 -0.5058  0.0171  0.8549
 8613SOL    HW137475   0.565   3.679   7.873 -1.2037 -2.6753 -0.9879
 8613SOL    HW237476   0.430   3.744   7.890 -1.1325  1.5126 -0.1425
 8614SOL     OW37477   1.849   1.447   5.336 -0.6786  0.1721 -0.3430
 8614SOL    HW137478   1.839   1.542   5.334  1.2350  0.4629  2.8150
 8614SOL    HW237479   1.793   1.421   5.409  1.3669 -0.7747  0.8897
 8615SOL     OW37480   3.565   2.874  14.448  0.0675 -0.4112  0.4855
 8615SOL    HW137481   3.540   2.965  14.430 -2.3992 -1.3339 -0.8106
 8615SOL    HW237482   3.659   2.875  14.434  0.0872  0.1331  0.6676
 8616SOL     OW37483   3.849   1.386   5.537  0.0722 -0.4887 -0.0855
 8616SOL    HW137484   3.757   1.367   5.518  0.3266 -1.5387 -0.2341
 8616SOL    HW237485   3.866   1.455   5.472 -0.5996 -0.1728  0.0653
 8617SOL     OW37486   0.484   1.109  17.485 -0.0098  0.4989 -0.5868
 8617SOL    HW137487   0.394   1.087  17.510  0.3001 -1.7369 -1.4246
 8617SOL    HW237488   0.476   1.076  17.396  2.0428 -0.1447 -0.5316
 8618SOL     OW37489   1.408   2.868   4.722  0.5395  0.5668 -0.5779
 8618SOL    HW137490   1.446   2.812   4.790 -0.4602  1.6334  0.8547
 8618SOL    HW237491   1.483   2.878   4.663 -0.9553  2.6228 -2.1200
 8619SOL     OW37492   3.650   4.105  11.879 -0.3062 -0.0337  0.2760
 8619SOL    HW137493   3.568   4.058  11.891 -1.4126  2.0007  0.7250
 8619SOL    HW237494   3.621   4.180  11.827  0.9000 -0.4791 -1.0481
 8620SOL     OW37495   1.976   0.653   4.541 -0.1919  0.2386 -0.5481
 8620SOL    HW137496   2.071   0.658   4.540 -0.1867  0.1475 -0.5471
 8620SOL    HW237497   1.954   0.582   4.481  1.7871 -1.2650  0.5044
 8621SOL     OW37498   3.992   3.179   1.686  0.6664 -0.4466  0.0585
 8621SOL    HW137499   4.066   3.238   1.698 -0.1946  0.9833 -1.6164
 8621SOL    HW237500   4.027   3.097   1.720 -0.0103 -0.0623  1.6902
 8622SOL     OW37501   3.158   3.646  10.306  0.1056  0.0480  0.4616
 8622SOL    HW137502   3.143   3.709  10.236 -1.7091  0.7587  1.5035
 8622SOL    HW237503   3.165   3.706  10.380  1.3457  3.0171 -2.0734
 8623SOL     OW37504   4.551   0.742   8.845  0.3657 -0.2102  0.1739
 8623SOL    HW137505   4.536   0.653   8.877  2.6104 -1.4525 -2.3401
 8623SOL    HW237506   4.618   0.780   8.902  1.0509  0.5436 -1.1601
 8624SOL     OW37507   0.294   3.011   4.574 -0.3961 -0.5574 -0.3986
 8624SOL    HW137508   0.231   3.076   4.607 -0.9530 -1.4142  0.2605
 8624SOL    HW237509   0.265   2.931   4.619 -0.9320 -0.3821 -0.4251
 8625SOL     OW37510   0.857   2.041   4.976 -0.0242 -0.2068 -0.2643
 8625SOL    HW137511   0.913   2.061   5.051  1.9793  0.5284 -1.9883
 8625SOL    HW237512   0.775   2.061   5.021  0.4243 -0.2810  0.5887
 8626SOL     OW37513   2.163   3.218  12.565 -0.8158 -0.0955 -0.1734
 8626SOL    HW137514   2.101   3.184  12.630 -1.2923  2.0491  0.4960
 8626SOL    HW237515   2.100   3.268  12.513 -2.1570 -1.0603  0.5182
 8627SOL     OW37516   4.297   2.217  10.816  1.0458  0.4568 -0.8931
 8627SOL    HW137517   4.217   2.267  10.830  1.3249  1.0239 -1.3338
 8627SOL    HW237518   4.308   2.192  10.908 -0.0284 -1.2766 -1.2412
 8628SOL     OW37519   2.201   2.686   7.873  0.2508  0.0356 -0.0791
 8628SOL    HW137520   2.264   2.627   7.912  0.4743  1.2316  1.3679
 8628SOL    HW237521   2.132   2.622   7.857 -0.1879  0.7942 -1.2211
 8629SOL     OW37522   3.029   2.718   8.872  0.1267  0.1002  0.1954
 8629SOL    HW137523   3.124   2.708   8.875  0.0697  0.2209  2.2474
 8629SOL    HW237524   3.011   2.730   8.778  0.6602  0.6177  0.1639
 8630SOL     OW37525   1.827   2.711  16.253 -0.2448  0.3078 -0.3838
 8630SOL    HW137526   1.825   2.616  16.237  0.0666 -0.2033  2.6174
 8630SOL    HW237527   1.876   2.715  16.336 -3.4511 -0.8035  1.5452
 8631SOL     OW37528   3.091   2.610   4.597  0.0046 -0.0768 -0.0412
 8631SOL    HW137529   3.136   2.626   4.514 -2.9504  2.8030 -1.0758
 8631SOL    HW237530   3.162   2.623   4.659  0.3011 -1.5640 -0.0717
 8632SOL     OW37531   4.415   0.682  17.505 -0.1952  0.3848 -0.0371
 8632SOL    HW137532   4.402   0.623  17.580  2.1059 -0.5728 -0.3883
 8632SOL    HW237533   4.348   0.749  17.518 -0.5888  0.4734 -2.4639
 8633SOL     OW37534   3.477   0.864   7.294  0.1763 -0.2796  0.0642
 8633SOL    HW137535   3.471   0.818   7.377  1.1326  0.2515  0.4288
 8633SOL    HW237536   3.396   0.835   7.252  0.8839 -0.4648 -1.1852
 8634SOL     OW37537   2.937   2.971  12.573 -0.3647  0.2778  0.6095
 8634SOL    HW137538   2.962   3.062  12.589  1.2855  0.1539 -1.2104
 8634SOL    HW237539   2.922   2.949  12.665 -1.3820 -0.8879  0.1585
 8635SOL     OW37540   4.028   2.991   9.920  0.1566 -0.1402  0.0122
 8635SOL    HW137541   3.940   3.008   9.887  0.1984  0.0165 -0.0177
 8635SOL    HW237542   4.067   2.938   9.850  1.1930 -0.4654  0.8325
 8636SOL     OW37543   3.442   0.202   7.500  0.1689  0.1796 -0.5533
 8636SOL    HW137544   3.530   0.238   7.491 -0.1780  0.5201 -2.5430
 8636SOL    HW237545   3.453   0.111   7.470 -1.2627  0.1052 -0.8346
 8637SOL     OW37546   4.154   0.465   0.792  0.4941  0.3508  0.1148
 8637SOL    HW137547   4.089   0.396   0.778  0.7747  0.0388  0.3193
 8637SOL    HW237548   4.138   0.519   0.715 -1.0398  2.1995  1.7479
 8638SOL     OW37549   0.924   2.560   3.619  0.9620  0.1887 -0.0750
 8638SOL    HW137550   0.877   2.636   3.654  1.1454  0.1153  0.3318
 8638SOL    HW237551   0.871   2.485   3.646  1.1368  0.6550  1.5983
 8639SOL     OW37552   2.570   3.166  13.032  0.1933 -0.0058  0.6522
 8639SOL    HW137553   2.594   3.237  12.972 -1.7425 -0.2117 -0.3846
 8639SOL    HW237554   2.641   3.175  13.095  1.5165  1.3755 -1.0276
 8640SOL     OW37555   3.899   0.415   9.973 -0.2730 -0.2441  0.0840
 8640SOL    HW137556   3.899   0.426  10.068 -0.0402 -1.5070  0.2206
 8640SOL    HW237557   3.958   0.340   9.974  1.5975  1.2514  1.7634
 8641SOL     OW37558   0.163   0.866   6.058  0.2895 -0.3163 -0.1897
 8641SOL    HW137559   0.108   0.840   6.131  0.8206 -0.4502  0.1667
 8641SOL    HW237560   0.250   0.834   6.084 -1.0917 -2.2852  1.9881
 8642SOL     OW37561   2.340   0.334   8.060 -0.4778  0.8859 -0.3834
 8642SOL    HW137562   2.291   0.306   7.983  0.1787  2.0397 -1.2150
 8642SOL    HW237563   2.267   0.344   8.121 -0.0850 -0.8976  0.3910
 8643SOL     OW37564   1.189   0.844   4.836  0.2733 -0.4887  0.2656
 8643SOL    HW137565   1.128   0.774   4.813  1.2226 -0.9364 -0.8452
 8643SOL    HW237566   1.263   0.794   4.871  2.4091  1.3276 -1.6290
 8644SOL     OW37567   0.761   4.356  17.216 -0.2652 -0.2331  0.0211
 8644SOL    HW137568   0.763   4.452  17.209 -0.7935 -0.2878 -0.8155
 8644SOL    HW237569   0.712   4.350  17.298  1.4148  1.5186  1.1473
 8645SOL     OW37570   0.551   0.990   3.486 -0.5923 -0.4195  0.0234
 8645SOL    HW137571   0.507   1.074   3.504  0.1914  0.2506 -1.1654
 8645SOL    HW237572   0.521   0.939   3.561  0.2296  1.0477  1.3408
 8646SOL     OW37573   3.904   3.178   3.554  0.0131  0.3952  0.0366
 8646SOL    HW137574   3.956   3.231   3.494  0.3595  0.8349  0.7233
 8646SOL    HW237575   3.834   3.242   3.570 -0.8350 -0.3862 -0.5868
 8647SOL     OW37576   3.914   0.220  12.132  0.0437  0.0202 -0.0667
 8647SOL    HW137577   3.822   0.233  12.106  0.5765  0.6107 -1.6441
 8647SOL    HW237578   3.926   0.126  12.124 -1.2795 -0.1817  0.3436
 8648SOL     OW37579   0.341   0.268   3.034 -0.0496 -0.3311 -0.0202
 8648SOL    HW137580   0.316   0.333   3.101  2.1541 -0.1865  0.6875
 8648SOL    HW237581   0.276   0.287   2.967 -0.8619 -0.0235  0.8578
 8649SOL     OW37582   2.981   1.638  11.674 -0.5624  0.3545  0.3708
 8649SOL    HW137583   2.902   1.666  11.628  0.5040  1.4323 -0.7918
 8649SOL    HW237584   2.963   1.682  11.757  0.8135  2.3042 -0.3674
 8650SOL     OW37585   0.034   2.538   8.957  0.1016  0.3897  0.0834
 8650SOL    HW137586   0.097   2.571   9.021 -0.9170 -0.0635  1.2941
 8650SOL    HW237587   0.036   2.443   8.965  3.3765  0.3153 -1.4098
 8651SOL     OW37588   2.117   4.597   5.039  0.0284  0.1706 -0.1061
 8651SOL    HW137589   2.117   4.691   5.057 -0.9844  0.5667 -2.1915
 8651SOL    HW237590   2.131   4.563   5.128  0.1099 -1.3347 -0.6831
 8652SOL     OW37591   0.201   2.398  13.836 -0.0363  0.5749 -0.7444
 8652SOL    HW137592   0.149   2.436  13.907 -1.3439 -1.7397 -0.4609
 8652SOL    HW237593   0.124   2.384  13.780 -0.5312 -0.2003  0.1255
 8653SOL     OW37594   3.932   4.343  11.273 -0.1038 -0.2331  0.2242
 8653SOL    HW137595   3.942   4.389  11.189 -0.5923 -4.2035 -1.9859
 8653SOL    HW237596   3.959   4.412  11.334  1.0680  0.3996 -1.0063
 8654SOL     OW37597   0.734   2.477   6.308 -0.0108 -0.0775 -0.9178
 8654SOL    HW137598   0.717   2.410   6.374  1.0933  1.2575  0.7557
 8654SOL    HW237599   0.803   2.431   6.260 -0.6774 -0.5256 -1.4243
 8655SOL     OW37600   1.769   1.223   5.777 -0.0114  0.1334  0.1999
 8655SOL    HW137601   1.740   1.153   5.719 -1.0007 -2.2345  3.4871
 8655SOL    HW237602   1.829   1.187   5.842  0.4031 -0.9740 -0.7978
 8656SOL     OW37603   0.362   3.425   8.696 -0.2454  0.0236 -0.3434
 8656SOL    HW137604   0.330   3.510   8.725 -0.7317  0.6675 -2.7873
 8656SOL    HW237605   0.284   3.376   8.672  0.0249 -0.0960 -0.9635
 8657SOL     OW37606   3.558   3.653   0.880 -0.8669  0.3639  0.4899
 8657SOL    HW137607   3.618   3.713   0.837 -0.6488 -0.0429  0.2318
 8657SOL    HW237608   3.556   3.708   0.959  3.5964 -0.0327  0.8460
 8658SOL     OW37609   2.592   3.105   0.094 -0.3948  0.1750  0.4387
 8658SOL    HW137610   2.532   3.032   0.082 -0.6569  0.7205 -1.5423
 8658SOL    HW237611   2.570   3.142   0.008 -2.8476 -1.3644  0.4061
 8659SOL     OW37612   2.981   0.572   0.835  0.8446  0.1692 -0.1245
 8659SOL    HW137613   2.894   0.591   0.869  0.9155  1.9368 -0.8929
 8659SOL    HW237614   3.043   0.577   0.908 -0.9637  1.8643  1.3015
 8660SOL     OW37615   1.464   3.321  15.053 -0.2760  0.0279  0.0406
 8660SOL    HW137616   1.493   3.258  15.119 -1.4073 -0.4412  0.0899
 8660SOL    HW237617   1.503   3.272  14.980 -0.1242 -0.5802  0.5315
 8661SOL     OW37618   0.573   4.543  10.118 -0.0104 -0.4023  0.6268
 8661SOL    HW137619   0.617   4.539  10.203  1.6439  1.0392 -0.1515
 8661SOL    HW237620   0.567   4.450  10.097  0.3752 -0.0049 -1.2228
 8662SOL     OW37621   3.953   3.278   8.844 -0.2675  0.1582 -0.1792
 8662SOL    HW137622   3.892   3.350   8.858 -1.0825 -0.2633 -1.4704
 8662SOL    HW237623   3.933   3.258   8.752 -2.4503 -1.1504  0.5677
 8663SOL     OW37624   2.952   2.511   9.064  0.1425 -0.1625  0.0944
 8663SOL    HW137625   2.965   2.439   9.003 -2.4051 -2.4307  2.2324
 8663SOL    HW237626   2.970   2.586   9.007  1.9169 -0.4770  0.2432
 8664SOL     OW37627   2.399   0.917  11.754 -0.2178  0.1160  0.0910
 8664SOL    HW137628   2.425   0.934  11.664 -1.4892  0.3805 -0.2192
 8664SOL    HW237629   2.472   0.866  11.790 -1.1194 -1.6608 -0.5693
 8665SOL     OW37630   0.572   2.219   9.769  0.5293  0.1997 -0.5729
 8665SOL    HW137631   0.542   2.138   9.729 -0.5541 -0.1165  0.9093
 8665SOL    HW237632   0.491   2.241   9.815  0.2820  0.4794 -1.1335
 8666SOL     OW37633   3.471   0.756   3.981 -0.2265  0.2961 -0.4467
 8666SOL    HW137634   3.479   0.691   4.050  0.2536 -1.1547 -1.8712
 8666SOL    HW237635   3.380   0.738   3.956 -0.6832  0.6395  0.9397
 8667SOL     OW37636   1.447   0.666   7.807 -0.1233 -0.0653 -0.0863
 8667SOL    HW137637   1.408   0.746   7.772  1.0053  0.8830  0.8472
 8667SOL    HW237638   1.369   0.612   7.823 -1.3669  1.6785 -0.3216
 8668SOL     OW37639   0.417   3.025   4.963  0.3253  0.2871 -0.5016
 8668SOL    HW137640   0.468   3.081   4.904  0.2436 -1.2433 -2.0028
 8668SOL    HW237641   0.422   2.937   4.927 -2.3030 -0.8330  1.8834
 8669SOL     OW37642   2.458   0.518   2.391  0.0226  0.1371  0.0264
 8669SOL    HW137643   2.437   0.445   2.333  1.1309  1.2800 -1.8191
 8669SOL    HW237644   2.404   0.485   2.463  0.6591  1.5156  1.1373
 8670SOL     OW37645   4.015   2.201   8.879  0.3097 -0.6310  0.1883
 8670SOL    HW137646   3.992   2.293   8.868 -1.3629 -0.9951  0.6633
 8670SOL    HW237647   3.928   2.162   8.885  0.0488  0.0954  1.0992
 8671SOL     OW37648   0.095   1.137   8.374  0.4723  0.2556 -0.1000
 8671SOL    HW137649   0.019   1.083   8.357 -0.9670  2.0282  0.6622
 8671SOL    HW237650   0.063   1.188   8.449  2.9013 -0.0655  1.1865
 8672SOL     OW37651   3.199   2.884   8.392 -0.0804  0.3338 -0.0553
 8672SOL    HW137652   3.241   2.800   8.411 -0.0610  0.7701  1.8456
 8672SOL    HW237653   3.167   2.863   8.305  0.5132 -0.6993 -0.0338
 8673SOL     OW37654   1.130   4.239  16.979  0.0298  0.2849 -0.0446
 8673SOL    HW137655   1.216   4.201  16.960  0.5027 -0.5582  3.7118
 8673SOL    HW237656   1.091   4.247  16.892 -1.8489 -0.8700  0.6889
 8674SOL     OW37657   3.701   0.484   9.797 -0.3244 -0.1609  0.2518
 8674SOL    HW137658   3.626   0.455   9.850  0.0162  3.5674  2.7209
 8674SOL    HW237659   3.774   0.468   9.856  0.8625  0.2527 -1.1112
 8675SOL     OW37660   0.022   4.029   5.908 -0.4917 -0.4648 -0.2909
 8675SOL    HW137661   0.002   4.038   5.815  0.2549  0.3678 -0.3792
 8675SOL    HW237662   4.669   4.024   5.942 -0.4384 -0.5470 -0.1601
 8676SOL     OW37663   1.105   2.172   5.879 -0.4955  0.0411 -0.0874
 8676SOL    HW137664   1.080   2.134   5.963  0.5447  0.5939  0.4796
 8676SOL    HW237665   1.032   2.229   5.856  0.1169  0.3975 -1.1564
 8677SOL     OW37666   1.704   1.377   5.535 -0.1228  0.3372  0.4114
 8677SOL    HW137667   1.631   1.410   5.588  0.0475 -0.9478  1.4566
 8677SOL    HW237668   1.762   1.348   5.606 -0.5250  1.7794  1.3286
 8678SOL     OW37669   3.123   3.554   2.658  0.0791 -0.3763 -0.1682
 8678SOL    HW137670   3.127   3.647   2.637 -1.4541 -0.7258 -1.9843
 8678SOL    HW237671   3.199   3.537   2.713 -0.5431 -0.7760  0.5632
 8679SOL     OW37672   3.342   1.240   9.090 -0.0345  0.1642 -0.1643
 8679SOL    HW137673   3.405   1.311   9.094  1.0556 -0.7180 -1.7053
 8679SOL    HW237674   3.399   1.163   9.099  0.7060  1.1574  3.6759
 8680SOL     OW37675   3.032   0.131  14.572  0.3037  0.4265 -0.1920
 8680SOL    HW137676   2.982   0.057  14.607  0.1636  0.3982 -0.4566
 8680SOL    HW237677   3.000   0.199  14.631  1.7597  1.8683 -1.0767
 8681SOL     OW37678   1.362   2.121  14.920  0.0646 -0.2315 -0.3386
 8681SOL    HW137679   1.342   2.027  14.922  1.2978 -0.4819  0.0815
 8681SOL    HW237680   1.324   2.134  14.834 -1.4871  0.2705  0.4237
 8682SOL     OW37681   0.990   4.228  10.764 -0.2373  0.3984  0.1445
 8682SOL    HW137682   0.925   4.159  10.780 -2.6061  2.2088 -1.6210
 8682SOL    HW237683   1.000   4.224  10.669  1.6289  1.5152  0.2987
 8683SOL     OW37684   3.080   2.320   3.413 -0.7534  0.0467 -0.0828
 8683SOL    HW137685   3.165   2.363   3.421 -1.5183  1.0122  2.4362
 8683SOL    HW237686   3.075   2.338   3.319 -0.2776  0.3986 -0.0404
 8684SOL     OW37687   1.836   0.255   8.445 -0.7173  0.2931 -0.3794
 8684SOL    HW137688   1.745   0.228   8.456 -1.0030  2.5077  2.4442
 8684SOL    HW237689   1.865   0.170   8.410 -1.7543 -1.1523  2.2717
 8685SOL     OW37690   4.308   3.651   6.304 -0.2925 -0.5012 -0.2692
 8685SOL    HW137691   4.231   3.594   6.307 -0.3375 -0.5089 -1.5792
 8685SOL    HW237692   4.275   3.737   6.278  0.1186 -0.1207  0.4765
 8686SOL     OW37693   3.421   2.303  17.136 -0.7226 -0.0206 -0.1309
 8686SOL    HW137694   3.408   2.295  17.041  0.7178  0.5138 -0.3732
 8686SOL    HW237695   3.381   2.389  17.147 -1.3758 -0.4908  1.1840
 8687SOL     OW37696   3.317   4.310  16.421  0.4746  0.0623  0.5012
 8687SOL    HW137697   3.384   4.279  16.483  0.3435 -3.0826 -0.9572
 8687SOL    HW237698   3.376   4.328  16.348 -0.1520 -0.2581 -0.0793
 8688SOL     OW37699   2.009   3.279   4.118  0.1563 -0.3201  0.5659
 8688SOL    HW137700   2.019   3.228   4.037  2.5336 -2.3130  2.1175
 8688SOL    HW237701   2.100   3.283   4.149  0.6310 -2.2841 -0.5288
 8689SOL     OW37702   1.044   0.128   9.618 -0.3813  0.0133  0.3789
 8689SOL    HW137703   1.058   0.041   9.581  0.8287  0.1291  0.5538
 8689SOL    HW237704   1.133   0.157   9.640  0.1207  0.9618 -2.8480
 8690SOL     OW37705   3.030   3.631   3.983 -0.1393 -0.3286 -0.1866
 8690SOL    HW137706   2.966   3.588   3.926  0.4893 -1.3708 -0.1241
 8690SOL    HW237707   3.001   3.720   3.965  0.4648 -0.0269  0.3117
 8691SOL     OW37708   0.431   1.174   1.351  0.7006 -0.3939 -0.1850
 8691SOL    HW137709   0.375   1.115   1.301 -0.0152 -0.5553  0.8026
 8691SOL    HW237710   0.508   1.117   1.353  1.5755  0.8735  2.0287
 8692SOL     OW37711   4.012   4.130   1.085 -0.2145 -0.3440 -0.5851
 8692SOL    HW137712   3.945   4.069   1.114  0.3726 -0.1236  1.2212
 8692SOL    HW237713   3.964   4.192   1.030 -0.6537  1.2520  1.5676
 8693SOL     OW37714   1.564   4.376   1.721  0.0311 -0.3932  0.1933
 8693SOL    HW137715   1.560   4.346   1.812  2.9804 -1.0790  0.0967
 8693SOL    HW237716   1.544   4.468   1.737 -1.1057 -0.7155  0.6055
 8694SOL     OW37717   4.531   1.057   5.271  0.3150  0.1283  0.6152
 8694SOL    HW137718   4.588   1.058   5.195  0.8124 -2.0401  0.9652
 8694SOL    HW237719   4.472   1.119   5.227  0.6206  0.9432  1.3288
 8695SOL     OW37720   1.808   4.222   7.032 -0.0953 -0.4184 -0.8954
 8695SOL    HW137721   1.841   4.296   7.083  0.7669  0.3688 -2.5760
 8695SOL    HW237722   1.720   4.216   7.069  0.3107  0.3816  0.1960
 8696SOL     OW37723   4.627   0.690   5.028 -0.5884  0.0513 -0.3176
 8696SOL    HW137724   4.553   0.727   5.075 -0.0789 -0.1795  0.6670
 8696SOL    HW237725   4.590   0.716   4.944 -1.3625  1.3126  0.4201
 8697SOL     OW37726   1.114   1.444   2.687  0.5026 -1.0372  0.3468
 8697SOL    HW137727   1.152   1.528   2.711  1.8821 -1.4201 -0.5492
 8697SOL    HW237728   1.196   1.395   2.683  0.4529 -1.0610 -0.3008
 8698SOL     OW37729   3.424   4.626   8.664 -0.9868 -0.1706  0.8521
 8698SOL    HW137730   3.502   4.681   8.676 -0.9413 -0.5463  2.2638
 8698SOL    HW237731   3.460   4.545   8.627 -0.7873  1.0658 -1.6444
 8699SOL     OW37732   3.606   0.440   7.922  0.0126  0.2780 -0.3044
 8699SOL    HW137733   3.618   0.346   7.935 -0.1477  0.1968 -0.7341
 8699SOL    HW237734   3.699   0.460   7.911  0.0500  0.4250  0.2828
 8700SOL     OW37735   1.783   0.162  15.859  0.1336  0.0651 -0.1212
 8700SOL    HW137736   1.778   0.174  15.764 -1.8048  0.9998  0.0927
 8700SOL    HW237737   1.781   0.066  15.863 -1.1267  0.1008  0.2862
 8701SOL     OW37738   2.288   0.994  16.048  0.0462  0.0204 -0.0348
 8701SOL    HW137739   2.225   0.928  16.021 -1.2744  2.2880 -2.5020
 8701SOL    HW237740   2.278   0.986  16.143  0.4219  1.1242  0.1042
 8702SOL     OW37741   2.681   2.855  15.328  0.9466 -0.3299 -0.8880
 8702SOL    HW137742   2.765   2.813  15.309  0.2452 -1.3899 -1.6558
 8702SOL    HW237743   2.711   2.946  15.316  0.5571  0.1569  1.8441
 8703SOL     OW37744   0.196   2.109   7.576 -0.0319 -0.9202  0.5008
 8703SOL    HW137745   0.201   2.084   7.484 -0.0603  0.9372 -0.0065
 8703SOL    HW237746   0.161   2.198   7.568  0.8968 -0.5099  0.9865
 8704SOL     OW37747   4.579   3.447   1.570 -0.1549  0.0104  0.6442
 8704SOL    HW137748   4.492   3.437   1.607 -0.3679  3.0597  0.9484
 8704SOL    HW237749   4.631   3.373   1.602  0.8250  0.1897 -0.4976
 8705SOL     OW37750   3.325   2.984  12.556  0.0820  0.0845  0.1159
 8705SOL    HW137751   3.268   2.946  12.623  0.6778 -0.9272  0.0468
 8705SOL    HW237752   3.357   3.065  12.596 -2.5598  2.2884 -2.2639
 8706SOL     OW37753   3.628   2.362  12.265  0.1723 -0.3223 -0.6592
 8706SOL    HW137754   3.663   2.402  12.344 -1.2716  2.3470 -1.3937
 8706SOL    HW237755   3.661   2.429  12.206  0.3089 -0.0385 -0.2609
 8707SOL     OW37756   2.011   3.870   9.530  0.5626  0.3890 -0.0234
 8707SOL    HW137757   1.984   3.955   9.493 -0.1149  0.8437  1.5098
 8707SOL    HW237758   1.927   3.831   9.554  0.8311  0.0333  0.3452
 8708SOL     OW37759   3.698   1.446  12.363 -0.2395  0.5215  0.2976
 8708SOL    HW137760   3.712   1.480  12.275 -1.4713 -0.2850 -0.2028
 8708SOL    HW237761   3.747   1.508  12.418  0.3486 -1.1887  1.7017
 8709SOL     OW37762   3.846   4.230   0.882 -0.1763 -0.1514  0.3361
 8709SOL    HW137763   3.876   4.172   0.812  1.3356  0.9531  0.0667
 8709SOL    HW237764   3.763   4.186   0.901 -0.8870  0.5762 -1.0541
 8710SOL     OW37765   2.736   2.297   6.109 -0.0364 -0.4815 -0.4517
 8710SOL    HW137766   2.705   2.257   6.190  3.0467 -0.0272  0.9469
 8710SOL    HW237767   2.676   2.373   6.106 -0.4349 -0.7153  1.9244
 8711SOL     OW37768   2.377   4.133  17.042  0.2866  0.0410 -0.0212
 8711SOL    HW137769   2.411   4.221  17.031  0.6503 -0.0365  0.4964
 8711SOL    HW237770   2.284   4.150  17.025 -0.2412 -1.7131  1.0602
 8712SOL     OW37771   2.820   3.425   5.635 -0.3983 -0.0330 -0.6752
 8712SOL    HW137772   2.834   3.476   5.556 -1.8901 -0.6242 -1.3296
 8712SOL    HW237773   2.728   3.400   5.625 -0.5166  0.4462 -0.7892
 8713SOL     OW37774   1.176   3.661   6.725 -0.1481 -0.5040  0.6620
 8713SOL    HW137775   1.122   3.740   6.726 -1.3517 -1.2872 -2.2370
 8713SOL    HW237776   1.263   3.700   6.738  0.2355 -1.2789  0.3926
 8714SOL     OW37777   3.307   3.107  15.004  0.4430 -0.5882 -0.4647
 8714SOL    HW137778   3.219   3.074  15.024  0.6966 -0.9226  0.1075
 8714SOL    HW237779   3.294   3.146  14.918  0.0200  2.7706  1.1154
 8715SOL     OW37780   0.823   2.722   7.452 -0.0012 -0.2957  0.4442
 8715SOL    HW137781   0.742   2.719   7.502 -0.4819  1.6094 -0.2136
 8715SOL    HW237782   0.885   2.732   7.524 -0.1002 -0.2430  0.5229
 8716SOL     OW37783   4.091   0.401  16.822  0.1429  0.2090  0.1038
 8716SOL    HW137784   4.071   0.400  16.915 -0.5045 -0.9530 -0.0374
 8716SOL    HW237785   4.138   0.320  16.802 -0.7307  0.1940 -1.9098
 8717SOL     OW37786   0.296   4.607   4.862  0.1109 -0.7550 -0.2512
 8717SOL    HW137787   0.355   4.560   4.803  2.1971 -0.9049  2.0036
 8717SOL    HW237788   0.259   4.670   4.799 -1.0158 -0.9555  0.2064
 8718SOL     OW37789   4.011   1.893   6.263 -0.6916 -0.0653 -0.9937
 8718SOL    HW137790   4.063   1.829   6.215  2.3354  0.6616  1.2540
 8718SOL    HW237791   3.995   1.858   6.351 -0.6204  1.1336 -0.4992
 8719SOL     OW37792   1.780   2.712  11.284 -0.3457 -0.1142  0.0262
 8719SOL    HW137793   1.806   2.697  11.375 -0.6880  0.2505  0.1815
 8719SOL    HW237794   1.776   2.807  11.271 -1.2463 -0.0857  0.5733
 8720SOL     OW37795   2.371   3.624   2.222 -0.7975  0.4520  0.1039
 8720SOL    HW137796   2.383   3.546   2.277 -0.9238  1.1084  1.0530
 8720SOL    HW237797   2.301   3.589   2.166 -0.2090 -0.1927 -0.2244
 8721SOL     OW37798   0.332   0.491   4.017  0.5217 -0.4776  0.0550
 8721SOL    HW137799   0.386   0.527   3.947  1.4149 -0.8616  0.5424
 8721SOL    HW237800   0.267   0.561   4.016  1.9114  0.8047 -0.7005
 8722SOL     OW37801   2.151   1.239   2.684 -0.4198  0.1705 -0.3852
 8722SOL    HW137802   2.059   1.228   2.710 -0.1988 -1.2766 -0.2466
 8722SOL    HW237803   2.154   1.208   2.594 -1.3479 -0.3490 -0.2330
 8723SOL     OW37804   0.737   0.805   3.442 -0.0464 -0.1765  0.1463
 8723SOL    HW137805   0.674   0.872   3.466 -0.1468 -0.3434  0.3527
 8723SOL    HW237806   0.746   0.825   3.349 -1.1859 -1.0618 -0.1648
 8724SOL     OW37807   3.541   2.804  12.534 -0.6809 -0.4143  0.0780
 8724SOL    HW137808   3.475   2.872  12.546  1.1064  1.8695 -2.7618
 8724SOL    HW237809   3.519   2.737  12.598 -1.8725 -2.1557 -2.1289
 8725SOL     OW37810   2.335   1.887   2.117  0.1600 -0.2874  0.0015
 8725SOL    HW137811   2.409   1.843   2.075 -2.2838 -3.1409 -1.3052
 8725SOL    HW237812   2.378   1.972   2.122 -0.9628  0.3709 -1.7149
 8726SOL     OW37813   1.742   0.800  11.505  0.4237 -0.2519 -0.1883
 8726SOL    HW137814   1.766   0.750  11.583 -1.7658 -2.0140 -0.6414
 8726SOL    HW237815   1.693   0.876  11.538 -0.5008 -1.6408  1.6579
 8727SOL     OW37816   3.935   3.601   0.987 -0.6219  0.3523 -0.0755
 8727SOL    HW137817   3.883   3.629   1.062  0.0041  1.5989 -0.1061
 8727SOL    HW237818   4.022   3.589   1.026 -0.1782  2.7323 -0.3591
 8728SOL     OW37819   2.719   3.446   8.061 -0.2711 -0.0642 -0.2207
 8728SOL    HW137820   2.675   3.525   8.093 -1.2929 -1.1176  0.9954
 8728SOL    HW237821   2.784   3.489   8.005 -1.7095  1.5776 -0.6375
 8729SOL     OW37822   2.290   0.166  13.526  0.1501 -0.3700  0.1172
 8729SOL    HW137823   2.361   0.119  13.568  0.0403 -0.0998  0.6118
 8729SOL    HW237824   2.215   0.116  13.558 -0.3940 -1.2526 -2.5191
 8730SOL     OW37825   1.557   3.071   0.071  0.0774  0.9603 -0.0372
 8730SOL    HW137826   1.625   3.122   0.117  0.3436  0.1920  0.4199
 8730SOL    HW237827   1.612   3.000   0.038 -0.3009  0.0802  1.2183
 8731SOL     OW37828   1.437   0.097  12.550 -0.2996 -0.1241  0.3597
 8731SOL    HW137829   1.396   0.016  12.520  2.2073 -1.7685  1.2913
 8731SOL    HW237830   1.410   0.157  12.481  0.9188  0.5125  0.4358
 8732SOL     OW37831   1.380   3.921   0.605  0.0971 -0.1707  0.0570
 8732SOL    HW137832   1.290   3.943   0.630 -0.5896  0.4882 -2.9803
 8732SOL    HW237833   1.375   3.827   0.624 -1.8842  0.4717  2.6571
 8733SOL     OW37834   4.331   3.974   5.169 -0.1239 -0.2860  0.3406
 8733SOL    HW137835   4.384   4.051   5.151  1.9234 -1.7199  0.2370
 8733SOL    HW237836   4.262   4.013   5.223 -1.0414 -1.2199 -0.1618
 8734SOL     OW37837   2.945   0.501   4.694  0.1777  0.7874 -0.0647
 8734SOL    HW137838   2.992   0.472   4.616  0.1760 -0.7197  0.5004
 8734SOL    HW237839   2.937   0.594   4.674  0.3068  0.3339 -2.2349
 8735SOL     OW37840   2.273   0.035   5.378  0.1341  0.3458 -0.7054
 8735SOL    HW137841   2.181   0.057   5.389  0.6426  3.2189 -2.1802
 8735SOL    HW237842   2.293   4.723   5.458 -1.3249 -0.6481 -0.9651
 8736SOL     OW37843   1.399   0.451   1.564  0.3964 -0.2738 -0.0627
 8736SOL    HW137844   1.440   0.388   1.623  1.9441  0.9023  0.1297
 8736SOL    HW237845   1.475   0.509   1.556 -0.1525  0.5489  0.6317
 8737SOL     OW37846   3.707   3.421   0.942 -0.0597 -0.2732 -0.2292
 8737SOL    HW137847   3.782   3.477   0.924 -0.6900  1.4677  2.5081
 8737SOL    HW237848   3.640   3.483   0.913  0.6760  1.3327  1.4586
 8738SOL     OW37849   3.549   4.428  11.156  0.2556  0.3826  0.5803
 8738SOL    HW137850   3.558   4.333  11.150  1.2105  0.3988  1.8629
 8738SOL    HW237851   3.465   4.451  11.116 -0.2583  0.0444  1.4506
 8739SOL     OW37852   3.260   3.329  13.911  0.1078 -0.1070  0.0528
 8739SOL    HW137853   3.174   3.363  13.886 -0.0991 -1.0536 -0.5119
 8739SOL    HW237854   3.297   3.317  13.823  0.1404 -1.2307  0.2244
 8740SOL     OW37855   0.596   4.389  10.965  0.2944 -0.0788  0.3599
 8740SOL    HW137856   0.518   4.333  10.963 -0.6359  1.1939  0.6306
 8740SOL    HW237857   0.652   4.341  11.025  1.2855  1.5300  0.6997
 8741SOL     OW37858   1.648   2.078   4.007  0.0184  0.7644  0.0089
 8741SOL    HW137859   1.735   2.060   3.973 -1.2123 -1.6304 -1.8335
 8741SOL    HW237860   1.616   1.990   4.028  2.8792  0.0815  1.5315
 8742SOL     OW37861   1.138   2.534   4.619  0.4722 -0.5007 -0.2216
 8742SOL    HW137862   1.056   2.486   4.637  1.2284 -1.8476 -0.3343
 8742SOL    HW237863   1.151   2.517   4.526 -0.6833  0.7115 -0.5994
 8743SOL     OW37864   1.171   1.103   0.637  0.6115  0.8848  0.3929
 8743SOL    HW137865   1.136   1.044   0.703  2.4021  0.0169  0.5790
 8743SOL    HW237866   1.202   1.175   0.692  0.0790  1.3353  0.1042
 8744SOL     OW37867   1.027   0.620   6.004  0.4743  0.8896 -0.2731
 8744SOL    HW137868   0.983   0.579   6.079 -1.4459  1.7442 -0.9504
 8744SOL    HW237869   0.995   0.710   6.011 -1.4250  0.0919  1.2879
 8745SOL     OW37870   0.952   4.374   6.009 -0.3092  0.4822  0.1465
 8745SOL    HW137871   0.996   4.368   5.925 -0.2730 -2.7621  0.3836
 8745SOL    HW237872   0.993   4.298   6.053  0.3409  0.0066 -1.2876
 8746SOL     OW37873   0.358   3.770  10.635 -0.1969 -0.2497  0.5487
 8746SOL    HW137874   0.338   3.747  10.726 -0.5034 -1.1921  0.2413
 8746SOL    HW237875   0.358   3.865  10.649  2.5989 -0.4497  1.8123
 8747SOL     OW37876   3.485   0.902  15.184 -0.1581 -0.0996  0.0088
 8747SOL    HW137877   3.477   0.837  15.113  2.9567  0.1004 -0.5412
 8747SOL    HW237878   3.436   0.969  15.136 -2.6001 -0.4775  1.9971
 8748SOL     OW37879   3.121   3.096   9.420  0.1530  0.5222 -0.1115
 8748SOL    HW137880   3.039   3.144   9.408 -0.6904 -0.9532 -0.2286
 8748SOL    HW237881   3.124   3.047   9.337  1.8803  1.0892 -0.3820
 8749SOL     OW37882   0.595   3.735   8.898  0.0277 -0.6891  0.1481
 8749SOL    HW137883   0.532   3.805   8.911  1.1734 -0.1820  2.9848
 8749SOL    HW237884   0.564   3.679   8.969  1.0858 -0.4795  0.7653
 8750SOL     OW37885   0.332   1.069   5.955  0.4598 -0.1968 -0.4876
 8750SOL    HW137886   0.278   1.006   6.002 -0.5820  0.9522 -0.1677
 8750SOL    HW237887   0.307   1.048   5.864  1.3603  1.4660 -1.1109
 8751SOL     OW37888   1.422   4.329   9.331 -0.2088 -0.3236 -0.6250
 8751SOL    HW137889   1.333   4.309   9.301 -0.7248  0.4282  0.4120
 8751SOL    HW237890   1.408   4.372   9.415  2.6359  0.8801 -0.7696
 8752SOL     OW37891   4.129   1.668   8.955  0.4643  0.3927  0.1138
 8752SOL    HW137892   4.149   1.711   8.872  1.7986 -1.2592 -0.4251
 8752SOL    HW237893   4.054   1.613   8.931  0.6608  0.9592 -1.7675
 8753SOL     OW37894   2.497   1.653   4.744 -0.6758  0.0264  0.1922
 8753SOL    HW137895   2.425   1.710   4.772 -1.7910 -0.6856 -1.1965
 8753SOL    HW237896   2.563   1.672   4.810 -0.4351  0.2021 -0.0982
 8754SOL     OW37897   0.457   1.080   4.094  0.2978 -0.2030 -0.2187
 8754SOL    HW137898   0.551   1.096   4.089 -0.4251  3.8673 -0.7586
 8754SOL    HW237899   0.432   1.158   4.144 -2.5699  0.0700 -2.1017
 8755SOL     OW37900   4.148   1.299   9.870 -0.3757  0.1191 -0.0022
 8755SOL    HW137901   4.120   1.315   9.780 -2.2411  0.6818  0.6799
 8755SOL    HW237902   4.194   1.215   9.869 -3.0793 -1.3695 -2.0858
 8756SOL     OW37903   1.590   4.221  16.578  0.1252 -0.5348 -0.7003
 8756SOL    HW137904   1.593   4.221  16.482  0.3817  1.0729 -0.7040
 8756SOL    HW237905   1.584   4.128  16.600  1.0141 -0.5452 -0.5014
 8757SOL     OW37906   4.369   3.901   7.113 -0.4128 -0.2092 -0.3379
 8757SOL    HW137907   4.465   3.900   7.112 -0.3770  0.3462  1.6923
 8757SOL    HW237908   4.356   3.996   7.114  0.8188 -0.0519  1.5008
 8758SOL     OW37909   2.163   2.590   3.465  0.0324  0.0419 -0.5217
 8758SOL    HW137910   2.168   2.584   3.370 -1.4742 -1.1591 -0.5242
 8758SOL    HW237911   2.160   2.495   3.477  1.9958  0.2531  1.6810
 8759SOL     OW37912   3.554   0.353   5.544 -0.6643  0.2539  0.3404
 8759SOL    HW137913   3.599   0.381   5.623 -1.4954 -0.3933  1.0522
 8759SOL    HW237914   3.533   0.262   5.566 -1.1618 -0.5926 -3.4746
 8760SOL     OW37915   0.711   1.532   9.887  0.3224 -0.0439 -0.2736
 8760SOL    HW137916   0.766   1.586   9.943 -0.7330  1.4385 -0.6466
 8760SOL    HW237917   0.628   1.527   9.935  0.4205 -3.9188 -0.5106
 8761SOL     OW37918   1.073   0.093  16.673 -0.2305  0.3547 -0.1852
 8761SOL    HW137919   1.032   0.087  16.759  0.3069  2.2018  0.2161
 8761SOL    HW237920   1.167   0.089  16.694 -0.8236 -0.3468  2.3294
 8762SOL     OW37921   0.991   1.492   8.181 -0.4972 -0.5464 -0.2389
 8762SOL    HW137922   1.082   1.522   8.185 -0.9880  0.9497 -0.4549
 8762SOL    HW237923   0.983   1.468   8.089  0.8879  1.8271 -0.9795
 8763SOL     OW37924   3.234   0.145   7.035  0.3383  0.2908  0.0184
 8763SOL    HW137925   3.271   0.231   7.015 -0.0420  0.1336 -1.3896
 8763SOL    HW237926   3.170   0.164   7.103 -0.3245 -1.8915  0.0061
 8764SOL     OW37927   1.231   2.581   6.255 -0.4793  0.0222 -0.4345
 8764SOL    HW137928   1.224   2.655   6.315 -0.5482  0.0344 -0.4568
 8764SOL    HW237929   1.280   2.526   6.316 -0.4142 -0.5863 -1.0363
 8765SOL     OW37930   4.199   1.715   5.216 -0.1643  0.0242 -0.0012
 8765SOL    HW137931   4.166   1.701   5.127  0.0764  0.8671 -0.2301
 8765SOL    HW237932   4.200   1.811   5.227 -0.4826 -0.0010  0.2458
 8766SOL     OW37933   0.689   0.532   3.347  0.1073  0.2386 -0.2818
 8766SOL    HW137934   0.765   0.500   3.299  0.2284 -0.9925  0.7276
 8766SOL    HW237935   0.720   0.615   3.384  1.9135 -0.6664  0.1922
 8767SOL     OW37936   4.003   1.385   8.653  0.3497  0.5780  0.2087
 8767SOL    HW137937   4.002   1.447   8.581 -3.5615 -1.1429 -1.1933
 8767SOL    HW237938   3.993   1.300   8.610  0.1675  0.5092  0.3892
 8768SOL     OW37939   3.956   3.281  16.702 -0.0045 -0.0402 -0.3948
 8768SOL    HW137940   3.991   3.198  16.668  0.9593  0.6720 -1.1473
 8768SOL    HW237941   3.935   3.269  16.794  1.0737 -1.7063 -0.3622
 8769SOL     OW37942   2.630   1.304   9.977 -0.0618 -0.4707 -0.3476
 8769SOL    HW137943   2.542   1.311   9.940  0.1982 -2.0911 -1.2849
 8769SOL    HW237944   2.673   1.382   9.941  0.7410 -0.9736 -0.4890
 8770SOL     OW37945   0.031   1.149   3.011 -0.1171 -0.1324  0.1280
 8770SOL    HW137946   4.723   1.195   2.940 -0.7216 -1.2906 -0.2483
 8770SOL    HW237947   4.717   1.067   3.006 -0.3654  0.0346 -0.1304
 8771SOL     OW37948   4.045   3.952   1.596  0.1660 -0.7301  0.1807
 8771SOL    HW137949   4.033   3.918   1.507 -1.9613  0.6212 -0.0278
 8771SOL    HW237950   4.019   4.042   1.580  0.2875 -0.8648 -0.7930
 8772SOL     OW37951   3.227   4.573   9.810  0.3222  0.5050  0.1797
 8772SOL    HW137952   3.185   4.576   9.895 -1.2462  0.7587 -0.6039
 8772SOL    HW237953   3.320   4.576   9.834  0.7201 -1.6116 -1.1417
 8773SOL     OW37954   3.566   1.133   2.934 -0.0741 -0.3613  0.3058
 8773SOL    HW137955   3.623   1.167   2.864 -2.7142  1.0599 -1.1570
 8773SOL    HW237956   3.570   1.203   3.000  0.1198  0.0017 -0.0874
 8774SOL     OW37957   3.774   1.472   8.207  0.4073  0.0548 -0.2180
 8774SOL    HW137958   3.749   1.380   8.196 -3.5316  1.1407 -0.5014
 8774SOL    HW237959   3.686   1.510   8.205  0.8884  1.2333  1.7245
 8775SOL     OW37960   2.895   3.427   2.722  0.1177 -0.0122  0.0319
 8775SOL    HW137961   2.924   3.337   2.707  2.3395  0.6253  0.5368
 8775SOL    HW237962   2.974   3.480   2.717  0.5685 -0.6839  0.0411
 8776SOL     OW37963   2.678   2.909   7.037 -0.4638  0.2584 -0.1909
 8776SOL    HW137964   2.692   2.963   7.115 -0.3181 -1.6879  1.1218
 8776SOL    HW237965   2.584   2.890   7.045 -0.2737 -0.5399  0.1223
 8777SOL     OW37966   4.370   0.351   9.934 -0.4677  0.2892 -0.1111
 8777SOL    HW137967   4.381   0.446   9.936  2.5389 -0.0242 -2.1842
 8777SOL    HW237968   4.449   0.323   9.981 -1.2850 -0.9097  0.5821
 8778SOL     OW37969   0.796   1.360   9.677  0.6587 -0.3584  0.3090
 8778SOL    HW137970   0.761   1.421   9.742 -1.3465 -1.5091  0.3113
 8778SOL    HW237971   0.736   1.378   9.604 -0.8859 -0.7066  1.4811
 8779SOL     OW37972   1.528   2.308   3.906 -0.4988  0.1983  0.6850
 8779SOL    HW137973   1.585   2.374   3.946  1.5676 -0.2740 -1.5208
 8779SOL    HW237974   1.566   2.227   3.941 -1.7770 -0.4161  0.6554
 8780SOL     OW37975   3.407   3.742  10.521 -0.4750  0.0457  0.3563
 8780SOL    HW137976   3.338   3.679  10.542 -1.6275  1.2382  0.1356
 8780SOL    HW237977   3.348   3.813  10.494  0.4731  0.7173  0.0454
 8781SOL     OW37978   0.123   1.334  12.334 -0.3224  0.3071 -0.0957
 8781SOL    HW137979   0.178   1.381  12.272 -0.1355  0.3234  0.0817
 8781SOL    HW237980   0.076   1.281  12.270 -0.9647 -1.1729  1.5826
 8782SOL     OW37981   0.832   3.940   3.079 -0.2718  0.2332 -0.3762
 8782SOL    HW137982   0.761   3.996   3.109 -0.5871 -0.9202  0.9764
 8782SOL    HW237983   0.903   3.974   3.134 -0.5608  1.2617 -0.6466
 8783SOL     OW37984   3.566   2.744   4.850 -0.1020 -0.3440  0.2490
 8783SOL    HW137985   3.525   2.724   4.934 -1.2429  0.3485 -0.1550
 8783SOL    HW237986   3.624   2.668   4.840 -0.7599 -0.5415 -2.2751
 8784SOL     OW37987   0.572   2.921   7.932  0.0755  0.0627 -0.0478
 8784SOL    HW137988   0.519   2.983   7.882 -0.6110  0.3699  1.0527
 8784SOL    HW237989   0.547   2.943   8.022  2.4510  1.6593  0.2139
 8785SOL     OW37990   2.325   4.585   6.860 -0.0168 -0.2281 -0.0487
 8785SOL    HW137991   2.299   4.671   6.893  1.6798  0.2225  0.0787
 8785SOL    HW237992   2.334   4.531   6.938 -1.0343 -0.9832 -0.4398
 8786SOL     OW37993   0.149   1.963  10.266  0.2009 -0.1034 -0.1305
 8786SOL    HW137994   0.136   1.986  10.358 -1.6809 -1.6409 -0.0115
 8786SOL    HW237995   0.084   1.892  10.263 -1.1111  1.1708 -1.9361
 8787SOL     OW37996   2.431   0.325   8.391  0.2652 -0.1882 -0.5022
 8787SOL    HW137997   2.491   0.382   8.343  0.3486 -0.2544 -0.4752
 8787SOL    HW237998   2.498   0.326   8.459 -0.5039  1.1141  0.2389
 8788SOL     OW37999   1.720   1.212   5.218 -0.5315  0.7400  0.2832
 8788SOL    HW138000   1.809   1.181   5.200 -0.0931  2.2721 -0.2476
 8788SOL    HW238001   1.748   1.303   5.233 -0.6905  1.0436 -1.2445
 8789SOL     OW38002   4.539   3.292  14.545  0.5579 -0.3590  0.0241
 8789SOL    HW138003   4.593   3.331  14.476 -1.3402 -1.7380 -2.2241
 8789SOL    HW238004   4.587   3.323  14.622  2.8262 -0.1058 -1.4663
 8790SOL     OW38005   4.185   0.436  16.233 -0.4963  0.3249 -0.1227
 8790SOL    HW138006   4.148   0.466  16.150 -1.5090  0.5280  0.4005
 8790SOL    HW238007   4.123   0.485  16.287  0.0223  2.1328 -1.1745
 8791SOL     OW38008   1.454   2.055   1.514  0.2440  0.0655  0.7366
 8791SOL    HW138009   1.540   2.098   1.518  0.0285  0.2608  3.6085
 8791SOL    HW238010   1.401   2.133   1.500  1.7405  0.7521 -1.0390
 8792SOL     OW38011   3.409   1.239  13.967 -0.1177  0.1575  0.1527
 8792SOL    HW138012   3.457   1.273  14.043  1.2331  0.1604 -0.7020
 8792SOL    HW238013   3.317   1.251  13.992 -0.8240 -5.3623  0.1492
 8793SOL     OW38014   2.826   0.104   8.193  0.2688  0.1000 -0.3077
 8793SOL    HW138015   2.890   0.069   8.255 -0.2193  0.1643  0.2308
 8793SOL    HW238016   2.774   0.025   8.182  0.6334  0.0512 -1.6328
 8794SOL     OW38017   0.714   0.149   3.010 -0.0906 -0.2933 -0.0815
 8794SOL    HW138018   0.742   0.171   3.100 -1.4799 -0.5109  0.3954
 8794SOL    HW238019   0.620   0.143   3.023 -0.3982  1.5036 -1.4565
 8795SOL     OW38020   0.031   4.282   7.192  0.4241  0.1603 -0.2214
 8795SOL    HW138021   0.111   4.236   7.219  0.9613  0.5488 -1.1290
 8795SOL    HW238022   0.071   4.368   7.183  3.8921 -1.4274 -0.0962
 8796SOL     OW38023   0.925   3.209  15.147  0.2447 -0.2287 -0.5806
 8796SOL    HW138024   0.913   3.114  15.140  0.6422 -0.1582 -2.0932
 8796SOL    HW238025   1.008   3.218  15.101  1.4149  0.2855  1.6336
 8797SOL     OW38026   3.898   1.552  10.605 -0.0331  0.2425 -0.1341
 8797SOL    HW138027   3.825   1.604  10.638  0.1786  1.2232 -1.2007
 8797SOL    HW238028   3.900   1.489  10.677 -1.2867 -0.2515 -0.5339
 8798SOL     OW38029   2.309   0.171   1.682  0.0871 -0.2383  0.0093
 8798SOL    HW138030   2.404   0.183   1.690  0.2504 -1.3135 -0.4004
 8798SOL    HW238031   2.286   0.233   1.752 -2.0120  0.3005 -1.1466
 8799SOL     OW38032   0.201   2.816  12.333  0.1385  0.3695 -0.0995
 8799SOL    HW138033   0.279   2.771  12.367 -2.2370 -3.2731  0.4665
 8799SOL    HW238034   0.237   2.903  12.313 -0.8401  0.7618 -0.1543
 8800SOL     OW38035   1.209   3.443  11.411  0.0582 -0.1504 -0.1660
 8800SOL    HW138036   1.225   3.404  11.325 -0.3915 -1.3275  0.2709
 8800SOL    HW238037   1.300   3.452  11.437  0.0859  2.8746 -1.3491
 8801SOL     OW38038   3.451   2.215  11.680  0.2145  0.0771  0.3138
 8801SOL    HW138039   3.450   2.179  11.769 -0.7215 -0.5396  0.0601
 8801SOL    HW238040   3.357   2.221  11.662 -0.1882  0.5092  2.6257
 8802SOL     OW38041   4.206   2.995  13.672  0.4958  0.0893  0.3505
 8802SOL    HW138042   4.295   2.986  13.638  0.9362  1.8806  0.9848
 8802SOL    HW238043   4.222   3.017  13.764  0.5290  1.6355 -0.0176
 8803SOL     OW38044   4.295   3.116   6.793  0.0873 -0.2548 -1.1379
 8803SOL    HW138045   4.377   3.091   6.835 -0.3689 -3.3160 -2.0735
 8803SOL    HW238046   4.323   3.149   6.707 -2.8840 -2.2950 -2.8888
 8804SOL     OW38047   4.474   4.139   9.371 -0.2757  0.6650 -0.4427
 8804SOL    HW138048   4.520   4.054   9.369 -1.1604  0.1331  2.3924
 8804SOL    HW238049   4.503   4.172   9.286  1.8324  0.7567  0.2895
 8805SOL     OW38050   4.231   4.278   4.088  0.4656  0.8080  0.1909
 8805SOL    HW138051   4.189   4.361   4.067 -1.0883  0.5386  2.2955
 8805SOL    HW238052   4.162   4.214   4.071  0.8199  0.2600  0.7614
 8806SOL     OW38053   3.576   1.738   7.774  0.1766 -0.0361  0.3734
 8806SOL    HW138054   3.488   1.711   7.746  0.5268  0.3655 -1.1266
 8806SOL    HW238055   3.615   1.718   7.689  0.1076  0.2319  0.2748
 8807SOL     OW38056   3.965   2.791   4.866 -0.1789 -0.8868  0.7751
 8807SOL    HW138057   4.010   2.859   4.917 -1.1871 -0.7292  1.4434
 8807SOL    HW238058   4.041   2.757   4.818  0.8380  0.0019  1.7483
 8808SOL     OW38059   0.216   2.798   4.728 -0.9830  0.2388  0.3571
 8808SOL    HW138060   0.300   2.770   4.767 -1.4292  0.9963  1.8375
 8808SOL    HW238061   0.159   2.806   4.804  0.5551  3.1302  1.2027
 8809SOL     OW38062   1.436   2.831   7.286 -0.2015 -0.2300  0.0846
 8809SOL    HW138063   1.440   2.837   7.381  1.6588 -2.5059  0.1636
 8809SOL    HW238064   1.378   2.756   7.273 -1.5339  0.7149  0.6364
 8810SOL     OW38065   1.758   1.380   1.915  0.0442 -0.0315  0.0570
 8810SOL    HW138066   1.841   1.415   1.948  1.0465 -0.0879 -2.4136
 8810SOL    HW238067   1.767   1.287   1.933 -2.5867 -0.3756 -0.4826
 8811SOL     OW38068   0.864   0.389   5.883 -0.1563  0.5160 -0.1441
 8811SOL    HW138069   0.782   0.438   5.890 -0.5231  0.1217 -1.7646
 8811SOL    HW238070   0.925   0.463   5.882 -2.4718  2.4476  0.9412
 8812SOL     OW38071   3.738   2.560   3.450  0.2613 -0.4018 -0.1766
 8812SOL    HW138072   3.716   2.619   3.378  0.1917 -1.1228 -0.7469
 8812SOL    HW238073   3.767   2.487   3.396 -1.3159 -2.1054  1.2802
 8813SOL     OW38074   4.601   0.812   0.162  0.5492  0.2565  0.3021
 8813SOL    HW138075   4.685   0.856   0.172  0.2434  0.4322  2.1236
 8813SOL    HW238076   4.597   0.767   0.246  0.8505  0.4119  0.3982
 8814SOL     OW38077   0.694   1.118  13.161  0.4664 -0.1988 -0.3180
 8814SOL    HW138078   0.725   1.051  13.100  2.4794  0.5015 -0.0587
 8814SOL    HW238079   0.763   1.184  13.152 -1.4626  1.5950 -1.8910
 8815SOL     OW38080   4.424   4.675   7.223 -0.1367  0.2050  0.3187
 8815SOL    HW138081   4.519   4.676   7.231 -0.3099 -0.3619  2.4127
 8815SOL    HW238082   4.420   0.017   7.168 -0.2495  0.2725  0.4219
 8816SOL     OW38083   1.786   1.120  14.727 -0.2676 -0.3179  0.0576
 8816SOL    HW138084   1.766   1.214  14.731 -3.1429 -0.8328 -2.1555
 8816SOL    HW238085   1.698   1.083  14.713  0.2491 -1.7252  0.5505
 8817SOL     OW38086   4.151   1.025   1.478 -0.1409 -0.0564 -0.1551
 8817SOL    HW138087   4.086   0.955   1.473 -0.5547  0.3471 -0.3512
 8817SOL    HW238088   4.230   0.974   1.458  1.0455  1.6945  0.0629
 8818SOL     OW38089   1.495   2.329   4.831 -0.2185 -0.1571 -0.3490
 8818SOL    HW138090   1.484   2.398   4.765  2.1384  0.3205 -0.2658
 8818SOL    HW238091   1.578   2.303   4.791  0.4845  2.0325 -0.3264
 8819SOL     OW38092   1.601   1.857   9.846 -0.1319  0.0524  0.0390
 8819SOL    HW138093   1.691   1.837   9.869 -0.8007 -1.0709  1.7083
 8819SOL    HW238094   1.610   1.952   9.840 -1.5764  0.0667 -1.9355
 8820SOL     OW38095   2.949   3.989   1.875 -0.9192 -0.1646 -0.1664
 8820SOL    HW138096   2.901   4.065   1.906  1.2776  0.0437  2.7373
 8820SOL    HW238097   2.925   4.001   1.783  0.4206 -0.4837 -0.5737
 8821SOL     OW38098   3.070   3.485  13.813 -0.4906 -0.2845  0.1268
 8821SOL    HW138099   2.992   3.515  13.861  0.4737 -0.6786  1.9561
 8821SOL    HW238100   3.087   3.551  13.746  1.6451 -0.0977  0.8617
 8822SOL     OW38101   3.860   2.749  10.365  0.5112  0.5271  0.5775
 8822SOL    HW138102   3.884   2.780  10.277  1.2441 -0.3612  0.4578
 8822SOL    HW238103   3.912   2.807  10.420  0.6148 -0.1442  1.1899
 8823SOL     OW38104   0.411   2.911   2.683 -0.2361 -0.1174 -0.0042
 8823SOL    HW138105   0.460   2.841   2.728  0.9680 -0.4367 -1.7840
 8823SOL    HW238106   0.321   2.899   2.712 -0.6154  0.1581 -1.0902
 8824SOL     OW38107   3.411   0.496  11.008 -0.2511  0.4348  0.6536
 8824SOL    HW138108   3.505   0.491  11.027 -0.2060 -0.9929  0.0736
 8824SOL    HW238109   3.383   0.427  11.068 -2.0996 -1.1449 -2.0150
 8825SOL     OW38110   3.859   3.331   6.151 -0.4223 -0.8032 -0.0765
 8825SOL    HW138111   3.775   3.356   6.189 -0.7769 -1.0374 -0.7244
 8825SOL    HW238112   3.884   3.253   6.200  0.4195 -0.4912  0.0047
 8826SOL     OW38113   1.402   4.381  12.600 -0.1165 -0.4954  0.3435
 8826SOL    HW138114   1.422   4.434  12.678  2.0065 -1.5435  0.5181
 8826SOL    HW238115   1.317   4.347  12.629 -0.1430 -0.5504  0.1986
 8827SOL     OW38116   0.664   0.785   2.524  0.0230  0.4261  0.5552
 8827SOL    HW138117   0.589   0.790   2.465 -1.0250 -0.6810  1.7943
 8827SOL    HW238118   0.619   0.744   2.597 -2.1855  1.4573 -0.2175
 8828SOL     OW38119   0.563   3.106   4.103  0.0611  0.0102 -0.5726
 8828SOL    HW138120   0.654   3.126   4.123  0.0488 -0.9961  0.4807
 8828SOL    HW238121   0.565   3.115   4.007  0.8441 -1.3490 -0.6741
 8829SOL     OW38122   4.460   3.785   6.626 -0.5561  0.1577  0.2261
 8829SOL    HW138123   4.458   3.866   6.574 -1.1257 -0.6301 -0.9632
 8829SOL    HW238124   4.432   3.814   6.713 -0.8683  0.0580  0.1584
 8830SOL     OW38125   1.173   4.526  11.264  0.1133 -0.2633 -0.1366
 8830SOL    HW138126   1.203   4.520  11.174 -1.8830 -2.1493 -0.6947
 8830SOL    HW238127   1.085   4.490  11.253  0.3847 -1.0554  0.2765
 8831SOL     OW38128   4.116   2.595  16.482  0.2299 -0.0359 -0.1697
 8831SOL    HW138129   4.207   2.564  16.485  0.0680 -0.5107 -0.1123
 8831SOL    HW238130   4.071   2.521  16.441 -1.0183  0.8553 -0.4317
 8832SOL     OW38131   0.845   0.103   4.233 -0.3626 -0.2711 -0.0701
 8832SOL    HW138132   0.933   0.082   4.263  0.0340  0.8264 -0.4819
 8832SOL    HW238133   0.826   0.181   4.286 -0.2680  0.2870 -0.8561
 8833SOL     OW38134   3.661   2.014  13.003  0.2955  0.0509  0.3258
 8833SOL    HW138135   3.679   2.104  12.975  1.9702 -0.6870 -1.0107
 8833SOL    HW238136   3.585   2.025  13.059  1.8029  0.1637  2.3381
 8834SOL     OW38137   1.783   0.155   3.155 -0.0659 -0.1470 -0.1478
 8834SOL    HW138138   1.802   0.212   3.081  0.1243  1.6879  1.3201
 8834SOL    HW238139   1.866   0.150   3.202 -0.5747 -1.6844  0.5786
 8835SOL     OW38140   2.974   4.717   2.535 -0.2456 -0.0617 -0.2723
 8835SOL    HW138141   2.994   4.625   2.514 -2.1962  0.3271 -3.7467
 8835SOL    HW238142   2.896   4.712   2.589  0.3410  0.6668  0.6255
 8836SOL     OW38143   2.391   3.171   8.622 -0.2757 -0.1011  0.7942
 8836SOL    HW138144   2.415   3.261   8.645  3.5339 -0.7327 -0.7582
 8836SOL    HW238145   2.359   3.137   8.706 -4.1157  1.6568  0.0208
 8837SOL     OW38146   0.286   2.129  13.715  0.0920  0.5193 -0.4427
 8837SOL    HW138147   0.341   2.150  13.790  0.8738  0.6024 -1.0410
 8837SOL    HW238148   0.237   2.211  13.708  1.7207  1.7657  2.7028
 8838SOL     OW38149   1.741   4.447   4.683  0.0262 -0.2793  0.2151
 8838SOL    HW138150   1.705   4.516   4.739 -2.7565  0.4991 -2.5363
 8838SOL    HW238151   1.665   4.405   4.642  0.0692 -0.1455  0.0006
 8839SOL     OW38152   0.061   4.464  12.461  0.6563 -0.0416  0.1749
 8839SOL    HW138153   0.080   4.494  12.372  1.1042 -0.2006  0.2165
 8839SOL    HW238154   0.147   4.444  12.496  0.2064 -1.2204  0.6023
 8840SOL     OW38155   3.577   4.252   4.736  0.3706 -0.1489  0.4041
 8840SOL    HW138156   3.569   4.345   4.711  1.1231 -0.3083 -0.4370
 8840SOL    HW238157   3.546   4.207   4.657 -1.4228  0.5157  0.7238
 8841SOL     OW38158   2.145   4.277  14.197 -0.4888  0.2200 -0.7085
 8841SOL    HW138159   2.177   4.187  14.192  0.5884  0.6873 -2.1850
 8841SOL    HW238160   2.202   4.313  14.266  0.2465  0.0886 -1.2482
 8842SOL     OW38161   0.240   3.198   3.047 -0.0343 -0.5177  0.3524
 8842SOL    HW138162   0.333   3.221   3.035  0.1430 -0.5587  1.6988
 8842SOL    HW238163   0.201   3.264   2.990  2.0754 -0.9622 -1.6226
 8843SOL     OW38164   4.270   1.874  12.795 -0.1706 -0.0929  0.0695
 8843SOL    HW138165   4.232   1.829  12.719 -2.7135  3.7316 -0.8958
 8843SOL    HW238166   4.241   1.822  12.871  0.1104 -1.1812 -0.5674
 8844SOL     OW38167   2.960   1.426   3.336 -0.1905  0.3807  0.2925
 8844SOL    HW138168   3.018   1.393   3.267 -2.4657 -1.6264 -0.6353
 8844SOL    HW238169   3.004   1.510   3.352 -1.1561  0.6930  1.3251
 8845SOL     OW38170   3.892   0.815   3.603  0.4453 -0.1148 -0.1959
 8845SOL    HW138171   3.951   0.840   3.531 -1.2214 -2.8118 -2.4626
 8845SOL    HW238172   3.824   0.881   3.593 -0.8089 -1.5218 -0.8564
 8846SOL     OW38173   3.491   3.633  12.610  0.6902 -0.6771  0.3095
 8846SOL    HW138174   3.511   3.543  12.584 -0.0802 -0.7274 -0.0940
 8846SOL    HW238175   3.566   3.690  12.592  0.3436  0.1301  1.3744
 8847SOL     OW38176   2.459   0.466  10.766  0.0347  0.4964 -0.5423
 8847SOL    HW138177   2.404   0.490  10.692 -0.0234 -1.2719 -1.0676
 8847SOL    HW238178   2.540   0.504  10.732  1.2321 -1.7384 -0.1556
 8848SOL     OW38179   3.811   0.615   8.441 -0.2736  0.4089 -0.3953
 8848SOL    HW138180   3.735   0.564   8.470  1.2659 -0.6744  1.7515
 8848SOL    HW238181   3.776   0.704   8.445 -0.6282  0.3788 -2.6317
 8849SOL     OW38182   0.564   1.763  16.687  0.7130 -0.1178  0.6283
 8849SOL    HW138183   0.499   1.792  16.623  0.6910  2.5830  1.8835
 8849SOL    HW238184   0.556   1.668  16.672 -2.0934  0.2305 -0.1091
 8850SOL     OW38185   2.334   0.388  12.933  0.2155 -0.1487 -0.4921
 8850SOL    HW138186   2.293   0.453  12.989 -0.8917 -0.5217 -0.8842
 8850SOL    HW238187   2.377   0.438  12.864 -2.3121  1.6885 -0.7037
 8851SOL     OW38188   1.764   3.999   3.623 -0.3010  0.1749  0.1733
 8851SOL    HW138189   1.690   4.058   3.634 -0.4833  0.2433 -1.4593
 8851SOL    HW238190   1.791   4.003   3.531  0.9690  1.8828  0.6058
 8852SOL     OW38191   3.015   1.094  13.126  0.2014  0.5469 -0.1388
 8852SOL    HW138192   3.011   1.184  13.093 -2.8798  0.9638  1.3310
 8852SOL    HW238193   3.030   1.045  13.046  0.5567 -0.0085  0.2645
 8853SOL     OW38194   1.814   1.963   2.340  0.1173 -0.1369  0.2003
 8853SOL    HW138195   1.856   2.044   2.366  2.4101 -0.8653 -1.1814
 8853SOL    HW238196   1.892   1.909   2.351 -1.5045 -2.1544  1.8882
 8854SOL     OW38197   1.363   1.989  14.609  0.3756  0.1268  0.6406
 8854SOL    HW138198   1.299   2.010  14.541  2.2184  2.3794 -0.3788
 8854SOL    HW238199   1.362   1.893  14.608  1.0659  0.1390 -0.6658
 8855SOL     OW38200   2.296   2.971  17.462  0.0694 -0.4644  0.5748
 8855SOL    HW138201   2.243   3.034  17.413 -0.8035 -0.8088  1.0709
 8855SOL    HW238202   2.278   2.893  17.409 -0.3859  1.1851 -1.7113
 8856SOL     OW38203   3.962   0.805   0.371 -0.1645 -0.2022 -0.8387
 8856SOL    HW138204   3.974   0.836   0.461 -0.6371  1.0412 -1.2052
 8856SOL    HW238205   3.980   0.872   0.305 -0.6766 -0.5070 -1.2914
 8857SOL     OW38206   2.048   4.441   7.543  0.2107 -0.0201  0.4490
 8857SOL    HW138207   2.006   4.373   7.489  0.6318 -0.8132  1.1194
 8857SOL    HW238208   1.981   4.505   7.566  0.1071  0.3669 -0.9119
 8858SOL     OW38209   4.628   0.286  11.112 -0.8871 -0.0862  0.0323
 8858SOL    HW138210   4.567   0.354  11.082  1.0167  0.8961 -1.5972
 8858SOL    HW238211   4.647   0.235  11.033  0.0939 -0.0294  0.2417
 8859SOL     OW38212   3.237   4.201   8.705  0.4138  0.1249 -0.1768
 8859SOL    HW138213   3.178   4.126   8.700  0.9447 -0.3494  1.0360
 8859SOL    HW238214   3.243   4.221   8.798  0.1208 -1.8437  0.2627
 8860SOL     OW38215   1.857   4.012   1.363  0.1799 -0.6004 -0.3718
 8860SOL    HW138216   1.812   4.095   1.370  1.2803 -0.1875  1.7921
 8860SOL    HW238217   1.786   3.950   1.375  1.3345 -1.7291  0.6609
 8861SOL     OW38218   2.323   0.339   5.531  0.1996 -0.0160  0.1635
 8861SOL    HW138219   2.379   0.382   5.466 -1.1891  2.6150  0.7187
 8861SOL    HW238220   2.239   0.346   5.485 -0.0984 -2.4842  0.3054
 8862SOL     OW38221   0.444   2.797  16.082 -0.0648  0.1458 -0.9011
 8862SOL    HW138222   0.408   2.850  16.010  0.3751 -0.6700 -1.7180
 8862SOL    HW238223   0.528   2.764  16.052 -1.2230 -1.3985 -2.4664
 8863SOL     OW38224   4.386   0.274   4.118 -0.6897 -0.5083 -0.1735
 8863SOL    HW138225   4.391   0.183   4.146  0.6655 -0.5926 -0.6912
 8863SOL    HW238226   4.477   0.297   4.138 -1.4854  1.0053  1.6500
 8864SOL     OW38227   1.282   1.323   3.087  0.0803  0.1218  0.1166
 8864SOL    HW138228   1.213   1.341   3.023 -0.0095 -0.7232 -0.0262
 8864SOL    HW238229   1.340   1.259   3.046  0.1650 -0.1360  0.6422
 8865SOL     OW38230   2.993   3.852   0.922  0.5601  0.3933  0.1050
 8865SOL    HW138231   3.009   3.768   0.878 -1.2676  0.5128 -0.8109
 8865SOL    HW238232   3.013   3.917   0.854 -2.8015  0.8718 -0.4598
 8866SOL     OW38233   3.420   2.939   7.986  0.6293  0.1492  0.0973
 8866SOL    HW138234   3.339   2.947   7.936 -0.0062  1.2249  1.2956
 8866SOL    HW238235   3.453   2.851   7.966  1.1643  0.1083  1.1424
 8867SOL     OW38236   2.340   3.938   5.937 -0.0409 -0.4911  0.3586
 8867SOL    HW138237   2.307   4.014   5.890  0.9712  0.6329  1.4722
 8867SOL    HW238238   2.311   3.960   6.025 -1.3857  1.5945 -0.5998
 8868SOL     OW38239   0.397   0.749   7.452  0.6327 -0.0585  0.3641
 8868SOL    HW138240   0.464   0.714   7.510  2.4127 -1.5609 -2.5510
 8868SOL    HW238241   0.345   0.794   7.518  0.4161  0.9608 -0.4833
 8869SOL     OW38242   1.262   2.217   4.848 -0.1134  0.1515  0.0269
 8869SOL    HW138243   1.349   2.252   4.827 -1.0908  0.6619 -3.1425
 8869SOL    HW238244   1.287   2.150   4.911 -1.8550  0.1680  0.7237
 8870SOL     OW38245   3.607   2.276   1.295 -0.3263  0.1319 -0.0518
 8870SOL    HW138246   3.543   2.215   1.332  1.3866 -0.9764  1.0316
 8870SOL    HW238247   3.581   2.277   1.202  2.2742 -3.1635 -0.7904
 8871SOL     OW38248   1.411   3.101   5.610  0.1388 -0.0197  0.1386
 8871SOL    HW138249   1.445   3.180   5.569 -0.8640  0.1860 -0.2853
 8871SOL    HW238250   1.410   3.033   5.542 -1.4610 -0.3144  0.4619
 8872SOL     OW38251   0.089   4.235  13.281  0.5138  0.2006 -0.1730
 8872SOL    HW138252   0.011   4.285  13.255  0.9830  0.3461 -1.2758
 8872SOL    HW238253   0.162   4.296  13.279  1.1914 -0.6754 -2.0642
 8873SOL     OW38254   2.629   1.782   3.367 -0.7016  0.7690 -0.3674
 8873SOL    HW138255   2.576   1.770   3.446  1.0215 -1.4523  0.4515
 8873SOL    HW238256   2.599   1.701   3.326  1.7097 -0.9580  1.3012
 8874SOL     OW38257   2.632   2.279  16.752  0.4480  0.5173  0.0398
 8874SOL    HW138258   2.578   2.346  16.711 -2.6022 -2.0362 -0.0855
 8874SOL    HW238259   2.707   2.291  16.694 -0.1424  1.1385 -0.5884
 8875SOL     OW38260   0.084   0.908   9.648  0.1114  0.2888 -0.5259
 8875SOL    HW138261   0.083   0.882   9.556  0.5832 -0.7801 -0.2281
 8875SOL    HW238262   0.045   0.828   9.683 -0.6149  0.0746 -1.8307
 8876SOL     OW38263   3.923   0.148   4.730  0.1876 -0.0822  0.2315
 8876SOL    HW138264   4.000   0.108   4.770  0.8254 -0.7416 -1.6506
 8876SOL    HW238265   3.901   0.201   4.807  0.7320  0.3704  0.0780
 8877SOL     OW38266   1.163   3.628   5.148  0.6196 -0.0994 -0.1442
 8877SOL    HW138267   1.102   3.702   5.143  1.0905  0.2565 -0.6059
 8877SOL    HW238268   1.124   3.587   5.225 -1.2666 -0.1445 -1.1129
 8878SOL     OW38269   4.381   4.564   2.111  0.7125 -0.3424  0.4201
 8878SOL    HW138270   4.318   4.601   2.173  1.4803 -0.5744  1.3423
 8878SOL    HW238271   4.360   4.471   2.103 -2.1015  0.1698  1.6989
 8879SOL     OW38272   0.813   0.238   5.515  0.6483 -0.0426  0.4209
 8879SOL    HW138273   0.836   0.179   5.587  0.5873 -2.7835 -1.8167
 8879SOL    HW238274   0.857   0.316   5.549  0.0773 -0.5393  2.2709
 8880SOL     OW38275   3.392   0.902   2.455 -0.1410 -0.1240 -0.3250
 8880SOL    HW138276   3.300   0.889   2.474  0.6449 -3.2735  1.2753
 8880SOL    HW238277   3.429   0.857   2.531  1.8061  0.4170 -0.9516
 8881SOL     OW38278   4.267   0.561   8.437 -0.0019 -0.0258 -0.3865
 8881SOL    HW138279   4.338   0.552   8.374  1.0682 -1.5163  1.0260
 8881SOL    HW238280   4.292   0.648   8.468  0.4252 -0.5894  0.8363
 8882SOL     OW38281   0.605   4.058  11.113  0.2353 -0.1129 -0.8309
 8882SOL    HW138282   0.555   3.983  11.145  1.2887 -0.0239  1.0224
 8882SOL    HW238283   0.608   4.028  11.023  0.8758 -1.0804 -0.4834
 8883SOL     OW38284   4.587   3.916   1.199  0.0430 -0.0544 -0.5311
 8883SOL    HW138285   4.595   3.948   1.290 -0.1486  1.0926 -0.9158
 8883SOL    HW238286   4.633   3.833   1.209  0.6729  0.2745 -0.6772
 8884SOL     OW38287   1.971   0.308   1.744  0.3553  0.4507  0.5728
 8884SOL    HW138288   2.061   0.288   1.771  0.6251  0.9779  0.0687
 8884SOL    HW238289   1.976   0.336   1.653 -0.3578  1.5515  0.8748
 8885SOL     OW38290   3.851   2.370   9.063 -0.1021 -0.4271  0.4851
 8885SOL    HW138291   3.840   2.465   9.055  2.2766 -0.3499 -1.7617
 8885SOL    HW238292   3.814   2.349   9.149 -0.1150 -2.1466  0.0620
 8886SOL     OW38293   1.246   0.933  12.304 -0.1055  0.3231 -0.0847
 8886SOL    HW138294   1.318   0.992  12.283  0.9346 -1.0943 -0.5653
 8886SOL    HW238295   1.278   0.884  12.380 -1.6920  2.2384  1.7974
 8887SOL     OW38296   1.507   1.715   7.506  0.2318 -0.4484  0.0421
 8887SOL    HW138297   1.460   1.798   7.496 -0.7459 -1.0858 -0.6545
 8887SOL    HW238298   1.445   1.651   7.472 -1.2363  0.1896  1.5233
 8888SOL     OW38299   3.681   3.059   6.652  0.4221  0.5122  0.0232
 8888SOL    HW138300   3.611   3.030   6.711 -0.7935  0.9448 -1.1877
 8888SOL    HW238301   3.760   3.032   6.698  0.6348  0.4845 -0.3555
 8889SOL     OW38302   4.130   0.274   9.907  0.8737 -0.6024 -0.2827
 8889SOL    HW138303   4.114   0.257   9.814  0.4527  0.6154 -0.4384
 8889SOL    HW238304   4.224   0.291   9.907  0.8611 -0.5345 -0.2354
 8890SOL     OW38305   3.332   2.822   7.172 -0.2871  0.6177  0.3178
 8890SOL    HW138306   3.360   2.904   7.130  1.1198  0.0603  0.1843
 8890SOL    HW238307   3.406   2.762   7.162  0.0122  0.8770  0.9966
 8891SOL     OW38308   1.090   2.406   8.035  0.0254  0.2675  0.2034
 8891SOL    HW138309   1.130   2.470   7.976 -0.2502  0.2129 -0.0448
 8891SOL    HW238310   1.015   2.461   8.061 -0.4632 -0.9692  1.3605
 8892SOL     OW38311   2.473   1.953   9.718  0.3240  0.3692 -0.3305
 8892SOL    HW138312   2.449   2.046   9.723  1.5322  0.8329 -3.1366
 8892SOL    HW238313   2.453   1.935   9.626 -1.0281 -0.8458  0.1971
 8893SOL     OW38314   4.261   3.772  16.425 -1.0967  0.2385  0.1216
 8893SOL    HW138315   4.254   3.677  16.414  0.0342  0.2470 -0.6800
 8893SOL    HW238316   4.303   3.794  16.342 -2.0312  0.8055 -0.1910
 8894SOL     OW38317   1.647   2.089   8.411  0.2850  0.6257  0.4784
 8894SOL    HW138318   1.562   2.131   8.399  0.0373  0.3046  1.0696
 8894SOL    HW238319   1.635   1.998   8.384  1.0703  0.2261  1.4695
 8895SOL     OW38320   2.560   3.719   5.753  0.1816  0.5074  0.1893
 8895SOL    HW138321   2.654   3.722   5.734  0.2172 -0.9757  0.1540
 8895SOL    HW238322   2.554   3.809   5.787 -0.3059  1.9295 -3.6264
 8896SOL     OW38323   0.604   1.444  17.533  0.2273  0.2547  0.6171
 8896SOL    HW138324   0.649   1.392  17.599  1.0474 -0.2445 -0.3446
 8896SOL    HW238325   0.579   1.523  17.582 -1.2947 -1.0654  1.9484
 8897SOL     OW38326   0.996   1.550   2.313 -0.0044 -0.0426 -0.1321
 8897SOL    HW138327   1.012   1.508   2.229 -0.8716 -0.8207  0.0976
 8897SOL    HW238328   1.085   1.572   2.340 -0.8358  1.5520  1.3209
 8898SOL     OW38329   0.109   1.464   5.004 -0.5012 -0.5016  0.1259
 8898SOL    HW138330   0.189   1.475   4.952 -1.0742  0.4093 -0.5644
 8898SOL    HW238331   0.046   1.434   4.938 -0.7783  0.2916  0.0341
 8899SOL     OW38332   0.420   0.523   3.324 -0.0270 -0.1445  0.0992
 8899SOL    HW138333   0.515   0.531   3.319 -0.1731  0.4189 -2.0509
 8899SOL    HW238334   0.402   0.487   3.410  1.0732  0.6070  0.6468
 8900SOL     OW38335   1.701   0.399   9.828  0.0716  0.1999  0.0486
 8900SOL    HW138336   1.731   0.326   9.882 -1.8150 -0.4429  0.2477
 8900SOL    HW238337   1.747   0.466   9.879  2.2926 -0.5845 -0.9280
 8901SOL     OW38338   2.538   2.286   4.713  0.3708 -0.3107 -0.3248
 8901SOL    HW138339   2.534   2.289   4.809  0.5493  0.1614 -0.3297
 8901SOL    HW238340   2.494   2.202   4.703 -0.0156 -0.0554 -0.7673
 8902SOL     OW38341   1.375   3.795   5.150  0.6414 -0.0116 -0.1485
 8902SOL    HW138342   1.310   3.731   5.180 -0.6668 -0.3885 -3.7611
 8902SOL    HW238343   1.443   3.776   5.215 -0.2414  2.8097  1.5735
 8903SOL     OW38344   1.550   4.181   3.947 -0.4343 -0.0694  0.3893
 8903SOL    HW138345   1.585   4.268   3.965  1.5821 -0.7268 -0.2858
 8903SOL    HW238346   1.591   4.130   4.017  0.5207  0.3795  0.1640
 8904SOL     OW38347   3.351   1.763   6.177  0.0806  0.4692  0.1865
 8904SOL    HW138348   3.355   1.852   6.213 -1.4756 -0.1766  1.9511
 8904SOL    HW238349   3.433   1.716   6.192  0.3730  0.4790 -1.3662
 8905SOL     OW38350   4.426   1.150  11.103 -0.2341 -0.0562 -0.2055
 8905SOL    HW138351   4.465   1.188  11.024 -0.2848  1.6560  0.6049
 8905SOL    HW238352   4.346   1.115  11.062  0.4246 -1.3993 -0.3717
 8906SOL     OW38353   1.253   0.812   4.445  0.2672  0.1638  0.1912
 8906SOL    HW138354   1.329   0.795   4.499  0.3322 -0.0739  0.0218
 8906SOL    HW238355   1.205   0.731   4.460  0.3578  0.4636  2.1385
 8907SOL     OW38356   2.693   3.606  15.581 -0.2305  0.0659  0.3510
 8907SOL    HW138357   2.684   3.668  15.653  0.9416 -1.6392  1.9418
 8907SOL    HW238358   2.607   3.566  15.589 -0.1350 -0.3489 -0.7047
 8908SOL     OW38359   4.444   0.484   7.516  0.0474  0.4505 -0.2765
 8908SOL    HW138360   4.355   0.516   7.530 -0.4855 -1.0804 -0.0978
 8908SOL    HW238361   4.494   0.555   7.555 -0.1225  0.8863 -0.8579
 8909SOL     OW38362   3.284   3.015   2.765 -0.1854  0.2572 -0.9264
 8909SOL    HW138363   3.243   2.929   2.752  1.4273 -0.3830 -1.8718
 8909SOL    HW238364   3.280   3.023   2.860  1.1275 -1.2478 -0.7448
 8910SOL     OW38365   3.047   0.261   5.389  0.4613  0.3722 -0.0351
 8910SOL    HW138366   3.108   0.232   5.322 -0.3600 -1.8492  0.1903
 8910SOL    HW238367   3.064   0.355   5.391 -1.7367  0.7995 -1.1815
 8911SOL     OW38368   4.722   2.265  12.603  0.7259  0.6116  0.3921
 8911SOL    HW138369   0.060   2.222  12.645  0.8825 -0.6268 -1.1413
 8911SOL    HW238370   4.691   2.315  12.678 -2.1468 -1.8343  0.8568
 8912SOL     OW38371   4.349   1.590   6.656 -0.1736  0.7029 -0.2279
 8912SOL    HW138372   4.381   1.660   6.713 -0.1478  0.3216  0.2257
 8912SOL    HW238373   4.271   1.560   6.701  0.9539 -0.7040  0.7647
 8913SOL     OW38374   3.616   0.083   8.272  0.0010  0.7167  0.0179
 8913SOL    HW138375   3.566   0.002   8.268  2.4378 -0.7476 -0.5925
 8913SOL    HW238376   3.541   0.140   8.288 -0.8560  0.0450 -1.5621
 8914SOL     OW38377   1.230   1.741   8.727  0.5345  0.0269 -0.2243
 8914SOL    HW138378   1.255   1.796   8.801  0.0443  1.1523 -0.8870
 8914SOL    HW238379   1.283   1.668   8.758  0.5586  0.1100 -0.0736
 8915SOL     OW38380   4.188   2.287   5.056 -0.0810 -0.6190  0.1374
 8915SOL    HW138381   4.220   2.241   4.978  0.1158 -0.9531  0.4144
 8915SOL    HW238382   4.254   2.270   5.123 -1.1516 -0.4983  1.2290
 8916SOL     OW38383   3.838   1.272   9.474 -0.5708  0.2079 -0.3337
 8916SOL    HW138384   3.828   1.191   9.424  0.2190 -1.9314  2.9344
 8916SOL    HW238385   3.928   1.298   9.455 -0.4154 -0.6384 -0.7627
 8917SOL     OW38386   0.071   1.634   3.676  0.0352  0.7649  0.1978
 8917SOL    HW138387   0.109   1.619   3.762 -0.9447  0.7244  0.6197
 8917SOL    HW238388   0.115   1.578   3.612  1.1976  2.0647 -0.1481
 8918SOL     OW38389   3.578   1.552  16.270 -0.5914 -0.0206  0.0521
 8918SOL    HW138390   3.573   1.647  16.261 -0.2231  0.2651  2.6866
 8918SOL    HW238391   3.654   1.545  16.212 -1.5775 -2.3102 -0.9256
 8919SOL     OW38392   1.415   2.621   2.745 -0.0281  0.6993 -0.3226
 8919SOL    HW138393   1.340   2.591   2.796  1.4655 -0.6790  1.0550
 8919SOL    HW238394   1.485   2.606   2.808 -0.1950 -1.7570 -0.7294
 8920SOL     OW38395   2.733   1.833   4.921  0.4058 -1.0031 -0.2832
 8920SOL    HW138396   2.778   1.888   4.985  0.8399  1.7733 -2.9978
 8920SOL    HW238397   2.790   1.850   4.846  0.4992  1.9652  0.4506
 8921SOL     OW38398   4.305   3.664   2.751 -0.6017 -0.2256  0.3670
 8921SOL    HW138399   4.262   3.593   2.702 -1.2103  0.4555 -0.0934
 8921SOL    HW238400   4.264   3.742   2.713  0.1442  0.1877  0.4213
 8922SOL     OW38401   4.056   2.708   1.255  0.8568  0.0007  0.0259
 8922SOL    HW138402   3.994   2.645   1.292  0.0441  1.7808  1.6904
 8922SOL    HW238403   4.138   2.666   1.279  1.6943  0.8827 -1.3027
 8923SOL     OW38404   2.963   0.413   6.422  0.2763  0.3050 -0.7385
 8923SOL    HW138405   3.001   0.335   6.383 -1.3436 -1.0373  0.3541
 8923SOL    HW238406   2.948   0.384   6.512 -3.1272 -0.1347 -1.4501
 8924SOL     OW38407   0.632   2.385   2.953 -0.0764  0.4867 -0.1060
 8924SOL    HW138408   0.726   2.392   2.938 -0.0854  1.2521  0.1775
 8924SOL    HW238409   0.619   2.312   2.892  0.5568  1.1485 -1.0352
 8925SOL     OW38410   1.311   1.019   0.400  0.0926  0.0547  0.7776
 8925SOL    HW138411   1.248   1.023   0.472 -0.7886 -0.5259  0.0392
 8925SOL    HW238412   1.268   0.950   0.350 -1.1045  2.4783 -1.5119
 8926SOL     OW38413   0.289   2.924   3.015 -0.0090 -0.1246  0.4745
 8926SOL    HW138414   0.306   3.014   3.041  0.0251 -0.2183  0.7877
 8926SOL    HW238415   0.255   2.941   2.928 -0.9183  0.0389  0.8598
 8927SOL     OW38416   0.572   3.603   2.898  0.0824 -0.2580  0.1284
 8927SOL    HW138417   0.614   3.542   2.838 -0.0100  2.1227 -2.3119
 8927SOL    HW238418   0.643   3.666   2.914 -0.7427  0.7766 -0.3225
 8928SOL     OW38419   2.924   0.381   2.320  0.1056  0.3256  0.0068
 8928SOL    HW138420   3.004   0.408   2.275  0.1397 -1.5688 -1.0711
 8928SOL    HW238421   2.937   0.394   2.414 -0.0367 -0.8680  0.2015
 8929SOL     OW38422   0.081   2.510   4.399  0.0160  0.4836 -0.3049
 8929SOL    HW138423   0.089   2.541   4.489 -1.7241  0.4110 -0.1298
 8929SOL    HW238424   0.017   2.439   4.406  1.7928 -1.3060 -2.0385
 8930SOL     OW38425   3.250   4.563   3.267 -0.2823 -0.0209 -0.0209
 8930SOL    HW138426   3.312   4.613   3.319 -0.5486  0.7407 -0.4372
 8930SOL    HW238427   3.267   4.474   3.298 -2.8664  0.0980  1.7374
 8931SOL     OW38428   2.046   2.456  14.518  0.2976 -0.4298 -0.2662
 8931SOL    HW138429   1.985   2.454  14.444 -0.6244 -2.2628  0.5415
 8931SOL    HW238430   1.998   2.475  14.598 -2.7801 -3.1368 -1.4691
 8932SOL     OW38431   3.416   2.620   9.788  0.0964 -0.2911  0.1420
 8932SOL    HW138432   3.432   2.560   9.715  1.6825 -0.5750  0.7260
 8932SOL    HW238433   3.395   2.559   9.859  0.6207  1.0380  1.4339
 8933SOL     OW38434   1.663   2.210   4.279 -0.7861  0.1159  0.1539
 8933SOL    HW138435   1.651   2.182   4.188 -0.3618  0.7993 -0.1129
 8933SOL    HW238436   1.597   2.154   4.321 -1.2007 -1.0003 -1.9722
 8934SOL     OW38437   2.248   1.668   2.964  0.1866  0.5823  0.2969
 8934SOL    HW138438   2.262   1.593   2.906  1.0887 -1.9581  3.8202
 8934SOL    HW238439   2.319   1.665   3.028  0.4202 -0.4286  0.0030
 8935SOL     OW38440   1.569   0.916   4.829  0.0365  0.0445 -0.6608
 8935SOL    HW138441   1.618   0.998   4.838 -1.3110  0.7546  0.2306
 8935SOL    HW238442   1.585   0.867   4.910 -0.6446 -0.4635 -0.8320
 8936SOL     OW38443   3.552   3.912   6.353 -0.7166 -0.5069  0.8567
 8936SOL    HW138444   3.477   3.970   6.338  0.4569  0.9145  0.5092
 8936SOL    HW238445   3.582   3.948   6.436 -0.0756  0.0914  0.3705
 8937SOL     OW38446   1.804   1.558   4.820  0.3902  0.5691 -0.3911
 8937SOL    HW138447   1.740   1.498   4.859  1.3416 -0.3097 -0.1637
 8937SOL    HW238448   1.758   1.608   4.753 -0.3703  0.1277 -0.1959
 8938SOL     OW38449   3.184   3.412  11.242  0.1453  0.2370 -0.7555
 8938SOL    HW138450   3.198   3.468  11.166  0.6371  1.4698  0.2373
 8938SOL    HW238451   3.256   3.354  11.218 -1.1181 -0.8911 -1.8205
 8939SOL     OW38452   2.275   1.869   4.539 -0.0753 -0.6639 -0.4376
 8939SOL    HW138453   2.265   1.774   4.533 -0.2087 -0.8856  3.0560
 8939SOL    HW238454   2.187   1.903   4.553  0.3035 -0.0986  0.6031
 8940SOL     OW38455   1.189   1.508   4.201 -0.4514 -0.9194 -0.4989
 8940SOL    HW138456   1.240   1.570   4.149 -0.8101 -0.0139  0.2232
 8940SOL    HW238457   1.230   1.513   4.287 -0.6375  0.2034 -0.4735
 8941SOL     OW38458   4.663   1.067  14.403 -0.4073 -0.3547  0.3003
 8941SOL    HW138459   4.706   1.016  14.335  0.7464 -0.4772  1.1322
 8941SOL    HW238460   4.687   1.156  14.378 -0.3989 -0.9124 -1.6857
 8942SOL     OW38461   2.079   3.903   4.460 -0.2206 -0.0582 -0.1586
 8942SOL    HW138462   2.005   3.851   4.427 -1.8684  0.2716  3.0533
 8942SOL    HW238463   2.032   3.986   4.460 -1.6607 -0.8805  0.1626
 8943SOL     OW38464   4.539   1.077   8.900  0.3054  0.4314  0.0243
 8943SOL    HW138465   4.586   1.017   8.959  0.1980 -0.6479 -0.9792
 8943SOL    HW238466   4.520   1.143   8.967 -0.6549  0.2643 -0.0841
 8944SOL     OW38467   3.254   1.782   9.215  0.2634 -0.1272  0.1868
 8944SOL    HW138468   3.207   1.699   9.211  0.0791 -0.0918  1.4941
 8944SOL    HW238469   3.338   1.758   9.254  0.7952  0.4989 -0.5719
 8945SOL     OW38470   3.733   1.663   9.115  0.0786 -0.2474  0.0035
 8945SOL    HW138471   3.823   1.680   9.143  0.3274 -0.1790 -0.8515
 8945SOL    HW238472   3.700   1.748   9.085 -1.5276 -0.2446  1.7702
 8946SOL     OW38473   0.682   0.720   6.350  0.0161 -0.2220 -0.6009
 8946SOL    HW138474   0.770   0.730   6.386 -0.1249 -3.2811  0.6525
 8946SOL    HW238475   0.664   0.627   6.366  0.5027  0.2562  2.8574
 8947SOL     OW38476   1.901   0.366  16.422  0.1578 -0.0994 -0.2287
 8947SOL    HW138477   1.952   0.302  16.373  0.1768  1.9837 -2.9117
 8947SOL    HW238478   1.813   0.328  16.415 -0.2129  1.2205 -2.7487
 8948SOL     OW38479   1.094   0.967   0.847  0.7379 -0.2973  0.0396
 8948SOL    HW138480   1.049   0.924   0.920 -1.0666 -0.6631 -1.2991
 8948SOL    HW238481   1.129   1.044   0.893 -0.3159  0.1079  0.1756
 8949SOL     OW38482   3.365   2.428  10.930 -0.2156 -0.2139 -0.6033
 8949SOL    HW138483   3.395   2.436  10.840 -0.7962  0.6508 -0.7201
 8949SOL    HW238484   3.443   2.448  10.982 -0.7421 -1.1777  0.5911
 8950SOL     OW38485   3.773   2.515   4.046  0.2683  0.1720  0.6012
 8950SOL    HW138486   3.845   2.576   4.029 -0.6548  1.0264 -0.3015
 8950SOL    HW238487   3.763   2.524   4.141  0.1987 -2.8072  0.8772
 8951SOL     OW38488   4.473   2.031   1.912 -0.1653 -0.1707  0.5228
 8951SOL    HW138489   4.385   1.995   1.906 -0.7001  0.7905  2.3061
 8951SOL    HW238490   4.485   2.033   2.007  1.8850 -1.4774  0.3055
 8952SOL     OW38491   0.140   4.076   3.215 -0.5976  0.1256  0.0281
 8952SOL    HW138492   0.099   4.071   3.301 -0.2325 -1.0236  0.1430
 8952SOL    HW238493   0.139   3.986   3.181  3.5825  0.9459 -2.2790
 8953SOL     OW38494   0.487   1.835   3.220  1.0596 -0.2284  0.4324
 8953SOL    HW138495   0.539   1.895   3.168 -1.5499  1.0793 -0.6882
 8953SOL    HW238496   0.493   1.883   3.302 -0.1957  2.0976 -0.8543
 8954SOL     OW38497   3.140   1.013   9.669 -0.4922  0.0090 -0.4100
 8954SOL    HW138498   3.179   0.954   9.605 -2.2247 -0.1336 -1.3162
 8954SOL    HW238499   3.197   0.987   9.742  0.0910 -0.4826 -1.0436
 8955SOL     OW38500   3.630   4.191   7.173 -0.1217 -0.1222 -0.1407
 8955SOL    HW138501   3.576   4.128   7.220 -0.0908 -0.0546 -0.0128
 8955SOL    HW238502   3.570   4.224   7.107  1.0976  1.2902 -0.5478
 8956SOL     OW38503   1.710   3.871   0.588 -0.1757 -0.3478 -0.0061
 8956SOL    HW138504   1.622   3.863   0.551  0.0585  0.2000 -0.6837
 8956SOL    HW238505   1.742   3.783   0.570  0.3848 -0.6269  2.3004
 8957SOL     OW38506   0.414   0.249   7.952  0.7651 -0.3270  0.0188
 8957SOL    HW138507   0.441   0.177   8.009  0.1151 -0.7144 -0.1659
 8957SOL    HW238508   0.388   0.308   8.022  1.8314  0.3719 -0.1740
 8958SOL     OW38509   3.008   3.891   6.149 -0.1793 -0.0857 -0.0867
 8958SOL    HW138510   2.935   3.869   6.090 -1.1391  2.1999  0.2632
 8958SOL    HW238511   3.076   3.828   6.125  1.1831  1.0314  0.8873
 8959SOL     OW38512   2.601   3.879   3.684 -0.3399 -0.2340 -0.0460
 8959SOL    HW138513   2.607   3.790   3.650  0.3890 -1.0727  2.2666
 8959SOL    HW238514   2.541   3.919   3.620 -1.4409 -0.6315  0.7386
 8960SOL     OW38515   2.801   4.458  14.893  0.2444 -0.0602 -0.2321
 8960SOL    HW138516   2.744   4.406  14.835  0.0668 -1.2876  1.0589
 8960SOL    HW238517   2.752   4.540  14.893 -0.0906 -0.2632  0.1994
 8961SOL     OW38518   0.865   4.728   0.164 -0.4249 -0.2784 -0.0796
 8961SOL    HW138519   0.876   0.057   0.095 -0.0900 -0.1707  0.0754
 8961SOL    HW238520   0.770   4.726   0.170 -0.4298  0.2757  0.0259
 8962SOL     OW38521   4.555   1.751  10.337 -0.2903 -0.6803  0.3570
 8962SOL    HW138522   4.518   1.757  10.425 -1.9481  0.7244 -0.4523
 8962SOL    HW238523   4.492   1.796  10.281  0.9792  0.6883  0.0365
 8963SOL     OW38524   2.710   0.752  15.794  0.2570 -0.4261  0.1509
 8963SOL    HW138525   2.768   0.828  15.787 -0.2086 -0.3907 -3.1260
 8963SOL    HW238526   2.640   0.797  15.841  1.5678  0.4040  1.3035
 8964SOL     OW38527   0.417   4.235  17.519  0.1959  0.6029  0.2105
 8964SOL    HW138528   0.403   4.141  17.509  0.2465  0.5775  0.3740
 8964SOL    HW238529   0.341   4.262  17.570 -0.2060  0.1016 -0.1228
 8965SOL     OW38530   2.432   3.986   4.857 -0.0932 -0.7330  0.3451
 8965SOL    HW138531   2.386   3.928   4.796 -0.1580 -0.1305 -0.1729
 8965SOL    HW238532   2.524   3.959   4.857 -0.3843 -1.7227  0.4402
 8966SOL     OW38533   1.493   4.418  12.091 -0.3174  0.0320 -0.5406
 8966SOL    HW138534   1.407   4.420  12.048 -0.5336 -0.0281 -0.1042
 8966SOL    HW238535   1.545   4.456  12.020 -1.4286 -2.2212 -2.5807
 8967SOL     OW38536   0.918   4.576  16.636 -0.0595 -0.5570 -0.2380
 8967SOL    HW138537   0.971   4.652  16.660 -0.2667 -0.0701 -1.3126
 8967SOL    HW238538   0.980   4.509  16.663  0.0171 -0.8408 -1.1065
 8968SOL     OW38539   2.253   0.373   1.830  0.1024  0.5020  0.3157
 8968SOL    HW138540   2.330   0.429   1.822  1.6773 -1.8276 -0.7822
 8968SOL    HW238541   2.191   0.436   1.869 -2.2100 -0.6678 -1.4555
 8969SOL     OW38542   2.968   4.700   6.386 -0.2244 -0.1785  0.0774
 8969SOL    HW138543   2.956   4.616   6.342  3.4644 -1.2415  1.0637
 8969SOL    HW238544   3.047   4.724   6.337  0.0886 -4.0075 -1.2520
 8970SOL     OW38545   1.621   4.440   5.009 -0.4922 -0.2756 -0.1121
 8970SOL    HW138546   1.606   4.480   5.094 -0.1970  2.5582 -1.3873
 8970SOL    HW238547   1.699   4.387   5.026 -1.0485 -1.5643 -1.5399
 8971SOL     OW38548   1.432   3.062  11.710 -0.2238  0.0311  0.3150
 8971SOL    HW138549   1.357   3.121  11.709 -0.5173 -0.3507 -0.0019
 8971SOL    HW238550   1.420   3.000  11.782  1.4209 -2.7734 -1.8249
 8972SOL     OW38551   1.250   1.477   4.872 -0.2238 -0.3259  0.1397
 8972SOL    HW138552   1.256   1.422   4.794  0.3128 -2.4845  1.6647
 8972SOL    HW238553   1.215   1.409   4.930 -1.1369 -0.7188 -0.8700
 8973SOL     OW38554   1.822   2.618  17.534 -0.4889 -0.4842 -0.3057
 8973SOL    HW138555   1.768   2.692  17.562  0.8155 -0.2893  1.6883
 8973SOL    HW238556   1.793   2.605  17.444  1.5511 -0.4920 -0.9478
 8974SOL     OW38557   0.548   1.823   1.325 -0.4340 -0.3445 -0.1476
 8974SOL    HW138558   0.553   1.897   1.385  0.5784 -0.6679  0.1649
 8974SOL    HW238559   0.585   1.865   1.247  2.1309 -0.4013  1.0453
 8975SOL     OW38560   0.412   4.397  15.241  0.1764  0.4032 -0.1983
 8975SOL    HW138561   0.320   4.412  15.219  0.7381  2.9464 -0.8234
 8975SOL    HW238562   0.431   4.481  15.200 -0.0656  0.4287 -0.2580
 8976SOL     OW38563   4.688   3.092   9.204  0.1597  0.4895 -0.2460
 8976SOL    HW138564   4.603   3.088   9.161  0.8630 -1.1622 -1.4860
 8976SOL    HW238565   4.694   3.012   9.255 -0.2051  0.8158  0.3066
 8977SOL     OW38566   1.222   0.511   7.778  0.3125  0.5467 -0.0790
 8977SOL    HW138567   1.143   0.465   7.750  1.8568 -3.6553  2.4179
 8977SOL    HW238568   1.220   0.589   7.722 -1.0743 -0.9285 -2.0529
 8978SOL     OW38569   1.164   3.296   1.703  0.2481 -0.3160  0.1487
 8978SOL    HW138570   1.151   3.272   1.795 -0.3026 -3.2131 -0.6748
 8978SOL    HW238571   1.171   3.207   1.668  0.1898 -0.1187 -0.3689
 8979SOL     OW38572   1.640   2.442   9.319 -0.0956 -0.3862  0.2258
 8979SOL    HW138573   1.680   2.524   9.289  0.5271 -1.0899 -0.8671
 8979SOL    HW238574   1.715   2.392   9.350 -0.9398 -1.2152  0.9300
 8980SOL     OW38575   0.508   3.286   2.133 -0.4008  0.0615 -0.0716
 8980SOL    HW138576   0.514   3.193   2.110  2.4589  0.1807  0.2118
 8980SOL    HW238577   0.477   3.325   2.051 -0.3682  1.3311  0.5310
 8981SOL     OW38578   1.789   2.239   9.397 -0.0216 -0.2023  0.3181
 8981SOL    HW138579   1.874   2.206   9.367 -0.9628 -0.7237 -1.7698
 8981SOL    HW238580   1.732   2.168   9.369  0.1455 -0.8370  1.5545
 8982SOL     OW38581   2.045   3.236   4.606  0.0057 -0.0453  0.4031
 8982SOL    HW138582   2.137   3.263   4.614 -0.1148 -0.2184  2.5843
 8982SOL    HW238583   2.022   3.313   4.555 -1.8507 -1.0769 -0.3127
 8983SOL     OW38584   4.070   3.680  17.135 -0.3354  0.3106 -0.1653
 8983SOL    HW138585   4.013   3.744  17.091  0.8757  0.8467 -0.9435
 8983SOL    HW238586   4.050   3.682  17.228  0.9463  0.6542  0.0985
 8984SOL     OW38587   0.019   0.505   0.149 -0.3917  0.5482  0.0091
 8984SOL    HW138588   0.091   0.511   0.086  0.9002  0.8028  1.5300
 8984SOL    HW238589   0.027   0.589   0.194  0.0976  0.3570  0.2771
 8985SOL     OW38590   3.825   0.082   6.429 -0.2511  0.1552 -0.2457
 8985SOL    HW138591   3.859   4.735   6.397  1.1972  0.1748  1.2237
 8985SOL    HW238592   3.841   0.136   6.352  1.1204 -1.2528 -0.9526
 8986SOL     OW38593   2.353   1.617   8.953  0.1880  0.0281 -0.1947
 8986SOL    HW138594   2.401   1.545   8.913  0.9521 -1.1661  2.8446
 8986SOL    HW238595   2.304   1.657   8.881  0.7713  0.1065 -0.5441
 8987SOL     OW38596   2.837   2.773  14.282  0.5828 -0.3083 -0.4862
 8987SOL    HW138597   2.820   2.742  14.193 -0.7031 -0.3663 -0.2250
 8987SOL    HW238598   2.802   2.860  14.267 -1.3298 -1.1250 -0.7823
 8988SOL     OW38599   4.296   2.353   8.855 -0.2333 -0.0353  0.3962
 8988SOL    HW138600   4.292   2.354   8.951 -0.0229  1.1861  0.3985
 8988SOL    HW238601   4.254   2.268   8.846 -1.7192  0.5872  1.4786
 8989SOL     OW38602   1.237   2.838  10.835  0.4718 -0.1572  0.5943
 8989SOL    HW138603   1.313   2.787  10.806  0.0531 -0.5301  0.1646
 8989SOL    HW238604   1.285   2.894  10.896 -1.1477  0.9562  0.8227
 8990SOL     OW38605   2.986   3.063   3.740  0.0972  0.3493 -0.3282
 8990SOL    HW138606   3.046   2.992   3.718 -1.5801 -0.6527 -1.5932
 8990SOL    HW238607   3.046   3.133   3.768 -0.5296  0.9813 -0.5697
 8991SOL     OW38608   3.810   1.107  13.754  0.3784 -0.0423 -0.2719
 8991SOL    HW138609   3.814   1.192  13.711  3.5818 -0.0565 -0.0254
 8991SOL    HW238610   3.716   1.089  13.756  0.5056 -0.6785  0.1047
 8992SOL     OW38611   0.268   4.038   1.925  0.1042  0.2840 -0.0608
 8992SOL    HW138612   0.178   4.027   1.954 -0.1784 -0.6081 -1.3210
 8992SOL    HW238613   0.313   3.954   1.930  1.4310  1.0094  0.2296
 8993SOL     OW38614   3.657   2.832  10.077  0.0304  0.3136 -1.0017
 8993SOL    HW138615   3.746   2.857  10.101 -0.8209  3.1249 -0.7429
 8993SOL    HW238616   3.607   2.869  10.150  1.7834 -0.1469  0.4075
 8994SOL     OW38617   1.558   2.386   3.245  0.1852  0.1045 -0.0529
 8994SOL    HW138618   1.597   2.301   3.268  2.1847  1.2872  0.9096
 8994SOL    HW238619   1.562   2.429   3.330 -0.0345  0.9853 -0.4950
 8995SOL     OW38620   4.299   1.488   8.306  0.0983  0.3623 -0.1547
 8995SOL    HW138621   4.318   1.529   8.222  1.7047  0.2216  0.1430
 8995SOL    HW238622   4.243   1.416   8.276  0.2715  0.7468 -1.4104
 8996SOL     OW38623   0.125   1.401   1.257 -0.0848  0.5864 -0.2067
 8996SOL    HW138624   0.204   1.447   1.286  0.0722  1.4068 -1.9154
 8996SOL    HW238625   0.170   1.356   1.185  1.4713  0.2828  0.9633
 8997SOL     OW38626   4.461   4.701   1.855 -0.3913  0.4688  0.8971
 8997SOL    HW138627   4.416   4.716   1.938  0.5591 -0.5686  1.6060
 8997SOL    HW238628   4.412   4.630   1.813 -0.1260  0.8414 -0.0330
 8998SOL     OW38629   2.987   4.405  15.073 -0.2477 -0.1702  0.2098
 8998SOL    HW138630   2.993   4.315  15.107 -0.7154 -0.6723 -1.0436
 8998SOL    HW238631   2.905   4.406  15.023  0.0694 -0.0521 -0.2936
 8999SOL     OW38632   3.046   4.221  15.544  0.0296  0.1920 -0.6840
 8999SOL    HW138633   3.015   4.307  15.570 -1.6242 -1.1540  1.7638
 8999SOL    HW238634   2.978   4.161  15.575  0.2702  0.9866  1.4017
 9000SOL     OW38635   3.067   3.272   8.451 -0.4069  0.0227 -0.1196
 9000SOL    HW138636   3.026   3.266   8.364  0.0970 -0.0597 -0.3487
 9000SOL    HW238637   3.037   3.195   8.500 -1.1784 -1.9976 -3.7758
 9001SOL     OW38638   4.677   3.925   0.675 -0.0742 -0.3031  0.3047
 9001SOL    HW138639   0.008   3.896   0.614  0.1705  1.1117 -0.0891
 9001SOL    HW238640   4.619   3.970   0.614  0.0962 -0.7545 -0.1864
 9002SOL     OW38641   2.064   2.798  10.102 -0.2098  0.4577  0.1121
 9002SOL    HW138642   2.050   2.787  10.196 -0.3560  0.6533  0.1122
 9002SOL    HW238643   2.133   2.733  10.087  0.5955  1.4913 -0.6548
 9003SOL     OW38644   1.975   1.805   3.940  0.3114  0.0716  0.0566
 9003SOL    HW138645   1.898   1.829   3.992  1.1704  0.2071  1.2429
 9003SOL    HW238646   2.047   1.791   4.000 -0.3282 -0.9662  0.5815
 9004SOL     OW38647   4.192   3.778  13.982 -0.0896  0.4360 -0.1033
 9004SOL    HW138648   4.242   3.805  13.905 -2.8486  3.8082 -0.7327
 9004SOL    HW238649   4.226   3.833  14.052  0.5035 -2.3820  1.8299
 9005SOL     OW38650   1.354   3.150   4.702  0.1004  0.1988  0.4125
 9005SOL    HW138651   1.267   3.154   4.743 -0.0749  1.0737 -0.0470
 9005SOL    HW238652   1.372   3.057   4.687 -1.8886 -0.2170  0.5609
 9006SOL     OW38653   2.956   0.695   5.704  0.1027 -0.3938  0.3402
 9006SOL    HW138654   2.937   0.786   5.727 -1.4424 -0.1503 -1.9042
 9006SOL    HW238655   3.034   0.705   5.649 -1.1051 -0.2711 -1.3647
 9007SOL     OW38656   2.817   3.336   4.956 -0.3353  0.1753 -0.1766
 9007SOL    HW138657   2.732   3.315   4.917  0.6260 -1.3568 -1.4599
 9007SOL    HW238658   2.800   3.315   5.048 -2.2518  1.8330 -0.1450
 9008SOL     OW38659   1.191   0.811   3.404  0.6115  0.1889  0.3424
 9008SOL    HW138660   1.163   0.900   3.382  3.1040  0.7336 -0.5282
 9008SOL    HW238661   1.240   0.831   3.484  1.0178  1.3179 -0.1952
 9009SOL     OW38662   2.545   3.040   4.210  0.0744 -0.0734  0.1194
 9009SOL    HW138663   2.562   3.124   4.169 -1.1800 -0.5585 -1.3771
 9009SOL    HW238664   2.583   3.057   4.296 -0.2334  0.4414  0.1564
 9010SOL     OW38665   4.040   0.045   8.922  0.0493  0.2226  0.1964
 9010SOL    HW138666   4.025   4.710   8.859  0.8479  1.3182 -1.2393
 9010SOL    HW238667   3.952   0.051   8.958  0.7131 -0.7289  1.9592
 9011SOL     OW38668   1.985   4.596  17.327 -0.4913  0.0893 -0.1107
 9011SOL    HW138669   2.062   4.539  17.321 -1.0441 -0.6147 -0.4913
 9011SOL    HW238670   2.023   4.671  17.373 -0.8644  1.0189 -1.3245
 9012SOL     OW38671   0.419   4.325   7.876 -0.0091  0.0220 -0.8595
 9012SOL    HW138672   0.467   4.341   7.795  1.1190 -0.6120 -0.3237
 9012SOL    HW238673   0.398   4.418   7.884  1.0592 -0.0642  3.0689
 9013SOL     OW38674   4.183   3.288   5.016  0.1145 -0.0003  0.2376
 9013SOL    HW138675   4.216   3.219   5.073  2.1045 -0.1172 -1.0647
 9013SOL    HW238676   4.219   3.366   5.057 -1.3131  0.4055  0.7324
 9014SOL     OW38677   1.045   0.031   2.516 -0.4586 -0.5082  0.4860
 9014SOL    HW138678   1.092   0.038   2.599  1.7136  0.5061 -0.8401
 9014SOL    HW238679   1.019   0.120   2.494 -0.4700 -0.1972  1.7709
 9015SOL     OW38680   4.138   3.835   8.583 -0.2232 -0.0458 -0.8800
 9015SOL    HW138681   4.138   3.931   8.578 -0.7625  0.0225  0.3787
 9015SOL    HW238682   4.230   3.825   8.558 -0.0776 -1.9513  0.4136
 9016SOL     OW38683   3.002   4.709   8.371 -0.7486  0.1128 -0.0367
 9016SOL    HW138684   2.947   4.650   8.422 -0.1051 -0.5821 -0.1420
 9016SOL    HW238685   3.084   4.666   8.398 -1.7205 -1.3166  0.6126
 9017SOL     OW38686   3.473   3.187   2.637 -0.0596  0.2112 -0.4939
 9017SOL    HW138687   3.416   3.127   2.686  1.6524 -0.3668  0.7983
 9017SOL    HW238688   3.542   3.126   2.610 -0.6702 -0.0368 -1.4924
 9018SOL     OW38689   2.601   0.221   4.701  0.0196  0.2174  0.1280
 9018SOL    HW138690   2.527   0.198   4.645  0.3880 -3.6489  1.2650
 9018SOL    HW238691   2.578   0.150   4.761 -0.2999  1.3385  1.3385
 9019SOL     OW38692   3.281   3.567   3.917  0.2040 -0.0159  0.0730
 9019SOL    HW138693   3.196   3.575   3.959 -0.3562 -0.6216 -0.9678
 9019SOL    HW238694   3.305   3.658   3.899 -0.8868 -0.0759 -1.7058
 9020SOL     OW38695   2.061   4.099   2.954 -0.2145 -0.3224 -1.0621
 9020SOL    HW138696   2.051   4.152   2.874  1.2641  2.4740  0.5920
 9020SOL    HW238697   2.155   4.084   2.962 -0.3117 -1.1690 -1.5339
 9021SOL     OW38698   0.924   3.018   7.566  0.0376  0.0809  0.4749
 9021SOL    HW138699   0.997   3.015   7.503 -0.8896 -3.3858 -0.4100
 9021SOL    HW238700   0.846   3.028   7.510 -1.4536 -1.8272  2.2510
 9022SOL     OW38701   4.403   0.105   5.040  0.5837 -0.4756  0.2017
 9022SOL    HW138702   4.414   0.147   4.955  0.2061 -2.6589 -0.9211
 9022SOL    HW238703   4.409   0.014   5.013  1.3158  0.0526 -1.3787
 9023SOL     OW38704   1.425   2.335   2.141  0.4971  0.4913  0.2325
 9023SOL    HW138705   1.348   2.354   2.194  1.2962 -1.1269  1.9800
 9023SOL    HW238706   1.487   2.312   2.210  1.4709  1.4326 -0.3132
 9024SOL     OW38707   3.551   3.681   3.664  0.6028 -0.0587 -0.5363
 9024SOL    HW138708   3.477   3.674   3.603  1.3571 -2.8176 -1.1307
 9024SOL    HW238709   3.532   3.768   3.700  1.0928 -0.1472 -0.0594
 9025SOL     OW38710   0.150   0.774   0.220 -0.1547 -0.1897 -0.0738
 9025SOL    HW138711   0.194   0.703   0.267 -0.5563 -0.2790  0.1655
 9025SOL    HW238712   0.222   0.813   0.171  0.6461  0.1903  1.4169
 9026SOL     OW38713   2.782   4.684   2.754  0.3038  0.0278 -0.3483
 9026SOL    HW138714   2.805   4.715   2.841 -2.7020  1.3747 -0.0470
 9026SOL    HW238715   2.698   4.727   2.738  1.1607  1.0697 -2.0700
 9027SOL     OW38716   0.150   3.722  13.484  0.3444 -0.7274 -0.4009
 9027SOL    HW138717   0.177   3.667  13.410  0.2260 -1.7519  0.3162
 9027SOL    HW238718   0.149   3.664  13.560 -0.4654  0.8300  0.7652
 9028SOL     OW38719   2.901   0.766   2.577 -0.1287 -0.1797  0.4554
 9028SOL    HW138720   2.900   0.677   2.543  1.5399 -0.0416  0.0494
 9028SOL    HW238721   2.952   0.749   2.656 -0.6749  0.4110  0.9395
 9029SOL     OW38722   2.933   2.465   3.945  0.1049  0.0687 -0.6288
 9029SOL    HW138723   2.879   2.418   3.880 -0.5839  1.8916 -1.3777
 9029SOL    HW238724   2.908   2.421   4.026  0.0274  0.4197 -0.4634
 9030SOL     OW38725   3.454   3.997   9.530  0.3383 -0.5667  0.5738
 9030SOL    HW138726   3.445   3.949   9.612 -2.1033 -0.9136  0.0972
 9030SOL    HW238727   3.493   3.927   9.478 -0.6711 -0.4580 -0.3243
 9031SOL     OW38728   1.198   4.138   5.331  0.3567 -0.3062 -0.1777
 9031SOL    HW138729   1.195   4.078   5.256 -1.1595  0.9903 -1.1439
 9031SOL    HW238730   1.219   4.216   5.279  1.1660 -1.4017 -1.5049
 9032SOL     OW38731   1.433   4.275  17.160 -0.4083 -0.6157  0.1262
 9032SOL    HW138732   1.509   4.328  17.139  0.1102 -0.9176  1.1967
 9032SOL    HW238733   1.459   4.243  17.247  0.6449  0.5033  0.2196
 9033SOL     OW38734   4.433   3.056   1.582  0.4853  0.2431  0.5585
 9033SOL    HW138735   4.409   2.983   1.525  0.4122 -1.1607  2.4059
 9033SOL    HW238736   4.363   3.115   1.556 -0.0693 -1.8094 -2.5962
 9034SOL     OW38737   2.351   3.191  12.755 -0.3223  0.2385 -0.0605
 9034SOL    HW138738   2.420   3.134  12.720 -2.1098 -1.3145 -1.0484
 9034SOL    HW238739   2.294   3.200  12.679  0.7606 -1.4918 -1.0927
 9035SOL     OW38740   4.511   2.240   5.686  0.3725  0.5602 -0.1741
 9035SOL    HW138741   4.455   2.233   5.764  1.0172  1.5981  0.3821
 9035SOL    HW238742   4.600   2.244   5.722  1.0336 -0.8595 -1.6511
 9036SOL     OW38743   1.171   2.507   5.997 -0.0954 -0.1657  0.0955
 9036SOL    HW138744   1.077   2.492   6.006  0.0371 -1.6905 -1.0509
 9036SOL    HW238745   1.196   2.532   6.086  0.8799 -2.0391  0.3494
 9037SOL     OW38746   2.105   1.321   5.318  0.2232  0.0794 -0.2440
 9037SOL    HW138747   2.094   1.293   5.408 -1.2412  1.7325  0.0933
 9037SOL    HW238748   2.022   1.370   5.312 -0.4462 -0.9527  0.7815
 9038SOL     OW38749   2.847   0.972   0.424 -0.7463  0.7516 -1.0224
 9038SOL    HW138750   2.890   0.949   0.342  1.2483  0.6047  0.0563
 9038SOL    HW238751   2.877   0.907   0.488  0.1258  3.4994  1.3565
 9039SOL     OW38752   0.932   0.125  11.726 -0.5414 -0.1956 -0.0828
 9039SOL    HW138753   0.892   0.146  11.642 -1.4110 -1.2472  0.0615
 9039SOL    HW238754   1.019   0.162  11.713 -0.5477 -0.3280 -0.4867
 9040SOL     OW38755   4.565   2.585   7.392  0.0352  0.1976  0.4081
 9040SOL    HW138756   4.557   2.668   7.346  0.3015  0.6489  1.1740
 9040SOL    HW238757   4.488   2.584   7.449  0.8985  1.0343  1.6027
 9041SOL     OW38758   4.002   3.754  12.025  0.2456  0.4064  0.5744
 9041SOL    HW138759   3.945   3.818  11.982 -1.2599  0.0533  2.0474
 9041SOL    HW238760   4.085   3.751  11.976 -1.1757  0.6211 -1.8193
 9042SOL     OW38761   1.656   2.194   7.132 -0.2850  0.0223  0.8783
 9042SOL    HW138762   1.699   2.271   7.094 -0.3534 -0.7402 -0.7419
 9042SOL    HW238763   1.587   2.236   7.182 -1.0296 -0.1402 -0.0142
 9043SOL     OW38764   1.604   2.332  11.527 -0.0329 -0.5094 -0.7355
 9043SOL    HW138765   1.528   2.319  11.470  0.5106 -0.3795 -1.4938
 9043SOL    HW238766   1.683   2.338  11.473 -0.2311 -0.0936 -0.9754
 9044SOL     OW38767   2.744   3.291   2.099  0.1499  0.6131  0.7166
 9044SOL    HW138768   2.810   3.337   2.150  1.5725 -1.0943  0.4335
 9044SOL    HW238769   2.721   3.223   2.163  2.2782 -1.2110 -0.4648
 9045SOL     OW38770   4.732   4.155  13.594 -0.3621 -0.8995  0.1999
 9045SOL    HW138771   0.079   4.154  13.641 -0.0780 -0.3946 -0.2963
 9045SOL    HW238772   0.019   4.165  13.502 -1.2923 -1.9286 -0.1428
 9046SOL     OW38773   2.784   0.838   4.930 -0.2547 -0.4159  0.3137
 9046SOL    HW138774   2.872   0.874   4.940 -0.4627  0.6488 -1.7065
 9046SOL    HW238775   2.739   0.900   4.988  0.5827  0.9971 -0.5446
 9047SOL     OW38776   0.644   4.065  15.337 -0.4083  0.1821 -0.7206
 9047SOL    HW138777   0.720   4.026  15.380 -0.5092  0.4527 -0.2912
 9047SOL    HW238778   0.598   4.110  15.409 -1.0028 -0.2508 -0.8335
 9048SOL     OW38779   2.571   0.295   1.166 -0.0937 -0.0060 -0.1156
 9048SOL    HW138780   2.545   0.204   1.183  0.3226 -0.2781 -0.9338
 9048SOL    HW238781   2.564   0.314   1.072  1.2340  0.8832 -0.0355
 9049SOL     OW38782   4.106   2.968   2.312  0.5182  0.4359 -0.7806
 9049SOL    HW138783   4.056   3.029   2.257 -2.9639 -0.3386  1.5669
 9049SOL    HW238784   4.050   2.891   2.310  0.2552  0.6398 -1.1580
 9050SOL     OW38785   1.419   2.844   6.926 -0.1757 -0.4916 -0.0510
 9050SOL    HW138786   1.386   2.808   7.008  2.3567 -0.6137  0.9228
 9050SOL    HW238787   1.415   2.939   6.925  1.4610 -0.4219  0.4675
 9051SOL     OW38788   3.913   3.558   4.545 -0.2289  0.0566 -0.3145
 9051SOL    HW138789   3.967   3.556   4.624  0.3493 -0.6757 -0.7255
 9051SOL    HW238790   3.868   3.642   4.550 -1.2799 -0.6088  1.2952
 9052SOL     OW38791   3.197   1.711   9.510  0.4614 -0.0289 -0.4245
 9052SOL    HW138792   3.282   1.689   9.471 -1.1692 -0.7583 -3.5621
 9052SOL    HW238793   3.226   1.744   9.595 -0.3965 -2.2148  0.7369
 9053SOL     OW38794   3.966   2.883   8.777 -0.2446 -0.0427 -0.0057
 9053SOL    HW138795   3.910   2.948   8.736 -1.4367  0.7732  2.8691
 9053SOL    HW238796   4.024   2.932   8.836 -0.0547 -2.3177  1.7257
 9054SOL     OW38797   0.753   4.331   9.008  0.0196  0.2839 -0.4126
 9054SOL    HW138798   0.777   4.289   8.926 -0.5656 -1.5599  0.3646
 9054SOL    HW238799   0.678   4.280   9.038 -0.0026  0.4298 -0.2139
 9055SOL     OW38800   3.416   3.350  17.660 -0.3057  0.7634  0.1714
 9055SOL    HW138801   3.411   3.421  17.595 -0.7758 -1.9182 -2.7010
 9055SOL    HW238802   3.389   3.268  17.620  1.3158  1.9150 -3.2444
 9056SOL     OW38803   4.620   2.127   8.956 -0.1712 -0.3248 -0.2951
 9056SOL    HW138804   4.591   2.112   8.866  2.6387 -1.6021 -0.9769
 9056SOL    HW238805   4.639   2.035   8.973 -0.5334 -0.1136  1.2604
 9057SOL     OW38806   3.261   4.336  13.701 -0.1223 -0.2736  0.5356
 9057SOL    HW138807   3.305   4.284  13.634  0.6584 -0.9108  1.5406
 9057SOL    HW238808   3.255   4.425  13.667  0.4792 -0.9279 -1.3067
 9058SOL     OW38809   1.570   3.255   8.196 -0.0140 -0.1762  0.3681
 9058SOL    HW138810   1.663   3.233   8.201  0.0314 -0.4793 -1.9092
 9058SOL    HW238811   1.538   3.242   8.285 -1.3224 -0.7248 -0.1888
 9059SOL     OW38812   0.661   4.357  10.686  0.0003 -0.3175 -0.1697
 9059SOL    HW138813   0.727   4.422  10.708  0.2924  0.2184 -2.6011
 9059SOL    HW238814   0.595   4.370  10.754  1.0807 -0.5947  0.9317
 9060SOL     OW38815   2.979   4.284   2.859 -0.0582 -0.1751 -0.0288
 9060SOL    HW138816   2.972   4.202   2.907 -1.0148 -0.1263 -0.0906
 9060SOL    HW238817   2.886   4.300   2.843 -0.1628  1.8077  2.4505
 9061SOL     OW38818   1.396   1.682   1.123  0.4008 -0.5251 -0.4096
 9061SOL    HW138819   1.419   1.599   1.166 -1.5654 -1.5800 -1.3957
 9061SOL    HW238820   1.409   1.742   1.197  1.3927 -0.4745 -0.6285
 9062SOL     OW38821   3.727   3.912   3.465  0.2759  0.1699  0.1170
 9062SOL    HW138822   3.729   3.967   3.387 -2.6723  0.1790  0.0626
 9062SOL    HW238823   3.672   3.962   3.526  0.0378 -0.7673  0.6781
 9063SOL     OW38824   2.558   2.388   5.497 -0.0753 -0.2477  0.0880
 9063SOL    HW138825   2.465   2.408   5.508  0.3391  1.5784  0.2984
 9063SOL    HW238826   2.574   2.342   5.580  2.8190  0.9172  0.1892
 9064SOL     OW38827   0.514   1.180   7.500 -0.0559 -0.1080 -0.7261
 9064SOL    HW138828   0.508   1.178   7.404 -1.0024  0.9565 -0.6880
 9064SOL    HW238829   0.455   1.254   7.514 -2.1567 -2.0858  1.0063
 9065SOL     OW38830   1.332   1.716   3.779 -0.0063 -0.8438 -0.4522
 9065SOL    HW138831   1.290   1.802   3.782 -1.8357 -1.6338 -2.9369
 9065SOL    HW238832   1.413   1.733   3.730  1.5670 -2.2185  1.6929
 9066SOL     OW38833   0.930   4.162   3.524  0.7129 -0.1938 -0.2837
 9066SOL    HW138834   0.881   4.170   3.606 -0.2382  0.1404 -0.8811
 9066SOL    HW238835   0.855   4.161   3.464 -0.2046 -0.9514  0.8761
 9067SOL     OW38836   2.243   4.418   4.891 -0.3870 -0.3422 -0.4738
 9067SOL    HW138837   2.213   4.337   4.933  1.1616 -0.5016  0.3132
 9067SOL    HW238838   2.214   4.485   4.953  2.8753  0.0755  0.5875
 9068SOL     OW38839   1.196   0.279   6.688 -0.4687 -0.3864  0.3456
 9068SOL    HW138840   1.166   0.330   6.763  0.9417 -1.7150  1.7928
 9068SOL    HW238841   1.127   0.215   6.673  1.1547 -1.9473 -0.4355
 9069SOL     OW38842   0.204   0.702   2.959 -0.3265  0.0819 -0.3248
 9069SOL    HW138843   0.214   0.625   3.014 -0.5784 -1.8282 -2.9403
 9069SOL    HW238844   0.226   0.760   3.032  2.9824 -0.5996 -0.7902
 9070SOL     OW38845   0.895   0.208   6.545 -0.1539 -0.1142 -0.0530
 9070SOL    HW138846   0.943   0.162   6.613  0.4053 -0.5168 -0.7284
 9070SOL    HW238847   0.965   0.253   6.498 -0.5525  0.2186 -0.3268
 9071SOL     OW38848   0.291   3.811   5.949 -0.4001 -0.0390  0.4551
 9071SOL    HW138849   0.208   3.774   5.978  0.3617 -0.0764  2.5850
 9071SOL    HW238850   0.269   3.846   5.863 -1.0754 -1.8652 -0.1190
 9072SOL     OW38851   1.032   0.785  12.199 -0.1421 -0.2981 -0.3673
 9072SOL    HW138852   0.968   0.799  12.269 -0.3165  0.4871 -0.6864
 9072SOL    HW238853   1.117   0.809  12.237 -0.3776  0.3222 -0.2338
 9073SOL     OW38854   3.769   3.997   0.314  0.1630  0.3885  0.3520
 9073SOL    HW138855   3.694   4.039   0.356 -0.5170  0.2084 -0.6752
 9073SOL    HW238856   3.844   4.032   0.360  0.4539 -0.8821  0.8496
 9074SOL     OW38857   2.389   0.899   4.666 -0.3417  0.1323  0.1674
 9074SOL    HW138858   2.332   0.869   4.595  0.9307  0.1938 -0.8852
 9074SOL    HW238859   2.473   0.875   4.628  0.0273 -0.5475  1.3827
 9075SOL     OW38860   2.196   1.658   8.506  0.1232 -0.2520 -0.0624
 9075SOL    HW138861   2.257   1.689   8.573 -0.7449  0.7359  0.2812
 9075SOL    HW238862   2.239   1.693   8.428  0.0702 -0.7818 -0.3229
 9076SOL     OW38863   2.564   2.954   2.468 -0.3701 -0.6226 -0.0130
 9076SOL    HW138864   2.546   2.995   2.553 -0.6402 -1.5847  0.4000
 9076SOL    HW238865   2.491   2.893   2.455  0.4202 -1.2717 -1.3451
 9077SOL     OW38866   2.838   1.590  12.072 -0.2067  0.2163  0.4936
 9077SOL    HW138867   2.748   1.566  12.093 -0.3642 -0.2506 -0.6608
 9077SOL    HW238868   2.865   1.507  12.033 -2.8550  0.0155 -0.9151
 9078SOL     OW38869   3.277   0.878   9.867  0.1267  0.1544 -0.8314
 9078SOL    HW138870   3.207   0.842   9.920  0.6467 -0.5820 -0.6489
 9078SOL    HW238871   3.331   0.799   9.867 -0.0772  0.0179  0.0507
 9079SOL     OW38872   3.809   3.199  15.111  0.9186  0.0237  0.2826
 9079SOL    HW138873   3.735   3.254  15.136  0.4007  0.0537 -1.2944
 9079SOL    HW238874   3.774   3.114  15.137  1.1835 -0.6254 -1.4935
 9080SOL     OW38875   3.203   0.298  16.528  0.6973  0.2747  0.3319
 9080SOL    HW138876   3.174   0.236  16.595  0.9870  1.7053  1.7767
 9080SOL    HW238877   3.239   0.363  16.588  0.8379 -0.6133  1.2184
 9081SOL     OW38878   1.220   2.280   2.382  0.6603 -0.2288 -0.3057
 9081SOL    HW138879   1.284   2.342   2.417  0.8119  0.2835 -1.4954
 9081SOL    HW238880   1.146   2.340   2.386  0.3954 -0.5095 -0.9670
 9082SOL     OW38881   0.571   1.999  10.370  0.0563 -0.2565 -0.0657
 9082SOL    HW138882   0.573   1.985  10.275 -3.3978 -0.3235 -0.1350
 9082SOL    HW238883   0.478   2.003  10.392  0.8984 -1.8948  3.6887
 9083SOL     OW38884   3.241   1.501   3.032 -0.1923 -0.5160  0.1796
 9083SOL    HW138885   3.259   1.579   3.085 -2.9923  0.7351 -0.7136
 9083SOL    HW238886   3.319   1.494   2.977 -0.2752  0.8731 -0.1090
 9084SOL     OW38887   4.364   2.409   9.579 -0.1690  0.3094 -0.4039
 9084SOL    HW138888   4.458   2.417   9.562  0.2421 -1.5926  0.8979
 9084SOL    HW238889   4.369   2.350   9.655  0.7389  2.0186  0.8562
 9085SOL     OW38890   3.639   2.648   3.196  0.1007  1.0369 -0.5217
 9085SOL    HW138891   3.621   2.573   3.139 -2.6822  0.0098  1.7168
 9085SOL    HW238892   3.556   2.694   3.205  0.0859  1.2526 -1.8261
 9086SOL     OW38893   1.446   0.634   8.624  0.4146  0.2919  0.4492
 9086SOL    HW138894   1.369   0.601   8.578 -0.4893  2.1281  0.6219
 9086SOL    HW238895   1.517   0.575   8.599  0.6762  0.6492  0.3316
 9087SOL     OW38896   3.887   0.757   7.879  0.4623  0.5711 -0.3715
 9087SOL    HW138897   3.950   0.793   7.942  0.0339  2.3699 -0.9766
 9087SOL    HW238898   3.806   0.775   7.926 -0.5197 -0.1948 -1.7839
 9088SOL     OW38899   4.076   1.844   9.953  0.1926  0.2915  0.2612
 9088SOL    HW138900   4.083   1.808  10.042  2.0860 -0.5132 -0.2210
 9088SOL    HW238901   4.098   1.763   9.909  1.5464  0.8009  0.0036
 9089SOL     OW38902   0.637   0.340   7.793 -0.7562  0.1455  0.5622
 9089SOL    HW138903   0.687   0.266   7.825 -1.2760  0.0756  1.2200
 9089SOL    HW238904   0.551   0.335   7.836 -0.4988  0.2630  1.0963
 9090SOL     OW38905   0.876   2.804   4.502  0.1182  0.6084  0.1546
 9090SOL    HW138906   0.898   2.841   4.416  1.0443  1.7579  0.8993
 9090SOL    HW238907   0.958   2.791   4.549 -0.4219  1.5255  1.3297
 9091SOL     OW38908   0.817   2.888   9.364 -0.1964 -0.1200 -0.4321
 9091SOL    HW138909   0.802   2.977   9.397  3.4882  0.0719  0.7293
 9091SOL    HW238910   0.837   2.852   9.450  0.5692  0.5587 -0.3223
 9092SOL     OW38911   2.289   0.978  11.984 -0.1314 -0.5251 -0.4606
 9092SOL    HW138912   2.253   0.911  12.043 -0.3307  1.3727  1.5628
 9092SOL    HW238913   2.317   0.926  11.909 -0.8257 -1.1385 -0.3018
 9093SOL     OW38914   3.469   3.076   4.207 -0.2824 -0.3007 -0.7090
 9093SOL    HW138915   3.541   3.136   4.187 -0.8072  0.5678  0.0090
 9093SOL    HW238916   3.403   3.120   4.154 -1.8895 -0.3421  1.2411
 9094SOL     OW38917   1.805   3.352   8.483  0.3404 -0.1508  0.0870
 9094SOL    HW138918   1.731   3.383   8.534 -0.1234 -0.1665 -0.5743
 9094SOL    HW238919   1.789   3.259   8.470 -1.3961  0.0754  0.6025
 9095SOL     OW38920   1.056   2.362  10.295 -0.1656  0.1577  0.3461
 9095SOL    HW138921   1.123   2.354  10.227  2.2037  3.2159  2.3032
 9095SOL    HW238922   1.065   2.457  10.304  2.0154 -0.1545  1.3835
 9096SOL     OW38923   2.434   1.975  16.954 -0.5192 -0.0765  0.2808
 9096SOL    HW138924   2.423   1.886  16.989  0.6506  0.3497  1.7405
 9096SOL    HW238925   2.346   1.981  16.918 -1.6520 -0.5355  2.9342
 9097SOL     OW38926   2.034   2.756   3.869  0.7344 -0.3287 -0.0940
 9097SOL    HW138927   2.127   2.772   3.887  0.1960  1.2651  1.2429
 9097SOL    HW238928   2.034   2.675   3.920 -2.1000 -0.6722 -0.6140
 9098SOL     OW38929   2.194   3.992  12.112 -0.4754 -0.6564 -0.2049
 9098SOL    HW138930   2.112   4.039  12.125  1.7196  2.4861  2.4652
 9098SOL    HW238931   2.252   4.067  12.103  0.7372 -1.7612 -1.5171
 9099SOL     OW38932   3.995   3.432  16.441 -0.4642 -0.7908  0.6231
 9099SOL    HW138933   3.943   3.485  16.501 -0.7071  0.6692 -0.8720
 9099SOL    HW238934   4.079   3.436  16.485 -0.9706 -0.0505  1.5153
 9100SOL     OW38935   2.164   0.771  12.128  0.6317 -0.3380 -0.5769
 9100SOL    HW138936   2.077   0.746  12.096  1.5567 -1.5482 -2.1201
 9100SOL    HW238937   2.220   0.695  12.113  2.5028  0.2050  3.5911
 9101SOL     OW38938   0.840   3.396  14.120  0.1764  0.3847 -0.2123
 9101SOL    HW138939   0.931   3.373  14.141 -0.5488  0.2738  2.6800
 9101SOL    HW238940   0.831   3.460  14.190  2.5739  0.8404 -0.2965
 9102SOL     OW38941   2.441   2.297  15.674  0.4023  0.0865  0.3391
 9102SOL    HW138942   2.394   2.286  15.757 -0.2630 -0.6141 -0.1361
 9102SOL    HW238943   2.376   2.350  15.627  1.1240  1.3828  0.8078
 9103SOL     OW38944   4.526   2.630  15.972  0.3306 -0.1212 -0.1135
 9103SOL    HW138945   4.579   2.662  15.898  0.2491  3.5167  1.4330
 9103SOL    HW238946   4.447   2.683  15.968 -0.4539 -1.3746 -1.3336
 9104SOL     OW38947   0.047   2.120  17.380 -0.2331 -0.3934  0.1798
 9104SOL    HW138948   4.704   2.155  17.339 -0.1054 -0.3848 -0.0661
 9104SOL    HW238949   0.040   2.027  17.356  0.5868  0.1453 -2.2175
 9105SOL     OW38950   2.089   2.404   6.976  0.7797  0.0100  0.0798
 9105SOL    HW138951   2.120   2.314   6.976  1.7786  0.3734 -1.9433
 9105SOL    HW238952   2.054   2.399   7.066 -0.4008 -1.0499 -0.4348
 9106SOL     OW38953   4.173   0.282   5.320 -1.0010  0.1608  0.5917
 9106SOL    HW138954   4.097   0.316   5.367 -1.4096  0.7582 -0.4858
 9106SOL    HW238955   4.225   0.360   5.302  1.4139 -1.7211 -0.4912
 9107SOL     OW38956   1.081   3.974   8.452 -0.0338 -0.1682 -0.4588
 9107SOL    HW138957   1.118   3.889   8.430 -0.2932 -0.4314  0.1076
 9107SOL    HW238958   0.993   3.947   8.478  0.7228 -1.1677  1.0282
 9108SOL     OW38959   0.191   2.651  13.320 -0.3107 -0.0041  0.3524
 9108SOL    HW138960   0.105   2.685  13.347 -0.6992 -1.0813  0.4900
 9108SOL    HW238961   0.227   2.602  13.395  0.5985 -0.2744 -0.2641
 9109SOL     OW38962   3.907   0.490   8.239  0.1759 -0.3509  0.3008
 9109SOL    HW138963   3.867   0.539   8.311 -0.9213 -1.1037  0.1952
 9109SOL    HW238964   3.885   0.403   8.271 -1.4896 -0.1412 -0.2723
 9110SOL     OW38965   0.221   0.696   6.477 -0.1164 -0.1092  0.0750
 9110SOL    HW138966   0.209   0.602   6.473  1.1280 -0.2206 -0.9496
 9110SOL    HW238967   0.205   0.706   6.571  1.3056  4.1267 -0.1177
 9111SOL     OW38968   4.185   0.166  16.805 -0.1543  0.0317 -0.5747
 9111SOL    HW138969   4.164   0.131  16.718  0.9806 -1.1869 -0.3493
 9111SOL    HW238970   4.121   0.114  16.854 -0.2490 -1.5512 -2.3800
 9112SOL     OW38971   2.439   2.460  10.886 -0.2937  0.0021 -0.3862
 9112SOL    HW138972   2.368   2.417  10.838 -1.7401  1.1879  0.6911
 9112SOL    HW238973   2.472   2.522  10.821  1.5894  0.8356  1.3709
 9113SOL     OW38974   3.762   1.361  15.524  0.3849 -0.6894  0.3329
 9113SOL    HW138975   3.722   1.276  15.543  0.6181 -0.4893  1.7371
 9113SOL    HW238976   3.807   1.367  15.608  3.2838 -3.2108 -1.0436
 9114SOL     OW38977   4.100   0.203  16.353 -0.2913 -0.5698  0.6311
 9114SOL    HW138978   4.030   0.269  16.356  0.6702  0.4145  1.7002
 9114SOL    HW238979   4.169   0.250  16.307 -2.6620 -0.2315 -2.5697
 9115SOL     OW38980   0.517   3.247   1.450 -0.0166  0.7270  0.0328
 9115SOL    HW138981   0.453   3.243   1.379  1.2058  0.4768 -1.0510
 9115SOL    HW238982   0.506   3.335   1.485 -1.4096  0.3357  0.5811
 9116SOL     OW38983   1.841   2.733   2.800 -0.2978 -0.5670 -0.2059
 9116SOL    HW138984   1.759   2.767   2.833 -0.0827 -2.7616  2.5929
 9116SOL    HW238985   1.877   2.683   2.873  0.5177  3.1633  1.9246
 9117SOL     OW38986   3.113   3.475  12.654 -0.4788 -0.1227 -0.1802
 9117SOL    HW138987   3.106   3.558  12.700 -1.0310  0.7718 -1.8619
 9117SOL    HW238988   3.180   3.431  12.707  0.0261  0.3102 -0.4630
 9118SOL     OW38989   4.069   2.197   5.918  0.4530  0.2331  0.4601
 9118SOL    HW138990   4.159   2.212   5.891 -0.3263  0.9483 -1.7778
 9118SOL    HW238991   4.050   2.112   5.878  0.5016  1.5038 -2.2786
 9119SOL     OW38992   1.437   4.571   3.385  0.2889  0.1996 -0.0899
 9119SOL    HW138993   1.402   4.632   3.449 -0.0372  2.3853 -2.3785
 9119SOL    HW238994   1.435   4.496   3.444  2.4088 -0.6420 -1.0842
 9120SOL     OW38995   0.386   1.135  12.542  0.1751 -0.1519  0.9548
 9120SOL    HW138996   0.347   1.222  12.538 -0.4627 -0.3854  2.0283
 9120SOL    HW238997   0.364   1.108  12.452  1.1647  0.4668  0.5276
 9121SOL     OW38998   3.939   0.844  14.740  0.2683  0.0913  0.2095
 9121SOL    HW138999   4.005   0.798  14.792  1.0403  0.3917 -0.4907
 9121SOL    HW239000   3.967   0.836  14.649 -0.1479 -0.1843  0.1097
 9122SOL     OW39001   3.309   3.717   9.453  0.0199 -0.5395  0.6721
 9122SOL    HW139002   3.356   3.721   9.536  1.6495  1.2082 -0.3370
 9122SOL    HW239003   3.238   3.654   9.470 -0.9564  0.2238 -0.6178
 9123SOL     OW39004   2.180   2.628   0.828 -0.0143 -0.6470  0.0889
 9123SOL    HW139005   2.248   2.626   0.896  0.1246 -0.2246 -0.0352
 9123SOL    HW239006   2.120   2.687   0.874  1.2395  0.3072  0.5180
 9124SOL     OW39007   3.063   1.052   6.978  0.1336 -0.0875 -0.3903
 9124SOL    HW139008   2.980   1.039   6.933  0.5954 -0.6276 -1.0836
 9124SOL    HW239009   3.109   1.105   6.914 -1.0032 -1.4332 -2.3478
 9125SOL     OW39010   4.672   2.801  16.462 -0.3867  0.2636 -0.1201
 9125SOL    HW139011   0.026   2.777  16.445 -1.7461 -1.7222 -4.5999
 9125SOL    HW239012   4.668   2.886  16.417  1.9605  0.7127  0.5009
 9126SOL     OW39013   3.980   3.332   9.424 -0.3833  0.1570  0.6469
 9126SOL    HW139014   4.046   3.273   9.388  2.8067  3.2720  1.3794
 9126SOL    HW239015   3.901   3.289   9.391  0.0084  1.5347 -2.0614
 9127SOL     OW39016   0.178   0.426   4.658 -0.4858 -0.0427 -0.0579
 9127SOL    HW139017   0.204   0.396   4.745 -1.0880 -1.2708 -0.2959
 9127SOL    HW239018   0.116   0.491   4.692 -0.3152 -0.0672  0.2978
 9128SOL     OW39019   2.736   3.829   3.404 -0.0429 -0.0506 -0.2980
 9128SOL    HW139020   2.750   3.914   3.362  3.1806 -0.8143 -0.8040
 9128SOL    HW239021   2.751   3.859   3.493 -1.3737  2.7948 -1.0377
 9129SOL     OW39022   0.278   4.233  13.560 -0.4210 -0.0063  0.7044
 9129SOL    HW139023   0.298   4.286  13.482 -1.4849 -1.7754 -0.7862
 9129SOL    HW239024   0.316   4.148  13.537 -0.3892  0.2825 -0.3261
 9130SOL     OW39025   0.405   2.392   4.139  0.6005 -0.0514 -0.2380
 9130SOL    HW139026   0.356   2.464   4.178 -0.3789 -0.2536 -1.0608
 9130SOL    HW239027   0.330   2.342   4.107 -0.2581  0.7112  0.5750
 9131SOL     OW39028   2.543   0.846   8.080 -0.6490 -0.2524  0.0740
 9131SOL    HW139029   2.589   0.902   8.142  1.4477  0.2120 -1.9034
 9131SOL    HW239030   2.615   0.790   8.051 -2.7377 -1.9090 -1.8829
 9132SOL     OW39031   2.031   1.729   2.641  0.1005 -0.5829 -0.0021
 9132SOL    HW139032   2.039   1.800   2.704  1.2362 -1.7933  1.2233
 9132SOL    HW239033   2.122   1.700   2.633  0.8852  1.3875  1.6958
 9133SOL     OW39034   2.942   1.530   5.001  0.1531  0.1630  0.4631
 9133SOL    HW139035   2.928   1.602   5.063 -0.7902  1.2228 -0.9666
 9133SOL    HW239036   2.861   1.537   4.951  0.2248  0.4870  0.3888
 9134SOL     OW39037   2.610   0.992   7.095 -0.0698 -0.1248  0.3935
 9134SOL    HW139038   2.593   0.917   7.039  2.0448  0.4650 -1.0456
 9134SOL    HW239039   2.533   1.048   7.083  0.3673 -0.0270 -1.8212
 9135SOL     OW39040   4.493   0.104  13.957 -0.3958 -0.1371 -0.0154
 9135SOL    HW139041   4.568   0.150  13.920 -1.1453  2.1204  1.2822
 9135SOL    HW239042   4.534   0.022  13.983  2.2410  1.7031  1.6187
 9136SOL     OW39043   0.661   1.047   2.535 -0.1012 -0.0877 -0.4342
 9136SOL    HW139044   0.703   0.978   2.587 -0.6493 -0.3246 -0.3030
 9136SOL    HW239045   0.601   1.071   2.606  1.0011 -2.0068  1.1500
 9137SOL     OW39046   2.374   4.570   2.284 -0.1893 -0.2952 -0.5016
 9137SOL    HW139047   2.284   4.569   2.316  0.1225  2.3679  0.4403
 9137SOL    HW239048   2.421   4.577   2.367  2.0985 -1.2699 -1.6875
 9138SOL     OW39049   3.782   1.187   6.762 -0.4886  0.6082  0.3040
 9138SOL    HW139050   3.835   1.258   6.798  0.9318 -1.7459  2.8928
 9138SOL    HW239051   3.791   1.124   6.834 -1.7963  1.7520  1.4842
 9139SOL     OW39052   2.281   2.477  15.565 -0.1381 -0.2198  0.5983
 9139SOL    HW139053   2.195   2.444  15.591 -0.3000  1.2088  1.8681
 9139SOL    HW239054   2.261   2.546  15.502  0.0121 -0.8952 -0.1923
 9140SOL     OW39055   1.601   2.640   6.806  0.4881  0.4605 -0.1023
 9140SOL    HW139056   1.543   2.693   6.860 -0.7852  0.8849 -1.8782
 9140SOL    HW239057   1.690   2.651   6.841  0.8407  1.7965 -1.4254
 9141SOL     OW39058   0.577   2.251   5.366  0.4936 -0.9686  0.3388
 9141SOL    HW139059   0.548   2.337   5.336 -0.3090 -1.6606 -0.8412
 9141SOL    HW239060   0.671   2.264   5.382  0.6588  0.5599 -1.7923
 9142SOL     OW39061   3.357   1.981   6.768 -0.3046 -0.4273  0.3297
 9142SOL    HW139062   3.269   1.953   6.746 -0.7427 -0.4835  2.1757
 9142SOL    HW239063   3.401   1.896   6.762  0.2795 -0.0114 -1.4942
 9143SOL     OW39064   2.966   2.206   1.785  0.2735 -0.1947  0.3105
 9143SOL    HW139065   2.912   2.157   1.723 -2.4991  0.6225  2.1089
 9143SOL    HW239066   2.923   2.292   1.794  1.4776  0.2333  1.7934
 9144SOL     OW39067   3.488   1.838   8.371 -0.2128 -0.5105 -0.1928
 9144SOL    HW139068   3.479   1.764   8.310 -2.2614 -0.2758 -0.1757
 9144SOL    HW239069   3.545   1.903   8.329 -3.1303  0.6672 -2.4026
 9145SOL     OW39070   1.645   1.063   3.427 -0.3229 -0.4597  0.7905
 9145SOL    HW139071   1.625   0.997   3.493  2.3773  0.2633  2.3092
 9145SOL    HW239072   1.560   1.108   3.430 -0.3206 -0.3296 -1.1665
 9146SOL     OW39073   2.205   3.905   8.483 -0.6437 -0.4335  0.2945
 9146SOL    HW139074   2.300   3.896   8.480 -0.5279  0.4745  1.6704
 9146SOL    HW239075   2.200   3.968   8.411  2.2509  0.5111  0.9416
 9147SOL     OW39076   1.655   0.994   6.506  0.2416  0.1667  0.3948
 9147SOL    HW139077   1.731   1.037   6.465 -0.9575  1.8089 -0.0882
 9147SOL    HW239078   1.706   0.955   6.577 -0.0400 -1.0045 -0.0378
 9148SOL     OW39079   2.531   0.847  10.468  0.4148  0.2875 -0.1869
 9148SOL    HW139080   2.615   0.870  10.429  1.8265 -3.1453  0.8472
 9148SOL    HW239081   2.485   0.931  10.459  1.6595  0.8824 -0.9909
 9149SOL     OW39082   3.107   1.657  14.570  0.8187 -0.3088  0.6908
 9149SOL    HW139083   3.067   1.744  14.566  2.3511  0.3984  0.5825
 9149SOL    HW239084   3.036   1.600  14.541  0.9816 -0.4899  0.6476
 9150SOL     OW39085   3.252   1.435   2.407 -0.0689 -0.1454 -0.2331
 9150SOL    HW139086   3.311   1.382   2.354  1.1991 -0.2543  1.3226
 9150SOL    HW239087   3.216   1.364   2.459  1.8798 -1.6809 -1.0158
 9151SOL     OW39088   0.142   2.058  16.275  0.2179 -0.6197 -0.0192
 9151SOL    HW139089   0.192   2.061  16.194  0.6392 -2.8887  0.1612
 9151SOL    HW239090   0.211   2.070  16.340  1.0411 -1.9895 -0.6386
 9152SOL     OW39091   2.103   1.182   6.494 -0.7661 -0.5372 -0.2599
 9152SOL    HW139092   2.163   1.108   6.502 -1.3695 -1.0354 -0.3020
 9152SOL    HW239093   2.130   1.213   6.408  0.5323  0.1046  0.3864
 9153SOL     OW39094   2.533   2.627   1.501 -0.0724  0.8162 -0.5149
 9153SOL    HW139095   2.456   2.646   1.447 -1.0805  0.5578  0.8274
 9153SOL    HW239096   2.603   2.651   1.441  0.5409 -0.5739 -0.3568
 9154SOL     OW39097   1.298   0.414  11.953  0.0112 -0.5557  0.1641
 9154SOL    HW139098   1.249   0.460  12.021  0.3923  0.2030 -0.0705
 9154SOL    HW239099   1.233   0.415  11.882  0.9922 -0.6131 -0.7363
 9155SOL     OW39100   3.635   3.147   0.975  0.3002  0.3381  0.2882
 9155SOL    HW139101   3.677   3.224   0.938  1.8620  0.2409  1.8516
 9155SOL    HW239102   3.691   3.132   1.051  0.3812  1.5673  0.4671
 9156SOL     OW39103   1.677   2.945  11.903 -0.0724  0.7450 -0.7296
 9156SOL    HW139104   1.735   2.998  11.958 -1.4335 -0.6010  1.9666
 9156SOL    HW239105   1.706   2.861  11.938 -2.8278  0.0680 -0.0907
 9157SOL     OW39106   1.043   4.057   4.340  1.0686 -0.4075  0.0922
 9157SOL    HW139107   1.026   3.973   4.384 -0.1703  0.1141  0.6162
 9157SOL    HW239108   1.068   4.026   4.253  0.8339 -0.0476 -0.1058
 9158SOL     OW39109   0.538   4.280   6.871 -0.2733  0.2721  0.0173
 9158SOL    HW139110   0.481   4.317   6.803 -0.3880  0.0470 -0.0110
 9158SOL    HW239111   0.479   4.251   6.941  0.1519 -0.4668  0.0647
 9159SOL     OW39112   2.700   2.181   3.473 -0.5030  0.3988  0.0350
 9159SOL    HW139113   2.627   2.140   3.520  1.0305 -3.0813 -0.6806
 9159SOL    HW239114   2.687   2.138   3.389  2.7210  1.6285 -1.0994
 9160SOL     OW39115   4.521   0.529   7.139  0.3930 -0.1615  0.2817
 9160SOL    HW139116   4.596   0.480   7.172  0.5760  0.8860  1.4329
 9160SOL    HW239117   4.514   0.598   7.205 -0.3043 -0.0112  0.0549
 9161SOL     OW39118   3.315   2.835   5.317 -0.3481 -0.5195  0.2462
 9161SOL    HW139119   3.277   2.758   5.275  0.2049 -0.9557  0.5432
 9161SOL    HW239120   3.241   2.895   5.305 -0.0741  0.2268  2.2137
 9162SOL     OW39121   3.321   0.916   8.370  0.7352 -0.2439 -0.0202
 9162SOL    HW139122   3.386   0.851   8.343 -0.5468 -1.2042 -0.7674
 9162SOL    HW239123   3.302   0.953   8.284  1.0455 -0.3159 -0.1216
 9163SOL     OW39124   3.078   3.409  10.797  0.1250 -0.2017 -0.0891
 9163SOL    HW139125   3.035   3.368  10.722 -1.3672  1.5021 -0.1568
 9163SOL    HW239126   3.005   3.460  10.832 -0.6333 -0.0287 -1.9189
 9164SOL     OW39127   2.853   0.242   4.609 -0.4030 -0.2887 -0.2952
 9164SOL    HW139128   2.767   0.214   4.641 -0.0068 -1.3725 -0.1810
 9164SOL    HW239129   2.867   0.313   4.672 -1.9895 -0.0220 -0.2469
 9165SOL     OW39130   4.580   1.559   9.802  0.0596  0.2719 -0.0112
 9165SOL    HW139131   4.597   1.477   9.848  0.6132  0.3691 -0.0517
 9165SOL    HW239132   4.530   1.598   9.874  2.7129  1.8909  0.9479
 9166SOL     OW39133   1.517   0.452   4.336 -0.7348  0.7218 -0.3311
 9166SOL    HW139134   1.433   0.404   4.336 -1.7515  2.4981  1.5573
 9166SOL    HW239135   1.504   0.522   4.272 -1.5745  0.2982 -0.6329
 9167SOL     OW39136   2.383   3.608   8.541  0.3405  0.1960  0.3033
 9167SOL    HW139137   2.414   3.697   8.523 -2.7711  0.8997 -1.6539
 9167SOL    HW239138   2.294   3.631   8.567 -0.1362 -1.5463  0.2056
 9168SOL     OW39139   1.694   1.003   7.729  0.1560  0.1131 -0.5758
 9168SOL    HW139140   1.739   1.079   7.766  0.9296 -0.4159 -0.4223
 9168SOL    HW239141   1.762   0.964   7.674  1.9251 -0.0709  1.7265
 9169SOL     OW39142   2.427   2.679  10.712 -0.6749  0.2211  0.6583
 9169SOL    HW139143   2.447   2.754  10.769  1.8005 -0.5609  0.7858
 9169SOL    HW239144   2.455   2.715  10.628  0.3943  1.6619  1.6243
 9170SOL     OW39145   2.881   2.637   0.236 -0.8005 -0.2125 -0.2490
 9170SOL    HW139146   2.857   2.607   0.148 -2.4794 -2.1390  0.8772
 9170SOL    HW239147   2.810   2.611   0.294 -0.2269  0.5356  0.7777
 9171SOL     OW39148   2.183   0.609   4.231 -0.0362 -0.2217 -0.1064
 9171SOL    HW139149   2.106   0.649   4.190  1.0887 -1.0473 -3.0033
 9171SOL    HW239150   2.237   0.609   4.152  1.8238 -0.5101  1.1731
 9172SOL     OW39151   2.133   2.881   8.791 -0.3925  0.2952  0.6090
 9172SOL    HW139152   2.038   2.874   8.798 -0.2867 -0.7830  1.0504
 9172SOL    HW239153   2.158   2.810   8.732 -1.5015  0.8843 -0.5698
 9173SOL     OW39154   1.150   1.780   7.548  1.3302 -0.3278  0.0722
 9173SOL    HW139155   1.089   1.846   7.582  0.1838 -0.3865 -1.8730
 9173SOL    HW239156   1.229   1.833   7.545 -0.0641  1.7589  0.2457
 9174SOL     OW39157   4.328   2.543   9.327  0.7049 -0.1004  0.5711
 9174SOL    HW139158   4.369   2.627   9.349 -0.6379 -0.0713  3.0053
 9174SOL    HW239159   4.360   2.487   9.397 -1.5747 -3.5543 -1.1571
 9175SOL     OW39160   2.295   2.847   8.991 -0.4045  0.4708  0.0350
 9175SOL    HW139161   2.238   2.882   8.923  0.3192 -0.0886 -0.8465
 9175SOL    HW239162   2.286   2.914   9.060 -0.5672  1.7271 -1.2111
 9176SOL     OW39163   0.903   2.753   2.322 -0.6700  0.2882  0.1013
 9176SOL    HW139164   0.875   2.711   2.403 -1.2848  0.5328  0.0165
 9176SOL    HW239165   0.824   2.804   2.306 -1.2947 -0.7812 -0.2252
 9177SOL     OW39166   0.035   2.806   3.370  0.5328 -0.0865 -0.2112
 9177SOL    HW139167   0.078   2.887   3.396 -1.3351  0.4740  1.1143
 9177SOL    HW239168   0.090   2.770   3.300  2.0285 -1.0313  1.4581
 9178SOL     OW39169   2.962   1.269   6.783 -0.1473 -0.2485  0.2274
 9178SOL    HW139170   2.938   1.354   6.817 -0.7207 -0.3172 -0.0020
 9178SOL    HW239171   2.915   1.217   6.848  1.4226 -0.2464  1.3725
 9179SOL     OW39172   1.397   2.807   3.210  0.0918  0.0973  0.4525
 9179SOL    HW139173   1.448   2.877   3.170 -0.5361  1.7331  2.4925
 9179SOL    HW239174   1.455   2.783   3.283  0.9641 -1.7817 -0.8634
 9180SOL     OW39175   2.088   3.776   0.688  0.5621  0.2803  0.3782
 9180SOL    HW139176   2.168   3.728   0.668  1.2983  1.6855 -0.0299
 9180SOL    HW239177   2.021   3.732   0.636 -0.8753  0.1691  2.2995
 9181SOL     OW39178   0.032   4.199   2.255  0.2290 -0.2533  0.1674
 9181SOL    HW139179   0.099   4.197   2.324  0.7278  2.2510 -0.2458
 9181SOL    HW239180   4.708   4.261   2.296 -0.4983  0.2850 -1.7053
 9182SOL     OW39181   3.257   2.900   4.924  0.1146  0.0617 -0.2596
 9182SOL    HW139182   3.236   2.958   4.996  0.5520  2.3353 -1.9579
 9182SOL    HW239183   3.164   2.892   4.903 -0.0073 -0.3852  0.4609
 9183SOL     OW39184   2.626   3.096   2.256  0.2291  0.1876 -0.4055
 9183SOL    HW139185   2.614   3.032   2.326  1.2806 -1.3757 -1.6487
 9183SOL    HW239186   2.666   3.159   2.317  2.0545 -1.2579 -0.1242
 9184SOL     OW39187   1.978   1.027   8.568 -0.4502  0.4030  0.0709
 9184SOL    HW139188   1.901   0.977   8.542  1.8637 -3.2824  0.2790
 9184SOL    HW239189   2.010   1.071   8.490  1.3497 -1.3761 -0.2065
 9185SOL     OW39190   1.133   1.612   5.660 -0.0316  0.2654  0.2698
 9185SOL    HW139191   1.038   1.605   5.676 -0.2116  0.3230 -0.7933
 9185SOL    HW239192   1.159   1.665   5.735  0.4945  1.3484 -0.6727
 9186SOL     OW39193   1.498   1.030  16.336  0.1546 -0.2344  0.2312
 9186SOL    HW139194   1.457   1.068  16.259  2.0583 -0.3019 -0.8062
 9186SOL    HW239195   1.588   1.029  16.306  0.3250  1.6819  0.7132
 9187SOL     OW39196   0.088   2.680   9.822  0.3846 -0.3369  0.2425
 9187SOL    HW139197   0.089   2.609   9.758  1.5137 -0.1922  0.1098
 9187SOL    HW239198   0.094   2.753   9.759  0.5416 -1.9543 -1.6244
 9188SOL     OW39199   3.543   4.354   8.083  0.0016  0.4454  0.3141
 9188SOL    HW139200   3.507   4.286   8.140 -0.6865  0.0526 -0.5746
 9188SOL    HW239201   3.628   4.351   8.126 -0.1857  1.2360  0.7465
 9189SOL     OW39202   1.404   3.239   4.311 -0.1257 -0.5794  0.1519
 9189SOL    HW139203   1.367   3.312   4.262 -1.2845  0.0775  2.0425
 9189SOL    HW239204   1.459   3.187   4.252 -0.1524  0.5645 -0.8854
 9190SOL     OW39205   4.137   1.357   1.746  0.2640  0.8833 -0.0708
 9190SOL    HW139206   4.078   1.402   1.806 -0.6366 -1.9054  1.1562
 9190SOL    HW239207   4.125   1.399   1.662 -1.4808 -0.1455 -0.3331
 9191SOL     OW39208   3.224   2.574   3.986 -0.5203 -0.1936  0.0946
 9191SOL    HW139209   3.200   2.581   4.078  0.0102 -0.0055  0.2188
 9191SOL    HW239210   3.147   2.528   3.954  0.5415 -0.6498 -1.8455
 9192SOL     OW39211   1.660   2.967   8.295 -0.3564  0.0653  0.2932
 9192SOL    HW139212   1.740   2.994   8.250 -0.8659  2.0827  0.5823
 9192SOL    HW239213   1.675   2.875   8.315 -0.7796 -0.0447  0.1087
 9193SOL     OW39214   2.365   1.130   3.359  0.0346 -0.1405 -0.4296
 9193SOL    HW139215   2.359   1.210   3.412 -1.7378 -0.0783 -0.7283
 9193SOL    HW239216   2.374   1.173   3.274  1.8534 -0.7800 -0.5597
 9194SOL     OW39217   3.675   2.227   0.431 -0.5957  0.2995 -0.4162
 9194SOL    HW139218   3.688   2.222   0.337  0.9397 -2.7195 -0.0300
 9194SOL    HW239219   3.751   2.174   0.453 -0.0891  1.1529 -0.0953
 9195SOL     OW39220   4.116   4.639   7.286  0.5031 -0.5814 -0.0827
 9195SOL    HW139221   4.209   4.624   7.268  0.5770  0.3558 -0.4798
 9195SOL    HW239222   4.092   4.572   7.351  0.3270  1.6612  2.1556
 9196SOL     OW39223   0.612   4.108   4.477  0.0299 -0.0774 -0.3676
 9196SOL    HW139224   0.693   4.135   4.520 -0.2179 -1.2161  0.7740
 9196SOL    HW239225   0.636   4.018   4.456 -0.2923  0.0943 -1.4711
 9197SOL     OW39226   4.332   3.999   2.936 -0.0423  1.3164 -0.1068
 9197SOL    HW139227   4.426   3.985   2.926 -0.3361 -0.8032  0.0316
 9197SOL    HW239228   4.326   4.088   2.970  0.8505  1.0249  0.8191
 9198SOL     OW39229   3.768   2.181   0.191 -0.5061  0.2477  0.2657
 9198SOL    HW139230   3.855   2.143   0.180 -0.5622 -0.4104  2.1229
 9198SOL    HW239231   3.754   2.217   0.103 -2.0717 -0.5038  0.2223
 9199SOL     OW39232   1.894   3.873   5.916 -0.3320 -0.1018  0.4833
 9199SOL    HW139233   1.835   3.801   5.894  0.4165 -0.1409 -1.3554
 9199SOL    HW239234   1.969   3.823   5.950 -0.3900 -0.5873 -0.0983
 9200SOL     OW39235   0.555   2.516  10.418 -0.4327  0.4350  0.2186
 9200SOL    HW139236   0.561   2.593  10.475  2.3651  0.3792 -0.0233
 9200SOL    HW239237   0.493   2.547  10.351  0.5841 -0.8561 -1.2977
 9201SOL     OW39238   3.232   1.723   1.986  1.0461  0.2407 -0.3218
 9201SOL    HW139239   3.232   1.809   1.943  0.7955  1.2454  1.6812
 9201SOL    HW239240   3.173   1.664   1.939 -0.5599  2.9991 -1.7460
 9202SOL     OW39241   1.541   0.035   3.700  0.0793  0.4924 -0.3818
 9202SOL    HW139242   1.487   0.025   3.622 -1.7461  0.7887  0.8361
 9202SOL    HW239243   1.480   4.728   3.760  0.8407 -1.0896 -0.7725
 9203SOL     OW39244   0.618   0.056   2.020  0.4213  0.3791  0.3516
 9203SOL    HW139245   0.540   0.050   2.075 -0.1554 -1.0058 -0.6203
 9203SOL    HW239246   0.582   0.131   1.972  0.1579 -0.7049 -1.1230
 9204SOL     OW39247   4.590   2.734  15.358 -0.2335 -0.1476  0.4425
 9204SOL    HW139248   4.679   2.731  15.393 -0.7143  0.8995  1.7633
 9204SOL    HW239249   4.536   2.697  15.428 -1.4806  0.6481 -0.0970
 9205SOL     OW39250   1.309   3.430   9.546  0.2941  0.3894  0.1876
 9205SOL    HW139251   1.284   3.338   9.550  0.3142  0.2318 -3.2635
 9205SOL    HW239252   1.260   3.464   9.470 -0.1050 -0.5898  0.0142
 9206SOL     OW39253   1.426   4.087   7.639 -0.1366  0.1769 -0.1535
 9206SOL    HW139254   1.440   3.994   7.622  2.4944  0.5620 -0.0967
 9206SOL    HW239255   1.399   4.082   7.731 -1.5019  1.2561 -0.4883
 9207SOL     OW39256   2.230   0.968   8.658  0.3474  0.5281 -0.2302
 9207SOL    HW139257   2.236   0.894   8.597  2.7803  0.1185  0.4886
 9207SOL    HW239258   2.141   1.000   8.641 -0.4344 -1.1577  0.6674
 9208SOL     OW39259   1.660   4.622   9.644 -0.1543 -0.2117 -0.0238
 9208SOL    HW139260   1.681   4.578   9.727 -0.1463 -0.2695 -0.0566
 9208SOL    HW239261   1.741   4.673   9.638  0.5729 -1.6088 -1.7863
 9209SOL     OW39262   1.313   3.695   2.985 -0.3135  0.0597  0.2482
 9209SOL    HW139263   1.285   3.770   3.038 -0.1015  1.0134 -0.9896
 9209SOL    HW239264   1.267   3.712   2.904  2.1377 -1.2836 -1.4305
 9210SOL     OW39265   2.939   0.015   3.807 -0.5894  0.4632  0.0301
 9210SOL    HW139266   2.882   4.680   3.779  0.3222  1.0223 -3.2106
 9210SOL    HW239267   2.914   0.003   3.899  1.4595 -1.3347  0.3658
 9211SOL     OW39268   0.312   0.985   3.866 -0.1099 -0.1774 -0.3901
 9211SOL    HW139269   0.360   1.032   3.935  0.4299 -1.5845  0.1919
 9211SOL    HW239270   0.225   1.009   3.897  0.5504  0.8331  0.7335
 9212SOL     OW39271   0.294   3.195   8.861 -0.0095  0.4146 -0.3495
 9212SOL    HW139272   0.334   3.280   8.842 -1.0870  0.7367 -1.1712
 9212SOL    HW239273   0.364   3.140   8.894  0.6985  0.2809 -2.0572
 9213SOL     OW39274   1.113   1.042   3.093 -0.2472  0.3415 -0.0321
 9213SOL    HW139275   1.081   1.019   3.180  3.7252  0.6562  1.5051
 9213SOL    HW239276   1.070   1.127   3.082  2.2703  1.3852 -1.6307
 9214SOL     OW39277   2.718   1.549   9.901  0.1109  0.6212  0.2017
 9214SOL    HW139278   2.780   1.541   9.828 -0.2330  1.1865 -0.1521
 9214SOL    HW239279   2.643   1.574   9.847  0.5935  1.7016  0.0447
 9215SOL     OW39280   0.582   0.431  11.879 -0.3171 -0.1140  0.0014
 9215SOL    HW139281   0.537   0.487  11.815 -2.8129 -0.6737  1.2384
 9215SOL    HW239282   0.647   0.496  11.903 -0.2384 -0.2239  0.0824
 9216SOL     OW39283   0.673   4.320   3.509 -0.1405  0.2398 -0.6865
 9216SOL    HW139284   0.635   4.322   3.597 -1.2630 -1.3834 -1.1308
 9216SOL    HW239285   0.594   4.347   3.462 -0.3476  2.1247  0.7638
 9217SOL     OW39286   2.969   2.475  15.064  0.5347  0.6939  0.4845
 9217SOL    HW139287   2.940   2.384  15.066 -1.4097  1.3237  1.0808
 9217SOL    HW239288   2.902   2.506  15.003  0.4797 -0.5519 -0.0883
 9218SOL     OW39289   2.805   2.419   7.441 -0.0903  0.0669 -0.1663
 9218SOL    HW139290   2.757   2.468   7.374 -1.3423  1.9711  2.0979
 9218SOL    HW239291   2.754   2.339   7.448  1.2155 -0.7347  0.1173
 9219SOL     OW39292   2.377   2.741   7.661  0.0561 -0.3531 -0.2687
 9219SOL    HW139293   2.371   2.820   7.715 -0.3580  0.2515 -1.2033
 9219SOL    HW239294   2.324   2.679   7.711 -1.7253 -1.1974 -3.1655
 9220SOL     OW39295   1.400   4.682   7.444 -0.1213 -0.2774  0.2237
 9220SOL    HW139296   1.449   4.682   7.362  0.8624 -2.7491  0.8352
 9220SOL    HW239297   1.471   4.670   7.507 -0.4821  2.0562  1.0658
 9221SOL     OW39298   4.613   1.347  11.897 -0.7390  0.1270  0.2136
 9221SOL    HW139299   4.546   1.296  11.852 -0.5995  0.4237 -0.3239
 9221SOL    HW239300   4.631   1.294  11.975  2.3665  0.4903 -0.2631
 9222SOL     OW39301   0.468   4.533   8.620  0.2564 -0.2390 -0.0249
 9222SOL    HW139302   0.425   4.612   8.653 -3.1576 -2.0224 -0.2009
 9222SOL    HW239303   0.554   4.565   8.593 -0.0361  0.7506  0.2319
 9223SOL     OW39304   4.303   3.119   6.478  0.1631  0.3811 -0.1268
 9223SOL    HW139305   4.316   3.025   6.491 -0.1384  0.3875  0.2141
 9223SOL    HW239306   4.388   3.137   6.438  0.0715 -2.2422 -1.4980
 9224SOL     OW39307   3.411   0.259   8.264 -0.0003 -0.2729 -0.0443
 9224SOL    HW139308   3.327   0.244   8.307  0.4126  3.4964  2.1385
 9224SOL    HW239309   3.386   0.284   8.175  0.9696  0.4205 -0.1209
 9225SOL     OW39310   1.610   2.766  17.739 -0.5399  0.5639  0.2906
 9225SOL    HW139311   1.561   2.692   0.029 -0.4128  0.8028  0.9840
 9225SOL    HW239312   1.571   2.792  17.656  0.0614 -1.2129 -0.5521
 9226SOL     OW39313   0.882   2.544   7.855 -0.2482 -0.6750  0.3338
 9226SOL    HW139314   0.860   2.514   7.943 -1.6294  0.2431  0.3093
 9226SOL    HW239315   0.852   2.634   7.866  0.0195 -0.3783 -1.3104
 9227SOL     OW39316   0.407   3.969  10.383  0.0361  0.2341  0.4140
 9227SOL    HW139317   0.453   4.032  10.329  0.8341 -1.0404 -0.3983
 9227SOL    HW239318   0.400   4.013  10.468  0.8932 -1.5755  1.4332
 9228SOL     OW39319   0.648   2.743   1.523  0.2471 -0.5388  0.3596
 9228SOL    HW139320   0.629   2.785   1.439  0.3039 -0.4265  0.4031
 9228SOL    HW239321   0.734   2.782   1.537  1.8457 -2.7467 -3.1452
 9229SOL     OW39322   2.281   3.579  15.854 -0.3810 -0.2514  0.1312
 9229SOL    HW139323   2.266   3.562  15.761 -0.8923  0.4148  0.0965
 9229SOL    HW239324   2.210   3.638  15.879 -1.4326 -0.3627 -2.6383
 9230SOL     OW39325   1.139   4.532  15.114 -0.2364 -0.3949  0.5859
 9230SOL    HW139326   1.144   4.540  15.209 -0.0996 -1.4085  0.6655
 9230SOL    HW239327   1.092   4.452  15.090 -2.8058  1.3036 -0.0005
 9231SOL     OW39328   3.813   4.231   6.923  0.0966  0.1853 -0.0158
 9231SOL    HW139329   3.722   4.203   6.919 -0.5743  2.6588 -1.9879
 9231SOL    HW239330   3.816   4.245   7.017  0.5038 -0.0737  0.0102
 9232SOL     OW39331   2.980   2.325   4.585  0.2321  0.0001 -0.1929
 9232SOL    HW139332   3.031   2.406   4.579  2.2910 -1.3240 -0.4251
 9232SOL    HW239333   3.043   2.257   4.607  1.3956  1.0504 -0.2521
 9233SOL     OW39334   2.794   0.463   5.669  0.0610 -0.3206  0.2579
 9233SOL    HW139335   2.791   0.468   5.573  0.0441 -0.2628  0.2617
 9233SOL    HW239336   2.865   0.527   5.678 -0.8722  0.7266  0.1331
 9234SOL     OW39337   1.680   4.115   4.962 -0.4811 -0.3675 -0.3296
 9234SOL    HW139338   1.747   4.162   4.913 -0.8470 -0.1016 -0.5755
 9234SOL    HW239339   1.673   4.044   4.898  0.2935 -0.2141 -0.5843
 9235SOL     OW39340   3.717   1.769  12.805  0.3703  0.3918 -0.0835
 9235SOL    HW139341   3.640   1.799  12.854 -0.4113  1.3900 -1.9546
 9235SOL    HW239342   3.777   1.837  12.836 -0.8714  1.4585 -0.0235
 9236SOL     OW39343   1.354   0.642   4.936  0.3948 -0.7054  0.0974
 9236SOL    HW139344   1.406   0.683   5.006  1.7767 -0.3518 -1.1378
 9236SOL    HW239345   1.406   0.564   4.918  0.7016 -0.5890  0.4744
 9237SOL     OW39346   0.649   0.380   6.168 -0.2416 -0.4461 -0.8829
 9237SOL    HW139347   0.736   0.407   6.198 -0.4483  0.6988 -1.3405
 9237SOL    HW239348   0.624   0.428   6.090  0.9348  0.2466 -0.8384
 9238SOL     OW39349   2.013   1.678   3.144  0.3110 -0.3385  0.1887
 9238SOL    HW139350   1.987   1.625   3.069  0.5121  1.0685 -0.8805
 9238SOL    HW239351   2.104   1.691   3.117  0.5326 -0.1314  1.0090
 9239SOL     OW39352   2.571   1.541  12.102  0.3884  0.1814  0.3014
 9239SOL    HW139353   2.529   1.461  12.072 -0.8523  0.2667  1.8001
 9239SOL    HW239354   2.498   1.584  12.148  0.8944  1.0222  0.3213
 9240SOL     OW39355   3.434   1.594   5.539  0.5166  0.4053  0.9491
 9240SOL    HW139356   3.530   1.597   5.538  0.4160  2.5759 -2.9947
 9240SOL    HW239357   3.420   1.530   5.609  2.3504 -0.4878  0.5072
 9241SOL     OW39358   2.730   4.447   2.896 -0.2357 -0.0299  0.1463
 9241SOL    HW139359   2.679   4.511   2.945  0.9365 -0.1855  1.5594
 9241SOL    HW239360   2.791   4.497   2.842  1.5910  1.7083  3.8539
 9242SOL     OW39361   3.975   0.484  10.205 -0.1403  0.1591 -0.5778
 9242SOL    HW139362   4.055   0.432  10.194 -0.0017  0.4180 -0.8190
 9242SOL    HW239363   4.005   0.571  10.178 -0.7415  0.7621  0.7093
 9243SOL     OW39364   4.221   2.917   3.875 -0.1628  0.3335  0.5559
 9243SOL    HW139365   4.207   2.990   3.815  0.3263  0.1644  0.2285
 9243SOL    HW239366   4.161   2.851   3.839  0.3349 -1.0474  2.2190
 9244SOL     OW39367   3.925   3.457   5.641 -0.0819  0.3892 -0.6104
 9244SOL    HW139368   3.946   3.541   5.683  0.9368  0.5493 -1.4632
 9244SOL    HW239369   3.918   3.397   5.715 -0.5574  0.7588 -0.3559
 9245SOL     OW39370   0.832   1.040   1.519 -0.1293  0.3039  0.1417
 9245SOL    HW139371   0.749   1.053   1.472  0.4649  0.4875 -0.8429
 9245SOL    HW239372   0.817   0.970   1.582  1.5946 -1.8802 -1.9193
 9246SOL     OW39373   2.483   1.852   0.104  0.3123 -0.7966  0.0917
 9246SOL    HW139374   2.452   1.836   0.193 -2.0640 -2.1656 -0.9909
 9246SOL    HW239375   2.553   1.787   0.102  0.9471 -0.1697  1.4303
 9247SOL     OW39376   0.995   2.900  10.770 -0.7778  0.3375 -0.4375
 9247SOL    HW139377   0.992   2.841  10.695 -1.1941 -1.4716  0.9990
 9247SOL    HW239378   1.082   2.877  10.801 -0.4341 -0.0308 -1.6747
 9248SOL     OW39379   3.208   3.061  13.449  0.4763  0.0057  0.2298
 9248SOL    HW139380   3.153   3.110  13.389  2.2659  0.2975 -1.2009
 9248SOL    HW239381   3.229   3.131  13.510 -1.4505  0.9389 -0.1856
 9249SOL     OW39382   1.859   2.199   6.840  0.2370 -0.2134  0.2142
 9249SOL    HW139383   1.923   2.244   6.785 -0.8783  2.7822  1.3931
 9249SOL    HW239384   1.863   2.236   6.928 -2.1206 -0.3166  0.3565
 9250SOL     OW39385   4.682   0.830   1.128  0.2700  0.1559 -0.2030
 9250SOL    HW139386   4.609   0.771   1.146  0.3223  0.1120 -0.1353
 9250SOL    HW239387   4.651   0.886   1.057 -3.2893 -0.1580  1.1026
 9251SOL     OW39388   2.118   0.073   9.215  0.6979  0.1139  0.3746
 9251SOL    HW139389   2.122   0.041   9.305 -0.4279 -1.0674  0.0020
 9251SOL    HW239390   2.033   0.038   9.190  0.6876  0.4739 -0.1181
 9252SOL     OW39391   4.067   1.120  13.774  0.5322 -0.2177  0.0306
 9252SOL    HW139392   4.105   1.037  13.804  2.6095  0.8632  0.3976
 9252SOL    HW239393   3.975   1.096  13.782  0.7610  0.1228  3.5082
 9253SOL     OW39394   4.471   0.427   8.194  0.1122 -0.2178  0.3523
 9253SOL    HW139395   4.540   0.408   8.259  0.6893 -0.3407 -0.2930
 9253SOL    HW239396   4.474   0.349   8.138 -1.3165 -1.1095  1.5258
 9254SOL     OW39397   1.106   4.451  10.303 -0.0015 -0.1392 -0.2383
 9254SOL    HW139398   1.060   4.500  10.371 -1.8306 -1.3164 -0.6122
 9254SOL    HW239399   1.195   4.484  10.314  0.1009 -1.0763  1.8828
 9255SOL     OW39400   4.103   2.660  17.134 -0.3258 -0.5131 -0.2597
 9255SOL    HW139401   4.155   2.650  17.054 -1.3922 -2.1136 -0.7537
 9255SOL    HW239402   4.179   2.683  17.188 -1.6431  1.6353  0.7028
 9256SOL     OW39403   0.623   2.083   5.112  0.3834 -0.3656 -0.0792
 9256SOL    HW139404   0.630   2.089   5.207 -1.9017 -1.7403  0.1888
 9256SOL    HW239405   0.566   2.006   5.107 -2.4242  1.6095  1.2363
 9257SOL     OW39406   1.832   1.630   5.613 -0.5610  0.0586  0.2937
 9257SOL    HW139407   1.904   1.587   5.566 -0.2435 -0.2103  1.0278
 9257SOL    HW239408   1.823   1.582   5.695  0.2907 -0.4493  0.1003
 9258SOL     OW39409   0.681   2.204   8.306 -0.2616 -0.2563 -0.5813
 9258SOL    HW139410   0.703   2.121   8.348  0.2056  0.2863  0.2434
 9258SOL    HW239411   0.648   2.168   8.224  1.4819 -0.1237 -1.3484
 9259SOL     OW39412   0.104   4.111  10.940  0.1197 -0.3608 -0.3700
 9259SOL    HW139413   0.031   4.049  10.935  0.2959 -0.4039 -2.5455
 9259SOL    HW239414   0.166   4.057  10.989  0.7879  0.7892  0.0369
 9260SOL     OW39415   4.079   0.064  16.590 -0.4634 -0.0018 -0.8290
 9260SOL    HW139416   4.080   0.104  16.503  0.1560 -0.2488 -0.9347
 9260SOL    HW239417   4.093   4.707  16.575  0.9212  0.3600 -1.7617
 9261SOL     OW39418   0.069   1.621  15.875 -0.7823 -0.1403  0.2453
 9261SOL    HW139419   0.084   1.679  15.950 -3.9357 -0.3221  1.0120
 9261SOL    HW239420   0.039   1.686  15.812  0.1723 -1.2330 -1.3170
 9262SOL     OW39421   0.015   1.049  14.020 -0.2308 -0.6296 -0.3505
 9262SOL    HW139422   4.705   1.049  13.937 -0.1843 -1.9185 -0.3714
 9262SOL    HW239423   4.730   1.138  14.050 -2.0744 -0.0827 -3.3111
 9263SOL     OW39424   3.520   2.564   1.802 -0.0517  0.4179  0.6722
 9263SOL    HW139425   3.556   2.478   1.778 -0.3697  0.0851  1.4015
 9263SOL    HW239426   3.430   2.543   1.826  0.4054 -0.8563  1.2834
 9264SOL     OW39427   2.373   3.565   7.187 -0.3070 -0.3764  0.5676
 9264SOL    HW139428   2.391   3.659   7.178 -0.1965 -0.5000 -0.4777
 9264SOL    HW239429   2.278   3.561   7.188 -0.2412 -1.5217  1.5233
 9265SOL     OW39430   4.364   1.732   7.591 -0.4375  0.6997  0.4208
 9265SOL    HW139431   4.405   1.761   7.510 -2.3762  0.5036 -0.6180
 9265SOL    HW239432   4.337   1.818   7.625 -2.0489  0.3375  0.0205
 9266SOL     OW39433   2.995   3.005  17.580 -0.1947  0.4911  0.6231
 9266SOL    HW139434   3.059   2.952  17.627  0.3900  0.0162 -0.7070
 9266SOL    HW239435   2.927   3.020  17.646 -2.1459 -0.7361 -1.1294
 9267SOL     OW39436   1.808   1.650  12.170 -0.1091  0.0196 -0.0624
 9267SOL    HW139437   1.834   1.702  12.247  0.1768  2.1551 -1.6022
 9267SOL    HW239438   1.745   1.590  12.210 -0.5278  0.3394 -0.2382
 9268SOL     OW39439   0.464   2.235   8.490 -0.1117  0.0976 -0.3103
 9268SOL    HW139440   0.434   2.144   8.485 -3.3457  1.2338 -1.3232
 9268SOL    HW239441   0.533   2.234   8.423 -1.3926 -1.6099 -1.5920
 9269SOL     OW39442   2.730   4.253   5.050 -0.0607  0.0708 -0.4138
 9269SOL    HW139443   2.696   4.313   4.983 -1.2265  1.0297  1.0415
 9269SOL    HW239444   2.814   4.239   5.007  1.5714 -1.0743  3.1590
 9270SOL     OW39445   0.990   2.662  10.577  0.6197  0.5587 -0.7369
 9270SOL    HW139446   0.958   2.582  10.535  1.7182  0.2865 -1.0650
 9270SOL    HW239447   1.019   2.715  10.502  2.1826  0.3626 -0.2539
 9271SOL     OW39448   3.351   4.575   4.615  0.3785  0.0824  0.0295
 9271SOL    HW139449   3.295   4.607   4.686  2.5003  3.9697 -0.0240
 9271SOL    HW239450   3.439   4.579   4.654  0.7238  1.6087 -0.8880
 9272SOL     OW39451   2.434   4.462  15.862  0.0533 -0.2662 -0.1256
 9272SOL    HW139452   2.381   4.541  15.853  2.0324  1.0030 -0.7202
 9272SOL    HW239453   2.384   4.405  15.919 -0.2373  0.1535  0.0392
 9273SOL     OW39454   2.445   0.938   7.352 -0.0391  0.1630 -0.9489
 9273SOL    HW139455   2.538   0.920   7.335 -0.7875  0.5591 -5.3877
 9273SOL    HW239456   2.437   0.923   7.446  2.0714  0.1484 -0.7719
 9274SOL     OW39457   2.564   2.538  12.137 -0.1513 -0.3320 -0.1099
 9274SOL    HW139458   2.526   2.452  12.121 -0.6254  0.3969 -2.9681
 9274SOL    HW239459   2.628   2.523  12.206  0.0140  2.0538  0.2809
 9275SOL     OW39460   3.811   1.291   9.942  0.2124  0.3204 -0.2885
 9275SOL    HW139461   3.812   1.359   9.875  0.5719 -0.7658 -1.3870
 9275SOL    HW239462   3.722   1.268   9.967  0.6678 -1.1535 -0.0281
 9276SOL     OW39463   0.143   1.059   6.693  0.1063 -0.7072  0.1428
 9276SOL    HW139464   0.144   1.032   6.601 -0.8980  1.0415 -0.3754
 9276SOL    HW239465   0.237   1.055   6.713 -0.2785 -2.3986  1.6004
 9277SOL     OW39466   4.051   2.386   4.753 -0.2698 -0.5270  0.3908
 9277SOL    HW139467   4.087   2.399   4.666  1.2638 -2.4283  0.7585
 9277SOL    HW239468   4.134   2.360   4.792  0.0636 -2.7054 -1.7722
 9278SOL     OW39469   2.425   0.111   0.786 -0.2232 -0.0241  0.3906
 9278SOL    HW139470   2.330   0.102   0.780 -0.1114 -1.1211  0.1936
 9278SOL    HW239471   2.450   0.020   0.803 -1.4982 -0.6011 -0.7657
 9279SOL     OW39472   0.533   1.040  13.391 -0.1135  0.0191  0.0642
 9279SOL    HW139473   0.585   1.102  13.442  0.4781 -0.9734  0.6786
 9279SOL    HW239474   0.578   1.060  13.308 -0.3377  0.8618  0.1478
 9280SOL     OW39475   2.135   4.177   4.267  0.1160  0.2499 -0.5868
 9280SOL    HW139476   2.041   4.161   4.257  0.1557 -1.0079  1.1466
 9280SOL    HW239477   2.165   4.152   4.180  0.0119  0.4062 -0.6696
 9281SOL     OW39478   2.896   4.491   9.811 -0.5472  0.1676 -0.1560
 9281SOL    HW139479   2.989   4.510   9.824 -0.7397  0.8883  0.1696
 9281SOL    HW239480   2.852   4.566   9.851  1.1480 -0.2261  2.4776
 9282SOL     OW39481   4.321   3.350   4.190  0.4031 -0.8493 -0.3070
 9282SOL    HW139482   4.250   3.286   4.192 -0.2640 -0.0694  1.1996
 9282SOL    HW239483   4.308   3.408   4.115  1.8119  1.2790  1.1037
 9283SOL     OW39484   2.523   0.386   6.004  0.0493  0.1840  0.0866
 9283SOL    HW139485   2.511   0.379   5.909  1.3007 -1.4789  0.0519
 9283SOL    HW239486   2.442   0.345   6.033  1.2415 -1.1065  1.5253
 9284SOL     OW39487   0.388   1.405   7.565 -0.4244  0.1316  0.0642
 9284SOL    HW139488   0.311   1.409   7.623  0.3363  1.2799  0.9878
 9284SOL    HW239489   0.370   1.486   7.518  0.3486  0.7558  0.8532
 9285SOL     OW39490   1.821   3.381   0.233 -0.6692  0.3999 -0.5076
 9285SOL    HW139491   1.782   3.455   0.186  1.1894  1.2411 -0.7240
 9285SOL    HW239492   1.752   3.339   0.285 -2.2349 -1.0240 -3.7468
 9286SOL     OW39493   2.340   4.690  10.743 -0.5243  0.2421  0.1915
 9286SOL    HW139494   2.291   4.642  10.675 -2.1480  0.3943  1.2555
 9286SOL    HW239495   2.271   0.017  10.760  1.1934  2.2264 -0.3741
 9287SOL     OW39496   0.082   2.370  17.069  0.9209 -0.1320  0.1951
 9287SOL    HW139497   0.056   2.424  16.994  0.6547 -0.7795 -0.1787
 9287SOL    HW239498   0.145   2.312  17.028  0.5302 -0.6667  0.3559
 9288SOL     OW39499   3.358   3.423   1.124  0.3560  0.2309 -0.0893
 9288SOL    HW139500   3.371   3.342   1.175 -2.1156 -0.1595 -0.0390
 9288SOL    HW239501   3.364   3.385   1.036 -0.2167  0.1156 -0.0799
 9289SOL     OW39502   2.119   2.178   9.589 -0.0063  0.2377  0.1435
 9289SOL    HW139503   2.087   2.091   9.614 -1.9279  0.6592 -0.8634
 9289SOL    HW239504   2.203   2.160   9.546  0.2997  0.6832  0.5578
 9290SOL     OW39505   4.167   4.025   8.332  0.2924 -0.1533  0.0324
 9290SOL    HW139506   4.169   4.025   8.236 -2.4589  0.2837 -0.0117
 9290SOL    HW239507   4.260   4.001   8.341  0.1027 -1.2194 -0.8881
 9291SOL     OW39508   1.570   4.716   2.388  0.3788 -0.3186  0.6428
 9291SOL    HW139509   1.571   0.074   2.380  1.2430 -0.3851  0.0070
 9291SOL    HW239510   1.527   4.707   2.473 -0.1121 -0.7392  0.3566
 9292SOL     OW39511   3.912   1.465   6.093  0.8520 -0.3019  0.1947
 9292SOL    HW139512   3.833   1.448   6.145 -0.5190  0.5443 -1.6128
 9292SOL    HW239513   3.891   1.427   6.008 -0.1012  1.2911 -0.2847
 9293SOL     OW39514   3.279   3.345   8.588  0.0646 -0.3342  0.7802
 9293SOL    HW139515   3.355   3.289   8.571  2.2500  2.2794  1.7269
 9293SOL    HW239516   3.217   3.314   8.523 -0.8684 -1.9574  2.4502
 9294SOL     OW39517   0.895   4.318  12.264 -0.4554 -0.4315 -0.0101
 9294SOL    HW139518   0.909   4.251  12.196 -0.0763 -0.2887 -0.0701
 9294SOL    HW239519   0.821   4.271  12.302  0.0114 -2.0489 -1.0753
 9295SOL     OW39520   3.240   4.102   7.976  0.8993  0.3462  0.6006
 9295SOL    HW139521   3.183   4.177   7.995 -2.2098 -1.9688  0.3751
 9295SOL    HW239522   3.276   4.081   8.062 -1.1696 -1.1125  1.0947
 9296SOL     OW39523   1.965   3.297   1.670  0.4373  0.9187 -0.0917
 9296SOL    HW139524   1.992   3.206   1.658  0.7776  1.1889 -1.4046
 9296SOL    HW239525   2.021   3.314   1.746  1.3220  1.8709 -0.9415
 9297SOL     OW39526   4.419   2.750  13.765  0.1995 -0.1324 -0.0536
 9297SOL    HW139527   4.400   2.807  13.690  1.5323 -1.5552 -1.4781
 9297SOL    HW239528   4.385   2.811  13.830  0.4842  0.2440 -0.2596
 9298SOL     OW39529   4.571   3.104   8.168 -0.1002  0.1520 -0.3142
 9298SOL    HW139530   4.527   3.022   8.189  0.7609  0.1957  1.7535
 9298SOL    HW239531   4.573   3.095   8.073 -1.1758  0.0374 -0.3202
 9299SOL     OW39532   2.244   2.900   3.292  0.0831  0.3869 -0.5057
 9299SOL    HW139533   2.176   2.908   3.224 -1.5266 -0.1766  1.0409
 9299SOL    HW239534   2.277   2.811   3.278  0.6295  0.5172 -0.0558
 9300SOL     OW39535   0.954   0.886  14.084 -0.0092 -0.3537 -1.0378
 9300SOL    HW139536   0.938   0.845  14.169  0.0729 -0.5138 -1.0986
 9300SOL    HW239537   0.877   0.940  14.069  1.1083  2.0065  1.7996
 9301SOL     OW39538   2.462   0.603   9.759  0.4188  0.5876  0.0336
 9301SOL    HW139539   2.525   0.622   9.828  1.3696 -0.9675 -0.4067
 9301SOL    HW239540   2.498   0.655   9.687 -0.0771  0.2830 -0.4331
 9302SOL     OW39541   0.427   1.057  17.230  0.2506 -0.6855 -0.2595
 9302SOL    HW139542   0.336   1.063  17.260  0.9336 -0.0402  1.6556
 9302SOL    HW239543   0.416   1.033  17.138 -0.2191  0.0044 -0.3826
 9303SOL     OW39544   3.930   1.703   2.440 -0.1624 -0.4676  1.1593
 9303SOL    HW139545   3.976   1.757   2.375 -1.2480 -0.5689  0.2842
 9303SOL    HW239546   3.914   1.622   2.391 -1.5073 -0.6716  1.9284
 9304SOL     OW39547   0.823   0.592  16.618 -0.7578  0.3555  0.1886
 9304SOL    HW139548   0.894   0.638  16.663 -1.4565  1.2465  0.3631
 9304SOL    HW239549   0.757   0.586  16.686 -1.4795  0.7086 -0.4763
 9305SOL     OW39550   3.286   1.461  14.629 -0.3154  0.2287  0.2078
 9305SOL    HW139551   3.361   1.515  14.604  0.0888  0.5084  2.0210
 9305SOL    HW239552   3.226   1.524  14.589  1.1225  1.2152 -0.3862
 9306SOL     OW39553   3.646   0.348   1.570 -0.2496 -0.1785  0.3853
 9306SOL    HW139554   3.588   0.276   1.592  1.7217 -1.3267  1.8681
 9306SOL    HW239555   3.703   0.308   1.504 -3.0159 -2.8577 -0.3374
 9307SOL     OW39556   0.569   1.173  16.643  0.0260  0.3499  0.5703
 9307SOL    HW139557   0.476   1.153  16.639 -0.2850  2.1063 -0.6472
 9307SOL    HW239558   0.598   1.166  16.552 -2.4408  1.1708 -0.2534
 9308SOL     OW39559   0.411   0.109   1.556 -0.1395 -0.1480 -0.4193
 9308SOL    HW139560   0.488   0.164   1.568  0.2657 -0.6767 -0.6356
 9308SOL    HW239561   0.434   0.028   1.601  5.2102  0.1069 -2.7073
 9309SOL     OW39562   0.869   1.999   7.668 -0.0095  0.6055 -0.0185
 9309SOL    HW139563   0.829   2.004   7.755  0.5856  2.9271  0.1406
 9309SOL    HW239564   0.797   1.975   7.610 -0.6499  1.0503  0.5863
 9310SOL     OW39565   1.028   3.049   3.555  0.2387  0.3888  0.1669
 9310SOL    HW139566   1.044   2.972   3.500  0.1684  0.8211 -0.4656
 9310SOL    HW239567   1.117   3.084   3.550  0.8636 -1.2154 -0.0176
 9311SOL     OW39568   0.435   1.102  13.068  0.2916  0.2350  0.0894
 9311SOL    HW139569   0.524   1.081  13.094  0.0112 -2.6466 -1.3197
 9311SOL    HW239570   0.461   1.167  13.003 -0.8876 -0.4459 -1.0585
 9312SOL     OW39571   0.633   4.540   4.003  0.1732  0.3365 -0.3340
 9312SOL    HW139572   0.625   4.633   3.985 -0.0971  0.1796 -1.0161
 9312SOL    HW239573   0.556   4.521   4.056 -0.6074 -2.1728 -2.3772
 9313SOL     OW39574   1.799   2.746  11.574  0.4964  0.4233  0.3183
 9313SOL    HW139575   1.889   2.742  11.541 -0.6060 -2.4462 -2.4088
 9313SOL    HW239576   1.811   2.709  11.661  0.5677 -4.2395 -1.6855
 9314SOL     OW39577   1.235   1.292   4.674  0.0592  0.1027 -0.3548
 9314SOL    HW139578   1.148   1.253   4.670 -0.9908  2.0293  2.8901
 9314SOL    HW239579   1.277   1.218   4.717  0.5495  1.1388  0.9703
 9315SOL     OW39580   0.562   4.340   3.770  0.0080 -0.1429  0.5274
 9315SOL    HW139581   0.478   4.325   3.813  0.1719 -0.3789  0.7621
 9315SOL    HW239582   0.617   4.366   3.844  1.1104 -1.9946  0.3672
 9316SOL     OW39583   1.474   0.685   3.166 -0.0682  0.1882 -0.5437
 9316SOL    HW139584   1.444   0.649   3.250 -0.1964 -0.6918 -0.9714
 9316SOL    HW239585   1.444   0.615   3.107 -2.0768 -0.8888  1.7353
 9317SOL     OW39586   4.589   2.791  11.754 -0.3028  0.5621 -0.1656
 9317SOL    HW139587   4.497   2.764  11.760 -0.1023 -0.3723 -1.1953
 9317SOL    HW239588   4.572   2.864  11.693  0.6303  0.1072 -0.9709
 9318SOL     OW39589   3.203   3.823  14.415  0.5035  0.1552 -0.0255
 9318SOL    HW139590   3.273   3.839  14.351  0.4686 -0.4840 -0.2251
 9318SOL    HW239591   3.190   3.910  14.452 -2.3360 -0.7955  1.2045
 9319SOL     OW39592   4.193   3.336  16.035  0.5855  0.2736 -0.0573
 9319SOL    HW139593   4.165   3.283  16.110  1.0948 -1.6453 -1.2262
 9319SOL    HW239594   4.148   3.291  15.963  0.1207 -0.5904  0.7618
 9320SOL     OW39595   1.517   0.402   4.929  0.0396 -0.0570  0.2098
 9320SOL    HW139596   1.551   0.322   4.970  2.4640 -0.2945 -2.2963
 9320SOL    HW239597   1.443   0.358   4.887 -1.5184  0.1801  2.6926
 9321SOL     OW39598   0.015   1.272   9.430 -0.3028  0.4231 -0.6142
 9321SOL    HW139599   0.086   1.337   9.434  1.8526 -1.9115 -1.3318
 9321SOL    HW239600   4.727   1.284   9.522 -0.0820 -0.3460 -0.4602
 9322SOL     OW39601   3.145   2.484   9.276 -0.1809  0.4756  0.7781
 9322SOL    HW139602   3.071   2.498   9.218  1.2104  0.3645 -1.0110
 9322SOL    HW239603   3.132   2.546   9.348 -1.2144  1.9609 -0.7081
 9323SOL     OW39604   1.406   3.365   4.568  0.1454 -0.1725 -0.1144
 9323SOL    HW139605   1.400   3.291   4.629  0.9584 -0.1534 -0.0109
 9323SOL    HW239606   1.418   3.309   4.491  0.3583  0.0476 -0.2417
 9324SOL     OW39607   0.272   1.487  12.183  0.2138  0.1135 -0.0710
 9324SOL    HW139608   0.209   1.559  12.186 -1.7445 -1.6208  0.8341
 9324SOL    HW239609   0.318   1.499  12.100 -0.9000 -0.7467 -0.8175
 9325SOL     OW39610   1.236   0.192   1.919  0.1607 -0.1672 -0.2933
 9325SOL    HW139611   1.272   0.145   1.844 -2.0682 -0.8058 -0.9764
 9325SOL    HW239612   1.168   0.133   1.951  0.6897 -0.4400  0.3318
 9326SOL     OW39613   4.159   1.315   2.324 -0.1993 -0.0642  0.0118
 9326SOL    HW139614   4.239   1.367   2.315  0.2904 -0.5048  1.6980
 9326SOL    HW239615   4.198   1.229   2.340  1.8938  1.0011  0.6581
 9327SOL     OW39616   4.470   4.018   6.483 -0.2290 -0.2517  0.3096
 9327SOL    HW139617   4.493   4.111   6.483  2.2797 -0.8728 -2.8359
 9327SOL    HW239618   4.482   3.995   6.391  2.8878 -1.0722  0.9061
 9328SOL     OW39619   1.808   0.226   5.778  0.3954  0.0214 -0.9277
 9328SOL    HW139620   1.786   0.166   5.849  1.7537 -0.3412 -0.8068
 9328SOL    HW239621   1.729   0.246   5.728 -1.0143 -1.2965  0.8006
 9329SOL     OW39622   1.713   2.503  14.556 -0.4899 -0.2129  0.3518
 9329SOL    HW139623   1.633   2.548  14.585 -1.9181  0.5822 -4.7054
 9329SOL    HW239624   1.740   2.561  14.484 -1.6851  1.1230  0.9660
 9330SOL     OW39625   3.559   1.421   3.023  0.2245  0.5296  0.5111
 9330SOL    HW139626   3.602   1.460   2.947  0.4902 -0.6475  0.0612
 9330SOL    HW239627   3.601   1.472   3.092  2.9541 -0.5796 -0.3509
 9331SOL     OW39628   3.163   1.758   5.916 -0.1808  0.7314 -0.1728
 9331SOL    HW139629   3.223   1.744   5.990  0.2311 -2.1714 -1.0835
 9331SOL    HW239630   3.221   1.771   5.841  0.4529  1.1578  0.3866
 9332SOL     OW39631   3.255   3.461  10.981 -0.1193  0.4037  0.0219
 9332SOL    HW139632   3.296   3.545  10.962 -1.4221  1.5787  2.4534
 9332SOL    HW239633   3.186   3.446  10.917 -2.4094  0.7440  2.4101
 9333SOL     OW39634   0.204   1.856   2.098 -0.1736  0.0034  0.0110
 9333SOL    HW139635   0.278   1.903   2.137  0.0367  0.5596 -1.0746
 9333SOL    HW239636   0.251   1.780   2.064 -0.9474 -1.3154  1.8737
 9334SOL     OW39637   1.579   1.016   9.847  0.2650  0.0026 -0.3947
 9334SOL    HW139638   1.528   1.048   9.922  0.1812 -0.9502 -0.0339
 9334SOL    HW239639   1.661   0.995   9.891  1.0664  0.3767 -1.7138
 9335SOL     OW39640   2.928   1.280   4.854 -0.4033 -0.0427 -0.3554
 9335SOL    HW139641   2.955   1.269   4.762 -0.2939 -1.1473 -0.1928
 9335SOL    HW239642   2.964   1.364   4.880 -1.6235  0.2982  0.2162
 9336SOL     OW39643   3.542   3.558   3.084 -0.7640 -0.2124  0.0634
 9336SOL    HW139644   3.459   3.591   3.050  0.3445 -0.2852 -2.7956
 9336SOL    HW239645   3.546   3.586   3.175  3.0869  1.6601 -0.6720
 9337SOL     OW39646   2.294   2.371  14.542  0.3380  0.4737 -0.0455
 9337SOL    HW139647   2.199   2.379  14.536  0.2640 -0.6497 -0.2583
 9337SOL    HW239648   2.311   2.354  14.635  1.8804  1.0411 -0.2210
 9338SOL     OW39649   0.750   1.894   5.754 -0.4530 -0.0128 -0.3855
 9338SOL    HW139650   0.734   1.896   5.848  1.1811 -1.9997 -0.0478
 9338SOL    HW239651   0.741   1.988   5.743  0.2658  0.1886  0.7402
 9339SOL     OW39652   3.237   2.976   4.014 -0.4029  0.0547 -0.1757
 9339SOL    HW139653   3.154   2.959   4.058 -0.0363 -1.6777 -0.1384
 9339SOL    HW239654   3.297   2.917   4.059  2.8557  1.2373 -2.9509
 9340SOL     OW39655   2.709   2.276   8.744 -0.0427 -0.4792 -0.5803
 9340SOL    HW139656   2.655   2.342   8.701 -0.3394  0.0700  0.6248
 9340SOL    HW239657   2.666   2.254   8.827 -1.2413  1.3278 -0.7242
 9341SOL     OW39658   4.195   1.811   7.180 -0.1848  0.3524 -0.3086
 9341SOL    HW139659   4.140   1.840   7.253  1.1385  1.8240  0.0971
 9341SOL    HW239660   4.274   1.823   7.234  1.1187 -0.2224 -2.0887
 9342SOL     OW39661   2.577   1.640  13.420  0.5871 -0.3669 -0.1983
 9342SOL    HW139662   2.555   1.725  13.380 -0.9265 -0.1528  1.1072
 9342SOL    HW239663   2.551   1.667  13.508  1.9832  0.1122  0.0704
 9343SOL     OW39664   1.097   4.323   1.461  0.0956  0.2845  0.3535
 9343SOL    HW139665   1.167   4.341   1.398  1.7622 -3.9095  1.0208
 9343SOL    HW239666   1.119   4.231   1.471 -1.4456 -0.3074 -1.4871
 9344SOL     OW39667   2.618   2.186   2.581  0.2795 -0.1769  0.1834
 9344SOL    HW139668   2.580   2.263   2.623 -1.0682 -2.0631  2.4041
 9344SOL    HW239669   2.679   2.229   2.521 -1.8014 -0.3203 -2.0485
 9345SOL     OW39670   1.705   2.148   3.383  0.3583 -0.0246  0.2858
 9345SOL    HW139671   1.766   2.098   3.328 -1.2983 -0.8916 -0.7601
 9345SOL    HW239672   1.626   2.095   3.376 -0.1612  0.3935  3.0648
 9346SOL     OW39673   3.505   4.149  16.540  0.6145 -0.5665 -0.1740
 9346SOL    HW139674   3.478   4.111  16.623 -0.3801  1.1871  0.2973
 9346SOL    HW239675   3.483   4.079  16.479  2.7976  0.6050 -2.3132
 9347SOL     OW39676   3.503   4.427   6.520  0.4311 -0.5947  0.0025
 9347SOL    HW139677   3.428   4.484   6.534  2.1142  1.8946 -1.2780
 9347SOL    HW239678   3.486   4.402   6.429 -0.2345 -1.9038  0.4913
 9348SOL     OW39679   1.600   3.299   5.208  0.4633  0.0453  0.3946
 9348SOL    HW139680   1.605   3.393   5.188  1.7990 -0.3080 -0.9245
 9348SOL    HW239681   1.600   3.262   5.120 -0.8372 -3.0139  1.6714
 9349SOL     OW39682   3.583   3.146   1.394 -0.0032 -0.3572  0.5577
 9349SOL    HW139683   3.572   3.234   1.431  2.6662 -0.5725  1.8249
 9349SOL    HW239684   3.678   3.135   1.401 -0.0975 -0.1644  2.1199
 9350SOL     OW39685   1.924   2.869   2.574  0.2064 -0.7051 -0.0933
 9350SOL    HW139686   1.893   2.956   2.598  1.8812 -0.3406  0.7455
 9350SOL    HW239687   1.896   2.821   2.653  0.3187  0.5427  0.7005
 9351SOL     OW39688   0.844   1.961   6.418 -0.0302 -0.4003  0.3165
 9351SOL    HW139689   0.918   1.901   6.434 -1.1390 -1.1417  2.6498
 9351SOL    HW239690   0.886   2.045   6.436 -2.0292  0.8155 -0.7734
 9352SOL     OW39691   4.052   3.718  12.483  0.4010 -0.3317  0.2311
 9352SOL    HW139692   4.097   3.638  12.454 -3.4966 -1.6538 -2.2315
 9352SOL    HW239693   3.964   3.680  12.490  0.2727  0.0001  0.4168
 9353SOL     OW39694   0.575   2.706  17.223 -0.2583  0.2870  0.3702
 9353SOL    HW139695   0.632   2.695  17.299 -0.2326  0.5183  0.3827
 9353SOL    HW239696   0.580   2.800  17.208 -0.7183  0.3412  0.5575
 9354SOL     OW39697   0.035   3.347  15.015 -0.4098 -0.0143 -0.7118
 9354SOL    HW139698   0.088   3.423  15.039 -0.5764 -0.3476  0.7133
 9354SOL    HW239699   4.695   3.362  15.070  0.2424 -0.4619  0.3113
 9355SOL     OW39700   3.334   0.740   6.163  0.1913  0.4328 -0.1732
 9355SOL    HW139701   3.278   0.678   6.209  1.3434 -1.6079 -1.5208
 9355SOL    HW239702   3.267   0.780   6.107  1.8743  2.7089 -0.5506
 9356SOL     OW39703   1.865   3.629   8.442  0.4398 -0.2427  0.4372
 9356SOL    HW139704   1.770   3.635   8.447  0.5107  0.2651  1.2748
 9356SOL    HW239705   1.868   3.538   8.414 -0.4964 -0.2317  0.3110
 9357SOL     OW39706   3.991   2.279   1.734 -0.3688 -0.1332 -0.2242
 9357SOL    HW139707   3.932   2.276   1.658 -0.4934  1.4305 -0.2045
 9357SOL    HW239708   3.941   2.273   1.816  0.1155 -3.4225 -0.1911
 9358SOL     OW39709   3.635   4.257  15.336  0.2232  0.5459 -0.1516
 9358SOL    HW139710   3.641   4.187  15.270 -0.9846  0.3386 -0.0394
 9358SOL    HW239711   3.551   4.228  15.371  0.8844 -2.5267 -1.0552
 9359SOL     OW39712   2.884   2.786   5.232  0.5267  0.0935  0.2950
 9359SOL    HW139713   2.836   2.855   5.185 -1.9510 -2.3672 -0.8143
 9359SOL    HW239714   2.920   2.838   5.304 -1.7762  0.3124  1.2857
 9360SOL     OW39715   3.066   2.438  15.417  0.4517  0.1394 -0.2380
 9360SOL    HW139716   3.008   2.477  15.483 -0.3277 -0.4897 -0.5529
 9360SOL    HW239717   3.003   2.374  15.383  0.2798  1.1224 -1.7924
 9361SOL     OW39718   4.667   0.058   2.796  0.9334  0.0681 -0.0962
 9361SOL    HW139719   4.686   0.015   2.713 -0.1284 -0.9010  0.1605
 9361SOL    HW239720   4.574   0.080   2.785  0.1481 -1.4019  3.5716
 9362SOL     OW39721   3.249   1.689   8.615  0.3246  0.0981 -0.7086
 9362SOL    HW139722   3.193   1.759   8.649 -0.7870 -0.5333 -1.2101
 9362SOL    HW239723   3.336   1.727   8.620  0.2436  0.1806  0.0258
 9363SOL     OW39724   1.991   3.677   6.665  0.9548 -0.0908  0.9830
 9363SOL    HW139725   1.955   3.765   6.673 -1.2006 -0.9441  0.5861
 9363SOL    HW239726   1.913   3.621   6.665 -0.0773  1.3573 -2.3127
 9364SOL     OW39727   4.153   2.499  11.504 -0.6746 -1.3272 -0.6238
 9364SOL    HW139728   4.180   2.581  11.464 -0.4725 -0.2808  1.6746
 9364SOL    HW239729   4.118   2.530  11.587 -1.3898 -1.7193 -0.7752
 9365SOL     OW39730   4.364   2.311   1.822  0.1020  0.0280  0.1817
 9365SOL    HW139731   4.402   2.223   1.820  0.4436  0.1335  1.6379
 9365SOL    HW239732   4.412   2.359   1.754  0.7980  0.9566  1.3262
 9366SOL     OW39733   0.752   2.073   0.743 -0.1706 -0.2233  0.0955
 9366SOL    HW139734   0.767   2.166   0.758  0.0117 -0.3644  0.8052
 9366SOL    HW239735   0.691   2.077   0.670 -0.1536  1.0949  0.1565
 9367SOL     OW39736   2.337   3.948   4.354  0.0707 -0.5062  0.3880
 9367SOL    HW139737   2.319   3.983   4.267  1.0355 -3.0412 -0.8541
 9367SOL    HW239738   2.246   3.936   4.382 -0.1836  0.7774  0.0781
 9368SOL     OW39739   4.348   0.972   1.984  0.1706  0.2568  0.4628
 9368SOL    HW139740   4.292   0.907   1.942 -0.0550 -0.3912  1.7709
 9368SOL    HW239741   4.436   0.937   1.972 -0.8420 -1.3086 -2.1748
 9369SOL     OW39742   0.537   1.331   9.251  0.1777  0.2912 -1.3212
 9369SOL    HW139743   0.517   1.275   9.176  1.8318 -1.6288 -0.3243
 9369SOL    HW239744   0.603   1.392   9.216  1.6948 -0.1311  0.7828
 9370SOL     OW39745   2.994   2.703  14.740 -0.3773  0.3746 -0.5558
 9370SOL    HW139746   2.949   2.665  14.665  2.2670 -0.1683 -1.8670
 9370SOL    HW239747   3.081   2.690  14.702  0.3813  0.6735  1.0831
 9371SOL     OW39748   3.616   3.045   2.008  0.2881  0.3883  0.0243
 9371SOL    HW139749   3.608   2.954   1.979 -1.3662  0.9506 -1.3094
 9371SOL    HW239750   3.634   3.087   1.924  1.0573  1.3907  0.7007
 9372SOL     OW39751   0.610   2.550   2.082  0.0803  0.0420 -0.1370
 9372SOL    HW139752   0.564   2.629   2.054 -0.1842 -0.4357 -1.0501
 9372SOL    HW239753   0.580   2.488   2.016  0.8965 -0.2103 -0.2713
 9373SOL     OW39754   0.504   1.627   2.256  0.0253 -0.6352 -0.0910
 9373SOL    HW139755   0.566   1.587   2.195  0.3275 -0.9236  0.4039
 9373SOL    HW239756   0.494   1.718   2.228  0.0560 -0.3991  0.6612
 9374SOL     OW39757   3.505   2.421   4.353 -0.1306 -0.1279 -0.2260
 9374SOL    HW139758   3.526   2.353   4.290 -1.0398 -1.2051  0.6403
 9374SOL    HW239759   3.562   2.413   4.430 -1.5370  0.8367  0.9306
 9375SOL     OW39760   4.139   4.560   1.248 -0.0991  0.2716  0.0861
 9375SOL    HW139761   4.202   4.574   1.177 -0.1952 -1.4997 -0.3603
 9375SOL    HW239762   4.193   4.583   1.323 -1.8577 -0.4205  1.5733
 9376SOL     OW39763   4.612   2.743  12.010 -0.5022  0.2905 -0.3704
 9376SOL    HW139764   4.619   2.784  11.923  0.6581 -1.5120 -1.1250
 9376SOL    HW239765   4.518   2.759  12.022 -0.3732  1.8693 -1.5028
 9377SOL     OW39766   1.773   2.596  17.229  0.2342 -0.2495 -0.3298
 9377SOL    HW139767   1.720   2.624  17.154  1.1285 -1.4985 -1.4210
 9377SOL    HW239768   1.819   2.678  17.246  0.0721 -0.6117  1.8061
 9378SOL     OW39769   0.375   2.057   9.333  0.0072  0.1641  0.0154
 9378SOL    HW139770   0.452   2.048   9.277  0.5705 -0.7840  0.9593
 9378SOL    HW239771   0.308   2.053   9.264 -0.9704 -1.0572  1.0367
 9379SOL     OW39772   4.038   1.378   8.135  0.0756 -0.4439  0.3871
 9379SOL    HW139773   4.046   1.424   8.051  1.1660 -0.5684  0.4174
 9379SOL    HW239774   3.953   1.417   8.156 -1.1735 -0.9987 -3.5863
 9380SOL     OW39775   0.287   2.181  12.957  0.6260  0.2732  0.0880
 9380SOL    HW139776   0.371   2.154  12.995 -0.1453 -3.7212 -0.9990
 9380SOL    HW239777   0.250   2.100  12.923 -1.9647  1.4361  0.1929
 9381SOL     OW39778   3.689   1.829   3.061  0.0593  0.5421 -0.2583
 9381SOL    HW139779   3.773   1.787   3.042 -0.3377 -0.4597  0.2050
 9381SOL    HW239780   3.647   1.757   3.108  1.5477  0.7965  1.4571
 9382SOL     OW39781   3.766   2.580   1.997 -0.1705  0.0535  0.0087
 9382SOL    HW139782   3.695   2.524   1.967  0.8638 -0.6994 -1.0306
 9382SOL    HW239783   3.743   2.581   2.090  0.0297 -1.3179  0.0715
 9383SOL     OW39784   3.947   0.467   6.475 -0.1843 -0.3185 -0.3038
 9383SOL    HW139785   3.902   0.540   6.432 -1.1835  0.2251  1.6878
 9383SOL    HW239786   3.912   0.471   6.564  1.1621  2.1021  0.0999
 9384SOL     OW39787   1.932   3.899   8.565 -0.2077  0.0756 -0.0223
 9384SOL    HW139788   2.021   3.933   8.558 -0.6613  1.4166  0.7788
 9384SOL    HW239789   1.944   3.810   8.533 -0.6776  0.0502 -0.1297
 9385SOL     OW39790   4.306   0.972   4.354  0.2139 -0.0439  0.2167
 9385SOL    HW139791   4.256   1.041   4.309 -1.4518 -0.8403  0.8551
 9385SOL    HW239792   4.250   0.898   4.378  0.8278 -1.1353 -1.6951
 9386SOL     OW39793   1.142   2.800   8.584 -0.1794  0.0593  0.2680
 9386SOL    HW139794   1.072   2.860   8.561 -0.5911 -0.4276  0.2521
 9386SOL    HW239795   1.094   2.719   8.568  0.3041  0.0145 -0.9540
 9387SOL     OW39796   2.487   1.025   2.271 -0.2878 -0.3533  0.3416
 9387SOL    HW139797   2.489   0.930   2.259  2.9196 -0.1547 -0.5984
 9387SOL    HW239798   2.450   1.058   2.189  3.2782  1.2943 -0.5949
 9388SOL     OW39799   0.391   2.561   6.221  0.0896 -0.6554 -0.5588
 9388SOL    HW139800   0.412   2.505   6.147  1.1451 -0.2627 -0.5632
 9388SOL    HW239801   0.442   2.637   6.192 -0.1605 -0.8457 -1.4868
 9389SOL     OW39802   3.221   3.111   0.607  0.1217  0.3572 -0.0069
 9389SOL    HW139803   3.248   3.171   0.539  0.6709  0.5111  0.3437
 9389SOL    HW239804   3.284   3.039   0.604  0.1130  0.4468 -2.3263
 9390SOL     OW39805   2.515   1.040   0.958  0.2808  0.4995  0.3080
 9390SOL    HW139806   2.522   1.098   1.034 -2.4205 -0.1706  1.0750
 9390SOL    HW239807   2.592   0.984   0.971 -1.5216 -2.0539 -0.0508
 9391SOL     OW39808   4.282   1.213   8.620 -0.2632  0.1640  0.2798
 9391SOL    HW139809   4.245   1.294   8.654  3.1377  0.5491  3.0885
 9391SOL    HW239810   4.300   1.153   8.693 -0.8239 -0.8393 -0.4078
 9392SOL     OW39811   0.028   4.326  14.888 -0.0709  0.0929  0.6300
 9392SOL    HW139812   0.102   4.384  14.872  2.3753 -3.2223 -0.1024
 9392SOL    HW239813   4.694   4.388  14.870  0.8670  1.4158  1.5860
 9393SOL     OW39814   1.743   0.081  10.099  0.0958 -0.5459  0.0063
 9393SOL    HW139815   1.710   0.128  10.175  1.7176  1.2693 -0.4186
 9393SOL    HW239816   1.785   0.005  10.137  1.2295 -0.0596 -0.2776
 9394SOL     OW39817   2.438   3.693   1.726  0.4422 -0.1700  0.1922
 9394SOL    HW139818   2.507   3.729   1.671 -0.7836  0.7914 -0.7333
 9394SOL    HW239819   2.482   3.612   1.750 -0.3680 -0.5295  0.4647
 9395SOL     OW39820   3.433   2.548   9.000  0.5996  0.3253 -0.8632
 9395SOL    HW139821   3.403   2.504   8.921  0.5198  1.9331 -1.7309
 9395SOL    HW239822   3.444   2.467   9.050  1.8712  0.1751 -1.3734
 9396SOL     OW39823   2.593   4.015  15.908 -0.0338  0.5957 -0.6050
 9396SOL    HW139824   2.504   3.983  15.921  1.3417 -3.0870 -0.2677
 9396SOL    HW239825   2.636   3.936  15.875 -1.7182 -1.2938  1.7244
 9397SOL     OW39826   3.469   1.616   1.263  0.0431  0.1325  0.5681
 9397SOL    HW139827   3.424   1.535   1.286 -0.3657  0.0674 -0.4300
 9397SOL    HW239828   3.421   1.649   1.187  0.8388 -0.7264 -0.3073
 9398SOL     OW39829   3.992   3.570   3.743  0.0621  0.1106  0.0146
 9398SOL    HW139830   4.057   3.514   3.701 -1.2616 -0.0323 -1.8664
 9398SOL    HW239831   3.976   3.628   3.669  1.5968  1.6567  0.9020
 9399SOL     OW39832   3.230   2.481   5.829 -0.5465  0.5284 -0.5523
 9399SOL    HW139833   3.206   2.526   5.748 -0.9283  0.7540 -0.3162
 9399SOL    HW239834   3.324   2.499   5.826 -0.3960 -0.5383 -1.8206
 9400SOL     OW39835   1.295   3.625   9.145  0.4596 -0.5973  0.3665
 9400SOL    HW139836   1.353   3.699   9.127  2.2147 -1.9932  0.2775
 9400SOL    HW239837   1.363   3.558   9.158  1.9479  0.7059 -0.7569
 9401SOL     OW39838   4.285   3.751   7.380  0.1692  0.3935  0.9033
 9401SOL    HW139839   4.266   3.821   7.318  2.2401  0.0010 -0.1675
 9401SOL    HW239840   4.303   3.799   7.461  1.5192  1.1762  0.1418
 9402SOL     OW39841   3.664   1.640   4.810 -0.8864  0.2208  0.5089
 9402SOL    HW139842   3.706   1.726   4.810 -0.3166 -0.0569  0.0950
 9402SOL    HW239843   3.591   1.645   4.871 -1.4960 -1.6926 -0.0383
 9403SOL     OW39844   0.882   1.105   6.497  0.1988 -0.1495  0.0409
 9403SOL    HW139845   0.892   1.020   6.454 -0.5343  1.0297 -2.4420
 9403SOL    HW239846   0.975   1.130   6.494  0.3689 -0.7800  0.0993
 9404SOL     OW39847   3.744   3.261   1.823  0.1264 -0.2847 -0.5678
 9404SOL    HW139848   3.794   3.331   1.865 -0.2138 -0.6938  0.5356
 9404SOL    HW239849   3.808   3.210   1.773  1.6562  2.7100 -1.6551
 9405SOL     OW39850   0.900   3.700   6.046 -0.0788 -0.3677  0.1114
 9405SOL    HW139851   0.815   3.733   6.075  0.1868 -0.8548  1.4406
 9405SOL    HW239852   0.928   3.652   6.124  0.6328  0.2243  0.2226
 9406SOL     OW39853   0.311   3.763   1.939 -0.4549  0.1942  0.6949
 9406SOL    HW139854   0.268   3.754   2.024  0.1906  0.9507  1.1001
 9406SOL    HW239855   0.280   3.682   1.898 -0.2610  0.2471  0.4462
 9407SOL     OW39856   1.694   4.632  15.191 -0.7679 -0.3987 -0.3661
 9407SOL    HW139857   1.717   4.685  15.115  0.7524 -2.4132 -1.3055
 9407SOL    HW239858   1.752   4.556  15.189 -1.5779 -1.0654  1.1596
 9408SOL     OW39859   1.643   2.298   7.989 -0.2788  0.0671 -0.8010
 9408SOL    HW139860   1.586   2.343   7.927  0.0047 -1.4831 -2.1669
 9408SOL    HW239861   1.584   2.226   8.012 -0.6166 -0.0271 -1.9612
 9409SOL     OW39862   2.253   4.627  15.753 -0.2755 -0.5872  0.1268
 9409SOL    HW139863   2.214   4.576  15.683 -1.4449 -0.0963  0.4223
 9409SOL    HW239864   2.210   4.711  15.739  2.6176  1.1419  1.5673
 9410SOL     OW39865   4.361   1.142   1.105  0.1002 -0.1085  0.1790
 9410SOL    HW139866   4.359   1.211   1.039 -2.1335 -0.5162 -0.1784
 9410SOL    HW239867   4.324   1.182   1.184 -1.4368 -0.9626 -0.1124
 9411SOL     OW39868   4.434   0.940  10.816 -0.2180  0.1990  0.4569
 9411SOL    HW139869   4.450   1.025  10.776 -1.7112  0.4453  0.3836
 9411SOL    HW239870   4.517   0.928  10.861 -0.5237 -1.0928  0.6768
 9412SOL     OW39871   0.605   1.910  11.149 -0.1910 -0.3234 -0.1027
 9412SOL    HW139872   0.620   1.933  11.057 -1.0051  2.4071  0.4328
 9412SOL    HW239873   0.610   1.815  11.144  3.2894 -0.1101 -0.4723
 9413SOL     OW39874   2.055   2.400   0.707 -0.0546  0.7449  0.6427
 9413SOL    HW139875   1.993   2.437   0.770  0.2218 -0.1530  1.4395
 9413SOL    HW239876   2.104   2.482   0.702 -0.2487  0.9290  1.8696
 9414SOL     OW39877   1.805   2.913   3.442  0.5999 -0.0769 -0.0920
 9414SOL    HW139878   1.862   2.848   3.483  0.2989  0.4493  1.1822
 9414SOL    HW239879   1.726   2.858   3.448  1.1692 -1.0800 -2.1585
 9415SOL     OW39880   2.751   4.450   1.265 -0.2762 -0.0113 -0.1039
 9415SOL    HW139881   2.660   4.440   1.294  0.2841  1.4119  2.1875
 9415SOL    HW239882   2.732   4.484   1.178 -3.1663  0.8064  0.8395
 9416SOL     OW39883   3.674   0.763   1.674 -0.2947  0.2519  0.0454
 9416SOL    HW139884   3.715   0.828   1.616 -0.9689 -1.0647 -1.9074
 9416SOL    HW239885   3.585   0.780   1.643  1.3430  4.0632 -2.5690
 9417SOL     OW39886   1.741   4.288   5.709  0.4216 -0.4800 -0.2980
 9417SOL    HW139887   1.805   4.301   5.640 -0.9035  1.8779 -1.0826
 9417SOL    HW239888   1.679   4.234   5.660  0.6252 -1.6873  0.7673
 9418SOL     OW39889   4.236   3.366   7.644 -0.2212 -0.6468 -0.3628
 9418SOL    HW139890   4.150   3.408   7.635  0.2562  0.3862  0.0341
 9418SOL    HW239891   4.294   3.434   7.613  0.8267 -0.4090  2.1748
 9419SOL     OW39892   4.217   1.050   2.374 -0.5754  0.6745 -0.5582
 9419SOL    HW139893   4.213   0.983   2.306  0.2321  0.3954 -0.3378
 9419SOL    HW239894   4.208   0.999   2.455 -0.2413 -1.7436 -2.0244
 9420SOL     OW39895   3.751   2.112   2.722  0.2044  0.3431 -0.0028
 9420SOL    HW139896   3.773   2.158   2.803  1.5266  2.0754 -1.3726
 9420SOL    HW239897   3.771   2.022   2.748  2.5573  0.3319 -1.8201
 9421SOL     OW39898   1.522   1.923  17.191  0.0366 -0.3107  0.6920
 9421SOL    HW139899   1.470   1.898  17.267 -0.7632  1.5584  0.7582
 9421SOL    HW239900   1.465   1.880  17.126  0.2099  1.0227 -0.3514
 9422SOL     OW39901   4.251   0.889   1.070 -0.1724 -0.3014  0.0533
 9422SOL    HW139902   4.264   0.983   1.065  1.0279 -0.4325  0.7049
 9422SOL    HW239903   4.283   0.872   1.158 -0.0055  0.5316  0.1481
 9423SOL     OW39904   4.646   0.663   8.502 -0.2760  0.6660 -0.2244
 9423SOL    HW139905   4.721   0.640   8.557  0.0054 -1.3325 -1.4512
 9423SOL    HW239906   4.626   0.581   8.458 -1.2496  0.2501  0.9906
 9424SOL     OW39907   4.709   2.993   9.665  0.5081 -0.3219 -0.1631
 9424SOL    HW139908   4.621   3.030   9.658  0.1328 -1.3896 -1.0625
 9424SOL    HW239909   4.725   2.974   9.757 -0.8922  1.3559  0.4135
 9425SOL     OW39910   4.358   2.827  12.062 -0.3217 -0.6268 -0.9926
 9425SOL    HW139911   4.270   2.792  12.076 -0.6359  0.5452 -0.0632
 9425SOL    HW239912   4.382   2.812  12.153 -1.9322 -0.8482 -0.5965
 9426SOL     OW39913   0.168   3.521   7.114  0.1303 -0.1745 -0.3655
 9426SOL    HW139914   0.230   3.463   7.069 -1.4485 -0.4841 -2.1348
 9426SOL    HW239915   0.151   3.578   7.039  2.1417  0.3227 -0.4351
 9427SOL     OW39916   0.928   3.145   6.057 -0.4082  0.6177  0.1275
 9427SOL    HW139917   0.908   3.227   6.013  0.5187  0.1739 -1.1057
 9427SOL    HW239918   0.867   3.160   6.129  0.6439 -1.5797  1.4987
 9428SOL     OW39919   0.948   0.532   6.275  0.7491  0.3539  0.1678
 9428SOL    HW139920   1.004   0.464   6.311 -0.3418 -0.3431  0.5357
 9428SOL    HW239921   0.912   0.571   6.355 -1.2116 -4.2965  1.5338
 9429SOL     OW39922   3.778   3.883   5.801 -0.0543  0.3043 -0.4811
 9429SOL    HW139923   3.862   3.869   5.757 -0.7071 -0.4063 -1.4833
 9429SOL    HW239924   3.740   3.801   5.769  0.7982  0.1028 -0.9873
 9430SOL     OW39925   4.174   3.430   8.416  0.4012 -0.3259 -0.4421
 9430SOL    HW139926   4.221   3.430   8.333  0.1440  0.7272 -0.5887
 9430SOL    HW239927   4.243   3.399   8.476 -0.3208  0.5886  0.8761
 9431SOL     OW39928   2.487   1.302  12.023  0.0764 -0.2263 -0.2368
 9431SOL    HW139929   2.473   1.265  12.111  2.0308  0.0155  0.1777
 9431SOL    HW239930   2.399   1.305  11.987 -0.1119  2.5537  0.4749
 9432SOL     OW39931   4.135   1.535  15.526  0.7224  0.2419  0.1578
 9432SOL    HW139932   4.133   1.450  15.484  0.1028 -0.7077  2.1107
 9432SOL    HW239933   4.202   1.524  15.594  0.4718  1.5855  0.6336
 9433SOL     OW39934   3.512   4.050   4.238  0.2114  0.0342  0.0644
 9433SOL    HW139935   3.495   3.958   4.218  2.2359 -0.4700  0.7311
 9433SOL    HW239936   3.605   4.055   4.216  0.4530 -3.2101  0.3653
 9434SOL     OW39937   2.798   4.265   7.697  0.2629 -0.2915 -0.1072
 9434SOL    HW139938   2.807   4.340   7.639  0.4299  0.8824  1.4583
 9434SOL    HW239939   2.881   4.223   7.676 -0.5130 -0.5787 -2.6097
 9435SOL     OW39940   1.209   4.204  10.220  0.2975  0.0787 -0.3589
 9435SOL    HW139941   1.156   4.158  10.155 -0.6828  0.2406  0.3261
 9435SOL    HW239942   1.165   4.289  10.232  0.2703  0.0759 -0.4408
 9436SOL     OW39943   4.394   0.626  11.796  0.2117 -0.5870  0.5064
 9436SOL    HW139944   4.412   0.565  11.725  4.0793  1.2791 -0.1080
 9436SOL    HW239945   4.315   0.670  11.764 -0.0976 -0.4634  1.4533
 9437SOL     OW39946   4.680   2.049   3.847 -0.1934 -0.2690  0.3197
 9437SOL    HW139947   0.034   2.021   3.860  0.8853  1.7050 -2.9350
 9437SOL    HW239948   4.676   2.084   3.758 -1.0312  0.0432  0.4850
 9438SOL     OW39949   2.178   1.025   8.026 -0.5686  0.2624  0.1189
 9438SOL    HW139950   2.084   1.014   8.036 -0.1685 -0.7185  2.9068
 9438SOL    HW239951   2.200   0.939   7.991  1.8008  0.1563  1.8643
 9439SOL     OW39952   4.577   4.448   8.567 -0.3967 -0.1488  0.2226
 9439SOL    HW139953   4.565   4.479   8.656  1.7511 -0.1820  0.5180
 9439SOL    HW239954   4.531   4.521   8.526  0.5918  0.5149  0.2869
 9440SOL     OW39955   3.157   3.616   7.730  0.3098 -0.0895  0.0230
 9440SOL    HW139956   3.129   3.687   7.787  2.7877  1.4092 -0.5981
 9440SOL    HW239957   3.226   3.653   7.675 -0.0705  1.0503  0.3253
 9441SOL     OW39958   4.722   2.838   4.905  0.1099 -0.0459 -0.3502
 9441SOL    HW139959   0.038   2.901   4.954 -0.6191 -1.9645  2.8341
 9441SOL    HW239960   4.693   2.899   4.837 -0.0761  1.6368  1.2368
 9442SOL     OW39961   1.883   3.248   6.680  0.1258  0.2791  0.1581
 9442SOL    HW139962   1.953   3.199   6.636  0.4728  1.9606 -1.1597
 9442SOL    HW239963   1.919   3.241   6.768 -1.1545 -0.3157  0.6202
 9443SOL     OW39964   2.212   2.513   2.418  0.0018 -0.7321 -0.1596
 9443SOL    HW139965   2.155   2.479   2.349 -0.1538  1.2053 -0.9632
 9443SOL    HW239966   2.236   2.425   2.449  1.4141 -0.5540 -0.7252
 9444SOL     OW39967   2.764   2.824   6.799 -0.3065 -0.3471 -0.0603
 9444SOL    HW139968   2.700   2.754   6.808 -0.2688 -0.7451 -2.8680
 9444SOL    HW239969   2.742   2.881   6.872  3.8314  1.4642 -0.2023
 9445SOL     OW39970   3.788   0.383   9.098  0.2442  0.0892  0.7686
 9445SOL    HW139971   3.751   0.338   9.022  0.0284 -1.5279  1.8466
 9445SOL    HW239972   3.878   0.393   9.066 -0.0659 -1.3796 -0.5631
 9446SOL     OW39973   2.408   4.481  16.794  0.5708  0.0228 -0.1676
 9446SOL    HW139974   2.492   4.441  16.773 -0.3523 -2.8412  1.7248
 9446SOL    HW239975   2.384   4.530  16.715 -1.1340  2.0055  1.5764
 9447SOL     OW39976   0.999   2.355   4.046  0.7484 -0.1787  0.1153
 9447SOL    HW139977   0.990   2.443   4.081 -0.4837  0.1304 -0.9570
 9447SOL    HW239978   1.073   2.362   3.985 -0.0163 -1.5556 -0.9831
 9448SOL     OW39979   4.109   1.989   2.567  0.2047  0.1114  0.2316
 9448SOL    HW139980   4.126   1.969   2.659  0.5515  1.1522  0.3950
 9448SOL    HW239981   4.187   1.946   2.531 -0.8151  0.8306 -2.8216
 9449SOL     OW39982   3.021   3.619   9.087 -0.0063 -0.2943 -0.1572
 9449SOL    HW139983   3.014   3.523   9.087  1.0160 -0.3657  1.1167
 9449SOL    HW239984   2.967   3.643   9.162 -1.5607  2.2302 -2.1135
 9450SOL     OW39985   4.121   4.068   4.862 -0.2100  0.0933 -0.2189
 9450SOL    HW139986   4.209   4.051   4.827  0.5214 -0.2413  1.7758
 9450SOL    HW239987   4.116   3.997   4.926  2.8392 -2.0048 -2.3108
 9451SOL     OW39988   3.598   4.095  15.113 -0.5663 -0.2695  0.5518
 9451SOL    HW139989   3.540   4.020  15.128  1.3984 -1.7574  0.6570
 9451SOL    HW239990   3.532   4.153  15.074  0.7775  1.9260  1.5551
 9452SOL     OW39991   1.175   3.285   0.327  0.0029  0.5685 -0.6468
 9452SOL    HW139992   1.108   3.269   0.261 -0.6618  1.9239 -0.3047
 9452SOL    HW239993   1.136   3.352   0.382  0.1660  0.8569 -0.8781
 9453SOL     OW39994   2.291   1.327   4.256 -0.0043  0.4438 -0.0593
 9453SOL    HW139995   2.299   1.299   4.347 -2.4100 -2.5364 -0.7455
 9453SOL    HW239996   2.338   1.259   4.208  0.9514  1.4356 -0.5385
 9454SOL     OW39997   3.141   4.089   7.194 -0.0218 -0.0353 -0.7615
 9454SOL    HW139998   3.068   4.146   7.169  0.4086  0.1909 -1.4977
 9454SOL    HW239999   3.163   4.048   7.110 -2.6212  0.5770 -1.7376
 9455SOL     OW40000   0.337   3.695   3.012 -0.4433 -0.1247  0.2729
 9455SOL    HW140001   0.423   3.671   2.977  0.1196  0.0922  1.5403
 9455SOL    HW240002   0.365   3.783   3.034 -1.7194  0.6415 -1.1548
 9456SOL     OW40003   0.150   3.216  17.128  0.0374  0.0805 -0.1800
 9456SOL    HW140004   0.224   3.254  17.175  0.0984 -0.4303  0.1398
 9456SOL    HW240005   0.156   3.132  17.174 -0.8503 -0.1343 -0.4492
 9457SOL     OW40006   1.887   0.653   1.667  0.5514  0.0994 -0.4536
 9457SOL    HW140007   1.913   0.563   1.644 -0.9505 -0.3503 -0.3888
 9457SOL    HW240008   1.874   0.688   1.579 -1.2855  0.1455 -0.1634
 9458SOL     OW40009   1.768   0.981   1.358 -0.4082 -0.4460  0.1056
 9458SOL    HW140010   1.693   0.993   1.417  0.7874  1.3495  1.2617
 9458SOL    HW240011   1.794   1.073   1.354  0.4164 -0.6803  0.1267
 9459SOL     OW40012   2.104   2.891  15.144 -0.3030 -0.4157 -0.3518
 9459SOL    HW140013   2.032   2.920  15.089 -1.9204 -1.3049  1.2920
 9459SOL    HW240014   2.064   2.891  15.231  0.2836 -0.5280 -0.0801
 9460SOL     OW40015   3.691   2.476  15.946 -0.1711  0.6908 -0.2468
 9460SOL    HW140016   3.672   2.382  15.935 -1.7620  1.0912 -0.8561
 9460SOL    HW240017   3.747   2.478  16.024  0.7760  1.2050 -0.9337
 9461SOL     OW40018   1.396   0.669   3.844 -0.1478  0.6077 -0.2517
 9461SOL    HW140019   1.357   0.681   3.757 -0.1004  0.6085 -0.2731
 9461SOL    HW240020   1.416   0.762   3.854 -0.5826  0.9492 -2.3593
 9462SOL     OW40021   0.497   2.557   7.670  0.7648 -0.6402  0.1620
 9462SOL    HW140022   0.539   2.642   7.663  0.9539 -0.9045 -1.7061
 9462SOL    HW240023   0.450   2.566   7.753  1.8582  1.5876  0.5322
 9463SOL     OW40024   2.554   2.717   8.237  0.4993 -0.1190 -0.1483
 9463SOL    HW140025   2.639   2.697   8.275  0.5470  0.6647  0.1579
 9463SOL    HW240026   2.567   2.684   8.148 -2.3877 -0.8957 -0.2907
 9464SOL     OW40027   0.868   3.151  12.082 -1.0563 -0.1496 -0.4515
 9464SOL    HW140028   0.923   3.139  12.159  0.5846  2.3489 -1.2393
 9464SOL    HW240029   0.891   3.076  12.027 -1.2106 -1.1315  0.8337
 9465SOL     OW40030   4.360   1.163   9.419 -0.5631 -0.3217  0.5885
 9465SOL    HW140031   4.381   1.228   9.486 -0.8746 -2.3415  2.6152
 9465SOL    HW240032   4.436   1.170   9.361 -0.8472 -0.7147  0.1700
 9466SOL     OW40033   4.335   0.684   6.791 -0.0397 -0.4072  0.0915
 9466SOL    HW140034   4.355   0.595   6.821 -0.8163 -0.2270  1.1355
 9466SOL    HW240035   4.384   0.741   6.850  2.6147 -0.8714 -1.6257
 9467SOL     OW40036   4.440   3.970   1.443 -0.4246 -0.7658  0.0806
 9467SOL    HW140037   4.413   4.013   1.524  1.9971 -2.6183  1.8679
 9467SOL    HW240038   4.480   3.889   1.476 -1.4260 -0.8266  1.1259
 9468SOL     OW40039   0.850   1.935   1.693 -0.3431  0.3185  0.0772
 9468SOL    HW140040   0.790   2.003   1.724 -0.4518  0.6202 -0.7766
 9468SOL    HW240041   0.854   1.970   1.604 -0.3932 -2.3742 -0.9924
 9469SOL     OW40042   0.098   1.558   8.640  0.3393 -0.6724 -0.6164
 9469SOL    HW140043   0.110   1.543   8.546  0.3674 -1.6462 -0.4601
 9469SOL    HW240044   0.087   1.466   8.663 -1.9950 -0.1288  0.4436
 9470SOL     OW40045   3.186   0.101   8.698  0.1551 -0.7063 -0.1144
 9470SOL    HW140046   3.272   0.059   8.691 -0.2020 -1.4905  0.1612
 9470SOL    HW240047   3.129   0.027   8.719  1.6527 -1.8793 -0.1575
 9471SOL     OW40048   4.169   3.125  12.524 -0.2837 -0.1903  0.3284
 9471SOL    HW140049   4.200   3.134  12.434 -0.0209  0.7066  0.5075
 9471SOL    HW240050   4.240   3.172  12.568 -0.8041  0.0230  0.9309
 9472SOL     OW40051   1.361   1.535  14.154 -0.1046  0.9001 -0.0623
 9472SOL    HW140052   1.454   1.537  14.131 -0.8291 -2.4969 -3.2548
 9472SOL    HW240053   1.369   1.553  14.248 -4.3641 -3.6756  1.1301
 9473SOL     OW40054   4.016   0.646   9.889 -0.4602 -0.5069  0.1025
 9473SOL    HW140055   4.049   0.674   9.975  0.7711  0.7024 -0.7697
 9473SOL    HW240056   3.989   0.556   9.910 -1.3709 -0.4309 -0.7503
 9474SOL     OW40057   3.278   3.363   5.230 -0.6374  0.5625 -0.1333
 9474SOL    HW140058   3.312   3.278   5.203  1.0985  1.2396 -0.1157
 9474SOL    HW240059   3.342   3.392   5.296  0.4403 -0.7090 -0.6102
 9475SOL     OW40060   4.266   1.978   6.331  0.1186 -0.1099 -0.6055
 9475SOL    HW140061   4.196   1.932   6.285  0.1767  0.1595 -0.9641
 9475SOL    HW240062   4.333   1.911   6.342 -0.7955 -1.2994 -2.2307
 9476SOL     OW40063   0.924   0.213   1.862 -0.6005  0.0109  0.3258
 9476SOL    HW140064   0.978   0.259   1.797 -0.8100 -0.0514  0.1079
 9476SOL    HW240065   0.879   0.159   1.797 -2.4567  0.1427  1.5140
 9477SOL     OW40066   3.641   0.069   8.711 -0.0553 -0.5417 -0.4380
 9477SOL    HW140067   3.664   0.057   8.803 -1.8173  1.6229  0.2584
 9477SOL    HW240068   3.723   0.062   8.662 -0.5650 -0.4623 -1.2972
 9478SOL     OW40069   3.812   3.573  12.113 -0.1456 -0.7738  0.2791
 9478SOL    HW140070   3.765   3.635  12.169 -0.7939 -1.2494  0.2528
 9478SOL    HW240071   3.901   3.609  12.116  0.0780 -1.3284  0.4089
 9479SOL     OW40072   2.804   3.925  14.113  0.0762  0.0822 -0.0651
 9479SOL    HW140073   2.887   3.972  14.109 -0.0075  0.4028  1.9795
 9479SOL    HW240074   2.752   3.998  14.081 -0.4997  0.7509  2.4246
 9480SOL     OW40075   0.856   1.182   5.853 -0.2005 -0.6041  0.1176
 9480SOL    HW140076   0.944   1.201   5.821  0.0815  0.7048  1.6428
 9480SOL    HW240077   0.813   1.263   5.828 -0.9437 -1.5084 -1.5584
 9481SOL     OW40078   2.931   3.811  13.601  0.0546  0.0409  0.1879
 9481SOL    HW140079   2.936   3.806  13.505 -0.1508  0.6286  0.1498
 9481SOL    HW240080   2.841   3.841  13.609  0.5645  1.7014 -0.4229
 9482SOL     OW40081   0.061   3.921   4.487 -0.4834 -0.6366  0.1033
 9482SOL    HW140082   0.073   3.990   4.553 -0.5368  1.2074 -1.7935
 9482SOL    HW240083   0.112   3.972   4.423 -1.0507  2.2103  1.8938
 9483SOL     OW40084   0.234   3.841   8.434  0.1922  0.0335  0.7819
 9483SOL    HW140085   0.212   3.782   8.362 -0.5633  0.0415  1.0033
 9483SOL    HW240086   0.214   3.926   8.396  1.6245  0.1247  0.2319
 9484SOL     OW40087   1.792   0.986   6.751 -0.1430 -0.5602  0.2212
 9484SOL    HW140088   1.851   1.050   6.791  0.3155 -0.9631  0.1792
 9484SOL    HW240089   1.848   0.909   6.748  1.6640  0.7998 -0.7316
 9485SOL     OW40090   0.577   4.004   5.316  0.2338  0.7646  0.1742
 9485SOL    HW140091   0.599   4.097   5.315 -0.3422  0.9021  1.2932
 9485SOL    HW240092   0.633   3.978   5.390  2.6097  2.1179 -1.1145
 9486SOL     OW40093   4.195   3.678   7.820  0.9226  0.2484  0.0022
 9486SOL    HW140094   4.287   3.654   7.830  0.5362 -1.2839 -0.1664
 9486SOL    HW240095   4.179   3.707   7.910 -0.5296 -1.3875  0.2612
 9487SOL     OW40096   1.295   1.202   7.819  0.1906 -0.2104 -0.0977
 9487SOL    HW140097   1.388   1.203   7.839  0.4662 -1.8738 -1.2874
 9487SOL    HW240098   1.304   1.239   7.731  2.3455  0.1868  0.3060
 9488SOL     OW40099   4.222   3.706   3.020  0.2640  0.3288 -0.7848
 9488SOL    HW140100   4.243   3.800   3.011 -0.0775  0.6102  1.3819
 9488SOL    HW240101   4.225   3.691   2.925 -0.4353 -2.5156 -0.3584
 9489SOL     OW40102   3.105   0.807   6.008 -0.2862 -0.5041  0.8737
 9489SOL    HW140103   3.017   0.770   6.018 -0.2608 -0.7554  0.1701
 9489SOL    HW240104   3.085   0.882   5.953 -0.2491 -0.9144  0.3066
 9490SOL     OW40105   3.542   4.465   2.401 -0.0465  0.2979  0.5566
 9490SOL    HW140106   3.501   4.393   2.354 -0.1883  0.7583 -0.0097
 9490SOL    HW240107   3.466   4.496   2.451 -0.4344  0.3174 -0.0519
 9491SOL     OW40108   3.921   2.571   1.011 -0.0188 -0.5368  0.1595
 9491SOL    HW140109   3.890   2.654   1.047  0.5997  0.1653 -0.9214
 9491SOL    HW240110   3.868   2.564   0.931 -0.2961  3.2732  0.0106
 9492SOL     OW40111   0.091   2.118   7.967  0.1873  0.0488 -0.0436
 9492SOL    HW140112   0.033   2.048   7.936 -2.7106  3.2850 -2.0584
 9492SOL    HW240113   0.104   2.080   8.053 -1.2956  0.6288  0.4399
 9493SOL     OW40114   3.939   3.013   5.957  0.2827 -0.6966 -0.2759
 9493SOL    HW140115   3.868   3.017   6.021  0.7802  1.9138  0.0968
 9493SOL    HW240116   3.982   2.928   5.974 -1.3474 -1.1100  1.7504
 9494SOL     OW40117   1.004   3.235   3.337  0.2052 -0.3567  0.2570
 9494SOL    HW140118   1.008   3.245   3.242  0.4360  2.1922  0.5407
 9494SOL    HW240119   0.988   3.141   3.344  0.0994 -0.2393  1.4989
 9495SOL     OW40120   3.248   3.876  13.968 -0.4908 -0.0268  0.2634
 9495SOL    HW140121   3.171   3.932  13.956  0.9172  2.1226  1.2730
 9495SOL    HW240122   3.320   3.935  13.949  1.9536 -3.4406 -1.1219
 9496SOL     OW40123   1.392   0.980   6.484  0.4774  0.5980 -0.0695
 9496SOL    HW140124   1.454   0.913   6.455 -0.9104 -0.9881  0.6269
 9496SOL    HW240125   1.444   1.046   6.529 -2.8317  1.8511  1.8687
 9497SOL     OW40126   3.583   1.036   5.181  0.0409  0.1975  0.1096
 9497SOL    HW140127   3.536   0.962   5.141  1.4980 -1.2099  0.9761
 9497SOL    HW240128   3.603   0.996   5.266  2.4533  0.6117 -0.2799
 9498SOL     OW40129   3.192   2.625   5.598 -0.3321 -0.2675  0.4843
 9498SOL    HW140130   3.139   2.610   5.520 -0.8135 -0.9897  0.9460
 9498SOL    HW240131   3.213   2.718   5.589 -0.8218 -0.3137 -1.0238
 9499SOL     OW40132   2.166   0.317  13.261 -0.3434  0.3735  0.4046
 9499SOL    HW140133   2.099   0.255  13.232 -1.7207  1.8130  0.4698
 9499SOL    HW240134   2.245   0.267  13.278 -0.9364 -1.4733 -2.2302
 9500SOL     OW40135   3.356   4.099   6.416 -0.8402  0.1667 -0.5438
 9500SOL    HW140136   3.303   4.167   6.458  3.3187  2.7978  0.4974
 9500SOL    HW240137   3.424   4.090   6.483  0.0254  0.0738 -1.4372
 9501SOL     OW40138   2.919   0.811   1.718 -0.1133 -0.3805 -0.2279
 9501SOL    HW140139   2.831   0.836   1.689 -0.1392  0.3700  0.4914
 9501SOL    HW240140   2.900   0.802   1.811  1.2511 -1.3196 -0.0423
 9502SOL     OW40141   3.271   3.787   1.582 -0.4883 -0.1680  0.5009
 9502SOL    HW140142   3.197   3.848   1.583  0.9952  1.6489 -0.6390
 9502SOL    HW240143   3.300   3.811   1.670  0.7466 -2.1537  0.6218
 9503SOL     OW40144   2.405   1.710  15.424 -0.1491 -0.3024 -0.3233
 9503SOL    HW140145   2.402   1.802  15.397 -1.2520 -0.0500  0.6438
 9503SOL    HW240146   2.439   1.667  15.346 -1.6610  3.0905 -2.8497
 9504SOL     OW40147   1.290   2.997   7.657  0.3276 -0.1729 -0.2510
 9504SOL    HW140148   1.231   3.000   7.582 -0.3267  1.2782  0.3039
 9504SOL    HW240149   1.366   2.948   7.627 -1.0612 -0.3232 -3.4880
 9505SOL     OW40150   2.118   0.035  17.510  0.7305  0.2577  0.2646
 9505SOL    HW140151   2.044   0.032  17.571  0.3023  0.8267 -0.2296
 9505SOL    HW240152   2.146   0.125  17.529  0.8302  0.3241 -0.2015
 9506SOL     OW40153   4.635   3.734   7.565  0.1728  0.0199 -0.5184
 9506SOL    HW140154   4.569   3.665   7.570 -0.5624  0.7800  0.0736
 9506SOL    HW240155   4.694   3.709   7.494  0.3045  0.0056 -0.4040
 9507SOL     OW40156   2.244   1.611   2.316 -0.1095 -0.0900 -0.1083
 9507SOL    HW140157   2.166   1.637   2.268 -1.0983 -1.2091  0.8898
 9507SOL    HW240158   2.282   1.558   2.246  0.4603  1.1359 -0.7147
 9508SOL     OW40159   4.370   0.489   5.237 -0.3608  0.0915 -0.3972
 9508SOL    HW140160   4.363   0.468   5.143 -2.2773 -1.8531  0.1781
 9508SOL    HW240161   4.313   0.566   5.242 -1.6049 -0.9304  1.1929
 9509SOL     OW40162   4.734   0.207   0.216 -0.6933  0.3162 -0.8305
 9509SOL    HW140163   0.027   0.296   0.235  0.5029  0.2496 -2.4814
 9509SOL    HW240164   4.640   0.222   0.203 -0.9985  0.4386  1.3766
 9510SOL     OW40165   0.975   2.458   6.515  0.7533  0.2644  0.2828
 9510SOL    HW140166   1.000   2.445   6.607  2.0719 -2.6604 -0.4938
 9510SOL    HW240167   0.900   2.514   6.535  0.6601  0.0469  0.5369
 9511SOL     OW40168   0.426   2.495  16.009 -0.0868 -0.4083 -1.0127
 9511SOL    HW140169   0.422   2.408  15.967  0.0491  0.0961 -2.0821
 9511SOL    HW240170   0.335   2.519  15.999 -0.7799 -1.7223  2.2283
 9512SOL     OW40171   3.447   1.935   4.145  0.4735 -0.0373  0.1782
 9512SOL    HW140172   3.356   1.962   4.144  0.9770  1.4981 -3.8674
 9512SOL    HW240173   3.432   1.842   4.162 -0.5361 -0.1730 -1.3891
 9513SOL     OW40174   2.208   2.838   5.740  0.4993 -0.1917  0.6407
 9513SOL    HW140175   2.214   2.932   5.757  1.7757 -0.1350 -0.1297
 9513SOL    HW240176   2.119   2.815   5.769  0.4150  0.6903  1.0833
 9514SOL     OW40177   4.627   2.436   9.501 -0.0514  0.1947  0.0981
 9514SOL    HW140178   4.706   2.488   9.514  0.4041  0.0727 -2.3234
 9514SOL    HW240179   4.640   2.396   9.415  1.8767 -1.7434  1.2909
 9515SOL     OW40180   2.626   2.705   5.515  0.2558 -0.6315 -1.1766
 9515SOL    HW140181   2.584   2.720   5.430  0.5419  4.7800 -0.3779
 9515SOL    HW240182   2.604   2.615   5.539  0.8329 -0.3260  0.4602
 9516SOL     OW40183   4.460   1.386  12.946  0.3086  0.8962  0.3559
 9516SOL    HW140184   4.424   1.300  12.967  2.1620 -0.0211 -0.2287
 9516SOL    HW240185   4.455   1.383  12.850 -1.1730 -1.7607  0.5355
 9517SOL     OW40186   0.195   4.727   5.287 -0.0442 -0.8796  0.0216
 9517SOL    HW140187   0.272   4.725   5.231 -0.9220 -2.8674 -1.1235
 9517SOL    HW240188   0.217   0.060   5.348 -0.8845 -0.6755  0.0809
 9518SOL     OW40189   3.039   1.176   6.488 -0.1943  0.1030  0.7447
 9518SOL    HW140190   3.014   1.084   6.478 -2.1036  0.1984  4.6319
 9518SOL    HW240191   2.994   1.213   6.564  1.7510  4.9308 -0.4525
 9519SOL     OW40192   4.283   2.864   2.064 -0.4544  0.3735  0.5464
 9519SOL    HW140193   4.194   2.830   2.068  0.1129 -0.8662  2.2772
 9519SOL    HW240194   4.316   2.829   2.147  0.2429 -3.5919 -1.4104
 9520SOL     OW40195   0.591   1.613   5.612 -0.1112 -0.0689 -0.0963
 9520SOL    HW140196   0.550   1.676   5.671  1.2096  1.5165 -0.8713
 9520SOL    HW240197   0.628   1.669   5.544 -0.8795 -1.0700 -1.3262
 9521SOL     OW40198   3.521   1.249   9.364  0.3223 -0.9378 -0.5299
 9521SOL    HW140199   3.432   1.215   9.363  0.1214 -0.4169 -0.1470
 9521SOL    HW240200   3.559   1.176   9.314  0.4816 -1.0225 -0.2822
 9522SOL     OW40201   2.202   3.533   6.531 -0.0427 -0.5800  0.2987
 9522SOL    HW140202   2.203   3.438   6.523 -4.4026 -0.5887 -0.1149
 9522SOL    HW240203   2.112   3.564   6.543 -0.1214 -0.8430  0.3813
 9523SOL     OW40204   1.675   1.358   3.216  0.3362  0.7376 -0.8786
 9523SOL    HW140205   1.601   1.322   3.167  0.8451 -1.9415  0.3722
 9523SOL    HW240206   1.636   1.443   3.239  2.0033  1.0550  0.7526
 9524SOL     OW40207   0.289   0.926   8.483  0.0212  0.4220  0.4689
 9524SOL    HW140208   0.236   0.968   8.551  0.3484  0.0178  0.9686
 9524SOL    HW240209   0.266   0.991   8.416  0.3748  1.8579  1.7511
 9525SOL     OW40210   0.233   3.154   7.492  0.4233 -0.0722 -0.1660
 9525SOL    HW140211   0.145   3.169   7.526  0.7497 -0.3735  0.8049
 9525SOL    HW240212   0.227   3.061   7.469 -0.3669  0.1207 -0.7678
 9526SOL     OW40213   2.295   3.935   9.160 -0.1552  0.2388  0.2087
 9526SOL    HW140214   2.371   3.930   9.101 -0.4267 -0.1528 -0.1072
 9526SOL    HW240215   2.279   4.027   9.177  1.7292  0.7117 -0.5421
 9527SOL     OW40216   1.598   2.481  11.772  0.5941  0.6270 -0.3066
 9527SOL    HW140217   1.612   2.400  11.821 -1.8616 -0.6379 -1.7074
 9527SOL    HW240218   1.593   2.446  11.683 -4.9417  0.0436  0.2372
 9528SOL     OW40219   2.749   3.061   7.611 -0.2731  0.3608  0.1475
 9528SOL    HW140220   2.800   3.111   7.547 -1.1710  0.9237 -0.1366
 9528SOL    HW240221   2.665   3.057   7.565  0.6737 -1.2713 -1.4015
 9529SOL     OW40222   1.934   3.943   1.886  0.2594  0.2230  0.1001
 9529SOL    HW140223   1.975   3.889   1.954 -1.4104  0.1327  1.0353
 9529SOL    HW240224   1.933   3.894   1.804  0.5954  0.5419 -0.0982
 9530SOL     OW40225   1.553   4.195   6.143 -0.8010  0.4958  0.1604
 9530SOL    HW140226   1.640   4.173   6.107 -2.2081 -0.7420 -2.4924
 9530SOL    HW240227   1.578   4.279   6.181  2.1152  0.7865 -2.3298
 9531SOL     OW40228   4.219   1.172   8.159  0.7080  0.3015 -0.2307
 9531SOL    HW140229   4.187   1.148   8.246  1.0893  0.3419 -0.0807
 9531SOL    HW240230   4.166   1.250   8.143  0.0262 -0.0492  0.3440
 9532SOL     OW40231   1.310   2.669   6.720  0.7412  0.4192  0.0022
 9532SOL    HW140232   1.250   2.734   6.684  1.8434  0.1077 -2.4185
 9532SOL    HW240233   1.348   2.720   6.791  1.9405 -0.1635 -0.2202
 9533SOL     OW40234   3.064   4.062   6.596  0.4990  1.1111 -0.6520
 9533SOL    HW140235   3.038   4.015   6.675  0.2746  0.0564 -1.3590
 9533SOL    HW240236   2.996   4.035   6.534  0.9251  0.3399 -0.7806
 9534SOL     OW40237   1.549   4.451   1.142  0.2877 -0.0755  0.0658
 9534SOL    HW140238   1.632   4.438   1.097  1.2638  1.6959  1.3262
 9534SOL    HW240239   1.510   4.523   1.093  0.4905 -0.7146 -1.0224
 9535SOL     OW40240   0.965   1.594   7.773  0.1756 -0.1445 -0.3240
 9535SOL    HW140241   0.971   1.505   7.809 -0.6387  0.9459  2.5419
 9535SOL    HW240242   0.924   1.582   7.687 -2.0849  0.5359  0.6388
 9536SOL     OW40243   2.652   1.016   5.522  0.2474  0.8390 -0.2702
 9536SOL    HW140244   2.559   1.002   5.507  0.4048 -0.2462 -0.2571
 9536SOL    HW240245   2.667   1.103   5.487  0.1864  1.8311  2.1900
 9537SOL     OW40246   3.700   2.066   3.195 -0.0512 -0.3549 -0.0366
 9537SOL    HW140247   3.669   1.991   3.144 -2.8310  0.2231  0.8062
 9537SOL    HW240248   3.665   2.047   3.282  2.0269 -0.2308  0.8017
 9538SOL     OW40249   4.348   3.958   2.678  0.3530 -0.2622  0.7419
 9538SOL    HW140250   4.334   3.976   2.771 -2.9209  0.6315  0.0637
 9538SOL    HW240251   4.275   4.007   2.640  0.3965 -1.3870 -0.8088
 9539SOL     OW40252   0.137   4.482   8.568  0.6395  0.4086 -0.1815
 9539SOL    HW140253   0.190   4.560   8.553  2.6116 -1.1954 -1.5034
 9539SOL    HW240254   0.058   4.490   8.513  0.9409  0.9963 -0.5330
 9540SOL     OW40255   3.264   1.006   8.096  0.0432  0.4031 -0.5788
 9540SOL    HW140256   3.254   1.100   8.081  3.2346  0.7802 -0.3292
 9540SOL    HW240257   3.289   0.985   8.006  0.6037  0.5530 -0.4562
 9541SOL     OW40258   3.671   0.057   9.227  0.2505  0.0454  0.4896
 9541SOL    HW140259   3.576   0.069   9.227  0.2078 -0.4651 -1.5739
 9541SOL    HW240260   3.700   0.141   9.262 -1.9587  0.0808  2.2669
 9542SOL     OW40261   2.016   0.368   8.150 -0.0976 -0.7250 -0.0482
 9542SOL    HW140262   1.940   0.425   8.140 -0.8643 -1.9022 -0.9636
 9542SOL    HW240263   2.002   0.324   8.234 -1.1179 -1.2674 -0.5019
 9543SOL     OW40264   4.021   1.747   3.127 -0.2244 -0.2186 -0.2218
 9543SOL    HW140265   3.964   1.679   3.091 -0.8058  0.6632 -0.9714
 9543SOL    HW240266   4.105   1.735   3.082  0.1498 -1.7164  0.8468
 9544SOL     OW40267   0.613   1.718  17.645 -0.1777  0.3214 -0.2625
 9544SOL    HW140268   0.636   1.774  17.720  1.5363 -1.4938  0.5688
 9544SOL    HW240269   0.564   1.780  17.593  0.4080 -0.8229 -2.1640
 9545SOL     OW40270   3.735   1.423   9.701 -0.0143  0.1491  0.7285
 9545SOL    HW140271   3.644   1.445   9.682  0.1201  0.5515  0.5509
 9545SOL    HW240272   3.757   1.355   9.638  1.5824  0.6313  0.7832
 9546SOL     OW40273   1.941   3.563   6.336 -0.4165 -0.3530 -0.3567
 9546SOL    HW140274   1.953   3.658   6.339  0.4913 -0.4911  0.3576
 9546SOL    HW240275   1.906   3.544   6.422 -2.0103 -2.3493 -1.4626
 9547SOL     OW40276   0.398   2.543   5.558 -0.0904 -0.0851 -0.0087
 9547SOL    HW140277   0.353   2.518   5.477  1.7960  4.6020 -2.5002
 9547SOL    HW240278   0.348   2.608   5.607  1.5272  1.3560 -0.2812
 9548SOL     OW40279   4.386   3.522   7.241  0.5407  0.5671  0.1366
 9548SOL    HW140280   4.326   3.453   7.270  1.4628  0.5409  1.9442
 9548SOL    HW240281   4.369   3.598   7.297 -0.2364  1.0273 -0.7071
 9549SOL     OW40282   1.919   0.275   0.836  0.4874  0.6458 -0.9785
 9549SOL    HW140283   1.922   0.345   0.771  0.7897  1.7673  0.2391
 9549SOL    HW240284   1.826   0.277   0.860  1.1238 -1.9827  1.7717
 9550SOL     OW40285   1.533   0.872  17.095  0.0268 -0.0419  0.0054
 9550SOL    HW140286   1.579   0.930  17.156  1.9839 -1.3453 -0.2310
 9550SOL    HW240287   1.445   0.901  17.119  0.5399  0.6723  1.0509
 9551SOL     OW40288   2.678   1.715  10.146 -0.8298 -0.1975  0.3508
 9551SOL    HW140289   2.696   1.785  10.083 -1.7691  0.2315  0.5565
 9551SOL    HW240290   2.701   1.634  10.101  2.3635 -0.0450  1.6602
 9552SOL     OW40291   4.605   1.524   4.293  0.3606  0.1842 -0.0284
 9552SOL    HW140292   4.519   1.481   4.294  0.8064 -0.7557 -1.8188
 9552SOL    HW240293   4.580   1.610   4.325  0.1356  1.2311 -3.0826
 9553SOL     OW40294   2.927   2.081   7.619 -0.1035  0.3340  0.4262
 9553SOL    HW140295   2.844   2.108   7.579 -0.4012 -1.0457  0.1046
 9553SOL    HW240296   2.937   2.142   7.692 -0.7605 -1.6036  2.1230
 9554SOL     OW40297   0.190   1.812  11.348  0.0108 -0.4685  0.3248
 9554SOL    HW140298   0.242   1.871  11.402  1.1345 -1.7707  0.6437
 9554SOL    HW240299   0.240   1.732  11.362 -0.0548 -0.4202  0.8208
 9555SOL     OW40300   3.247   2.791  10.722  0.2753 -0.1434  0.1299
 9555SOL    HW140301   3.200   2.708  10.727  1.6695 -0.8033  2.1899
 9555SOL    HW240302   3.288   2.785  10.808 -0.6119  0.9195  0.6302
 9556SOL     OW40303   2.906   1.817  12.716  0.2218  0.8288  0.2328
 9556SOL    HW140304   2.969   1.881  12.685 -3.2255  3.8554 -0.5375
 9556SOL    HW240305   2.969   1.765  12.765 -0.1568  2.1626  2.1236
 9557SOL     OW40306   1.620   2.244   7.559 -0.1699  0.2034  0.1961
 9557SOL    HW140307   1.578   2.206   7.636  2.9500  1.5684  2.5555
 9557SOL    HW240308   1.547   2.296   7.523 -1.9770 -1.9878  0.7105
 9558SOL     OW40309   1.972   1.210   3.556 -0.0417 -0.2102 -0.0993
 9558SOL    HW140310   1.934   1.166   3.631  0.8509  1.8715  1.5632
 9558SOL    HW240311   1.888   1.219   3.511 -0.3918  1.5346  0.9040
 9559SOL     OW40312   0.174   2.423   3.724  0.1022  0.0827 -0.0162
 9559SOL    HW140313   0.123   2.344   3.742 -0.4934  0.1391 -1.4609
 9559SOL    HW240314   0.129   2.456   3.646  0.5787  1.2131  0.1948
 9560SOL     OW40315   1.190   4.245   2.488 -0.0016 -0.2616 -1.0059
 9560SOL    HW140316   1.114   4.302   2.470 -0.3067 -0.4280 -0.2498
 9560SOL    HW240317   1.262   4.303   2.467 -0.1370  0.6991  1.1784
 9561SOL     OW40318   1.539   0.862   8.375  0.4003 -0.0518 -0.2774
 9561SOL    HW140319   1.499   0.815   8.302 -0.6224 -0.9482  0.8529
 9561SOL    HW240320   1.470   0.888   8.436 -1.7972 -0.3964 -2.6206
 9562SOL     OW40321   4.168   1.513  17.439 -0.2812 -0.3994 -0.1981
 9562SOL    HW140322   4.106   1.584  17.454 -1.7741 -1.7120 -0.2111
 9562SOL    HW240323   4.196   1.546  17.353  1.1846 -1.2792 -0.0523
 9563SOL     OW40324   2.668   0.705   9.900  0.1773 -0.7691 -0.1775
 9563SOL    HW140325   2.682   0.798   9.878 -0.9132 -0.3299  1.0063
 9563SOL    HW240326   2.730   0.694   9.972  1.0191  1.9347 -0.4787
 9564SOL     OW40327   1.463   0.298   7.379  0.2364 -0.5231 -0.2408
 9564SOL    HW140328   1.496   0.383   7.408 -0.7019  0.2301 -1.3851
 9564SOL    HW240329   1.539   0.262   7.332 -0.6923 -1.7683 -0.7771
 9565SOL     OW40330   0.447   0.905   6.389  0.4536 -0.5157 -0.8671
 9565SOL    HW140331   0.400   0.875   6.311 -1.3706 -1.1868  0.4893
 9565SOL    HW240332   0.513   0.835   6.387 -0.8147 -1.7201 -0.4297
 9566SOL     OW40333   2.981   3.772   2.053 -0.1696  0.0593 -0.0941
 9566SOL    HW140334   2.949   3.851   2.010  1.0039  1.3083  1.3071
 9566SOL    HW240335   2.908   3.714   2.031 -1.4883  1.4434  0.6735
 9567SOL     OW40336   4.562   1.699   8.300 -1.0020 -0.2712  0.4257
 9567SOL    HW140337   4.500   1.695   8.228  0.1547 -0.1832 -0.5810
 9567SOL    HW240338   4.641   1.652   8.271 -0.3108  1.1454  0.0214
 9568SOL     OW40339   4.524   1.934  12.772  0.0873 -0.4084 -0.4081
 9568SOL    HW140340   4.510   2.001  12.705 -1.2744 -1.7396 -1.4567
 9568SOL    HW240341   4.435   1.900  12.768 -1.2503  3.1030 -0.2285
 9569SOL     OW40342   0.935   1.540   5.966  0.0863 -0.3890  0.4308
 9569SOL    HW140343   0.868   1.479   5.998 -0.6669  0.4676  0.4768
 9569SOL    HW240344   0.899   1.560   5.880  1.6228 -0.9151 -0.3330
   4.73658   4.73658  17.74478
