Membrane in water
40344
    1TMC1    C1    1   1.582   1.593  11.719  0.4307 -0.1677  0.1088
    1TMC1    C2    2   1.696   1.628  11.787 -0.7592 -0.4113 -0.1711
    1TMC1    C3    3   1.710   1.762  11.811 -0.5158  0.4064 -0.5890
    1TMC1    C4    4   1.498   1.685  11.656  0.4630  0.5455 -0.1319
    1TMC1    C5    5   1.526   1.815  11.679  0.2771  0.1307  0.0186
    1TMC1    C6    6   1.617   1.852  11.769  1.0522  0.4466  0.5071
    1TMC1     C    7   1.528   1.461  11.709 -0.3174  0.0304  0.2855
    1TMC1     O    8   1.426   1.446  11.646 -0.5036 -0.0579 -0.2295
    1TMC1     H    9   1.773   1.559  11.818  0.2261  1.0114  0.5476
    1TMC1    H1   10   1.412   1.664  11.594 -0.2489  1.0486  0.6814
    1TMC1    H2   11   1.620   1.949  11.816 -1.6598  1.0050 -0.4764
    1TMC1    C7   12   1.447   1.922  11.607  0.0287  0.3693 -0.1323
    1TMC1    C8   13   1.837   1.825  11.862 -0.0575 -0.1942  0.1892
    1TMC1    O1   14   1.425   2.022  11.670 -0.1498  0.0518  0.4467
    1TMC1    O2   15   1.844   1.948  11.873  0.2875 -0.8162  0.4351
    1TMC1    O3   16   1.362   1.870  11.516 -0.3640  0.3243  0.2785
    1TMC1    H3   17   1.379   1.784  11.472 -2.6658 -0.9906  1.9718
    1TMC1    O5   18   1.915   1.736  11.928 -0.1390 -0.4387  0.2057
    1TMC1    H5   19   1.885   1.642  11.931 -0.5731 -0.3409 -1.0935
    2MPD2     C   20   1.540   0.955  11.767 -0.5992  0.3054 -0.1739
    2MPD2    C1   21   1.459   1.030  11.687  0.2251  0.7667  0.1645
    2MPD2    C2   22   1.476   1.167  11.693 -0.7489 -0.1303 -0.0474
    2MPD2    C3   23   1.571   1.226  11.773 -0.1367 -0.0761  0.5945
    2MPD2    C4   24   1.650   1.147  11.856 -0.1391 -0.4415 -0.3079
    2MPD2    C5   25   1.630   1.012  11.850  0.5125  0.0330  0.1912
    2MPD2     H   26   1.411   1.226  11.629  1.3702  0.5288 -1.5879
    2MPD2    H1   27   1.726   1.186  11.923 -0.8436  0.4719 -0.0360
    2MPD2    H2   28   1.538   0.846  11.762 -0.4001  0.2187  1.6220
    2MPD2    H3   29   1.691   0.950  11.914  1.1491  2.4607  1.9444
    2MPD2     N   30   1.601   1.362  11.773  0.2259  0.0834 -0.8337
    2MPD2    H5   31   1.677   1.388  11.835 -0.5347  0.7076 -0.1608
    2MPD2    N1   32   1.358   0.981  11.603 -0.6357  0.0979  0.7314
    2MPD2    H7   33   1.288   1.044  11.565 -0.2578 -0.6907 -1.2792
    3TMC1    C1   34   0.235   2.264  10.323 -0.2235 -0.1073 -0.1185
    3TMC1    C2   35   0.284   2.254  10.196 -0.0670 -0.3182 -0.1028
    3TMC1    C3   36   0.250   2.143  10.119  0.7504  0.4571 -0.1515
    3TMC1    C4   37   0.136   2.177  10.368  0.3583  0.4462 -0.1620
    3TMC1    C5   38   0.090   2.084  10.282 -0.3191 -0.1481 -0.0391
    3TMC1    C6   39   0.148   2.063  10.159  0.5255  0.2341  0.1633
    3TMC1     C   40   0.326   2.334  10.414  0.4838  0.4254  0.4029
    3TMC1     O   41   0.430   2.384  10.372  0.8208 -0.3084 -0.1364
    3TMC1     H   42   0.368   2.313  10.163  1.0131 -1.6613  0.2486
    3TMC1    H1   43   0.086   2.185  10.464  0.0743 -0.1259 -0.2640
    3TMC1    H2   44   0.126   1.970  10.106  2.4716 -1.5120  2.4443
    3TMC1    C7   45   4.733   1.985  10.331 -0.4064  0.0682 -0.4657
    3TMC1    C8   46   0.320   2.113  10.003 -0.2992 -0.3872 -0.3845
    3TMC1    O1   47   4.669   1.920  10.251 -0.1910 -0.4140 -0.1088
    3TMC1    O2   48   0.329   1.998   9.957 -0.5908  0.0707 -1.1258
    3TMC1    O3   49   0.043   1.933  10.446  0.6620 -0.1671 -0.8595
    3TMC1    H3   50   0.096   2.000  10.495 -0.9779  0.9170 -0.5622
    3TMC1    O5   51   0.331   2.220   9.932  0.4547  0.6146 -0.2043
    3TMC1    H5   52   0.330   2.299   9.991  1.8642  1.6325 -1.5432
    4MPD2     C   53   0.429   2.527  10.879 -0.3243  0.0991 -0.4759
    4MPD2    C1   54   0.307   2.468  10.882 -0.7644  0.2059  0.3587
    4MPD2    C2   55   0.265   2.412  10.766 -0.6954  0.1304 -0.2297
    4MPD2    C3   56   0.333   2.417  10.645 -0.5360 -0.7987 -0.9529
    4MPD2    C4   57   0.461   2.467  10.650  0.4990 -0.0714 -0.1558
    4MPD2    C5   58   0.501   2.533  10.759  0.1487  0.5596  0.0565
    4MPD2     H   59   0.163   2.377  10.766 -0.2888 -1.0628 -0.3945
    4MPD2    H1   60   0.524   2.473  10.562 -1.6593 -2.3233 -1.8365
    4MPD2    H2   61   0.467   2.572  10.970  0.9857  0.7017 -1.3138
    4MPD2    H3   62   0.599   2.579  10.772  0.6935 -1.0339  1.6270
    4MPD2     N   63   0.268   2.363  10.530 -0.0718 -0.4515  0.1179
    4MPD2    H5   64   0.169   2.346  10.547 -0.3817  0.2019 -1.0267
    4MPD2    N1   65   0.238   2.463  11.005 -0.2655 -0.0714 -0.1410
    4MPD2    H7   66   0.295   2.493  11.084 -1.5275  1.7594  0.0641
    5TCq1    O1   67   0.446   4.087  11.648  0.1470 -0.1555  0.4658
    5TCq1    C1   68   0.459   4.121  11.522 -0.1309  0.3795 -0.6637
    5TCq1    O2   69   0.492   4.229  11.481  0.2703 -0.0567 -0.1977
    5TCq1    C2   70   0.449   3.995  11.443  0.2143 -0.2647  0.0629
    5TCq1    C3   71   0.375   3.890  11.491  0.4669  0.3706  0.0043
    5TCq1    C4   72   0.409   3.765  11.442  0.5418  0.0531  0.0941
    5TCq1    C5   73   0.511   3.753  11.353  0.6897  0.3181  0.3762
    5TCq1    C6   74   0.564   3.867  11.301  0.1918 -0.6686  0.2252
    5TCq1    C7   75   0.537   3.993  11.347 -0.4488 -1.5660  0.5497
    5TCq1    C8   76   0.683   3.848  11.223  1.0194 -0.8831 -0.4226
    5TCq1    O4   77   0.728   3.736  11.201  0.4180  0.0241 -0.2999
    5TCq1    C9   78   0.335   3.643  11.479 -0.8071  0.1386 -0.0731
    5TCq1    O5   79   0.249   3.638  11.576  0.4177 -0.3267 -0.0597
    5TCq1    O6   80   0.360   3.544  11.410 -0.6699 -0.2773  0.3390
    5TCq1    H1   81   0.456   3.989  11.650  0.8409 -0.0680  0.8888
    5TCq1    H2   82   0.294   3.913  11.559  0.8319  0.7582  0.3069
    5TCq1    H3   83   0.534   3.658  11.307 -1.6859 -0.0843  0.0323
    5TCq1    H4   84   0.580   4.085  11.308 -1.3077 -1.7033 -0.7470
    6MPD2     C   85   0.903   4.130  11.107 -0.4710 -0.6684  0.0359
    6MPD2    C1   86   0.872   3.999  11.127 -0.0174 -0.4415 -0.8093
    6MPD2    C2   87   0.962   3.904  11.091 -0.0643  0.2978  0.2217
    6MPD2    C3   88   1.074   3.939  11.020  0.3038 -0.1148  0.4438
    6MPD2    C4   89   1.092   4.066  10.980 -0.3258  0.0542  0.4680
    6MPD2    C5   90   0.999   4.159  11.012  0.0303 -0.3796 -0.2325
    6MPD2     H   91   0.943   3.806  11.133 -0.7736 -0.0401 -0.8946
    6MPD2    H1   92   1.169   4.098  10.910  0.5418 -0.2488  1.2815
    6MPD2    H2   93   0.826   4.202  11.131 -0.4344  0.1434 -2.2416
    6MPD2    H3   94   0.982   4.262  10.983 -2.5137 -1.0154 -0.9950
    6MPD2     N   95   1.172   3.840  10.997 -0.4047  0.0659 -0.5137
    6MPD2    H5   96   1.150   3.743  11.014 -1.2371  0.3807  0.2692
    6MPD2    N1   97   0.742   3.970  11.187 -0.2162 -0.4228  0.2230
    6MPD2    H7   98   0.690   4.054  11.209 -0.5546 -0.4002 -0.6930
    7TCq1    O1   99   3.411   3.106  13.904 -0.1443  0.4966  0.2820
    7TCq1    C1  100   3.355   3.009  13.824 -0.3212  0.2613  0.8056
    7TCq1    O2  101   3.408   2.963  13.722 -0.8494  0.6207 -0.1272
    7TCq1    C2  102   3.248   2.938  13.895  0.2261  0.5530  0.4966
    7TCq1    C3  103   3.171   3.012  13.985  0.1244  0.6741  0.4681
    7TCq1    C4  104   3.055   2.956  14.013 -0.5712  0.3138 -0.3314
    7TCq1    C5  105   3.018   2.830  13.967  0.2129  0.5155 -0.0897
    7TCq1    C6  106   3.106   2.767  13.884  0.3819  0.2080 -0.2900
    7TCq1    C7  107   3.224   2.814  13.842 -0.6580 -0.0592  0.1050
    7TCq1    C8  108   3.060   2.649  13.814 -0.0655 -0.3580  0.1740
    7TCq1    O4  109   3.108   2.542  13.828  0.5726  0.7730 -0.2443
    7TCq1    C9  110   2.965   3.024  14.101 -0.0515  0.5526 -0.1200
    7TCq1    O5  111   2.851   2.971  14.124 -0.6141  0.6904  0.0683
    7TCq1    O6  112   2.997   3.139  14.144  0.0995  0.3159 -0.3691
    7TCq1    H1  113   3.381   3.105  13.997  0.3213  0.6432  0.4328
    7TCq1    H2  114   3.180   3.112  14.025  1.2526  0.5409  0.5523
    7TCq1    H3  115   2.920   2.790  13.991 -0.3512  0.3060 -2.7547
    7TCq1    H4  116   3.280   2.781  13.756  0.2704 -0.8357  1.0047
    8MPD2     C  117   2.725   2.440  13.481 -0.8894  0.7177  0.1640
    8MPD2    C1  118   2.791   2.380  13.584 -0.6961 -0.3362 -0.4187
    8MPD2    C2  119   2.874   2.451  13.667  0.2833  0.0085  0.4589
    8MPD2    C3  120   2.878   2.588  13.661  0.7438  0.9594 -0.0993
    8MPD2    C4  121   2.800   2.658  13.574 -0.5655 -0.4435  0.3820
    8MPD2    C5  122   2.737   2.585  13.478 -0.0339 -0.3043  0.6181
    8MPD2     H  123   2.910   2.399  13.755 -0.2685 -0.9854  0.0967
    8MPD2    H1  124   2.799   2.766  13.571  1.6763 -0.5373 -3.7103
    8MPD2    H2  125   2.671   2.381  13.408  0.7184  1.9169 -1.9909
    8MPD2    H3  126   2.689   2.643  13.400  1.2633 -2.4239 -1.7720
    8MPD2     N  127   2.946   2.681  13.742  0.0900  0.1922 -0.8152
    8MPD2    H5  128   2.927   2.779  13.725  1.5174  0.6837  0.3186
    8MPD2    N1  129   2.758   2.241  13.593 -0.0448 -0.2257 -0.1720
    8MPD2    H7  130   2.692   2.204  13.524 -0.5426  1.2155 -0.4636
    9TMC1    C1  131   1.046   1.791  10.850 -0.2035  0.0700 -0.2587
    9TMC1    C2  132   0.920   1.785  10.797  0.2782  0.2177 -0.0894
    9TMC1    C3  133   0.909   1.775  10.666 -0.4316  0.4098  0.3359
    9TMC1    C4  134   1.161   1.782  10.775 -0.4409  0.1590  0.0223
    9TMC1    C5  135   1.145   1.760  10.640 -0.1023  0.4320  0.1173
    9TMC1    C6  136   1.018   1.759  10.583  0.1676  0.4979 -0.1221
    9TMC1     C  137   1.062   1.809  10.994  0.1024  0.7810  0.3336
    9TMC1     O  138   1.163   1.866  11.026 -0.5118  0.5935  0.1773
    9TMC1     H  139   0.831   1.784  10.858 -1.4818 -0.5097 -2.6442
    9TMC1    H1  140   1.257   1.791  10.824 -1.1370  0.8957  1.2661
    9TMC1    H2  141   1.001   1.746  10.476  0.8228 -0.5891 -0.0970
    9TMC1    C7  142   1.239   1.686  10.564 -0.4403  0.2801 -0.4699
    9TMC1    C8  143   0.778   1.790  10.609 -0.1337 -0.2315 -0.0520
    9TMC1    O1  144   1.238   1.684  10.443  0.0945 -0.2971 -0.3340
    9TMC1    O2  145   0.723   1.701  10.551 -0.0840  0.0367 -0.1648
    9TMC1    O3  146   1.318   1.620  10.643  0.2775  0.1030 -0.5563
    9TMC1    H3  147   1.322   1.636  10.740  0.7681 -1.3281 -0.3422
    9TMC1    O5  148   0.716   1.901  10.657 -0.3278  0.2811  0.6929
    9TMC1    H5  149   0.766   1.957  10.720 -0.4869  1.5059 -0.2706
   10MPD2     C  150   1.021   1.845  11.291  0.3343 -0.0013  0.3561
   10MPD2    C1  151   0.930   1.782  11.204  0.0893  0.2459  0.3053
   10MPD2    C2  152   0.813   1.726  11.261  0.3372  0.2820 -0.0377
   10MPD2    C3  153   0.791   1.730  11.395 -0.2212 -0.2780  0.5444
   10MPD2    C4  154   0.894   1.782  11.476 -0.7295 -0.1290  0.4896
   10MPD2    C5  155   1.007   1.845  11.431 -0.1202 -0.4190 -0.0056
   10MPD2     H  156   0.738   1.676  11.201 -0.2147  2.0061 -0.7962
   10MPD2    H1  157   0.878   1.804  11.581  1.8069 -2.8952  1.4717
   10MPD2    H2  158   1.110   1.891  11.250 -0.3011  0.6748 -0.2720
   10MPD2    H3  159   1.082   1.887  11.498  0.8020 -1.0746 -0.6313
   10MPD2     N  160   0.673   1.678  11.467  0.0406 -0.2914 -0.1820
   10MPD2    H5  161   0.682   1.685  11.568  0.6649  0.5302 -0.2989
   10MPD2    N1  162   0.946   1.770  11.064  0.1159  0.1371 -1.1015
   10MPD2    H7  163   0.880   1.707  11.020  0.7782  0.1185 -2.0638
   11TCq1    O1  164   1.507   1.385  14.226  0.1680 -0.6128  0.0562
   11TCq1    C1  165   1.375   1.352  14.204 -0.0440  0.3932  0.1939
   11TCq1    O2  166   1.278   1.421  14.229 -0.3284 -0.3536 -0.2278
   11TCq1    C2  167   1.377   1.207  14.205  0.9677  0.2812  0.9990
   11TCq1    C3  168   1.467   1.138  14.130 -0.4533  0.4032 -0.6188
   11TCq1    C4  169   1.444   1.000  14.114 -0.0772 -1.4097 -0.3150
   11TCq1    C5  170   1.329   0.936  14.148  0.4380  1.0491  0.0927
   11TCq1    C6  171   1.234   1.017  14.205 -0.2199 -0.2861  0.5579
   11TCq1    C7  172   1.255   1.148  14.233  0.1908 -0.1832  0.1370
   11TCq1    C8  173   1.098   0.976  14.223  0.2672  0.0909 -0.1904
   11TCq1    O4  174   1.006   1.054  14.258 -0.2525  0.1996  1.1935
   11TCq1    C9  175   1.550   0.914  14.063 -0.1847 -0.6823 -0.4665
   11TCq1    O5  176   1.635   0.974  13.991 -0.2701 -0.0079 -0.1214
   11TCq1    O6  177   1.555   0.791  14.094  0.8580 -0.6859 -0.1135
   11TCq1    H1  178   1.567   1.308  14.232 -0.1718 -1.0173 -1.8510
   11TCq1    H2  179   1.552   1.190  14.088  0.8874 -0.7795  0.6328
   11TCq1    H3  180   1.315   0.833  14.118 -0.1344  2.0794 -3.1416
   11TCq1    H4  181   1.169   1.210  14.256  0.5740  0.8332 -1.2464
   12MPD2     C  182   0.846   0.798  14.189  0.0092  0.3902  0.1464
   12MPD2    C1  183   0.977   0.753  14.200 -0.2192 -1.4882 -0.3656
   12MPD2    C2  184   1.006   0.621  14.182 -0.1842  0.0691 -0.9556
   12MPD2    C3  185   0.907   0.530  14.151  0.2023 -0.3697 -0.0424
   12MPD2    C4  186   0.771   0.568  14.134  0.1011 -0.4332 -0.6416
   12MPD2    C5  187   0.750   0.701  14.150  0.5385 -0.3716  0.4970
   12MPD2     H  188   1.108   0.586  14.194  0.9886  3.4987 -0.9409
   12MPD2    H1  189   0.698   0.493  14.106 -0.0573 -0.4167 -0.2746
   12MPD2    H2  190   0.812   0.901  14.183 -1.4432  0.0221  1.9650
   12MPD2    H3  191   0.648   0.734  14.135  0.7579  0.5519  1.0819
   12MPD2     N  192   0.953   0.396  14.117 -0.2853  0.0479 -0.6270
   12MPD2    H5  193   0.897   0.332  14.063  1.1471 -2.2679  0.6364
   12MPD2    N1  194   1.095   0.838  14.207 -0.1901 -0.0371 -0.3327
   12MPD2    H7  195   1.183   0.790  14.197 -0.2931 -0.6671  1.7548
   13TCq1    O1  196   1.180   1.486  11.723 -0.0746 -0.5034 -0.4645
   13TCq1    C1  197   1.074   1.441  11.662 -0.3978  0.4546  0.3403
   13TCq1    O2  198   0.961   1.432  11.706 -0.4985 -0.8379  0.3204
   13TCq1    C2  199   1.106   1.435  11.520  0.7395  0.4834 -0.3149
   13TCq1    C3  200   1.186   1.538  11.464  0.2201 -0.3166 -0.3340
   13TCq1    C4  201   1.188   1.546  11.330 -0.2104  0.1236  0.0605
   13TCq1    C5  202   1.114   1.464  11.249  0.4958 -0.5584  0.4976
   13TCq1    C6  203   1.030   1.377  11.311 -0.2307  0.8722  0.1264
   13TCq1    C7  204   1.019   1.359  11.447 -0.5380 -0.3315 -0.4255
   13TCq1    C8  205   0.904   1.352  11.241  0.3686  0.6821  0.2707
   13TCq1    O4  206   0.805   1.334  11.311 -0.0081  0.2426 -0.6527
   13TCq1    C9  207   1.291   1.629  11.276  0.0029 -0.0831 -1.0331
   13TCq1    O5  208   1.318   1.614  11.155  0.5923  0.7426 -0.0717
   13TCq1    O6  209   1.377   1.684  11.350  0.2979 -0.0521  0.1581
   13TCq1    H1  210   1.268   1.461  11.686  0.5025  0.3245  0.3232
   13TCq1    H2  211   1.248   1.607  11.520  0.2256 -0.2798 -0.3847
   13TCq1    H3  212   1.101   1.490  11.145 -0.7283 -2.6951  0.1283
   13TCq1    H4  213   0.959   1.280  11.491  0.3419 -0.7470  0.0157
   14MPD2     C  214   0.845   1.374  10.876 -0.2289  0.7562 -0.5094
   14MPD2    C1  215   0.821   1.383  11.012 -0.6843 -0.7749 -0.2152
   14MPD2    C2  216   0.712   1.452  11.052 -0.2628  0.1506 -0.2721
   14MPD2    C3  217   0.625   1.510  10.957 -0.0114 -0.0766 -0.6682
   14MPD2    C4  218   0.656   1.502  10.819  0.2215 -0.3681  0.5097
   14MPD2    C5  219   0.773   1.438  10.784  0.2053 -0.1069  0.3880
   14MPD2     H  220   0.693   1.459  11.158  1.2810 -1.7500  0.1241
   14MPD2    H1  221   0.588   1.543  10.746  0.8735  0.7936  0.5514
   14MPD2    H2  222   0.932   1.322  10.837 -0.5561 -0.7544  0.7445
   14MPD2    H3  223   0.797   1.426  10.679  3.8125 -1.6591  1.4168
   14MPD2     N  224   0.516   1.592  11.008 -0.5845  0.6730  0.0199
   14MPD2    H5  225   0.510   1.585  11.109  1.7086 -0.2761  0.0922
   14MPD2    N1  226   0.914   1.334  11.105 -0.2983 -0.2211 -0.9014
   14MPD2    H7  227   1.006   1.325  11.064  0.4785 -1.1217  1.0140
   15TCq1    O1  228   2.604   0.609   2.569 -0.0448 -0.4046 -0.3312
   15TCq1    C1  229   2.599   0.489   2.515 -0.2565  0.2078  0.2271
   15TCq1    O2  230   2.698   0.415   2.501  0.1168 -0.6304 -0.2881
   15TCq1    C2  231   2.497   0.500   2.413  0.8212  0.2950 -0.7465
   15TCq1    C3  232   2.370   0.501   2.448  0.6549  0.4712 -0.1181
   15TCq1    C4  233   2.271   0.481   2.348 -0.0514 -0.3467 -0.1809
   15TCq1    C5  234   2.313   0.441   2.228  0.5697  0.1536  0.0422
   15TCq1    C6  235   2.452   0.437   2.204  0.2541 -0.3634 -0.2200
   15TCq1    C7  236   2.547   0.468   2.293  0.1089  0.4741 -0.1648
   15TCq1    C8  237   2.495   0.412   2.066  0.0343 -0.0864  0.2498
   15TCq1    O4  238   2.612   0.391   2.052  0.3564  0.4880  0.5546
   15TCq1    C9  239   2.132   0.479   2.383 -0.1188 -0.0602  0.2193
   15TCq1    O5  240   2.106   0.506   2.504 -0.2409  0.3441 -0.4225
   15TCq1    O6  241   2.052   0.452   2.286  0.1218  0.4996  0.7584
   15TCq1    H1  242   2.517   0.654   2.560  1.6482  2.9464  0.2781
   15TCq1    H2  243   2.333   0.517   2.549  2.1965  0.0515  0.5156
   15TCq1    H3  244   2.236   0.402   2.163 -0.0848  1.1855  0.1945
   15TCq1    H4  245   2.652   0.467   2.265  0.4479 -0.2925  1.1205
   16MPD2     C  246   2.287   0.452   1.762 -0.1516  1.2755 -0.6180
   16MPD2    C1  247   2.401   0.419   1.829 -0.0876  0.3643 -0.2799
   16MPD2    C2  248   2.498   0.347   1.768  0.2847 -0.5592 -0.4018
   16MPD2    C3  249   2.480   0.310   1.631  0.2640 -0.1216 -0.6103
   16MPD2    C4  250   2.361   0.341   1.564 -0.1307 -0.1568 -0.5770
   16MPD2    C5  251   2.273   0.427   1.630  0.2092 -0.6818  0.2664
   16MPD2     H  252   2.583   0.316   1.827  0.4144  1.2007  0.3306
   16MPD2    H1  253   2.344   0.320   1.459 -1.0652  1.3228 -0.7204
   16MPD2    H2  254   2.207   0.503   1.815  1.2692  0.9269  1.8806
   16MPD2    H3  255   2.188   0.464   1.574 -0.7493 -1.8800  0.9363
   16MPD2     N  256   2.596   0.245   1.566  0.0866  0.5544 -0.0322
   16MPD2    H5  257   2.687   0.253   1.610  0.1103  0.3997 -0.0537
   16MPD2    N1  258   2.400   0.452   1.967 -0.4927 -0.3859 -0.0010
   16MPD2    H7  259   2.318   0.506   1.992  0.4239  0.2786  1.5397
   17TMC1    C1  260   0.724   0.898  10.550 -0.3984 -0.1776  0.6295
   17TMC1    C2  261   0.624   0.857  10.634  0.2761  0.2228 -0.1686
   17TMC1    C3  262   0.576   0.729  10.625  0.3068  0.5759 -0.2516
   17TMC1    C4  263   0.789   0.803  10.468 -0.0664  0.4266  0.2404
   17TMC1    C5  264   0.741   0.670  10.473 -0.0423  0.0317 -0.7007
   17TMC1    C6  265   0.635   0.631  10.549 -0.2997 -0.2701  0.6921
   17TMC1     C  266   0.795   1.023  10.567  1.0107  0.0807 -0.3508
   17TMC1     O  267   0.722   1.120  10.587  0.7694 -1.0225  0.8267
   17TMC1     H  268   0.584   0.931  10.703  0.6181  0.7868 -0.5695
   17TMC1    H1  269   0.873   0.831  10.405 -0.1829 -0.5096 -0.3244
   17TMC1    H2  270   0.595   0.531  10.534  1.7145 -1.2978  2.1970
   17TMC1    C7  271   0.772   0.573  10.370 -0.8001 -0.2177 -0.6969
   17TMC1    C8  272   0.469   0.687  10.701  0.1642  0.0668 -0.5558
   17TMC1    O1  273   0.694   0.490  10.317 -0.0758 -0.5448  0.1972
   17TMC1    O2  274   0.386   0.603  10.672 -0.3826 -0.1518  0.1795
   17TMC1    O3  275   0.882   0.612  10.305 -0.9728 -0.0644 -0.0596
   17TMC1    H3  276   0.955   0.647  10.360  0.0539 -0.7535 -1.0124
   17TMC1    O5  277   0.473   0.761  10.815 -0.1204  0.3377  0.3523
   17TMC1    H5  278   0.563   0.799  10.815  0.4245 -0.9388 -2.3566
   18MPD2     C  279   1.008   1.218  10.543  0.1827  0.0108  0.2956
   18MPD2    C1  280   1.031   1.090  10.596  0.6362  0.0144 -0.2940
   18MPD2    C2  281   1.141   1.060  10.660  0.0162 -0.2390 -0.4019
   18MPD2    C3  282   1.248   1.146  10.669 -0.2961  0.4363 -0.0401
   18MPD2    C4  283   1.235   1.273  10.617  0.6529  0.2641 -0.2869
   18MPD2    C5  284   1.115   1.307  10.554  0.5820 -0.5534  0.2154
   18MPD2     H  285   1.156   0.970  10.718  0.2670  0.5198  0.7137
   18MPD2    H1  286   1.307   1.352  10.604 -1.9099  2.9469  1.8702
   18MPD2    H2  287   0.921   1.251  10.487 -0.4766 -0.8522  0.8042
   18MPD2    H3  288   1.098   1.409  10.522  0.1165 -1.2252 -1.6501
   18MPD2     N  289   1.367   1.126  10.737  0.3619 -0.0996  0.2002
   18MPD2    H5  290   1.435   1.199  10.720 -0.7016  0.7217 -0.5261
   18MPD2    N1  291   0.930   0.996  10.579  0.0676 -0.0802 -0.1846
   18MPD2    H7  292   0.962   0.900  10.577 -0.4614 -0.1837 -3.3918
   19TMC2    C1  293   2.124   1.047  14.110  0.2757 -0.5575 -0.8231
   19TMC2    C2  294   2.022   1.127  14.166 -0.0344  0.0505 -0.3137
   19TMC2    C3  295   1.913   1.059  14.218 -0.6451 -0.3710 -0.1443
   19TMC2    C4  296   2.110   0.909  14.104  0.1386  0.3009 -0.4921
   19TMC2    C5  297   1.997   0.853  14.156  0.2770 -0.0487 -0.2247
   19TMC2    C6  298   1.889   0.925  14.212 -0.8185  0.2057 -0.3878
   19TMC2     C  299   2.255   1.112  14.098  0.2354 -0.1185 -0.1671
   19TMC2     O  300   2.254   1.231  14.101  0.1209 -0.5081  0.3084
   19TMC2     H  301   2.057   1.229  14.177  2.5296 -1.0774  2.0758
   19TMC2    H1  302   2.184   0.861  14.042  1.5829  2.1392 -0.1885
   19TMC2    H2  303   1.799   0.886  14.257 -0.3960 -1.5533 -1.0506
   19TMC2    C7  304   1.977   0.714  14.138  0.4789  0.3135  0.0867
   19TMC2    C8  305   1.801   1.135  14.276 -0.4205 -0.2552 -0.6326
   19TMC2    O1  306   2.076   0.653  14.095  0.2151 -0.0838 -0.2384
   19TMC2    O2  307   1.703   1.072  14.320 -0.6744 -0.1961 -0.0464
   19TMC2    O5  308   1.792   1.257  14.215 -0.1920 -0.0968  0.2839
   19TMC2    H5  309   1.852   1.288  14.143 -0.6824  4.1193  1.6863
   20MPD2     C  310   2.541   1.183  14.060 -0.0174  0.4658 -0.0925
   20MPD2    C1  311   2.495   1.050  14.073  0.5923 -0.5779  0.2894
   20MPD2    C2  312   2.587   0.945  14.094  0.2127 -0.2028 -0.1743
   20MPD2    C3  313   2.713   0.983  14.141 -0.0782 -0.8065  0.3340
   20MPD2    C4  314   2.749   1.119  14.147 -0.6727  0.4745  0.8869
   20MPD2    C5  315   2.669   1.221  14.098 -0.6481  0.5004 -0.0971
   20MPD2     H  316   2.563   0.840  14.084 -1.4397  0.0361  1.3892
   20MPD2    H1  317   2.847   1.144  14.186 -0.5807  0.2062  0.8276
   20MPD2    H2  318   2.485   1.270  14.027 -1.0693 -0.4108 -0.6185
   20MPD2    H3  319   2.704   1.323  14.091  1.1170 -0.0050  1.2160
   20MPD2     N  320   2.812   0.894  14.179 -0.5539  0.2161  0.0521
   20MPD2    H5  321   2.899   0.935  14.212 -0.3975 -0.4991  0.5450
   20MPD2    N1  322   2.355   1.023  14.073 -0.0730 -0.4770  0.8925
   20MPD2    H7  323   2.337   0.923  14.074  0.8204 -0.6469  0.3449
   21TMC2    C1  324   4.207   1.503  15.004  0.3676  0.1622 -0.1638
   21TMC2    C2  325   4.185   1.445  15.128 -0.3196 -0.2953  0.5251
   21TMC2    C3  326   4.108   1.517  15.217  0.1935 -0.0317 -0.4359
   21TMC2    C4  327   4.161   1.619  14.958  0.0205 -0.6581  0.1308
   21TMC2    C5  328   4.075   1.679  15.049 -0.1490 -0.5946  0.0319
   21TMC2    C6  329   4.051   1.625  15.172 -0.0199 -0.1545  0.3474
   21TMC2     C  330   4.271   1.415  14.915  0.2287  0.2706 -0.4733
   21TMC2     O  331   4.342   1.323  14.960 -0.2692  0.2987  0.4536
   21TMC2     H  332   4.229   1.349  15.148  2.3871  0.6743 -0.7349
   21TMC2    H1  333   4.201   1.650  14.863 -1.1309  0.1259 -0.1042
   21TMC2    H2  334   3.976   1.671  15.236  0.4539  0.4784  0.4416
   21TMC2    C7  335   4.061   1.825  15.044  0.2626  0.4723 -0.3076
   21TMC2    C8  336   4.056   1.453  15.336  0.1665  0.2386  0.3112
   21TMC2    O1  337   4.030   1.884  15.146  0.2614 -0.1801  0.2942
   21TMC2    O2  338   4.017   1.521  15.429 -0.1412  0.6803 -0.3540
   21TMC2    O5  339   3.986   1.351  15.275 -0.1303 -0.2828  0.2221
   21TMC2    H5  340   4.026   1.296  15.204 -0.3037 -1.5153  1.0642
   22MPD2     C  341   4.319   1.256  14.428  0.4911 -0.2547  0.6827
   22MPD2    C1  342   4.403   1.233  14.539 -0.6470  0.0043  0.3050
   22MPD2    C2  343   4.364   1.279  14.665  0.2396 -0.3047  0.4859
   22MPD2    C3  344   4.253   1.356  14.673 -0.8891  0.6870 -1.0540
   22MPD2    C4  345   4.165   1.368  14.566  0.1513  0.1885  0.5130
   22MPD2    C5  346   4.199   1.325  14.443  0.2771 -0.5751 -0.2276
   22MPD2     H  347   4.426   1.269  14.752  0.7105 -1.9979 -0.0344
   22MPD2    H1  348   4.087   1.444  14.574  0.7652  0.6624  2.1002
   22MPD2    H2  349   4.350   1.227  14.328 -1.7757 -1.3155  0.2847
   22MPD2    H3  350   4.138   1.349  14.357  0.4603  3.7404  0.8759
   22MPD2     N  351   4.218   1.431  14.790 -0.4527  0.2835 -0.1854
   22MPD2    H5  352   4.140   1.496  14.792  0.4005  1.3396 -0.7898
   22MPD2    N1  353   4.533   1.176  14.530  0.2036 -0.1450 -0.3879
   22MPD2    H7  354   4.591   1.168  14.613 -0.8032  0.6479  0.3910
   23TMC2    C1  355   1.189   3.019  14.850 -0.0627 -0.6707 -0.3971
   23TMC2    C2  356   1.300   3.105  14.854  0.3057 -0.3553 -0.3633
   23TMC2    C3  357   1.316   3.192  14.748 -0.4804 -0.0185 -0.7160
   23TMC2    C4  358   1.107   3.028  14.737  0.1369 -0.3514  0.5068
   23TMC2    C5  359   1.130   3.111  14.632 -0.3139 -0.1931  0.0075
   23TMC2    C6  360   1.235   3.196  14.638  0.6306 -0.0937 -0.0624
   23TMC2     C  361   1.210   2.897  14.924  0.0549  0.8155 -0.2332
   23TMC2     O  362   1.284   2.919  15.025  0.0524 -0.0384 -0.4994
   23TMC2     H  363   1.368   3.115  14.939 -1.4414  1.6771  0.7831
   23TMC2    H1  364   1.024   2.957  14.730  0.0731 -0.2375  0.0848
   23TMC2    H2  365   1.257   3.260  14.554  3.3181 -1.1500 -0.1592
   23TMC2    C7  366   1.086   3.088  14.503  0.7258 -0.1214 -0.2854
   23TMC2    C8  367   1.414   3.297  14.772  0.1543  0.3617  0.6709
   23TMC2    O1  368   1.164   3.108  14.411 -0.1824 -0.1165 -0.7323
   23TMC2    O2  369   1.438   3.341  14.882 -0.1780 -0.4764 -0.4292
   23TMC2    O5  370   1.448   3.346  14.648  0.3199 -0.1247  0.4544
   23TMC2    H5  371   1.444   3.271  14.584 -1.6722  1.3300 -1.1333
   24MPD2     C  372   1.204   2.404  15.016  0.2444  0.4836  0.6919
   24MPD2    C1  373   1.258   2.510  15.088 -0.2057  0.0861  0.1350
   24MPD2    C2  374   1.226   2.634  15.046  1.0068 -0.1287 -0.6744
   24MPD2    C3  375   1.180   2.651  14.914  0.2973  0.1068  0.0067
   24MPD2    C4  376   1.150   2.546  14.834  0.0916  0.4361 -0.3360
   24MPD2    C5  377   1.160   2.425  14.891  0.4895 -0.3240  0.1052
   24MPD2     H  378   1.246   2.717  15.112  3.4808 -1.0172 -0.3143
   24MPD2    H1  379   1.109   2.545  14.734 -1.0074  2.0251  0.0935
   24MPD2    H2  380   1.198   2.302  15.052  0.1299  0.3409  0.2688
   24MPD2    H3  381   1.132   2.337  14.833 -0.4612  0.4172 -0.5441
   24MPD2     N  382   1.162   2.784  14.862 -0.3146  0.0336 -1.0506
   24MPD2    H5  383   1.142   2.790  14.763 -0.6237  2.8153 -0.8175
   24MPD2    N1  384   1.314   2.494  15.217 -0.3172  0.3868  0.5972
   24MPD2    H7  385   1.317   2.578  15.274 -2.2299 -0.4397  1.9136
   25TMC2    C1  386   0.362   0.512  11.520  0.5270 -0.0481 -0.6636
   25TMC2    C2  387   0.453   0.609  11.551 -0.5442  0.1089 -0.1544
   25TMC2    C3  388   0.417   0.696  11.646  0.5693 -0.1733  0.7307
   25TMC2    C4  389   0.240   0.500  11.579  0.1046  0.4577  0.1935
   25TMC2    C5  390   0.206   0.590  11.675 -0.2485  0.3030 -0.1733
   25TMC2    C6  391   0.301   0.681  11.711 -0.7095  0.0733  0.4461
   25TMC2     C  392   0.396   0.416  11.415 -0.2015  0.1847 -0.8702
   25TMC2     O  393   0.496   0.432  11.348  0.4246  0.0480  0.1979
   25TMC2     H  394   0.536   0.643  11.490  0.9531 -0.0168  1.7998
   25TMC2    H1  395   0.174   0.415  11.568  0.9032 -0.3025  1.2825
   25TMC2    H2  396   0.274   0.737  11.800 -0.1941  0.2178  0.5124
   25TMC2    C7  397   0.103   0.553  11.771 -0.9345  0.3306 -0.3973
   25TMC2    C8  398   0.522   0.780  11.708  0.0119  0.7488  0.3631
   25TMC2    O1  399   0.105   0.435  11.812  0.2422  0.7924  0.0554
   25TMC2    O2  400   0.491   0.868  11.786  0.2979 -0.5406  0.2040
   25TMC2    O5  401   0.630   0.701  11.722 -0.9434  0.0439 -0.7716
   25TMC2    H5  402   0.653   0.646  11.644 -3.3867  0.6541 -1.9580
   26MPD2     C  403   0.272   0.047  11.096 -0.3115 -0.4286 -0.7375
   26MPD2    C1  404   0.161   0.069  11.167 -0.4700 -0.0187  0.7164
   26MPD2    C2  405   0.164   0.171  11.263 -0.9547  0.0520 -0.1090
   26MPD2    C3  406   0.288   0.240  11.285 -0.7744 -0.4339 -0.0319
   26MPD2    C4  407   0.400   0.197  11.218  0.0216 -0.1549 -0.4525
   26MPD2    C5  408   0.391   0.104  11.121  0.0431 -0.6302  0.6773
   26MPD2     H  409   0.075   0.193  11.320 -1.1472 -1.6181  0.2541
   26MPD2    H1  410   0.497   0.238  11.244 -0.3432  0.3053  0.1869
   26MPD2    H2  411   0.262   4.712  11.014 -2.4338 -1.7401  0.6217
   26MPD2    H3  412   0.481   0.075  11.068  1.4764  2.4794  1.4300
   26MPD2     N  413   0.288   0.335  11.384 -0.6125 -1.0201  0.6550
   26MPD2    H5  414   0.200   0.344  11.434 -1.0553 -0.1355 -0.2949
   26MPD2    N1  415   0.045   4.731  11.142 -0.1568  0.0127 -0.0135
   26MPD2    H7  416   0.053   4.670  11.061 -0.9395 -0.3402  0.1730
   27TMC2    C1  417   2.842   2.937  11.988  0.2885 -0.5297  0.0092
   27TMC2    C2  418   2.833   3.048  11.921 -0.6745 -0.1520  0.0557
   27TMC2    C3  419   2.941   3.134  11.908  0.0522 -0.0471  0.1553
   27TMC2    C4  420   2.964   2.898  12.043  0.6356 -0.0421 -0.7994
   27TMC2    C5  421   3.066   2.986  12.029  1.4655  0.1484  0.1715
   27TMC2    C6  422   3.060   3.112  11.973  0.8444  0.3569  0.8364
   27TMC2     C  423   2.723   2.859  11.991 -0.2645 -0.1581  1.0943
   27TMC2     O  424   2.647   2.861  11.897  0.0520 -0.1316  0.2100
   27TMC2     H  425   2.736   3.069  11.876 -1.1606 -2.3987  0.0774
   27TMC2    H1  426   2.980   2.816  12.111  3.3848 -0.1699 -1.6155
   27TMC2    H2  427   3.147   3.165  11.935  2.4727 -1.4497  2.0386
   27TMC2    C7  428   3.201   2.940  12.051 -0.3807  0.7474 -0.2205
   27TMC2    C8  429   2.906   3.267  11.856 -0.0333 -1.1237  0.4928
   27TMC2    O1  430   3.283   3.032  12.057 -0.0313  0.5218  0.2507
   27TMC2    O2  431   2.806   3.287  11.791  0.0672  0.2195  0.0884
   27TMC2    O5  432   2.957   3.346  11.946 -1.1613  0.5054 -0.0744
   27TMC2    H5  433   3.019   3.292  11.999 -0.6555  0.7509 -0.4128
   28MPD2     C  434   2.449   2.469  12.212  0.4110  0.0220  0.4567
   28MPD2    C1  435   2.573   2.478  12.268  0.2449  0.5242 -0.1035
   28MPD2    C2  436   2.658   2.579  12.226 -0.5313 -0.6933 -0.4619
   28MPD2    C3  437   2.623   2.671  12.131  0.3555  0.0494  1.0038
   28MPD2    C4  438   2.494   2.664  12.076 -0.3923 -0.1691  0.8753
   28MPD2    C5  439   2.413   2.566  12.126  0.3088 -0.2018 -0.1637
   28MPD2     H  440   2.753   2.574  12.278  0.4454 -0.1397 -2.1759
   28MPD2    H1  441   2.466   2.739  12.004  0.3913  0.5040  1.2715
   28MPD2    H2  442   2.373   2.397  12.240  1.7202 -1.8972 -0.8810
   28MPD2    H3  443   2.311   2.571  12.089 -0.2231  0.5212  1.3771
   28MPD2     N  444   2.719   2.772  12.103  0.3464  0.7748  0.4958
   28MPD2    H5  445   2.797   2.777  12.167  0.2838 -0.0736  0.6453
   28MPD2    N1  446   2.610   2.384  12.375 -0.1831  0.7825  0.4021
   28MPD2    H7  447   2.556   2.299  12.370 -1.1151  1.4495 -1.1432
   29TMC2    C1  448   3.595   4.425  13.878  0.2470 -0.0878  0.4666
   29TMC2    C2  449   3.720   4.461  13.837 -0.5976 -0.1724 -0.2601
   29TMC2    C3  450   3.771   4.576  13.894 -0.2709  0.5724 -0.7220
   29TMC2    C4  451   3.526   4.501  13.981  0.1800  0.7891  0.6073
   29TMC2    C5  452   3.586   4.622  14.024  0.2905 -0.6073 -0.2641
   29TMC2    C6  453   3.713   4.655  13.990  0.0912  0.2041 -0.2269
   29TMC2     C  454   3.551   4.287  13.873  0.3949 -0.2066  0.3137
   29TMC2     O  455   3.644   4.210  13.866 -0.1965 -0.1857 -0.9376
   29TMC2     H  456   3.774   4.397  13.767  2.2363  1.3597  0.5071
   29TMC2    H1  457   3.429   4.468  14.017  0.9346 -0.7419  1.2378
   29TMC2    H2  458   3.763   0.011  14.022  1.1304 -0.5840  0.3963
   29TMC2    C7  459   3.517   4.692  14.128  0.3602 -0.4842 -0.8792
   29TMC2    C8  460   3.848   4.659  13.799 -0.4102 -0.5257 -0.9926
   29TMC2    O1  461   3.403   4.655  14.154  0.0475 -0.6473  0.1573
   29TMC2    O2  462   3.807   0.032  13.756  0.2446  0.0774  0.3842
   29TMC2    O5  463   3.906   4.568  13.723  0.0970  0.0704  0.1068
   29TMC2    H5  464   3.953   4.503  13.781  1.6939  1.1394 -0.0012
   30MPD2     C  465   3.223   3.889  13.872  0.1192  0.1131  0.1351
   30MPD2    C1  466   3.357   3.894  13.905 -0.1600  0.5434  0.1469
   30MPD2    C2  467   3.422   4.017  13.895 -0.0815  0.9388  0.3299
   30MPD2    C3  468   3.356   4.137  13.864 -0.3996  0.1888 -0.6553
   30MPD2    C4  469   3.222   4.126  13.835 -0.5949  0.3313 -0.8704
   30MPD2    C5  470   3.164   4.004  13.842 -0.5199  0.0278 -0.2657
   30MPD2     H  471   3.528   4.014  13.916 -0.0719 -1.3195 -0.1090
   30MPD2    H1  472   3.166   4.213  13.805 -1.8544  0.3502  1.5394
   30MPD2    H2  473   3.159   3.802  13.868 -0.0670  0.2809 -0.4747
   30MPD2    H3  474   3.061   3.986  13.812 -0.2490 -0.8227 -0.6788
   30MPD2     N  475   3.416   4.267  13.867 -0.5042 -0.1584 -0.4406
   30MPD2    H5  476   3.354   4.342  13.837 -1.6185 -0.2731  1.5847
   30MPD2    N1  477   3.410   3.791  13.985 -0.1967 -0.0777 -0.6794
   30MPD2    H7  478   3.494   3.804  14.041 -1.8205  0.3540  1.6654
   31TMC2    C1  479   0.803   3.188  15.589 -0.2124 -0.0948 -0.0858
   31TMC2    C2  480   0.665   3.198  15.592 -0.5334  0.2820 -0.2406
   31TMC2    C3  481   0.602   3.177  15.712 -0.2101  0.1333 -0.2861
   31TMC2    C4  482   0.873   3.153  15.702  0.3061 -0.3840  0.1560
   31TMC2    C5  483   0.798   3.131  15.817  0.3693 -0.1659 -0.6349
   31TMC2    C6  484   0.665   3.151  15.834  0.3273 -0.2919  0.7488
   31TMC2     C  485   0.869   3.213  15.466 -0.0208  0.0109 -0.1397
   31TMC2     O  486   0.810   3.277  15.377  0.1933  0.3492  0.3368
   31TMC2     H  487   0.616   3.207  15.496 -0.8135 -0.6793 -0.1883
   31TMC2    H1  488   0.980   3.137  15.710  0.5631  1.5535  0.5204
   31TMC2    H2  489   0.617   3.144  15.931  0.3374 -0.2938  0.7537
   31TMC2    C7  490   0.865   3.143  15.949 -0.4198 -0.2335  0.3137
   31TMC2    C8  491   0.460   3.198  15.726  0.1112  0.6109 -0.7448
   31TMC2    O1  492   0.819   3.077  16.036 -0.6227  0.3251  0.5165
   31TMC2    O2  493   0.398   3.155  15.821  0.3442  0.7300  0.1673
   31TMC2    O5  494   0.416   3.289  15.633  0.6143  0.1348 -0.4820
   31TMC2    H5  495   0.491   3.326  15.583  0.5900  0.4264 -0.3043
   32MPD2     C  496   1.324   3.257  15.215  0.0482 -0.4157  0.2046
   32MPD2    C1  497   1.212   3.338  15.205  0.4560  0.2439 -0.1241
   32MPD2    C2  498   1.103   3.315  15.287 -0.9898  1.5880  0.0513
   32MPD2    C3  499   1.105   3.208  15.376  0.4908  0.0075  0.5555
   32MPD2    C4  500   1.218   3.125  15.379 -0.9089 -0.0313  0.2487
   32MPD2    C5  501   1.324   3.143  15.291  0.3861  0.0659  0.1025
   32MPD2     H  502   1.015   3.374  15.263 -0.7296  1.1556 -1.9239
   32MPD2    H1  503   1.221   3.031  15.434  3.1947  0.3577  0.7195
   32MPD2    H2  504   1.400   3.280  15.142  1.7273 -0.1166  2.0380
   32MPD2    H3  505   1.413   3.082  15.282  0.2264 -0.3496  1.3277
   32MPD2     N  506   1.001   3.171  15.460  0.5994  0.2509  0.0966
   32MPD2    H5  507   1.029   3.107  15.533 -1.8776 -2.1635 -1.0745
   32MPD2    N1  508   1.195   3.425  15.091  0.1422  0.0409  0.8205
   32MPD2    H7  509   1.274   3.454  15.035 -1.2834  1.8569 -0.2628
   33TMC2    C1  510   1.583   1.946  10.690 -0.6723  0.4733 -0.0683
   33TMC2    C2  511   1.481   2.005  10.757  0.3022  0.3921 -0.4021
   33TMC2    C3  512   1.394   2.083  10.679 -0.4344  0.1201  0.2223
   33TMC2    C4  513   1.589   1.946  10.548  0.5049 -0.4817 -0.3941
   33TMC2    C5  514   1.500   2.018  10.475  0.2913  0.2556  0.7675
   33TMC2    C6  515   1.399   2.087  10.542  0.6800 -0.0028 -0.5276
   33TMC2     C  516   1.647   1.828  10.751  0.3602 -0.4176  0.2102
   33TMC2     O  517   1.590   1.780  10.847 -0.2247 -0.2664  0.5187
   33TMC2     H  518   1.453   1.976  10.858  0.7620  1.5275  0.0507
   33TMC2    H1  519   1.675   1.906  10.495  0.0605 -1.4529 -0.3868
   33TMC2    H2  520   1.336   2.159  10.492 -1.6270 -0.6479  1.5133
   33TMC2    C7  521   1.544   2.059  10.346 -0.7558 -0.6438  0.9085
   33TMC2    C8  522   1.275   2.135  10.743  0.0422 -0.2687 -0.3796
   33TMC2    O1  523   1.668   2.058  10.324  0.3212  0.4955 -0.3469
   33TMC2    O2  524   1.167   2.093  10.693 -0.5542 -0.3952  0.6942
   33TMC2    O5  525   1.314   2.178  10.865 -0.2764 -0.6117 -0.5087
   33TMC2    H5  526   1.404   2.214  10.853 -0.8764  1.8629  2.4537
   34MPD2     C  527   2.031   1.478  10.722 -0.0907 -0.4229  0.2281
   34MPD2    C1  528   1.910   1.464  10.781  0.5686  0.1894 -0.0813
   34MPD2    C2  529   1.824   1.579  10.776  0.0143 -0.5600 -0.8633
   34MPD2    C3  530   1.855   1.697  10.710 -0.0191 -0.3590  0.1316
   34MPD2    C4  531   1.981   1.702  10.649 -0.1856 -0.2297 -0.2835
   34MPD2    C5  532   2.071   1.597  10.654 -0.1447 -0.3221 -0.1692
   34MPD2     H  533   1.722   1.578  10.812 -0.0691  2.2374 -1.0404
   34MPD2    H1  534   2.017   1.798  10.613  0.5063  0.0566  1.1604
   34MPD2    H2  535   2.102   1.396  10.729 -0.4833 -0.7187  0.7179
   34MPD2    H3  536   2.173   1.600  10.618  0.2522 -0.3158  0.9493
   34MPD2     N  537   1.767   1.800  10.684  0.7500  0.3152  0.7855
   34MPD2    H5  538   1.801   1.875  10.624 -2.1519 -0.2181 -1.5065
   34MPD2    N1  539   1.876   1.338  10.836  0.5771 -0.1289  0.0857
   34MPD2    H7  540   1.928   1.257  10.804 -1.1094 -1.6633  1.2888
   35TMC2    C1  541   1.757   2.533  11.508  0.1697 -0.1201 -0.0895
   35TMC2    C2  542   1.624   2.552  11.516  0.3386  0.1077  0.0252
   35TMC2    C3  543   1.539   2.445  11.504  0.6372 -0.2723 -0.6238
   35TMC2    C4  544   1.809   2.406  11.500 -0.2120  0.1187 -0.2309
   35TMC2    C5  545   1.717   2.303  11.492  0.4801 -0.4010 -0.1881
   35TMC2    C6  546   1.580   2.318  11.495  0.3653  0.0495 -0.0112
   35TMC2     C  547   1.856   2.636  11.534  0.2077  0.5519 -0.6380
   35TMC2     O  548   1.836   2.751  11.488  0.3700 -0.1147  0.8891
   35TMC2     H  549   1.588   2.649  11.550 -2.8200  0.2323 -3.6542
   35TMC2    H1  550   1.915   2.391  11.481 -0.3063  1.2792 -1.6725
   35TMC2    H2  551   1.517   2.231  11.513  0.1181  0.3618  0.6482
   35TMC2    C7  552   1.763   2.164  11.507  0.7609 -0.3456  0.1518
   35TMC2    C8  553   1.414   2.479  11.565  0.0806  0.2229  0.2094
   35TMC2    O1  554   1.698   2.068  11.468 -0.0482 -0.3892  0.6820
   35TMC2    O2  555   1.396   2.578  11.640 -0.2095  0.1848  0.4400
   35TMC2    O5  556   1.315   2.390  11.527  0.2028 -0.0133  0.3142
   35TMC2    H5  557   1.341   2.326  11.457  1.1315  2.0514 -1.2357
   36MPD2     C  558   2.287   2.802  11.749 -0.2200 -0.3162 -0.3712
   36MPD2    C1  559   2.301   2.667  11.728  0.3944 -0.3819  0.1855
   36MPD2    C2  560   2.193   2.596  11.679  0.3067  0.9375 -0.5145
   36MPD2    C3  561   2.076   2.666  11.635 -0.0328  0.5589 -0.0058
   36MPD2    C4  562   2.078   2.802  11.638 -0.2281 -0.4753 -0.6278
   36MPD2    C5  563   2.183   2.871  11.695 -0.2972  0.5456 -0.4026
   36MPD2     H  564   2.186   2.488  11.668  0.3936  0.6963  1.7520
   36MPD2    H1  565   1.990   2.858  11.609 -0.2992 -0.4377 -0.3446
   36MPD2    H2  566   2.364   2.857  11.803 -1.4260  0.9573  0.0632
   36MPD2    H3  567   2.170   2.977  11.713  0.6596  0.5205  0.4487
   36MPD2     N  568   1.973   2.588  11.592  0.3175  0.4813 -0.1933
   36MPD2    H5  569   1.970   2.495  11.633  0.7587  0.5360 -0.0347
   36MPD2    N1  570   2.425   2.612  11.771 -0.2300 -0.4366  0.0692
   36MPD2    H7  571   2.498   2.672  11.809  1.5757 -0.8007 -2.9050
   37TMC2    C1  572   4.703   2.763  12.218  0.4990  0.0453 -0.3369
   37TMC2    C2  573   4.590   2.815  12.162  0.5862 -0.2100  0.1743
   37TMC2    C3  574   4.609   2.895  12.053  0.2629  0.0753 -0.2666
   37TMC2    C4  575   0.093   2.776  12.163 -0.5941  0.2333 -0.3084
   37TMC2    C5  576   0.100   2.866  12.059  0.1790 -0.4556  0.0775
   37TMC2    C6  577   4.725   2.921  11.999 -0.2917  0.7218  0.1857
   37TMC2     C  578   4.692   2.703  12.346 -0.2092  0.5882  0.4967
   37TMC2     O  579   4.580   2.689  12.391 -0.2549  0.3525 -0.1612
   37TMC2     H  580   4.494   2.804  12.212  0.5596 -0.0846  0.1502
   37TMC2    H1  581   0.181   2.717  12.184 -0.7786  1.0465  2.8213
   37TMC2    H2  582   0.007   3.002  11.929 -2.1345  1.3217  0.4399
   37TMC2    C7  583   0.230   2.873  11.993  0.1829 -0.9804 -0.2987
   37TMC2    C8  584   4.486   2.931  11.986 -0.2633 -0.3278 -0.0029
   37TMC2    O1  585   0.322   2.845  12.069  0.0097  0.1916  0.6213
   37TMC2    O2  586   4.375   2.955  12.037  0.3417 -0.2472 -0.6195
   37TMC2    O5  587   4.510   2.945  11.859  0.1323  0.4309  0.0377
   37TMC2    H5  588   4.589   2.891  11.839  1.8333  3.4498 -1.4038
   38MPD2     C  589   0.171   2.587  12.804  0.9024  0.5301 -0.1032
   38MPD2    C1  590   0.269   2.594  12.711 -0.2784  0.0921 -0.1392
   38MPD2    C2  591   0.237   2.632  12.582 -0.0382  0.1583  0.8598
   38MPD2    C3  592   0.106   2.661  12.543 -0.1488 -0.6155  0.1104
   38MPD2    C4  593   0.006   2.662  12.638 -0.0886 -0.2647  0.5139
   38MPD2    C5  594   0.049   2.632  12.766  0.0004  0.7365  0.4342
   38MPD2     H  595   0.318   2.628  12.510 -1.2461  0.0102 -0.5034
   38MPD2    H1  596   4.643   2.698  12.611 -0.7309 -1.6484  0.9869
   38MPD2    H2  597   0.178   2.564  12.910  1.1499 -0.0440 -0.2447
   38MPD2    H3  598   4.714   2.633  12.849 -0.8506  0.8789 -0.2847
   38MPD2     N  599   0.079   2.690  12.409 -0.0605  0.2323 -0.0120
   38MPD2    H5  600   0.160   2.710  12.351 -0.2879  3.3181  0.7396
   38MPD2    N1  601   0.400   2.552  12.737 -0.0854  0.2707  0.6493
   38MPD2    H7  602   0.459   2.542  12.655 -0.1815  0.2416  0.5835
   39TMC2    C1  603   2.548   0.008   2.137  0.1226 -0.3732 -0.9125
   39TMC2    C2  604   2.440   0.037   2.220  0.2694 -0.6675  0.0959
   39TMC2    C3  605   2.463   0.076   2.347  0.3193  0.1887 -0.0913
   39TMC2    C4  606   2.676   0.032   2.186  0.0932  0.6289 -0.4675
   39TMC2    C5  607   2.689   0.076   2.314  0.1089 -0.7379 -0.7995
   39TMC2    C6  608   2.583   0.102   2.398  0.2755  0.7604 -0.1957
   39TMC2     C  609   2.523   4.723   1.996  0.5187  0.7096  0.0785
   39TMC2     O  610   2.414   0.025   1.952  0.0922  0.2502  0.1292
   39TMC2     H  611   2.341   0.050   2.178  0.4043 -2.0720 -0.6911
   39TMC2    H1  612   2.763   0.014   2.124 -0.4234 -1.2672 -0.6559
   39TMC2    H2  613   2.602   0.143   2.497  0.0457  2.5486 -0.8977
   39TMC2    C7  614   2.818   0.080   2.378  0.6098 -0.2748  0.3000
   39TMC2    C8  615   2.344   0.120   2.418 -0.5580 -0.5073  0.0792
   39TMC2    O1  616   2.823   0.038   2.492 -0.1790  0.1741 -0.0332
   39TMC2    O2  617   2.244   0.149   2.355 -0.1220 -0.3339 -0.7599
   39TMC2    O5  618   2.347   0.107   2.555 -0.4037 -0.3338 -0.1742
   39TMC2    H5  619   2.424   0.056   2.587 -0.1537 -0.3363 -0.7679
   40MPD2     C  620   2.727   4.540   1.746 -0.0089  0.5723  0.7199
   40MPD2    C1  621   2.628   4.619   1.796  0.1521  0.1090  0.3206
   40MPD2    C2  622   2.524   4.640   1.706 -0.1504 -0.1183  0.1253
   40MPD2    C3  623   2.528   4.606   1.569 -0.6459  0.1889 -0.5492
   40MPD2    C4  624   2.632   4.528   1.532 -0.2160  0.1310 -0.0521
   40MPD2    C5  625   2.728   4.482   1.622 -0.8514  0.3439 -0.0032
   40MPD2     H  626   2.438   4.695   1.742  0.1811  1.4474 -1.4901
   40MPD2    H1  627   2.623   4.476   1.437  0.1185  0.1517 -0.0971
   40MPD2    H2  628   2.812   4.515   1.809 -1.0757 -1.6619  1.2961
   40MPD2    H3  629   2.815   4.432   1.583 -1.2226 -1.3899  1.4223
   40MPD2     N  630   2.430   4.628   1.474 -0.1940  0.1413  0.3584
   40MPD2    H5  631   2.443   4.610   1.375 -0.1510  0.4429  0.3095
   40MPD2    N1  632   2.631   4.665   1.930 -0.2243 -0.4585  0.2673
   40MPD2    H7  633   2.709   4.640   1.990  1.0456  0.3920 -1.0285
   41TMC2    C1  634   2.510   2.402  13.085 -0.1554  0.3090 -0.3595
   41TMC2    C2  635   2.609   2.490  13.123  0.4850  0.4986 -0.0950
   41TMC2    C3  636   2.621   2.606  13.046 -0.0283 -0.6935  0.3301
   41TMC2    C4  637   2.450   2.407  12.958 -0.5767 -0.4370  0.0845
   41TMC2    C5  638   2.488   2.517  12.877 -0.0909 -0.2979 -0.2273
   41TMC2    C6  639   2.557   2.626  12.922 -0.0564  0.8222  0.8922
   41TMC2     C  640   2.499   2.280  13.168  0.2879  0.2664 -0.2409
   41TMC2     O  641   2.485   2.176  13.101  0.4189 -0.8988 -0.4175
   41TMC2     H  642   2.664   2.471  13.215 -1.0712  2.3551  1.2498
   41TMC2    H1  643   2.370   2.337  12.937 -1.0907  0.2727 -0.2929
   41TMC2    H2  644   2.563   2.719  12.867  1.2964  1.0447  1.4300
   41TMC2    C7  645   2.414   2.543  12.752  0.0266 -0.4824 -0.5075
   41TMC2    C8  646   2.728   2.687  13.087  0.2946  0.2110  0.8882
   41TMC2    O1  647   2.408   2.657  12.709 -0.5429 -0.4336 -0.3129
   41TMC2    O2  648   2.808   2.642  13.165  0.1285 -0.0161  0.0532
   41TMC2    O5  649   2.705   2.819  13.063  0.8128 -0.5463  0.2258
   41TMC2    H5  650   2.620   2.853  13.029  0.4775  0.1240  1.7405
   42MPD2     C  651   2.455   2.064  13.374 -0.7146  0.1324  0.0775
   42MPD2    C1  652   2.448   2.200  13.398  0.1633 -0.0584 -0.8950
   42MPD2    C2  653   2.415   2.233  13.522  0.4244 -0.0863  0.0314
   42MPD2    C3  654   2.392   2.147  13.622 -0.8196  0.4249  0.3184
   42MPD2    C4  655   2.402   2.015  13.605  0.6077 -0.1799  0.1267
   42MPD2    C5  656   2.438   1.968  13.481 -0.5092  0.6501 -0.6185
   42MPD2     H  657   2.421   2.340  13.539 -1.0887 -0.4437  2.8743
   42MPD2    H1  658   2.396   1.952  13.693  1.8993  0.0435  0.3674
   42MPD2    H2  659   2.469   2.020  13.276 -2.7293 -0.8706  0.2400
   42MPD2    H3  660   2.463   1.863  13.470  0.8561  0.8299  0.8211
   42MPD2     N  661   2.360   2.193  13.758 -0.1071 -0.1775  0.6922
   42MPD2    H5  662   2.365   2.130  13.838  2.2248  0.2984  0.9024
   42MPD2    N1  663   2.468   2.301  13.302 -0.0827  0.4943 -0.4672
   42MPD2    H7  664   2.454   2.395  13.337  1.2261  1.0545 -1.4811
   43TMC2    C1  665   3.343   0.737   1.300 -0.0172 -0.1841  1.0451
   43TMC2    C2  666   3.212   0.769   1.318 -0.3533 -0.1307 -0.3443
   43TMC2    C3  667   3.155   0.734   1.438  0.0884  0.2274 -0.9502
   43TMC2    C4  668   3.416   0.678   1.399  0.5013  0.4251  0.5274
   43TMC2    C5  669   3.357   0.642   1.518 -0.3818 -0.0217 -0.1528
   43TMC2    C6  670   3.225   0.676   1.535  0.1844  0.1773  0.1008
   43TMC2     C  671   3.412   0.761   1.173 -0.3169 -0.6329 -0.2191
   43TMC2     O  672   3.521   0.713   1.160 -0.2191  0.6646  0.0618
   43TMC2     H  673   3.150   0.804   1.236 -3.0024  0.5255  1.9704
   43TMC2    H1  674   3.520   0.655   1.378  0.4745  1.6891 -0.9962
   43TMC2    H2  675   3.172   0.660   1.628  0.2457  0.4449  0.1825
   43TMC2    C7  676   3.452   0.611   1.627  0.8330 -0.2198  0.6075
   43TMC2    C8  677   3.018   0.771   1.470  0.2722 -0.3645 -0.2125
   43TMC2    O1  678   3.562   0.664   1.626 -0.1044 -0.9452 -0.1335
   43TMC2    O2  679   2.955   0.718   1.558 -0.1048  0.4873  0.3024
   43TMC2    O5  680   3.005   0.901   1.439 -0.1803 -0.2562  0.0903
   43TMC2    H5  681   3.083   0.945   1.400 -0.1981 -0.4832 -0.2048
   44MPD2     C  682   3.521   0.888   0.697 -0.5308  0.5649  0.2062
   44MPD2    C1  683   3.536   0.778   0.772 -0.6737 -0.5100  0.2392
   44MPD2    C2  684   3.487   0.767   0.896 -0.8175 -0.0534  0.3681
   44MPD2    C3  685   3.406   0.857   0.952  0.8917  0.1538 -0.5186
   44MPD2    C4  686   3.373   0.959   0.871  0.1838  0.1509  0.2064
   44MPD2    C5  687   3.437   0.984   0.751 -0.5550  0.4840  0.8072
   44MPD2     H  688   3.501   0.672   0.947  0.5002  0.4435  0.9346
   44MPD2    H1  689   3.299   1.033   0.897 -0.0946  0.9502 -2.9632
   44MPD2    H2  690   3.569   0.910   0.602  1.4493  2.0405  1.5343
   44MPD2    H3  691   3.404   1.068   0.690 -2.4270  0.4024  1.7319
   44MPD2     N  692   3.346   0.835   1.076  0.3126 -0.4265 -0.6537
   44MPD2    H5  693   3.259   0.882   1.096  1.1067  0.4884  0.6538
   44MPD2    N1  694   3.608   0.668   0.719 -0.5997  0.4157  1.0781
   44MPD2    H7  695   3.645   0.599   0.784  0.9498  0.5745  0.3790
   45TMC2    C1  696   0.129   2.917   9.469 -0.4081 -0.5115  0.2599
   45TMC2    C2  697   0.253   2.923   9.403 -0.0809  0.8060 -0.1441
   45TMC2    C3  698   0.352   3.008   9.447 -0.8334  0.5354 -0.0519
   45TMC2    C4  699   0.116   3.004   9.578  0.3826  0.8437  0.1790
   45TMC2    C5  700   0.203   3.100   9.602  0.2539 -0.3011 -0.2231
   45TMC2    C6  701   0.321   3.113   9.526 -0.2852 -0.2864  0.8934
   45TMC2     C  702   0.025   2.815   9.430  0.2993  0.2150  0.3821
   45TMC2     O  703   0.057   2.705   9.387 -0.3517  0.7440  0.2378
   45TMC2     H  704   0.276   2.848   9.328 -0.3597 -0.9758  1.5288
   45TMC2    H1  705   0.022   3.014   9.631  0.3856 -1.3838  0.5997
   45TMC2    H2  706   0.400   3.184   9.551 -0.3691 -0.7532  2.5099
   45TMC2    C7  707   0.172   3.195   9.709 -0.3760 -0.4625 -0.0455
   45TMC2    C8  708   0.470   3.025   9.359  1.1528 -0.2200  0.2871
   45TMC2    O1  709   0.114   3.166   9.815 -0.4893  0.0729 -1.0212
   45TMC2    O2  710   0.545   3.121   9.375  0.0972  0.2356  0.3105
   45TMC2    O5  711   0.505   2.914   9.284 -0.0022  0.0700 -0.6862
   45TMC2    H5  712   0.453   2.834   9.307 -3.9648  2.1996 -2.2747
   46MPD2     C  713   4.498   2.695   9.367  0.1366  0.0825  0.0802
   46MPD2    C1  714   4.512   2.824   9.402 -0.7374 -0.5632  0.1918
   46MPD2    C2  715   4.405   2.910   9.400 -0.6244  0.5161 -0.2518
   46MPD2    C3  716   4.281   2.861   9.372  0.1060  0.5311  0.0126
   46MPD2    C4  717   4.265   2.727   9.342 -0.5148  0.3019 -0.4697
   46MPD2    C5  718   4.377   2.649   9.332 -0.0985  0.6232 -0.0447
   46MPD2     H  719   4.418   3.012   9.436  1.3459 -0.6380  2.2556
   46MPD2    H1  720   4.172   2.676   9.322 -0.3801  0.3573 -1.2639
   46MPD2    H2  721   4.580   2.624   9.368  1.0347  1.1210  0.1024
   46MPD2    H3  722   4.367   2.543   9.313 -1.7546  0.5906  1.0119
   46MPD2     N  723   4.175   2.960   9.378 -0.0473 -0.0162 -0.3264
   46MPD2    H5  724   4.194   3.053   9.413 -0.4067  0.4855 -1.4892
   46MPD2    N1  725   4.636   2.878   9.437 -0.3918  0.5685  0.2734
   46MPD2    H7  726   4.639   2.976   9.464 -2.1648  1.0680 -1.3444
   47TMC2    C1  727   1.583   3.810   9.090  0.6202 -0.3603  0.3486
   47TMC2    C2  728   1.490   3.911   9.063 -0.4434  0.3354 -0.2545
   47TMC2    C3  729   1.387   3.936   9.149  0.0004  0.8150 -0.6209
   47TMC2    C4  730   1.570   3.746   9.213 -0.1650  0.4453  0.0376
   47TMC2    C5  731   1.460   3.763   9.289 -0.0463  0.5628  0.2985
   47TMC2    C6  732   1.362   3.859   9.254 -0.1683 -0.2126 -0.3465
   47TMC2     C  733   1.704   3.807   9.023  0.8342 -0.3560 -0.2314
   47TMC2     O  734   1.745   3.916   8.989 -0.0962  0.3497  0.0231
   47TMC2     H  735   1.510   3.962   8.969  1.4633  0.3122  0.1399
   47TMC2    H1  736   1.647   3.678   9.248 -0.9600 -1.7147 -2.4039
   47TMC2    H2  737   1.269   3.877   9.307  0.2239 -1.5940  0.8353
   47TMC2    C7  738   1.438   3.689   9.406  0.1813 -0.1647 -0.0792
   47TMC2    C8  739   1.304   4.058   9.137  0.2363 -0.1322 -0.4665
   47TMC2    O1  740   1.359   3.744   9.485  0.1582 -0.4448  0.3990
   47TMC2    O2  741   1.241   4.101   9.234 -0.1853 -0.4135  0.2457
   47TMC2    O5  742   1.274   4.093   9.004 -0.1748  0.4943 -0.0024
   47TMC2    H5  743   1.307   4.033   8.934 -1.2511 -3.1072  2.5193
   48MPD2     C  744   1.948   3.735   8.873 -0.0849  0.3509  0.0043
   48MPD2    C1  745   1.887   3.651   8.968 -0.4447 -0.3929 -0.2810
   48MPD2    C2  746   1.947   3.528   8.999  0.1337  0.3148 -0.0231
   48MPD2    C3  747   2.076   3.490   8.951 -0.3733  0.2544  0.4888
   48MPD2    C4  748   2.134   3.580   8.865  0.0832 -0.4346  0.6181
   48MPD2    C5  749   2.068   3.694   8.824 -0.8225 -0.2004 -0.1559
   48MPD2     H  750   1.897   3.472   9.077 -3.1511  2.3896 -0.6429
   48MPD2    H1  751   2.228   3.563   8.813 -0.5379  1.9388 -1.2842
   48MPD2    H2  752   1.908   3.824   8.825 -0.2461  1.1213  1.5623
   48MPD2    H3  753   2.118   3.751   8.746 -0.5709  0.7070  0.6736
   48MPD2     N  754   2.135   3.369   8.989  0.2833  0.0915  0.0824
   48MPD2    H5  755   2.079   3.295   9.030  0.9888 -1.2107 -1.3000
   48MPD2    N1  756   1.762   3.679   9.025  0.1130 -0.5217 -0.3784
   48MPD2    H7  757   1.718   3.610   9.086  0.1160 -1.5481 -1.5401
   49TMC2    C1  758   0.153   0.544  10.114 -0.5925  0.3426 -0.2746
   49TMC2    C2  759   0.114   0.583   9.986 -0.1868  0.5799 -0.0923
   49TMC2    C3  760   0.019   0.511   9.923 -0.2990 -0.1449  0.0018
   49TMC2    C4  761   0.104   0.433  10.177 -0.4519 -0.4832 -0.1047
   49TMC2    C5  762   0.013   0.359  10.105  0.0340  0.2989  0.5758
   49TMC2    C6  763   4.699   0.401   9.980  0.4603 -0.3302  0.5870
   49TMC2     C  764   0.237   0.636  10.190 -0.0554  0.3260 -0.0088
   49TMC2     O  765   0.297   0.710  10.115 -0.0367 -0.5512  0.3976
   49TMC2     H  766   0.126   0.688   9.963  1.0937  0.5460  0.4123
   49TMC2    H1  767   0.158   0.394  10.262 -1.6844  2.8191  2.1622
   49TMC2    H2  768   4.630   0.337   9.926  0.9185  0.3252 -0.7628
   49TMC2    C7  769   4.686   0.235  10.158  0.6207  0.3070 -0.3545
   49TMC2    C8  770   4.717   0.541   9.785  0.4394 -0.0478  0.2922
   49TMC2    O1  771   4.607   0.181  10.080 -0.0864  0.3075 -0.2333
   49TMC2    O2  772   4.620   0.502   9.730 -0.1365 -0.0654  0.1373
   49TMC2    O5  773   0.099   0.581   9.733  1.1503 -0.0066  0.2531
   49TMC2    H5  774   0.176   0.562   9.791  1.0392 -2.9819 -0.5471
   50MPD2     C  775   0.333   0.849  10.363 -0.1834 -0.1703 -0.2743
   50MPD2    C1  776   0.227   0.763  10.403  0.1853  0.3036  0.0993
   50MPD2    C2  777   0.156   0.799  10.516  0.1458 -0.5402  0.3669
   50MPD2    C3  778   0.190   0.912  10.592 -0.3953 -0.4401 -0.5567
   50MPD2    C4  779   0.294   0.991  10.547 -0.1923 -0.0377 -1.1682
   50MPD2    C5  780   0.355   0.959  10.432 -0.3987  0.2481  0.1399
   50MPD2     H  781   0.074   0.730  10.534 -1.1577 -0.0482 -3.6126
   50MPD2    H1  782   0.307   1.091  10.587 -0.6052 -1.7378  3.2325
   50MPD2    H2  783   0.395   0.833  10.275 -1.1968  1.1842 -1.2524
   50MPD2    H3  784   0.435   1.022  10.394 -0.2414  1.4958  2.5606
   50MPD2     N  785   0.124   0.952  10.706 -0.3958 -0.0052  0.3370
   50MPD2    H5  786   0.156   1.037  10.752 -0.4404  1.4455 -2.3226
   50MPD2    N1  787   0.187   0.661  10.316  0.0725 -0.0143  0.1953
   50MPD2    H7  788   0.115   0.602  10.357  0.2704 -1.1461 -1.1089
   51TMC2    C1  789   1.047   4.212   1.715  0.0191 -0.2746  0.0994
   51TMC2    C2  790   1.069   4.273   1.837 -0.2148 -0.1046 -0.1097
   51TMC2    C3  791   1.164   4.366   1.853 -0.8872  0.2162 -0.3012
   51TMC2    C4  792   1.121   4.255   1.604 -0.2289 -0.0384 -0.3857
   51TMC2    C5  793   1.208   4.358   1.624  0.3789  0.2310  0.0802
   51TMC2    C6  794   1.240   4.413   1.752 -0.1992 -0.1432 -0.5373
   51TMC2     C  795   0.952   4.095   1.701  0.7183  0.6494 -0.3928
   51TMC2     O  796   0.960   4.028   1.600  0.0086 -0.0793 -0.4100
   51TMC2     H  797   1.024   4.241   1.931 -0.3104  1.8458  0.5024
   51TMC2    H1  798   1.098   4.214   1.506 -4.3011  3.0313 -0.6678
   51TMC2    H2  799   1.316   4.490   1.762 -0.6971  0.1918  0.6950
   51TMC2    C7  800   1.275   4.398   1.503  0.7990  0.4247 -0.2561
   51TMC2    C8  801   1.163   4.432   1.983 -0.7119  0.6664 -0.4164
   51TMC2    O1  802   1.236   4.361   1.394  0.3105  0.0231  0.4306
   51TMC2    O2  803   1.144   4.380   2.090  0.1448 -0.0117 -0.6375
   51TMC2    O5  804   1.204   4.559   1.972  0.1134  0.0170 -0.0061
   51TMC2    H5  805   1.173   4.600   1.889  0.6420 -0.9411 -0.6731
   52MPD2     C  806   0.585   3.782   1.881 -0.4584  1.4680  0.3743
   52MPD2    C1  807   0.670   3.770   1.772 -0.0032 -0.9424 -0.5812
   52MPD2    C2  808   0.759   3.868   1.744 -0.0682  0.0711 -0.6728
   52MPD2    C3  809   0.772   3.982   1.829  0.1008  0.5249  0.7383
   52MPD2    C4  810   0.676   3.992   1.927  0.7492  0.3339 -0.6526
   52MPD2    C5  811   0.592   3.890   1.962 -0.2266 -0.2951  0.5245
   52MPD2     H  812   0.830   3.851   1.663 -0.8414  0.8624 -1.5114
   52MPD2    H1  813   0.674   4.076   1.997  1.9909  1.5113 -2.0236
   52MPD2    H2  814   0.522   3.701   1.916  0.9694  0.5133  0.7312
   52MPD2    H3  815   0.535   3.898   2.054 -0.3501 -1.2336  0.5319
   52MPD2     N  816   0.874   4.086   1.810  0.8849  0.2110  0.2970
   52MPD2    H5  817   0.865   4.166   1.873 -0.6817 -0.6463  1.1691
   52MPD2    N1  818   0.666   3.651   1.692  0.1373 -0.0681 -0.3658
   52MPD2    H7  819   0.741   3.640   1.625  0.4717 -0.6525  0.0980
   53TMC2    C1  820   0.896   3.091  11.860 -0.9594  0.5140  0.0841
   53TMC2    C2  821   1.028   3.046  11.850 -0.0169  0.1530 -0.2208
   53TMC2    C3  822   1.110   3.052  11.959  0.7329  0.4761  0.1467
   53TMC2    C4  823   0.847   3.131  11.980 -0.6863  0.2448  0.3680
   53TMC2    C5  824   0.933   3.113  12.091  0.2042  0.2635  0.3695
   53TMC2    C6  825   1.065   3.080  12.083  0.0486 -0.3871  0.2533
   53TMC2     C  826   0.805   3.059  11.762 -0.2782 -0.4189 -0.4368
   53TMC2     O  827   0.853   3.052  11.651 -0.4542 -0.0402  0.1301
   53TMC2     H  828   1.054   2.994  11.758  1.4436  1.1504 -0.3732
   53TMC2    H1  829   0.743   3.153  12.005 -0.6990  1.7677 -1.0197
   53TMC2    H2  830   1.132   3.074  12.168 -0.0472 -1.4749  0.2491
   53TMC2    C7  831   0.866   3.064  12.210  0.7674  0.0976  0.0828
   53TMC2    C8  832   1.250   3.013  11.942 -0.0942  0.6622  0.1949
   53TMC2    O1  833   0.750   3.102  12.226 -0.1959 -0.0350 -0.0566
   53TMC2    O2  834   1.313   2.986  12.040 -0.2562 -0.4662  0.0441
   53TMC2    O5  835   1.301   3.084  11.838 -0.0423 -0.1323  0.4675
   53TMC2    H5  836   1.246   3.115  11.764  1.2680  0.8580 -0.1000
   54MPD2     C  837   0.558   2.973  11.612 -0.0983  0.0441  0.0421
   54MPD2    C1  838   0.571   2.973  11.747  0.0885 -0.2642  0.6292
   54MPD2    C2  839   0.462   2.944  11.829 -0.1978 -0.0056 -0.2477
   54MPD2    C3  840   0.336   2.926  11.777 -0.0786  0.0725  0.7395
   54MPD2    C4  841   0.320   2.934  11.640 -0.0474 -0.5410  0.4357
   54MPD2    C5  842   0.431   2.961  11.563 -0.4494  0.0039 -0.5663
   54MPD2     H  843   0.477   2.942  11.936  1.0562 -1.0473 -0.4429
   54MPD2    H1  844   0.222   2.907  11.603 -0.1272  0.4840 -0.0976
   54MPD2    H2  845   0.641   2.999  11.548  1.9721 -0.7123  2.4094
   54MPD2    H3  846   0.422   2.972  11.455 -0.7072 -0.4777 -0.5948
   54MPD2     N  847   0.221   2.896  11.857  0.6626 -0.9580  0.1439
   54MPD2    H5  848   0.127   2.890  11.817  0.0501  1.6794  1.1850
   54MPD2    N1  849   0.689   3.012  11.816  0.5625 -0.0584 -0.2899
   54MPD2    H7  850   0.689   3.001  11.917  0.7585 -0.1752 -0.3020
   55TMC2    C1  851   4.640   2.023   0.775 -0.1261  0.0888 -0.2066
   55TMC2    C2  852   4.663   2.163   0.767  0.0252 -0.6038 -0.7892
   55TMC2    C3  853   4.692   2.228   0.878  0.4443  0.0237  0.0573
   55TMC2    C4  854   4.684   1.957   0.886 -0.2453 -0.1980  0.7842
   55TMC2    C5  855   0.018   2.030   0.982 -0.3677 -0.1498  0.3531
   55TMC2    C6  856   0.028   2.162   0.980  0.2415 -0.0588 -0.2905
   55TMC2     C  857   4.660   1.946   0.657  0.0808 -0.3237 -1.1275
   55TMC2     O  858   4.724   1.843   0.682 -0.6008  0.1736 -0.2832
   55TMC2     H  859   4.614   2.217   0.687 -1.7681  2.7819  2.6170
   55TMC2    H1  860   4.665   1.851   0.900  1.4058 -0.6115 -0.1645
   55TMC2    H2  861   0.080   2.216   1.058 -0.0046 -1.6861  1.0044
   55TMC2    C7  862   0.153   1.970   1.015 -0.4217 -0.7211 -1.1239
   55TMC2    C8  863   4.715   2.369   0.858 -0.7358  0.2275  0.1322
   55TMC2    O1  864   0.250   2.043   1.017 -0.1739  0.0027 -0.4970
   55TMC2    O2  865   0.043   2.415   0.761  0.2818  0.2291  0.1130
   55TMC2    O5  866   4.684   2.442   0.971 -0.1414 -0.2743 -0.0110
   55TMC2    H5  867   4.634   2.383   1.031 -2.4715  0.3803 -1.2804
   56MPD2     C  868   4.633   2.028   0.310 -0.4248 -0.0025  0.2539
   56MPD2    C1  869   4.636   1.937   0.419  0.4117  0.6788  0.1807
   56MPD2    C2  870   4.652   1.803   0.393 -0.2621 -0.4990 -0.5306
   56MPD2    C3  871   4.658   1.755   0.265 -0.4261 -0.3805 -0.5699
   56MPD2    C4  872   4.653   1.845   0.159 -0.1468  0.2927 -0.1077
   56MPD2    C5  873   4.656   1.975   0.190 -0.1135 -0.2817 -0.4211
   56MPD2     H  874   4.664   1.741   0.482 -0.4484 -0.4369 -0.4637
   56MPD2    H1  875   4.685   1.821   0.059 -0.4053  0.9267 -0.3394
   56MPD2    H2  876   4.628   2.136   0.321 -2.8171  0.0380 -1.3703
   56MPD2    H3  877   4.670   2.042   0.105 -1.5186 -1.2676 -1.4335
   56MPD2     N  878   4.674   1.614   0.247  0.4078 -0.3963  0.0383
   56MPD2    H5  879   4.703   1.557   0.326 -0.6035  1.4760  1.7658
   56MPD2    N1  880   4.633   2.002   0.541 -0.3020  0.7482 -0.2269
   56MPD2    H7  881   4.617   2.102   0.537 -0.1774  0.7667 -0.2572
   57TMC2    C1  882   0.715   0.781  13.778 -0.1681 -0.4415 -0.2513
   57TMC2    C2  883   0.748   0.648  13.803  0.3339 -0.5721  1.0557
   57TMC2    C3  884   0.834   0.588  13.729  0.1496  0.4171  0.0880
   57TMC2    C4  885   0.793   0.862  13.700 -0.9691  0.0683  0.4388
   57TMC2    C5  886   0.875   0.798  13.623  0.2367  0.0840  0.0925
   57TMC2    C6  887   0.900   0.663  13.638  0.0167  0.1490  0.3435
   57TMC2     C  888   0.620   0.846  13.866 -0.2882  0.2109 -0.0342
   57TMC2     O  889   0.642   0.966  13.881 -0.3834  0.0294 -0.6180
   57TMC2     H  890   0.681   0.600  13.873 -2.3844  0.6999 -0.6537
   57TMC2    H1  891   0.762   0.962  13.670 -2.4784 -1.1834 -2.2415
   57TMC2    H2  892   0.954   0.605  13.564  0.4093 -0.8051  1.3753
   57TMC2    C7  893   0.968   0.881  13.545 -0.0212 -0.0290 -0.1925
   57TMC2    C8  894   0.877   0.458  13.775 -0.5758 -0.9720  0.3883
   57TMC2    O1  895   0.967   1.003  13.573  0.3083  0.2314  0.0383
   57TMC2    O2  896   0.814   0.394  13.859 -0.3515 -0.2355  0.1816
   57TMC2    O5  897   1.017   0.463  13.777  0.3811  0.0376 -0.4126
   57TMC2    H5  898   1.066   0.514  13.710 -2.9529  2.4584 -1.0155
   58MPD2     C  899   0.156   0.877  14.095 -0.5569  0.1222 -0.0339
   58MPD2    C1  900   0.245   0.977  14.063  0.1257 -0.0943  0.2367
   58MPD2    C2  901   0.363   0.944  13.999  0.1850  0.0058 -0.6105
   58MPD2    C3  902   0.400   0.813  13.975  0.3426 -0.6172 -0.4015
   58MPD2    C4  903   0.305   0.715  14.003 -0.2264  0.1406 -0.2466
   58MPD2    C5  904   0.183   0.748  14.060 -0.5210  0.5308  0.6812
   58MPD2     H  905   0.436   1.022  13.980  0.8029 -0.0099  1.6354
   58MPD2    H1  906   0.327   0.613  13.974  0.6852  0.4046 -0.4544
   58MPD2    H2  907   0.060   0.892  14.142 -1.0697  1.0202 -1.3513
   58MPD2    H3  908   0.115   0.668  14.085  0.0167 -0.0386  0.3026
   58MPD2     N  909   0.513   0.770  13.905 -0.2905 -0.2450 -0.1411
   58MPD2    H5  910   0.510   0.674  13.872  0.8499 -0.4807  0.4318
   58MPD2    N1  911   0.215   1.111  14.099  0.0866  0.2502 -0.0723
   58MPD2    H7  912   0.285   1.184  14.091  1.5270 -1.1992 -0.8271
   59TMC2    C1  913   3.085   1.763  12.635 -0.2315  0.0049  0.0096
   59TMC2    C2  914   3.132   1.642  12.684 -0.3319 -0.3020 -0.1943
   59TMC2    C3  915   3.115   1.526  12.619  0.6339 -0.6589  0.0333
   59TMC2    C4  916   3.034   1.765  12.506  0.5978  0.2271  0.0878
   59TMC2    C5  917   3.013   1.642  12.440  0.1715 -0.2616  0.5028
   59TMC2    C6  918   3.048   1.524  12.496 -0.2336  0.1863 -0.1972
   59TMC2     C  919   3.074   1.879  12.714  0.0082  0.3350  0.1650
   59TMC2     O  920   3.039   1.981  12.658 -0.6261  0.2809 -0.6165
   59TMC2     H  921   3.193   1.632  12.773 -0.0877  0.9428 -0.2224
   59TMC2    H1  922   2.995   1.860  12.470  4.8055  1.6197 -0.8516
   59TMC2    H2  923   3.028   1.430  12.446  2.2823 -1.6886  2.3177
   59TMC2    C7  924   2.933   1.642  12.313  0.7008  0.0871  0.0526
   59TMC2    C8  925   3.198   1.414  12.660 -0.2008 -0.5007  0.1526
   59TMC2    O1  926   2.899   1.537  12.260 -0.2240 -0.4014 -0.0652
   59TMC2    O2  927   3.287   1.421  12.748  0.0105  0.6922  0.2567
   59TMC2    O5  928   3.140   1.305  12.615 -0.0286 -0.2965  0.4284
   59TMC2    H5  929   3.065   1.314  12.551  0.5345  0.2692 -0.1557
   60MPD2     C  930   3.168   2.110  12.882 -1.0972 -0.0929  0.2885
   60MPD2    C1  931   3.185   1.977  12.914 -0.4041  0.5893 -0.4711
   60MPD2    C2  932   3.254   1.943  13.030 -0.5811  0.2441 -0.6102
   60MPD2    C3  933   3.311   2.047  13.106 -1.0753  0.9717 -0.5178
   60MPD2    C4  934   3.297   2.176  13.070 -0.2228 -0.1876  0.1606
   60MPD2    C5  935   3.231   2.205  12.964 -0.0322  0.0646 -0.2547
   60MPD2     H  936   3.255   1.840  13.065  1.9266 -0.7033 -3.4891
   60MPD2    H1  937   3.338   2.260  13.126 -0.8124  0.0894  0.1799
   60MPD2    H2  938   3.107   2.150  12.802  0.0459 -0.9417 -1.0207
   60MPD2    H3  939   3.198   2.307  12.946 -0.4968 -0.1645 -0.6956
   60MPD2     N  940   3.377   2.017  13.227  0.0501  0.0254  0.6887
   60MPD2    H5  941   3.409   2.099  13.278  0.2326  0.4919 -0.1865
   60MPD2    N1  942   3.135   1.862  12.841 -0.0152  0.6704  0.3795
   60MPD2    H7  943   3.165   1.770  12.871  0.0285  0.7052  0.4422
   61TMC2    C1  944   2.579   2.934  15.667  0.5691  0.3098  0.1576
   61TMC2    C2  945   2.569   2.882  15.796 -0.0100 -0.4299 -0.0340
   61TMC2    C3  946   2.611   2.954  15.907  0.0873 -0.8001 -0.2422
   61TMC2    C4  947   2.623   3.062  15.647  0.4168 -0.2734 -0.4304
   61TMC2    C5  948   2.660   3.127  15.758 -0.4805 -0.5599 -0.0652
   61TMC2    C6  949   2.656   3.083  15.886  0.3642 -0.3184 -0.0058
   61TMC2     C  950   2.550   2.840  15.561 -0.5992 -0.8191 -0.8767
   61TMC2     O  951   2.501   2.734  15.590  0.1576 -0.0323 -0.4031
   61TMC2     H  952   2.533   2.780  15.798  0.2994 -0.5286  0.4234
   61TMC2    H1  953   2.622   3.113  15.552 -1.9775 -1.1104 -0.8715
   61TMC2    H2  954   2.692   3.142  15.969  3.8144 -1.0496 -0.9994
   61TMC2    C7  955   2.702   3.264  15.741 -0.2596  0.3904  0.5232
   61TMC2    C8  956   2.634   2.883  16.030 -0.2678 -0.1724  1.1111
   61TMC2    O1  957   2.653   3.329  15.652  0.7395  0.0935 -0.4990
   61TMC2    O2  958   2.714   2.917  16.112 -0.4976 -0.3727 -0.4447
   61TMC2    O5  959   2.521   2.818  16.061 -0.1864  0.8296  0.4902
   61TMC2    H5  960   2.465   2.804  15.981 -0.5424  1.2849  0.6651
   62MPD2     C  961   2.475   2.715  15.309 -0.1087 -0.5786  0.8468
   62MPD2    C1  962   2.551   2.825  15.318 -0.4639 -0.0517  0.2188
   62MPD2    C2  963   2.603   2.879  15.202 -0.5076 -0.3710 -0.9567
   62MPD2    C3  964   2.601   2.822  15.079  0.2853 -0.3549 -0.5032
   62MPD2    C4  965   2.542   2.696  15.073 -0.2209  0.9665  0.6521
   62MPD2    C5  966   2.474   2.648  15.186  0.2074 -0.2805 -0.2929
   62MPD2     H  967   2.659   2.970  15.216  0.4954 -0.9524 -1.1699
   62MPD2    H1  968   2.526   2.643  14.980 -2.5787  0.4728  1.3464
   62MPD2    H2  969   2.431   2.668  15.396 -2.1261 -0.9459 -0.3603
   62MPD2    H3  970   2.414   2.559  15.173 -1.7821  0.9491  0.4257
   62MPD2     N  971   2.654   2.871  14.960  0.2506  0.1093 -0.1519
   62MPD2    H5  972   2.623   2.838  14.869  0.2554  0.6939 -0.3629
   62MPD2    N1  973   2.583   2.885  15.440 -0.5162  0.1049  0.0568
   62MPD2    H7  974   2.632   2.974  15.435 -0.9029  0.3766  1.0897
   63TMC2    C1  975   2.540   3.296   9.942 -0.4081  0.3835 -0.2540
   63TMC2    C2  976   2.636   3.354   9.871 -0.5002 -0.1146  0.0754
   63TMC2    C3  977   2.611   3.407   9.747  0.0287  0.1063 -0.3876
   63TMC2    C4  978   2.419   3.281   9.885  0.1288  0.5526 -0.2654
   63TMC2    C5  979   2.397   3.329   9.762  0.3689  0.5246 -0.6065
   63TMC2    C6  980   2.494   3.399   9.689  1.0282 -0.0024 -0.1458
   63TMC2     C  981   2.554   3.274  10.086 -0.3884  0.2918 -0.4908
   63TMC2     O  982   2.628   3.356  10.142 -0.4989  0.3997 -0.2164
   63TMC2     H  983   2.736   3.347   9.912  0.1347  2.1432 -1.0374
   63TMC2    H1  984   2.339   3.239   9.945  1.0073 -0.6273  0.0764
   63TMC2    H2  985   2.464   3.446   9.595 -0.8080 -0.0080  0.4309
   63TMC2    C7  986   2.260   3.328   9.703  0.7554  0.0659 -0.6447
   63TMC2    C8  987   2.726   3.472   9.689  0.0390  0.6623 -0.4946
   63TMC2    O1  988   2.168   3.309   9.775 -0.4910 -0.3434 -0.1890
   63TMC2    O2  989   2.829   3.477   9.758  0.5011 -0.3566  0.3159
   63TMC2    O5  990   2.712   3.480   9.559 -0.2266 -0.2373  0.3183
   63TMC2    H5  991   2.623   3.467   9.518 -1.0534  1.0282  1.7376
   64MPD2     C  992   2.399   3.111  10.541  0.7154  0.1571 -0.2844
   64MPD2    C1  993   2.345   3.033  10.445 -0.2505 -0.3391 -0.1424
   64MPD2    C2  994   2.377   3.053  10.316  0.4368  0.2509 -0.1479
   64MPD2    C3  995   2.460   3.151  10.275  0.2253 -0.5206  0.3658
   64MPD2    C4  996   2.514   3.230  10.373  0.4195 -0.2913  0.3856
   64MPD2    C5  997   2.491   3.205  10.501 -0.5347  0.2638  0.1923
   64MPD2     H  998   2.358   2.980  10.239  0.6745 -0.3811  0.3974
   64MPD2    H1  999   2.591   3.305  10.362 -1.0048  1.5306  2.9076
   64MPD2    H2 1000   2.398   3.080  10.645 -0.9270  0.0765 -0.3151
   64MPD2    H3 1001   2.542   3.262  10.578  0.3685 -0.8821  0.4377
   64MPD2     N 1002   2.474   3.176  10.141  0.1197 -0.4432  0.0325
   64MPD2    H5 1003   2.423   3.117  10.075 -0.8611 -0.3094  0.6659
   64MPD2    N1 1004   2.282   2.908  10.477 -0.3738 -0.1408 -0.4564
   64MPD2    H7 1005   2.287   2.840  10.401  0.2739 -1.5209  0.8148
   65TMC2    C1 1006   3.346   2.751  15.703  0.5331  0.3753 -0.4817
   65TMC2    C2 1007   3.328   2.739  15.569 -0.1766 -0.4385 -0.4043
   65TMC2    C3 1008   3.370   2.849  15.491  0.6127  0.2391  0.4061
   65TMC2    C4 1009   3.397   2.864  15.765 -0.0007 -0.2828 -0.2981
   65TMC2    C5 1010   3.426   2.969  15.683 -0.3743  0.2198 -0.7660
   65TMC2    C6 1011   3.411   2.966  15.545 -0.8524  0.3253  0.8438
   65TMC2     C 1012   3.273   2.659  15.790  0.1692 -0.0793  0.1569
   65TMC2     O 1013   3.274   2.682  15.909  0.1778  0.4064 -0.2544
   65TMC2     H 1014   3.291   2.652  15.516 -0.1174 -0.2326 -0.7888
   65TMC2    H1 1015   3.425   2.860  15.869  0.8559 -0.1286 -0.5234
   65TMC2    H2 1016   3.429   3.057  15.488 -1.2215  0.1951  0.5171
   65TMC2    C7 1017   3.481   3.089  15.738 -0.0852  0.0836  0.2158
   65TMC2    C8 1018   3.368   2.828  15.345  0.0600 -0.1571 -0.0632
   65TMC2    O1 1019   3.560   3.144  15.665  0.2656  0.5134  0.3892
   65TMC2    O2 1020   3.409   2.725  15.293  0.3058 -0.6138  0.3719
   65TMC2    O5 1021   3.334   2.940  15.277 -0.0159 -0.4590  0.2496
   65TMC2    H5 1022   3.325   3.026  15.324 -0.4149 -0.2045 -0.3033
   66MPD2     C 1023   3.089   2.453  15.900  0.0362 -0.1570 -0.0477
   66MPD2    C1 1024   3.126   2.455  15.770 -0.1279  0.4283  0.0281
   66MPD2    C2 1025   3.096   2.349  15.686 -0.4170  1.0049 -0.2957
   66MPD2    C3 1026   3.011   2.246  15.732  0.3021  0.1576  0.4294
   66MPD2    C4 1027   2.963   2.257  15.863  0.5229  0.0888 -0.1742
   66MPD2    C5 1028   3.009   2.351  15.950 -0.4737 -0.0983 -0.0047
   66MPD2     H 1029   3.126   2.356  15.582 -1.3713  0.3196 -0.6192
   66MPD2    H1 1030   2.889   2.186  15.899 -0.0769 -0.2194 -2.0061
   66MPD2    H2 1031   3.111   2.525  15.978 -0.0565 -0.9187  0.6759
   66MPD2    H3 1032   2.972   2.350  16.051  0.2861 -4.2540  0.2370
   66MPD2     N 1033   2.964   2.143  15.651  0.2128  0.2109  0.3209
   66MPD2    H5 1034   2.876   2.103  15.681  0.5417  0.6460  1.8884
   66MPD2    N1 1035   3.208   2.557  15.713  0.8016 -0.6445  0.3212
   66MPD2    H7 1036   3.244   2.547  15.619  1.6436  0.2585  0.5417
   67TMC2    C1 1037   3.406   1.108  14.647  0.3672  0.1776  0.2488
   67TMC2    C2 1038   3.393   1.235  14.596  0.2285 -0.1544 -0.0859
   67TMC2    C3 1039   3.401   1.343  14.679  0.4499  0.0674 -0.0862
   67TMC2    C4 1040   3.423   1.088  14.783  0.0213  0.2584 -0.3020
   67TMC2    C5 1041   3.416   1.200  14.862  0.4771  0.0692 -0.5560
   67TMC2    C6 1042   3.403   1.335  14.816 -0.0874  1.3654 -0.3780
   67TMC2     C 1043   3.405   0.993  14.561  0.3057  0.5459  0.2541
   67TMC2     O 1044   3.445   0.886  14.605 -0.2625  0.0991  0.0802
   67TMC2     H 1045   3.384   1.251  14.489 -2.1179  0.0065  0.1241
   67TMC2    H1 1046   3.445   0.995  14.834 -0.4946 -0.1226 -0.7805
   67TMC2    H2 1047   3.432   1.422  14.874  0.3581  0.7476  0.3230
   67TMC2    C7 1048   3.471   1.192  14.991  0.3615  0.0395 -0.6952
   67TMC2    C8 1049   3.354   1.470  14.620  0.3992  0.2218  0.7392
   67TMC2    O1 1050   3.556   1.107  15.008 -0.6142 -0.0127 -0.4525
   67TMC2    O2 1051   3.288   1.483  14.518 -0.2227 -0.2757 -0.1609
   67TMC2    O5 1052   3.423   1.572  14.677 -0.1087 -0.9015 -0.1101
   67TMC2    H5 1053   3.499   1.544  14.732  0.0107 -0.2086  0.0801
   68MPD2     C 1054   3.400   0.824  14.317 -0.6448 -0.8165  0.1750
   68MPD2    C1 1055   3.357   0.953  14.325 -1.1280  0.2245  0.2097
   68MPD2    C2 1056   3.325   1.027  14.213 -0.0798 -0.5095 -0.5918
   68MPD2    C3 1057   3.335   0.965  14.088 -0.0491  0.5491 -0.1956
   68MPD2    C4 1058   3.383   0.837  14.080  0.2146  0.0927 -0.8449
   68MPD2    C5 1059   3.419   0.768  14.191 -0.2924 -0.3936  0.6791
   68MPD2     H 1060   3.291   1.129  14.229  2.2915  0.0770  0.7085
   68MPD2    H1 1061   3.389   0.787  13.984 -0.8005 -1.5427 -0.0664
   68MPD2    H2 1062   3.428   0.761  14.401  1.3556  0.2639  0.3158
   68MPD2    H3 1063   3.459   0.667  14.182 -0.9687 -0.5304 -0.7994
   68MPD2     N 1064   3.299   1.035  13.972  0.2918  0.5747  0.3304
   68MPD2    H5 1065   3.335   1.000  13.884  0.1577 -0.5111  0.7072
   68MPD2    N1 1066   3.351   1.026  14.443  0.1984 -0.0571 -0.0666
   68MPD2    H7 1067   3.313   1.120  14.436  2.1111  0.6709 -0.7436
   69TMC2    C1 1068   0.844   3.159  12.851  0.0211 -0.1639  0.4251
   69TMC2    C2 1069   0.766   3.262  12.890 -0.3630 -0.0183  0.0178
   69TMC2    C3 1070   0.763   3.382  12.821 -0.1772 -0.4228  0.1729
   69TMC2    C4 1071   0.916   3.163  12.731 -0.4732 -0.0198  0.4607
   69TMC2    C5 1072   0.899   3.278  12.663  0.8332  0.2233  0.0705
   69TMC2    C6 1073   0.826   3.390  12.701 -0.4535 -0.8578 -0.2394
   69TMC2     C 1074   0.848   3.042  12.934  0.0504 -0.6168 -0.6582
   69TMC2     O 1075   0.760   3.036  13.019 -0.1396 -0.7063 -0.1537
   69TMC2     H 1076   0.730   3.264  12.992  0.6142 -2.2369  0.4145
   69TMC2    H1 1077   0.977   3.081  12.695  1.0437  1.9386 -1.3765
   69TMC2    H2 1078   0.823   3.474  12.633  2.7244  0.9768  1.9171
   69TMC2    C7 1079   0.972   3.286  12.535  0.0432  0.2811 -0.4693
   69TMC2    C8 1080   0.666   3.483  12.858 -0.0153 -0.3593 -0.1897
   69TMC2    O1 1081   1.077   3.222  12.522 -0.0008 -0.0175 -0.5027
   69TMC2    O2 1082   0.561   3.456  12.909 -0.3514 -0.4937 -0.5944
   69TMC2    O5 1083   0.719   3.601  12.819 -0.0556  0.2888 -0.4698
   69TMC2    H5 1084   0.806   3.599  12.773  0.3393 -0.2004  0.3016
   70MPD2     C 1085   1.154   2.863  13.018  0.0293  0.2136  0.0497
   70MPD2    C1 1086   1.016   2.888  13.022 -0.6134 -0.7123 -0.4368
   70MPD2    C2 1087   0.943   2.828  13.128 -0.3599 -0.1137  0.7919
   70MPD2    C3 1088   1.006   2.732  13.206 -0.0036 -0.0345 -0.0569
   70MPD2    C4 1089   1.143   2.712  13.202 -0.0113  0.0359 -0.0384
   70MPD2    C5 1090   1.216   2.783  13.110  0.4298 -0.3435  0.3261
   70MPD2     H 1091   0.840   2.856  13.150 -0.6266  0.8227 -1.6335
   70MPD2    H1 1092   1.188   2.643  13.274 -1.9226 -0.1106  1.0093
   70MPD2    H2 1093   1.218   2.923  12.955 -2.1709  0.8659 -1.5903
   70MPD2    H3 1094   1.323   2.771  13.107  0.2825 -1.8907  1.3810
   70MPD2     N 1095   0.940   2.653  13.298 -0.4515 -0.1766 -0.2985
   70MPD2    H5 1096   0.991   2.574  13.336  1.4556  2.8258  3.3015
   70MPD2    N1 1097   0.968   2.984  12.927 -0.3537 -0.0943 -0.1727
   70MPD2    H7 1098   1.040   3.019  12.865 -0.8344 -1.9649 -1.7962
   71TMC2    C1 1099   1.916   3.562   0.220 -0.4652  0.4475 -0.4381
   71TMC2    C2 1100   1.906   3.596   0.093 -0.3672  0.0941 -0.0210
   71TMC2    C3 1101   1.814   3.549   0.015  0.2022  0.0876 -0.2128
   71TMC2    C4 1102   1.819   3.476   0.270 -0.2817  0.1171 -0.0290
   71TMC2    C5 1103   1.720   3.422   0.190  0.3063  0.3709 -0.1397
   71TMC2    C6 1104   1.723   3.451   0.057 -0.2285 -0.1760  0.1982
   71TMC2     C 1105   1.993   3.650   0.300  0.4714  0.8102 -0.2813
   71TMC2     O 1106   2.055   3.745   0.251  0.6006 -0.3970 -0.5733
   71TMC2     H 1107   1.975   3.666   0.049 -0.0693 -0.1303  0.0896
   71TMC2    H1 1108   1.833   3.443   0.372  1.2686 -0.3731 -0.3895
   71TMC2    H2 1109   1.671   3.385  17.727 -2.4989  2.7610 -0.9112
   71TMC2    C7 1110   1.619   3.325   0.241 -0.8435 -0.3836  0.2263
   71TMC2    C8 1111   1.851   3.548  17.617 -0.7329  0.2659  0.6239
   71TMC2    O1 1112   1.556   3.262   0.159  0.5362 -0.1147 -0.2218
   71TMC2    O2 1113   1.968   3.553  17.577 -0.1016  0.1438  0.2212
   71TMC2    O5 1114   1.743   3.544  17.538  0.6210 -0.0656 -0.5589
   71TMC2    H5 1115   1.657   3.546  17.585  0.4800 -2.3588 -0.7288
   72MPD2     C 1116   2.181   3.779   0.755  0.4779 -1.1448 -0.2552
   72MPD2    C1 1117   2.231   3.812   0.633  0.5489  0.4031 -0.2199
   72MPD2    C2 1118   2.159   3.772   0.522  0.3107  0.0932 -0.6208
   72MPD2    C3 1119   2.042   3.690   0.537 -0.3714 -0.4310  0.2033
   72MPD2    C4 1120   1.993   3.666   0.667 -0.7410  0.1579  0.1107
   72MPD2    C5 1121   2.064   3.706   0.775 -0.1901 -0.3026 -0.0847
   72MPD2     H 1122   2.201   3.798   0.425  0.3864 -0.6243 -0.7763
   72MPD2    H1 1123   1.904   3.608   0.691 -0.0516 -1.6591 -1.6723
   72MPD2    H2 1124   2.234   3.806   0.845 -2.1706 -1.3505  1.3600
   72MPD2    H3 1125   2.018   3.686   0.871  1.1843  0.0673  0.6470
   72MPD2     N 1126   1.972   3.629   0.434 -0.1968  0.3233 -0.0786
   72MPD2    H5 1127   1.898   3.569   0.467 -0.5851  1.4341  1.0322
   72MPD2    N1 1128   2.351   3.877   0.616 -0.8549 -0.1794 -0.2624
   72MPD2    H7 1129   2.381   3.883   0.519  1.6376 -0.6418  0.4702
   73TMC2    C1 1130   2.396   0.435  13.980 -0.3490  1.0461  0.3517
   73TMC2    C2 1131   2.356   0.451  14.107 -0.9361 -0.5564  0.6525
   73TMC2    C3 1132   2.432   0.389  14.207  0.1531 -0.2828 -0.6108
   73TMC2    C4 1133   2.492   0.339  13.946  0.1687 -0.2071 -0.4579
   73TMC2    C5 1134   2.564   0.281  14.053 -0.1637 -0.1833 -0.1078
   73TMC2    C6 1135   2.533   0.306  14.185  0.4194 -0.0352 -0.1891
   73TMC2     C 1136   2.413   0.553  13.893 -0.1390 -0.6468  0.4641
   73TMC2     O 1137   2.517   0.559  13.832  0.0766  0.1868 -0.3603
   73TMC2     H 1138   2.290   0.536  14.126  0.9343  1.1692 -0.5402
   73TMC2    H1 1139   2.510   0.329  13.839  1.1191 -2.1640 -0.0973
   73TMC2    H2 1140   2.603   0.283  14.264 -1.2038 -0.0078  1.2580
   73TMC2    C7 1141   2.708   0.294  14.041  0.0811 -0.3643  0.0309
   73TMC2    C8 1142   2.451   0.469  14.318 -0.2607 -0.4348  0.1629
   73TMC2    O1 1143   2.781   0.240  14.116 -0.7073  0.5778 -0.7781
   73TMC2    O2 1144   2.550   0.488  14.385  0.0706  0.4638 -0.1004
   73TMC2    O5 1145   2.325   0.451  14.371  0.3215 -1.2782 -0.2156
   73TMC2    H5 1146   2.264   0.419  14.302 -1.2418  1.2267  0.0066
   74MPD2     C 1147   2.273   0.996  13.698  0.1737  0.3861  0.2449
   74MPD2    C1 1148   2.398   0.950  13.725  0.2152 -0.1917  0.1249
   74MPD2    C2 1149   2.409   0.819  13.775 -0.5446 -0.2751 -0.1726
   74MPD2    C3 1150   2.296   0.747  13.811  0.8406 -0.1590  0.0876
   74MPD2    C4 1151   2.175   0.803  13.787 -0.3723 -0.1991 -0.8318
   74MPD2    C5 1152   2.159   0.922  13.728 -0.7873 -0.5091  0.0943
   74MPD2     H 1153   2.509   0.786  13.803 -0.0605  0.1094 -1.4484
   74MPD2    H1 1154   2.085   0.751  13.818  0.2524 -0.2942  0.8156
   74MPD2    H2 1155   2.264   1.095  13.654 -0.5551 -0.2590 -1.0600
   74MPD2    H3 1156   2.060   0.944  13.692 -0.5355 -1.6105 -1.2910
   74MPD2     N 1157   2.302   0.624  13.883 -0.2995  0.5485  0.2678
   74MPD2    H5 1158   2.213   0.586  13.913 -0.7680  0.5880 -1.0688
   74MPD2    N1 1159   2.511   1.036  13.706  0.2263  0.0907 -0.0871
   74MPD2    H7 1160   2.492   1.130  13.672  1.9806  0.5709  0.2521
   75TMC2    C1 1161   3.197   1.204  13.842  0.7558  0.0494 -0.6045
   75TMC2    C2 1162   3.303   1.210  13.755  0.1057 -0.3698  0.3562
   75TMC2    C3 1163   3.295   1.302  13.648 -0.6423  0.8598  0.2607
   75TMC2    C4 1164   3.092   1.285  13.830 -0.2941 -0.0753  0.6393
   75TMC2    C5 1165   3.086   1.363  13.719 -0.3632  0.2834 -0.5761
   75TMC2    C6 1166   3.185   1.377  13.622  0.1643  0.5521 -0.0961
   75TMC2     C 1167   3.212   1.142  13.971 -0.3020  0.6602 -0.2708
   75TMC2     O 1168   3.145   1.195  14.056 -0.0205 -0.3409  0.2096
   75TMC2     H 1169   3.394   1.152  13.756  2.2690  2.9738 -2.4251
   75TMC2    H1 1170   3.006   1.269  13.895  0.0537 -0.9246  0.8821
   75TMC2    H2 1171   3.172   1.438  13.534  0.4983 -1.2062 -1.3512
   75TMC2    C7 1172   2.956   1.404  13.676  0.6709 -0.0318  0.2782
   75TMC2    C8 1173   3.351   1.247  13.533  0.1716  0.0790  0.4748
   75TMC2    O1 1174   2.951   1.418  13.555  0.1959 -0.4723  0.3258
   75TMC2    O2 1175   3.339   1.125  13.527  0.0293  0.0548 -0.2788
   75TMC2    O5 1176   3.350   1.336  13.432  0.3258 -0.2017 -0.3236
   75TMC2    H5 1177   3.357   1.418  13.486  1.4100  0.6977 -1.8600
   76TMC2    C1 1178   1.190   2.398  11.967  1.1027 -0.1450  0.3095
   76TMC2    C2 1179   1.050   2.416  11.986  0.2588  0.3240  0.0261
   76TMC2    C3 1180   0.960   2.314  11.966 -0.1193  0.1918 -0.4493
   76TMC2    C4 1181   1.230   2.267  11.942  0.0403 -0.6036  0.5678
   76TMC2    C5 1182   1.142   2.170  11.910  0.3877  0.9006  0.1561
   76TMC2    C6 1183   1.007   2.192  11.928  0.0579 -0.1986  0.3207
   76TMC2     C 1184   1.285   2.509  11.972  0.2755 -0.2177  0.0101
   76TMC2     O 1185   1.233   2.613  12.007  0.3334  0.1325 -0.3978
   76TMC2     H 1186   1.011   2.515  12.007 -1.4122 -0.3885  0.2320
   76TMC2    H1 1187   1.335   2.245  11.932 -0.0219 -0.4614 -0.4304
   76TMC2    H2 1188   0.939   2.114  11.896 -1.0544  0.7150  0.4713
   76TMC2    C7 1189   1.185   2.033  11.910 -0.0814 -0.8707  0.1784
   76TMC2    C8 1190   0.828   2.340  11.989 -0.6186 -0.6810 -0.4317
   76TMC2    O1 1191   1.121   1.947  11.849  0.1589 -0.3515  0.6697
   76TMC2    O2 1192   0.784   2.409  12.084 -0.1124 -0.0572  0.1685
   76TMC2    O5 1193   0.775   2.333  11.864 -0.1695  0.0150  0.6814
   76TMC2    H5 1194   0.827   2.285  11.796 -1.7379 -2.3935  1.1793
   77MPD2     C 1195   1.740   2.741  11.927 -0.3664  0.0835  0.3508
   77MPD2    C1 1196   1.618   2.792  11.963  0.2280 -0.1412  0.6644
   77MPD2    C2 1197   1.515   2.696  11.980  0.4742  0.7095 -0.2958
   77MPD2    C3 1198   1.527   2.563  11.949  0.5829  0.1204  0.2891
   77MPD2    C4 1199   1.651   2.525  11.911 -0.0927 -0.5950 -0.2727
   77MPD2    C5 1200   1.755   2.610  11.902  0.4570 -0.0563  1.1402
   77MPD2     H 1201   1.419   2.735  12.011  0.4069 -0.1786  0.6296
   77MPD2    H1 1202   1.669   2.428  11.864  0.1679 -0.5791 -0.2022
   77MPD2    H2 1203   1.829   2.800  11.910 -1.4118  1.5612 -0.0018
   77MPD2    H3 1204   1.848   2.569  11.865 -1.9294 -1.4108 -3.4852
   77MPD2     N 1205   1.415   2.474  11.938 -0.6782 -0.0364  0.5029
   77MPD2    H5 1206   1.429   2.382  11.898 -2.2088  0.3248 -0.8410
   77MPD2    N1 1207   1.598   2.930  11.994  0.2832  0.3539 -0.2519
   77MPD2    H7 1208   1.509   2.970  12.023 -0.4232 -1.4954  0.1668
   78TMC2    C1 1209   2.891   1.388   1.002  0.0299  0.1962  0.3204
   78TMC2    C2 1210   2.938   1.264   1.031  0.2789  0.2518  0.2202
   78TMC2    C3 1211   3.011   1.252   1.143  0.5550  0.3697 -0.4253
   78TMC2    C4 1212   2.906   1.492   1.085 -0.3620  0.0618 -0.0562
   78TMC2    C5 1213   2.971   1.472   1.200  0.5980 -0.1543 -0.7821
   78TMC2    C6 1214   3.034   1.354   1.233 -0.2501  0.3480 -0.4944
   78TMC2     C 1215   2.807   1.392   0.886 -0.3552 -0.5592  0.2863
   78TMC2     O 1216   2.745   1.288   0.863 -0.2128  0.8680  0.2995
   78TMC2     H 1217   2.913   1.178   0.970 -0.5215 -0.6406  1.7885
   78TMC2    H1 1218   2.848   1.581   1.064 -0.2420  0.4126  1.1287
   78TMC2    H2 1219   3.109   1.338   1.310 -0.0713  0.6048 -0.6146
   78TMC2    C7 1220   3.000   1.595   1.273  0.5390 -0.1595 -0.1256
   78TMC2    C8 1221   3.057   1.121   1.189  0.2276  1.1152  0.0357
   78TMC2    O1 1222   2.973   1.710   1.224  0.3402  0.0337 -0.6611
   78TMC2    O2 1223   3.100   1.102   1.301  0.1240 -0.2202 -0.1128
   78TMC2    O5 1224   3.106   1.053   1.075 -0.1348  0.0905 -0.0652
   78TMC2    H5 1225   3.105   1.107   0.994  0.3139 -0.0397 -0.1586
   79MPD1     C 1226   2.553   1.630   0.502 -0.3478 -0.3927  0.6484
   79MPD1    C1 1227   2.542   1.497   0.544  0.0546  0.1962  0.6597
   79MPD1    C2 1228   2.622   1.461   0.654  0.6004  0.0876  0.0451
   79MPD1    C3 1229   2.702   1.549   0.717 -0.4021 -0.8268 -0.5408
   79MPD1    C4 1230   2.707   1.683   0.666 -0.1831  0.1095  0.0935
   79MPD1    C5 1231   2.630   1.719   0.561  0.4656  0.0281  0.5951
   79MPD1     H 1232   2.610   1.357   0.684  1.5191 -0.6789 -2.2651
   79MPD1    H1 1233   2.784   1.750   0.701 -0.9613  0.7142  0.6561
   79MPD1    H2 1234   2.486   1.667   0.426  2.9509 -2.6556 -3.3464
   79MPD1    H3 1235   2.635   1.821   0.524 -0.7536 -0.1443 -0.0529
   79MPD1     N 1236   2.787   1.517   0.830 -0.4922  0.3971  0.7491
   79MPD1    H5 1237   2.850   1.593   0.854  1.0694 -0.7733  0.2885
   79MPD1    N1 1238   2.455   1.409   0.480 -0.0708  0.7859 -1.1554
   79MPD1    H6 1239   2.451   1.433   0.381  1.7943  2.2831 -0.8668
   79MPD1    H7 1240   2.479   1.311   0.484  0.2052  0.8759 -0.6233
   80TMC2    C1 1241   0.513   1.951  11.925  0.8785  0.3424  0.1523
   80TMC2    C2 1242   0.494   1.988  11.795  0.0688  0.0673  0.1528
   80TMC2    C3 1243   0.360   1.990  11.749 -0.0324  0.4833  0.3731
   80TMC2    C4 1244   0.409   1.913  12.008  0.6312  0.4281  0.4738
   80TMC2    C5 1245   0.283   1.908  11.954 -0.2116 -0.3729  0.2502
   80TMC2    C6 1246   0.258   1.959  11.829 -0.1162 -0.6144  0.1120
   80TMC2     C 1247   0.641   1.968  11.981  0.5583  0.5475  0.0388
   80TMC2     O 1248   0.736   1.980  11.903  0.4054  0.5346 -0.0072
   80TMC2     H 1249   0.582   2.011  11.736 -1.2582  4.1673 -0.2288
   80TMC2    H1 1250   0.417   1.887  12.113 -0.2352 -0.1282  0.4057
   80TMC2    H2 1251   0.158   1.969  11.787  0.1738 -0.3049 -0.5035
   80TMC2    C7 1252   0.170   1.907  12.049 -0.9232 -0.5244 -0.0611
   80TMC2    C8 1253   0.334   1.958  11.612  0.5571 -0.3363 -0.1365
   80TMC2    O1 1254   0.071   1.963  12.003 -0.1822 -0.7688 -0.0108
   80TMC2    O2 1255   0.225   1.910  11.578  0.6483 -0.2417  0.0734
   80TMC2    O5 1256   0.451   1.912  11.558  0.2009 -0.2766  0.0650
   80TMC2    H5 1257   0.525   1.976  11.559 -0.7559  0.8022  0.8803
   81MPD2     C 1258   0.887   1.961  12.162 -0.3681 -0.1202  0.3726
   81MPD2    C1 1259   0.758   2.009  12.192  0.3896  0.0168  0.0725
   81MPD2    C2 1260   0.740   2.081  12.309 -0.5202 -0.4533 -0.0125
   81MPD2    C3 1261   0.841   2.110  12.396  0.7839 -0.5984 -0.7528
   81MPD2    C4 1262   0.966   2.056  12.370 -0.1105  0.6746  0.0044
   81MPD2    C5 1263   0.993   1.984  12.254  0.3104 -0.6698 -0.2898
   81MPD2     H 1264   0.638   2.104  12.337 -0.2946  0.4255  0.0851
   81MPD2    H1 1265   1.046   2.065  12.443 -0.7151 -1.7590  0.9560
   81MPD2    H2 1266   0.894   1.896  12.075 -2.0048 -0.0963  0.2202
   81MPD2    H3 1267   1.090   1.941  12.234  0.8752  0.8947 -0.9308
   81MPD2     N 1268   0.815   2.169  12.526 -0.0097 -0.7071 -0.1601
   81MPD2    H5 1269   0.891   2.163  12.594  2.0884 -0.8000 -2.5066
   81MPD2    N1 1270   0.642   1.979  12.115 -0.1780  0.0682 -0.0383
   81MPD2    H7 1271   0.548   1.999  12.148 -0.0503 -0.2321  0.5114
   82TMC2    C1 1272   3.995   1.494  10.971  0.5048  0.4126  0.9825
   82TMC2    C2 1273   4.121   1.465  10.912  0.5126 -0.6289 -0.0290
   82TMC2    C3 1274   4.174   1.344  10.946  0.5525  0.4209 -0.3057
   82TMC2    C4 1275   3.916   1.404  11.040  0.4213  0.1637  0.0402
   82TMC2    C5 1276   3.978   1.284  11.068 -0.6046  0.1774 -0.3111
   82TMC2    C6 1277   4.109   1.252  11.027  0.6405  0.0602 -0.1468
   82TMC2     C 1278   3.943   1.630  10.960 -0.4014 -0.4132  0.5385
   82TMC2     O 1279   3.823   1.631  10.983  0.0496 -0.2497 -0.2786
   82TMC2     H 1280   4.175   1.532  10.845  0.9716 -1.0327 -0.0623
   82TMC2    H1 1281   3.810   1.422  11.055  0.2928 -1.5951  1.2436
   82TMC2    H2 1282   4.145   1.149  11.029 -1.4065 -0.5954  2.6057
   82TMC2    C7 1283   3.907   1.196  11.153 -0.1329 -0.1398 -0.2864
   82TMC2    C8 1284   4.278   1.278  10.863 -0.0255 -0.1505  0.7128
   82TMC2    O1 1285   3.792   1.232  11.181 -0.6085  0.4591 -0.0213
   82TMC2    O2 1286   4.336   1.170  10.873  0.3437 -0.1008  0.1696
   82TMC2    O5 1287   4.278   1.356  10.752  0.3215  0.0252 -0.4986
   82TMC2    H5 1288   4.346   1.326  10.688 -0.1094 -2.6370  0.2903
   83MPD2     C 1289   3.956   2.114  10.795 -0.5113  0.1770  0.2272
   83MPD2    C1 1290   3.855   2.022  10.801  0.3740 -0.2861 -0.3632
   83MPD2    C2 1291   3.890   1.895  10.835 -0.3330  0.3377 -0.5636
   83MPD2    C3 1292   4.010   1.856  10.878  0.3935  0.2792  0.1827
   83MPD2    C4 1293   4.113   1.946  10.861 -0.3914 -0.4817 -0.3283
   83MPD2    C5 1294   4.085   2.077  10.826 -0.2346  0.0708  0.8241
   83MPD2     H 1295   3.812   1.821  10.822 -0.0332 -0.1131  0.2090
   83MPD2    H1 1296   4.217   1.922  10.882  0.5291  0.8907 -3.3479
   83MPD2    H2 1297   3.924   2.212  10.762  0.9522 -0.1534 -2.1336
   83MPD2    H3 1298   4.169   2.145  10.815 -1.2038  1.0960 -0.1629
   83MPD2     N 1299   4.038   1.721  10.918 -0.9334 -0.4075 -0.1868
   83MPD2    H5 1300   4.129   1.694  10.953 -0.7172 -0.3136 -0.6830
   83MPD2    N1 1301   3.728   2.058  10.746 -0.4214  0.5606 -0.4662
   83MPD2    H7 1302   3.707   2.153  10.717  4.5714  1.5026 -0.9903
   84TMC2    C1 1303   4.640   1.157  10.980  0.1745 -0.2312  0.5595
   84TMC2    C2 1304   4.587   1.082  11.082  0.0890  0.4496 -0.2228
   84TMC2    C3 1305   4.586   0.942  11.072  0.1833  0.0288  0.3751
   84TMC2    C4 1306   4.678   1.095  10.862 -0.4320 -0.0142 -0.7447
   84TMC2    C5 1307   4.680   0.959  10.862 -0.1867  0.5475  0.7528
   84TMC2    C6 1308   4.636   0.881  10.961  0.1653 -0.0508  0.0853
   84TMC2     C 1309   4.626   1.300  10.990  0.8436  0.5279 -0.3875
   84TMC2     O 1310   4.548   1.337  11.079 -0.7942 -0.0790  0.0839
   84TMC2     H 1311   4.537   1.129  11.166 -1.1273 -1.7085  0.2508
   84TMC2    H1 1312   4.688   1.152  10.770  1.8611  1.8842  0.6933
   84TMC2    H2 1313   4.639   0.774  10.947 -1.8011  0.0030 -0.7004
   84TMC2    C7 1314   0.015   0.882  10.756  0.3884  0.1512  0.4649
   84TMC2    C8 1315   4.571   0.859  11.196  0.4721 -0.1750  0.9214
   84TMC2    O1 1316   4.711   0.767  10.731  0.1059 -0.4467  0.4779
   84TMC2    O2 1317   4.565   0.921  11.307  0.3347 -0.1230  0.2167
   84TMC2    O5 1318   4.501   0.744  11.179 -0.0122  0.5342 -0.2632
   84TMC2    H5 1319   4.478   0.699  11.095 -3.5168  0.2788  0.8189
   85TMC2    C1 1320   0.778   3.664  15.987 -0.2977 -0.0808  0.8843
   85TMC2    C2 1321   0.657   3.737  15.975 -0.1979  0.2295 -0.0717
   85TMC2    C3 1322   0.673   3.870  15.936 -0.2297  0.0066 -0.8958
   85TMC2    C4 1323   0.897   3.719  15.954 -0.1981  0.3683  0.4804
   85TMC2    C5 1324   0.899   3.841  15.897 -0.3562  0.6017 -0.7527
   85TMC2    C6 1325   0.787   3.924  15.888  0.3152 -0.0616 -0.0838
   85TMC2     C 1326   0.771   3.549  16.076  0.0521 -0.5742  0.3323
   85TMC2     O 1327   0.870   3.548  16.150  0.4443  0.3972 -0.2360
   85TMC2     H 1328   0.560   3.693  15.994  0.7293 -1.8471 -0.1886
   85TMC2    H1 1329   0.979   3.649  15.946 -0.6773 -0.2094  0.6276
   85TMC2    H2 1330   0.773   4.008  15.821  0.4882 -0.0758 -0.1366
   85TMC2    C7 1331   1.009   3.874  15.813  0.1651 -0.1121 -0.4191
   85TMC2    C8 1332   0.563   3.968  15.950 -0.5168 -0.1512 -0.1501
   85TMC2    O1 1333   1.071   3.773  15.772 -0.6328  0.1987  1.0047
   85TMC2    O2 1334   0.452   3.922  15.962  0.2372 -0.3862  0.4440
   85TMC2    O5 1335   0.617   4.049  16.045 -0.0017 -0.9744 -0.3177
   85TMC2    H5 1336   0.709   4.078  16.029 -0.1783 -1.7067 -2.7773
   86MPD2     C 1337   0.495   3.265  16.375  0.3804  0.0933  0.9550
   86MPD2    C1 1338   0.420   3.280  16.262 -0.0056  0.0420  0.0629
   86MPD2    C2 1339   0.483   3.338  16.151 -0.3657 -0.5034  0.9126
   86MPD2    C3 1340   0.612   3.387  16.155 -0.2608  0.2208 -0.0199
   86MPD2    C4 1341   0.683   3.355  16.271  0.0306 -0.0277 -1.0492
   86MPD2    C5 1342   0.623   3.298  16.381  0.5105  1.1544 -0.2104
   86MPD2     H 1343   0.430   3.338  16.057  1.8252 -1.2040 -0.3305
   86MPD2    H1 1344   0.787   3.383  16.283  0.4426 -2.0823  0.2515
   86MPD2    H2 1345   0.467   3.208  16.463 -2.5972 -0.1560 -0.1671
   86MPD2    H3 1346   0.684   3.285  16.470  1.6207  2.3511 -0.7993
   86MPD2     N 1347   0.659   3.477  16.059 -0.3136 -0.0813  0.0527
   86MPD2    H5 1348   0.613   3.485  15.969 -0.7898 -1.5716  0.1623
   86MPD2    N1 1349   0.283   3.243  16.255  0.4249 -0.3835 -0.3579
   86MPD2    H7 1350   0.244   3.249  16.161 -3.2332  3.9861  1.4639
   87TMC2    C1 1351   2.870   1.278   0.459 -0.7159  0.6351  0.0938
   87TMC2    C2 1352   2.940   1.212   0.559  0.9394 -0.0202 -0.0214
   87TMC2    C3 1353   3.014   1.285   0.648 -0.0675  0.4513 -0.2578
   87TMC2    C4 1354   2.898   1.408   0.440 -0.4241 -0.2214  0.4901
   87TMC2    C5 1355   2.988   1.472   0.525 -0.2457 -0.0380  0.0867
   87TMC2    C6 1356   3.053   1.410   0.628  0.1561  0.1418  0.5379
   87TMC2     C 1357   2.807   1.210   0.348 -0.3244 -0.5021 -0.2390
   87TMC2     O 1358   2.802   1.266   0.243  0.5213  0.1955  0.2702
   87TMC2     H 1359   2.915   1.114   0.597  2.3307  0.1474  1.3459
   87TMC2    H1 1360   2.839   1.458   0.365 -0.4030  0.2457  0.7841
   87TMC2    H2 1361   3.115   1.462   0.700  0.5379  0.7121 -0.1971
   87TMC2    C7 1362   3.027   1.613   0.493  0.1234 -0.6609  0.4329
   87TMC2    C8 1363   3.113   1.197   0.706 -0.0489  0.5748 -0.4883
   87TMC2    O1 1364   3.082   1.677   0.586  0.4792 -0.8219 -0.5589
   87TMC2    O2 1365   3.135   1.183   0.827 -0.6278 -0.6835 -1.0144
   87TMC2    O5 1366   3.199   1.191   0.604  0.2437 -0.4794  0.1242
   87TMC2    H5 1367   3.172   1.228   0.517  1.6597  2.3973  0.8932
   88MPD2     C 1368   3.028   1.775   0.160  0.5110  0.1240 -1.0087
   88MPD2    C1 1369   3.037   1.775   0.295  0.2626  0.5375 -0.0588
   88MPD2    C2 1370   3.068   1.888   0.361  0.2657  1.2270 -0.0785
   88MPD2    C3 1371   3.098   2.004   0.290  0.5975 -0.4468 -0.0294
   88MPD2    C4 1372   3.099   2.010   0.151 -1.0969 -0.0114  0.1794
   88MPD2    C5 1373   3.065   1.891   0.088 -0.8932  0.3298 -0.0942
   88MPD2     H 1374   3.090   1.885   0.467 -1.3078  1.0787  0.2494
   88MPD2    H1 1375   3.116   2.101   0.094  0.6830 -0.1549  0.4803
   88MPD2    H2 1376   3.005   1.685   0.104  0.2956 -0.5966  0.2554
   88MPD2    H3 1377   3.073   1.879  17.720 -0.9636  0.6408 -0.1345
   88MPD2     N 1378   3.142   2.117   0.354  0.2174 -0.1481 -0.2534
   88MPD2    H5 1379   3.153   2.197   0.293  1.7341  0.7824  1.2554
   88MPD2    N1 1380   3.012   1.653   0.355  0.5353 -0.3366  0.0524
   88MPD2    H7 1381   2.996   1.583   0.283  1.0081 -1.2189  0.7958
   89TMC2    C1 1382   3.562   0.085   1.994  0.1529 -0.4682 -0.5571
   89TMC2    C2 1383   3.688   0.025   1.988 -1.1094  0.2088  0.3619
   89TMC2    C3 1384   3.753   0.029   1.872 -0.0631  0.4325 -0.1481
   89TMC2    C4 1385   3.507   0.143   1.888  0.2431 -0.0801  0.4830
   89TMC2    C5 1386   3.572   0.142   1.772  0.0863  0.4675 -0.1562
   89TMC2    C6 1387   3.692   0.077   1.753 -0.5912 -0.0246 -0.0684
   89TMC2     C 1388   3.492   0.089   2.124  1.1443 -0.0022  0.5954
   89TMC2     O 1389   3.564   0.090   2.219  0.3150  0.3141 -0.6121
   89TMC2     H 1390   3.722   4.710   2.077  0.2686  0.6034  0.0524
   89TMC2    H1 1391   3.432   0.215   1.915 -1.2895 -1.0484 -1.2199
   89TMC2    H2 1392   3.734   0.048   1.658  1.3150 -2.3713  1.4858
   89TMC2    C7 1393   3.511   0.206   1.656 -0.3935 -0.1656 -0.0533
   89TMC2    C8 1394   3.886   4.705   1.869  0.1320 -0.1943  0.3119
   89TMC2    O1 1395   3.393   0.220   1.657  0.3570  0.3970 -0.1165
   89TMC2    O2 1396   3.920   4.618   1.945 -0.9951  0.0412  0.6718
   89TMC2    O5 1397   3.946   0.019   1.758 -0.0387 -0.3734  0.4487
   89TMC2    H5 1398   3.912   0.098   1.711  0.3374 -1.6000 -1.8903
   90MPD2     C 1399   3.095   0.065   2.454 -0.5234 -0.1070 -0.2437
   90MPD2    C1 1400   3.051   0.094   2.327 -0.0350  0.6850  0.6020
   90MPD2    C2 1401   3.138   0.099   2.220 -0.5860  0.1843 -0.8878
   90MPD2    C3 1402   3.276   0.090   2.236 -0.1841  0.7569 -0.8270
   90MPD2    C4 1403   3.315   0.049   2.365 -0.1319 -0.1790 -0.1408
   90MPD2    C5 1404   3.226   0.050   2.472  0.7181 -0.0369 -0.7602
   90MPD2     H 1405   3.106   0.118   2.118 -1.3693  4.0661  0.0976
   90MPD2    H1 1406   3.419   0.026   2.379 -0.3937 -1.1114  0.2324
   90MPD2    H2 1407   3.034   0.065   2.543 -0.7904 -3.5436 -0.4218
   90MPD2    H3 1408   3.265   0.034   2.572 -0.8208 -0.4365 -0.2249
   90MPD2     N 1409   3.355   0.091   2.120 -0.0771  0.0983 -0.3916
   90MPD2    H5 1410   3.304   0.106   2.033  0.9203  1.3539 -0.7576
   90MPD2    N1 1411   2.916   0.111   2.297  0.4637  0.0752  0.2986
   90MPD2    H7 1412   2.894   0.114   2.198 -1.1408 -0.9093  0.6409
   91TMC2    C1 1413   0.607   0.156  16.700  0.4770 -0.2202 -0.3482
   91TMC2    C2 1414   0.596   0.272  16.630  0.0682  0.7999 -0.1520
   91TMC2    C3 1415   0.477   0.318  16.595  0.2199  0.2662  0.1058
   91TMC2    C4 1416   0.496   0.084  16.736  0.4907 -0.2003 -0.8728
   91TMC2    C5 1417   0.378   0.130  16.685 -0.4770  0.7472  0.3617
   91TMC2    C6 1418   0.360   0.245  16.616  0.2891  0.5699 -0.0042
   91TMC2     C 1419   0.735   0.118  16.755  0.0527  0.4892  0.4523
   91TMC2     O 1420   0.730   0.034  16.842  0.0670 -0.1009  0.3613
   91TMC2     H 1421   0.681   0.339  16.626  0.1814  0.8081  2.3424
   91TMC2    H1 1422   0.498   4.726  16.790  1.5391  0.2207 -0.1979
   91TMC2    H2 1423   0.266   0.273  16.570 -0.1529 -1.6319 -0.4297
   91TMC2    C7 1424   0.262   0.038  16.698  0.5439  0.4470  0.0462
   91TMC2    C8 1425   0.481   0.434  16.516  0.4372  0.6816  0.7326
   91TMC2    O1 1426   0.240   4.734  16.812 -0.1715  0.0640  0.6035
   91TMC2    O2 1427   0.585   0.470  16.456 -0.5866  0.5327 -0.1195
   91TMC2    O5 1428   0.410   0.516  16.588 -0.2568  0.2930  0.1596
   91TMC2    H5 1429   0.348   0.470  16.648  1.1274 -2.3117 -0.4139
   92MPD2     C 1430   1.000   0.010  16.802 -0.1110  0.3136 -0.8893
   92MPD2    C1 1431   0.967   0.098  16.697 -0.2479 -0.2466  0.4073
   92MPD2    C2 1432   1.066   0.136  16.608  0.0026  0.2919 -0.0770
   92MPD2    C3 1433   1.185   0.071  16.599 -0.0531  0.3019 -0.6223
   92MPD2    C4 1434   1.212   4.715  16.700  0.6119 -0.1656 -0.8134
   92MPD2    C5 1435   1.124   4.685  16.804  0.3267 -0.8894 -0.4600
   92MPD2     H 1436   1.042   0.213  16.535 -0.2754  1.5309  1.3314
   92MPD2    H1 1437   1.306   4.662  16.715  0.4245 -0.4551 -0.6687
   92MPD2    H2 1438   0.942   4.727  16.892  1.8598  0.3547  0.3785
   92MPD2    H3 1439   1.161   4.616  16.879 -2.3155 -2.2827 -0.4544
   92MPD2     N 1440   1.270   0.097  16.486  0.0033 -0.4575 -0.7547
   92MPD2    H5 1441   1.241   0.163  16.414 -0.7791 -0.0669 -0.0829
   92MPD2    N1 1442   0.845   0.157  16.695 -0.4776 -0.2240  0.3561
   92MPD2    H7 1443   0.824   0.225  16.623  0.2467 -0.1584  0.2005
   93TMC2    C1 1444   2.716   4.404  13.853 -0.5159 -0.3824  0.0727
   93TMC2    C2 1445   2.637   4.519  13.839 -0.0429 -0.4396  1.1858
   93TMC2    C3 1446   2.704   4.640  13.826  0.2012  0.7974  0.0147
   93TMC2    C4 1447   2.852   4.415  13.851 -0.3026  0.1145  0.0234
   93TMC2    C5 1448   2.910   4.537  13.843 -0.0606 -0.2377 -0.4643
   93TMC2    C6 1449   2.838   4.656  13.845  0.2030 -0.4254  0.0077
   93TMC2     C 1450   2.639   4.288  13.912 -0.1562  0.3717 -0.0088
   93TMC2     O 1451   2.704   4.185  13.932 -0.3225 -0.6713  0.8606
   93TMC2     H 1452   2.534   4.521  13.804  1.1093 -0.6693 -2.2403
   93TMC2    H1 1453   2.907   4.322  13.851 -0.4474  0.0211  1.5416
   93TMC2    H2 1454   2.883   0.017  13.824 -2.6076  0.7290 -0.7034
   93TMC2    C7 1455   3.055   4.535  13.828 -0.0189  0.3236 -0.0018
   93TMC2    C8 1456   2.635   0.025  13.782 -0.1983  0.3104  0.0190
   93TMC2    O1 1457   3.117   4.439  13.784  0.8125 -0.2595  0.0234
   93TMC2    O2 1458   2.690   0.116  13.721 -0.3684 -0.3129 -0.2379
   93TMC2    O5 1459   2.525   0.028  13.854 -0.3312  0.0379 -0.0819
   93TMC2    H5 1460   2.510   4.676  13.898  0.5952  0.1841  0.5096
   94MPD2     C 1461   2.450   4.061  13.946 -0.1786  0.1683  0.4759
   94MPD2    C1 1462   2.411   4.195  13.943  0.2057 -0.7781 -0.3832
   94MPD2    C2 1463   2.283   4.233  13.956  0.1652  0.4900 -0.4592
   94MPD2    C3 1464   2.187   4.133  13.963  0.2728  0.2751 -0.2602
   94MPD2    C4 1465   2.220   4.003  13.968  1.0087 -0.5158 -0.6845
   94MPD2    C5 1466   2.351   3.968  13.963  0.0379 -1.0120  0.3196
   94MPD2     H 1467   2.252   4.336  13.951 -2.3380 -0.2480  0.2365
   94MPD2    H1 1468   2.144   3.930  13.989  0.6775  0.1848  0.5674
   94MPD2    H2 1469   2.553   4.027  13.946  0.2376  1.4633  0.0523
   94MPD2    H3 1470   2.385   3.865  13.969  1.5861 -0.4682  0.8594
   94MPD2     N 1471   2.053   4.156  13.992 -0.3146  0.0556  0.2025
   94MPD2    H5 1472   1.994   4.076  14.014 -0.9591  1.2673  2.8295
   94MPD2    N1 1473   2.501   4.299  13.923  0.6450 -0.6110 -0.5250
   94MPD2    H7 1474   2.459   4.389  13.903  1.0359 -0.3178 -0.0219
   95TMC2    C1 1475   2.096   2.484  15.366 -0.2789  0.4833 -0.2211
   95TMC2    C2 1476   2.023   2.533  15.268  0.1277  0.4086  0.7780
   95TMC2    C3 1477   2.010   2.667  15.271 -0.3561 -1.1405  0.1961
   95TMC2    C4 1478   2.144   2.558  15.467 -0.0816 -0.2383  0.4232
   95TMC2    C5 1479   2.106   2.692  15.477 -0.1542 -0.2033 -0.5585
   95TMC2    C6 1480   2.045   2.749  15.374  0.2476 -0.1731  0.1548
   95TMC2     C 1481   2.186   2.370  15.328  0.6312 -0.0439 -0.0932
   95TMC2     O 1482   2.291   2.365  15.390  0.1799 -0.2179 -0.8651
   95TMC2     H 1483   2.000   2.475  15.179 -1.1512 -1.5894  2.4136
   95TMC2    H1 1484   2.201   2.516  15.549  1.5690  1.3065  0.0789
   95TMC2    H2 1485   1.994   2.844  15.387  0.5866  0.1910 -1.1689
   95TMC2    C7 1486   2.159   2.768  15.589 -0.5044  1.3432  0.1702
   95TMC2    C8 1487   1.926   2.728  15.169 -0.6908 -0.6948 -0.3178
   95TMC2    O1 1488   2.191   2.698  15.686  0.7526 -0.7875  0.7671
   95TMC2    O2 1489   1.857   2.655  15.100  0.3945  0.5073  0.7578
   95TMC2    O5 1490   2.027   2.795  15.116 -0.0176 -0.2636  0.1563
   95TMC2    H5 1491   2.089   2.836  15.180  0.8686 -0.3437 -0.6560
   96MPD2     C 1492   2.303   1.897  15.145  0.4344 -0.4985  1.1610
   96MPD2    C1 1493   2.373   1.990  15.216  0.1991  0.1631 -0.3665
   96MPD2    C2 1494   2.315   2.110  15.247 -0.2768  0.3808 -0.0470
   96MPD2    C3 1495   2.182   2.143  15.216  0.1439 -0.1521  1.0947
   96MPD2    C4 1496   2.111   2.048  15.146 -0.9284 -0.0696 -0.0069
   96MPD2    C5 1497   2.176   1.932  15.103 -0.4356 -0.0247  0.1032
   96MPD2     H 1498   2.384   2.179  15.294  2.3293 -3.0258  1.0801
   96MPD2    H1 1499   2.009   2.066  15.112 -1.8198 -0.2489  2.5507
   96MPD2    H2 1500   2.353   1.807  15.113  1.1488 -0.1454  1.2976
   96MPD2    H3 1501   2.122   1.862  15.040  1.5552  1.0946 -2.8213
   96MPD2     N 1502   2.127   2.269  15.251 -0.1596 -0.9868 -0.3933
   96MPD2    H5 1503   2.034   2.297  15.220 -0.0101  1.3511  1.2676
   96MPD2    N1 1504   2.512   1.961  15.251 -0.8093 -0.0330  0.2406
   96MPD2    H7 1505   2.559   1.888  15.199  1.4940  0.4258  1.6494
   97TMC2    C1 1506   4.229   4.411   0.013  0.7044  0.1534  0.1821
   97TMC2    C2 1507   4.133   4.503  17.723  0.2569 -0.1907 -0.1128
   97TMC2    C3 1508   4.184   4.624  17.697 -0.5863 -0.0566  0.4489
   97TMC2    C4 1509   4.366   4.430   0.009  0.7417  0.5464  0.4016
   97TMC2    C5 1510   4.400   4.553  17.703  0.1897 -0.0782  0.3372
   97TMC2    C6 1511   4.313   4.656  17.684 -0.0114  0.7045 -0.8899
   97TMC2     C 1512   4.190   4.281   0.063 -0.2356  0.2254 -1.5757
   97TMC2     O 1513   4.267   4.210   0.122  0.3162  0.0906 -0.1611
   97TMC2     H 1514   4.029   4.499   0.013  0.3472 -0.0502  0.2295
   97TMC2    H1 1515   4.425   4.340  17.738  1.8132  1.3775 -0.6299
   97TMC2    H2 1516   4.344   0.023  17.662 -1.6911  1.6132  0.8596
   97TMC2    C7 1517   4.535   4.596   0.001 -1.0370 -0.4736 -0.1956
   97TMC2    C8 1518   4.099   0.000  17.738  0.7869  0.5902 -0.2500
   97TMC2    O1 1519   4.552   4.718   0.008  0.2929 -0.4273  0.1134
   97TMC2    O2 1520   4.147   0.107   0.025 -0.6923 -0.3270  0.2023
   97TMC2    O5 1521   3.995   4.723  17.656  0.3706  0.5151  0.0302
   97TMC2    H5 1522   3.979   4.632  17.622 -3.3549  0.4071  2.0704
   98MPD2     C 1523   3.820   3.942   0.133 -0.1379  0.3108 -0.2003
   98MPD2    C1 1524   3.931   3.962   0.207 -1.0401 -0.7128  0.1694
   98MPD2    C2 1525   4.017   4.071   0.176  1.0371  0.1962 -0.2825
   98MPD2    C3 1526   3.989   4.150   0.065  0.3975 -0.0562 -0.6879
   98MPD2    C4 1527   3.881   4.111  17.726  0.6553 -1.0769 -0.0691
   98MPD2    C5 1528   3.797   4.007   0.018  0.2991 -0.3516 -0.3137
   98MPD2     H 1529   4.106   4.080   0.237  0.3019 -1.4852  1.0197
   98MPD2    H1 1530   3.860   4.173  17.640  0.0649 -1.0730  0.0756
   98MPD2    H2 1531   3.741   3.874   0.162 -0.0280 -0.1308 -0.9373
   98MPD2    H3 1532   3.712   3.978  17.695 -1.1092  0.7601  1.0992
   98MPD2     N 1533   4.062   4.259   0.027  0.4498 -0.4236 -0.3826
   98MPD2    H5 1534   4.019   4.323  17.699  3.1137 -2.1000 -3.7215
   98MPD2    N1 1535   3.944   3.876   0.317 -0.4963 -0.1868 -0.3674
   98MPD2    H7 1536   3.882   3.796   0.317 -0.2019 -0.3874  2.2403
   99TMC2    C1 1537   3.240   0.464   2.420  0.8152  0.0714 -0.2392
   99TMC2    C2 1538   3.263   0.416   2.544  0.5939 -0.3292 -0.7304
   99TMC2    C3 1539   3.169   0.453   2.639  0.5493 -0.1480  0.6487
   99TMC2    C4 1540   3.136   0.542   2.388 -0.3857  0.1154  0.8727
   99TMC2    C5 1541   3.044   0.568   2.484  0.2648  0.0770  0.1037
   99TMC2    C6 1542   3.056   0.528   2.615  0.2065  0.1988 -1.0048
   99TMC2     C 1543   3.338   0.425   2.322  0.2366 -0.5056 -0.3170
   99TMC2     O 1544   3.450   0.397   2.364 -0.4282 -0.3542  0.3258
   99TMC2     H 1545   3.338   0.341   2.569  0.0254 -0.1022  1.7342
   99TMC2    H1 1546   3.137   0.600   2.297  0.3738  1.9446  2.0347
   99TMC2    H2 1547   2.994   0.570   2.694  1.2309  1.1511 -0.7010
   99TMC2    C7 1548   2.944   0.673   2.455 -0.1227  0.2061 -0.6153
   99TMC2    C8 1549   3.175   0.362   2.753  0.8096 -1.0151  0.1134
   99TMC2    O1 1550   2.896   0.730   2.552  0.0177  0.1495 -0.0518
   99TMC2    O2 1551   3.276   0.300   2.787  0.3383 -0.6184 -0.6281
   99TMC2    O5 1552   3.065   0.377   2.832  0.1406  0.0527  0.0864
   99TMC2    H5 1553   2.987   0.389   2.775  0.2459  2.0898  0.3841
  100MPD2     C 1554   3.540   0.471   2.100 -0.1653 -0.5555 -0.2520
  100MPD2    C1 1555   3.399   0.463   2.087 -0.3142  0.1567 -0.3581
  100MPD2    C2 1556   3.346   0.490   1.961  0.1142 -0.2349 -0.0162
  100MPD2    C3 1557   3.430   0.518   1.854  0.1182  0.0972  0.3467
  100MPD2    C4 1558   3.560   0.524   1.877  0.8045  0.0474 -0.9828
  100MPD2    C5 1559   3.623   0.495   1.998  0.4812  0.7174 -0.0793
  100MPD2     H 1560   3.238   0.498   1.953  0.1697 -0.1515 -0.6718
  100MPD2    H1 1561   3.628   0.550   1.797  0.3731 -0.5332 -1.5383
  100MPD2    H2 1562   3.591   0.457   2.194 -0.0924 -0.1135 -0.2216
  100MPD2    H3 1563   3.731   0.502   2.007  0.5388  1.4821 -1.4216
  100MPD2     N 1564   3.382   0.553   1.730  0.0437  0.6743  0.5033
  100MPD2    H5 1565   3.283   0.541   1.712  0.0029  1.1210  0.4313
  100MPD2    N1 1566   3.305   0.449   2.190  0.2576 -0.2781 -0.1495
  100MPD2    H7 1567   3.207   0.468   2.172  0.2014 -0.4541 -0.0244
  101TMC2    C1 1568   4.286   2.424  13.531  0.0221 -0.2488  0.0769
  101TMC2    C2 1569   4.223   2.515  13.616  0.6071 -0.0715 -0.0147
  101TMC2    C3 1570   4.295   2.635  13.631  0.3773  0.6062 -0.1821
  101TMC2    C4 1571   4.408   2.440  13.477 -1.0832  0.5979 -0.5921
  101TMC2    C5 1572   4.478   2.549  13.517  0.9934  0.9203 -0.2898
  101TMC2    C6 1573   4.423   2.649  13.598 -0.0895  0.0975 -0.7885
  101TMC2     C 1574   4.200   2.323  13.483  0.1808  0.2008 -1.0685
  101TMC2     O 1575   4.078   2.338  13.492  0.0228  0.8548 -0.5750
  101TMC2     H 1576   4.122   2.502  13.654  0.0552 -1.4300 -1.9162
  101TMC2    H1 1577   4.445   2.380  13.395  2.0289 -0.9426  1.9657
  101TMC2    H2 1578   4.490   2.730  13.624  1.2075 -0.8143 -1.2839
  101TMC2    C7 1579   4.595   2.580  13.434  0.0526 -0.3903 -0.5694
  101TMC2    C8 1580   4.223   2.746  13.700 -0.1566 -0.2000  0.1295
  101TMC2    O1 1581   4.585   2.552  13.314  0.2549  0.0153 -0.3811
  101TMC2    O2 1582   4.135   2.729  13.782 -0.5067  0.8171 -0.0456
  101TMC2    O5 1583   4.299   2.856  13.695  0.4920 -0.0732  0.7400
  101TMC2    H5 1584   4.350   2.856  13.611  0.7756  0.5278  0.9072
  102MPD2     C 1585   4.309   1.980  13.431 -0.3454 -0.1604  0.0913
  102MPD2    C1 1586   4.220   2.083  13.455  0.0049 -0.3633 -0.2311
  102MPD2    C2 1587   4.083   2.060  13.472 -0.2926 -0.2745 -1.0281
  102MPD2    C3 1588   4.038   1.927  13.471 -0.6087  0.0288 -0.2346
  102MPD2    C4 1589   4.130   1.830  13.452  0.1901 -0.1202 -0.3188
  102MPD2    C5 1590   4.259   1.853  13.434 -0.1535 -0.8714  0.1765
  102MPD2     H 1591   4.003   2.133  13.471  0.4433  0.5328 -1.0776
  102MPD2    H1 1592   4.097   1.727  13.460 -2.3679  0.7319  0.2429
  102MPD2    H2 1593   4.417   1.982  13.430 -0.3374  0.2124  1.3100
  102MPD2    H3 1594   4.327   1.769  13.432  1.1733  0.1959  0.2162
  102MPD2     N 1595   3.900   1.914  13.469 -1.0363 -0.0178 -0.3525
  102MPD2    H5 1596   3.845   1.997  13.488 -0.8461  0.0854 -0.2543
  102MPD2    N1 1597   4.279   2.210  13.463  0.4706  0.0494  0.3153
  102MPD2    H7 1598   4.380   2.214  13.464  0.4726 -0.0266  0.5974
  103TMC2    C1 1599   1.840   1.837  12.323  0.1731  0.2781  0.4291
  103TMC2    C2 1600   1.885   1.710  12.317 -0.2380 -0.3220 -0.1550
  103TMC2    C3 1601   2.009   1.697  12.357  0.0367 -0.3377  0.1174
  103TMC2    C4 1602   1.915   1.943  12.370  0.5751 -0.0005 -0.2314
  103TMC2    C5 1603   2.045   1.923  12.405 -0.0249 -0.1754  0.0450
  103TMC2    C6 1604   2.098   1.799  12.394 -0.0875 -0.5012 -0.2199
  103TMC2     C 1605   1.726   1.871  12.238  0.5657  0.0409  0.3403
  103TMC2     O 1606   1.694   1.989  12.231  0.1583 -0.3341  0.5146
  103TMC2     H 1607   1.822   1.628  12.286  1.4327 -1.6457 -0.0457
  103TMC2    H1 1608   1.880   2.046  12.365 -0.2088 -0.3220 -1.3505
  103TMC2    H2 1609   2.204   1.778  12.383 -0.0430 -0.5004  0.2115
  103TMC2    C7 1610   2.134   2.025  12.441 -0.7117 -0.0016  0.6692
  103TMC2    C8 1611   2.063   1.560  12.336 -0.4877 -0.0148 -0.1534
  103TMC2    O1 1612   2.235   2.001  12.503  0.0792  0.4500  0.5921
  103TMC2    O2 1613   1.986   1.476  12.290 -0.0677  0.3325  0.2101
  103TMC2    O5 1614   2.145   1.540  12.445  0.1097 -0.1619 -0.0997
  103TMC2    H5 1615   2.177   1.619  12.495 -0.6098  0.2197 -0.2481
  104MPD2     C 1616   1.486   1.656  12.075  0.1838 -0.1478  0.8879
  104MPD2    C1 1617   1.536   1.774  12.125  0.4796  0.3771  0.2323
  104MPD2    C2 1618   1.469   1.889  12.088  0.0818  0.2818 -0.4288
  104MPD2    C3 1619   1.353   1.888  12.019 -0.0759 -1.0724  0.3316
  104MPD2    C4 1620   1.305   1.765  11.973  0.4424 -0.5815 -0.3196
  104MPD2    C5 1621   1.369   1.647  12.002  0.0386  0.0527 -0.5299
  104MPD2     H 1622   1.497   1.989  12.119 -1.2647 -0.0285  1.8009
  104MPD2    H1 1623   1.214   1.743  11.918  0.9068 -0.9663 -0.9304
  104MPD2    H2 1624   1.535   1.562  12.101 -0.3893 -0.8713 -0.6960
  104MPD2    H3 1625   1.329   1.555  11.962 -0.1266 -0.3689  0.5949
  104MPD2     N 1626   1.291   2.010  11.996 -0.1068 -0.3897  0.4587
  104MPD2    H5 1627   1.329   2.092  12.043 -0.5363  0.8707 -1.3848
  104MPD2    N1 1628   1.656   1.768  12.201 -0.1642 -0.4941  0.6462
  104MPD2    H7 1629   1.706   1.681  12.216  1.2606  0.1382 -0.3139
  105TMC2    C1 1630   2.781   0.885  17.284  0.0312  0.3710 -0.0886
  105TMC2    C2 1631   2.679   0.853  17.199  0.7099  0.1793 -0.3023
  105TMC2    C3 1632   2.562   0.804  17.247 -0.4037  0.4030 -1.3279
  105TMC2    C4 1633   2.768   0.876  17.415 -0.2768 -0.0883 -0.7964
  105TMC2    C5 1634   2.658   0.818  17.454  0.3935  0.3296  0.3911
  105TMC2    C6 1635   2.544   0.784  17.383 -0.5377  0.6822 -0.4190
  105TMC2     C 1636   2.906   0.893  17.215  0.0478  0.3229 -0.3115
  105TMC2     O 1637   2.912   0.846  17.102 -0.0905 -0.3329 -0.2051
  105TMC2     H 1638   2.682   0.884  17.096  1.7086  0.4641 -0.1872
  105TMC2    H1 1639   2.858   0.890  17.475 -1.4004  1.2688  0.5725
  105TMC2    H2 1640   2.461   0.731  17.426 -0.8326  0.4031 -1.3428
  105TMC2    C7 1641   2.647   0.783  17.596  0.4048  0.4149  0.1668
  105TMC2    C8 1642   2.452   0.801  17.150  0.1251  0.1796  0.5406
  105TMC2    O1 1643   2.579   0.684  17.622 -0.3898 -0.4130 -0.0570
  105TMC2    O2 1644   2.458   0.736  17.048  0.7744 -0.1076  0.1577
  105TMC2    O5 1645   2.343   0.806  17.228  0.1928 -0.3115  0.5414
  105TMC2    H5 1646   2.344   0.887  17.283  1.1439  1.2263 -1.7580
  106MPD2     C 1647   3.369   1.077  17.132  0.4764  0.4798  0.5967
  106MPD2    C1 1648   3.315   1.146  17.235 -0.4457 -0.4225  0.1685
  106MPD2    C2 1649   3.192   1.112  17.282  0.1688  0.2422  0.0375
  106MPD2    C3 1650   3.121   1.009  17.222 -0.0450 -0.3710 -0.1999
  106MPD2    C4 1651   3.173   0.946  17.116  0.3130 -0.0362  0.1617
  106MPD2    C5 1652   3.293   0.983  17.064  0.0191 -0.2292 -0.3301
  106MPD2     H 1653   3.143   1.160  17.366 -1.7637 -1.3336 -0.1680
  106MPD2    H1 1654   3.130   0.857  17.070 -2.4358  1.1286  0.5005
  106MPD2    H2 1655   3.460   1.106  17.080  0.7178  0.7086  1.1421
  106MPD2    H3 1656   3.335   0.916  16.990  0.6200  0.9981 -1.1034
  106MPD2     N 1657   2.999   0.974  17.277  0.0518  0.1658  0.0841
  106MPD2    H5 1658   2.976   1.008  17.369  0.6325 -2.4761  1.2077
  106MPD2    N1 1659   3.379   1.250  17.295 -0.1776 -0.0192  0.2437
  106MPD2    H7 1660   3.325   1.305  17.361 -0.1008 -0.1245  0.3941
  107TMC2    C1 1661   4.557   1.895  11.488  0.5789  1.0558 -0.4802
  107TMC2    C2 1662   4.625   1.998  11.542 -0.3042  0.6338 -0.5037
  107TMC2    C3 1663   4.704   2.077  11.464 -0.6167 -0.2622  0.5135
  107TMC2    C4 1664   4.555   1.880  11.346  0.1298 -0.3212 -0.5351
  107TMC2    C5 1665   4.632   1.960  11.272  0.1700 -0.6392  0.8321
  107TMC2    C6 1666   4.710   2.061  11.327  0.0521  0.1212 -0.3368
  107TMC2     C 1667   4.456   1.832  11.566 -0.6947 -0.2399  0.2503
  107TMC2     O 1668   4.421   1.896  11.666 -0.5075 -0.1529  0.2908
  107TMC2     H 1669   4.613   2.021  11.648  0.1665 -0.2655 -0.2528
  107TMC2    H1 1670   4.501   1.801  11.294 -0.3843 -0.1567 -0.2524
  107TMC2    H2 1671   0.016   2.139  11.264 -1.0831  0.4465 -0.6760
  107TMC2    C7 1672   4.687   1.917  11.146 -0.6878  0.9520  0.3419
  107TMC2    C8 1673   0.020   2.199  11.520 -0.6835 -0.0652 -0.3573
  107TMC2    O1 1674   0.030   1.994  11.088  0.2236  0.0250  0.4957
  107TMC2    O2 1675   4.704   2.256  11.618 -0.7678 -0.2081 -0.1828
  107TMC2    O5 1676   0.147   2.216  11.482  0.4920  0.1095 -0.0260
  107TMC2    H5 1677   0.179   2.157  11.410  3.3394  2.2767 -0.5178
  108MPD2     C 1678   4.395   1.470  11.578  1.2108  0.4942 -0.2183
  108MPD2    C1 1679   4.379   1.600  11.616 -0.9174 -0.1892 -0.8064
  108MPD2    C2 1680   4.292   1.632  11.721 -0.4681  0.4274  0.0021
  108MPD2    C3 1681   4.247   1.527  11.801  0.0825  0.3627 -0.8680
  108MPD2    C4 1682   4.277   1.395  11.774 -0.0965 -0.0813  0.0261
  108MPD2    C5 1683   4.342   1.369  11.647 -0.6225 -0.3129 -0.1496
  108MPD2     H 1684   4.263   1.735  11.742 -1.2693  0.1612  0.2111
  108MPD2    H1 1685   4.249   1.318  11.844  4.8338 -0.9458  1.0571
  108MPD2    H2 1686   4.455   1.440  11.493  0.2532 -1.0684 -0.3528
  108MPD2    H3 1687   4.366   1.268  11.616  2.2850 -0.1749  1.6340
  108MPD2     N 1688   4.170   1.543  11.921  0.2256 -0.0717  0.1407
  108MPD2    H5 1689   4.154   1.451  11.960  2.1707 -0.6862 -0.4886
  108MPD2    N1 1690   4.449   1.694  11.536 -0.2427  0.3357  0.0394
  108MPD2    H7 1691   4.506   1.664  11.457  0.0587  2.0593 -0.3997
  109TMC2    C1 1692   3.767   2.677   0.358 -0.0611  0.3147 -0.6234
  109TMC2    C2 1693   3.797   2.700   0.226 -0.2470  0.7805 -0.4774
  109TMC2    C3 1694   3.819   2.828   0.196 -0.6038 -0.0693 -0.4206
  109TMC2    C4 1695   3.761   2.775   0.453 -0.0143 -0.3740  0.7389
  109TMC2    C5 1696   3.792   2.898   0.415  0.6131 -0.5432  0.0779
  109TMC2    C6 1697   3.820   2.930   0.286 -0.2116 -0.5265  0.0618
  109TMC2     C 1698   3.712   2.548   0.393 -0.2622 -0.6795 -0.7296
  109TMC2     O 1699   3.693   2.484   0.286  0.3261  0.1161 -0.0991
  109TMC2     H 1700   3.805   2.626   0.147  2.1382 -0.5483  1.0183
  109TMC2    H1 1701   3.745   2.741   0.555 -0.0639  0.2994  0.9498
  109TMC2    H2 1702   3.837   3.035   0.263 -0.2994 -0.8061 -1.2693
  109TMC2    C7 1703   3.815   3.005   0.503 -0.3464 -0.0674 -0.5664
  109TMC2    C8 1704   3.820   2.863   0.056  0.2224 -0.3754  0.1649
  109TMC2    O1 1705   3.908   3.080   0.481  0.0795 -0.2342 -0.0658
  109TMC2    O2 1706   3.897   2.813  17.716  0.5051 -0.4865  0.3276
  109TMC2    O5 1707   3.688   2.892   0.033 -0.1395  0.6334  0.1402
  109TMC2    H5 1708   3.630   2.897   0.112 -0.6682 -3.2334 -0.0179
  110MPD2     C 1709   3.510   2.152   0.656 -0.4527  0.3318 -0.6933
  110MPD2    C1 1710   3.550   2.251   0.749 -0.2761 -0.2166 -0.0616
  110MPD2    C2 1711   3.609   2.366   0.695 -0.2951 -0.1537 -0.9785
  110MPD2    C3 1712   3.623   2.389   0.561  0.3156  0.3102 -0.2939
  110MPD2    C4 1713   3.588   2.291   0.471 -0.4187  0.0354  1.1764
  110MPD2    C5 1714   3.539   2.170   0.522 -0.3087 -0.3484  0.5113
  110MPD2     H 1715   3.637   2.444   0.765 -0.1318 -2.1865  1.1908
  110MPD2    H1 1716   3.596   2.296   0.363 -1.7707 -1.0243  1.0226
  110MPD2    H2 1717   3.474   2.057   0.694 -1.0207  1.3573  1.3357
  110MPD2    H3 1718   3.526   2.090   0.450 -0.5066  0.6441 -0.5580
  110MPD2     N 1719   3.686   2.511   0.524 -0.3197 -0.3735  0.1690
  110MPD2    H5 1720   3.720   2.577   0.594 -2.2449  1.1141 -0.3171
  110MPD2    N1 1721   3.508   2.232   0.888 -0.4023  0.1682  0.1223
  110MPD2    H7 1722   3.458   2.149   0.916  0.3319 -0.4041 -0.2504
  111TMC2    C1 1723   4.145   3.308  12.116  0.6708 -0.0335 -0.3537
  111TMC2    C2 1724   4.049   3.319  12.212 -0.4149 -0.0703 -0.6895
  111TMC2    C3 1725   4.066   3.273  12.337 -0.2277  0.3454  0.0109
  111TMC2    C4 1726   4.266   3.248  12.152 -0.4480 -0.4847 -0.2790
  111TMC2    C5 1727   4.284   3.196  12.277  0.5417  0.4920 -0.0456
  111TMC2    C6 1728   4.178   3.209  12.367  0.2177 -0.3046  0.1925
  111TMC2     C 1729   4.133   3.373  11.981  0.9822  0.0971  0.2026
  111TMC2     O 1730   4.240   3.399  11.924 -0.5568  0.0003  0.0580
  111TMC2     H 1731   3.965   3.386  12.200 -1.3572 -1.5742 -2.5266
  111TMC2    H1 1732   4.330   3.223  12.068  2.0918  2.7437  0.6591
  111TMC2    H2 1733   4.198   3.182  12.470 -2.6899  0.6134  1.0169
  111TMC2    C7 1734   4.411   3.153  12.323  0.5816 -0.4639 -0.2219
  111TMC2    C8 1735   3.998   3.329  12.444 -0.0634 -0.5016 -0.3209
  111TMC2    O1 1736   4.408   3.085  12.424  0.0662 -0.1000  0.0333
  111TMC2    O2 1737   3.935   3.433  12.430  0.0575 -0.1863 -0.2090
  111TMC2    O5 1738   3.951   3.219  12.510 -0.6005 -0.1066 -0.4833
  111TMC2    H5 1739   4.005   3.139  12.500 -0.1084 -0.0291  1.7266
  112MPD2     C 1740   3.864   3.558  11.573  0.4496 -0.3164 -0.2154
  112MPD2    C1 1741   3.999   3.535  11.581  0.6864  0.3488  0.2164
  112MPD2    C2 1742   4.049   3.480  11.701  0.1209 -1.3411 -0.4008
  112MPD2    C3 1743   3.965   3.445  11.809  0.5432  0.5304 -1.1270
  112MPD2    C4 1744   3.829   3.470  11.797  0.1742 -0.2039 -0.0455
  112MPD2    C5 1745   3.778   3.519  11.677 -0.0577  0.8168  0.0548
  112MPD2     H 1746   4.153   3.451  11.710 -0.4754 -2.6140  2.2153
  112MPD2    H1 1747   3.758   3.448  11.877  0.6716 -3.6305 -0.5600
  112MPD2    H2 1748   3.819   3.608  11.488 -2.1347 -0.3483  1.1414
  112MPD2    H3 1749   3.671   3.531  11.664  0.2065  2.6626 -0.5516
  112MPD2     N 1750   4.010   3.385  11.936  0.6681  0.4821  0.5195
  112MPD2    H5 1751   3.936   3.357  11.999  1.6717 -0.7915  1.1396
  112MPD2    N1 1752   4.084   3.563  11.474 -0.1639 -0.3956  0.3556
  112MPD2    H7 1753   4.182   3.561  11.499 -0.5211 -0.3247  1.7622
  113TMC2    C1 1754   2.301   1.733   1.404  0.1732  0.2517  0.3523
  113TMC2    C2 1755   2.293   1.856   1.458  0.1297 -0.2828  0.4577
  113TMC2    C3 1756   2.256   1.967   1.383 -0.7617 -0.3702  0.3434
  113TMC2    C4 1757   2.279   1.716   1.267  0.0590 -0.4743  0.0752
  113TMC2    C5 1758   2.241   1.829   1.200  0.2494 -0.0651  0.8953
  113TMC2    C6 1759   2.236   1.956   1.249  0.5716 -0.0172 -0.0927
  113TMC2     C 1760   2.316   1.618   1.489  0.0505  0.0725 -0.0110
  113TMC2     O 1761   2.351   1.641   1.603 -0.7585 -0.4483  0.4161
  113TMC2     H 1762   2.333   1.862   1.559  2.2143  1.1591 -0.4723
  113TMC2    H1 1763   2.287   1.617   1.225 -0.1148 -1.3058  1.9914
  113TMC2    H2 1764   2.224   2.048   1.192  0.7678  0.0265 -0.0623
  113TMC2    C7 1765   2.192   1.822   1.063  0.2719  0.5777  0.3788
  113TMC2    C8 1766   2.296   2.101   1.425  0.2492  0.1363 -0.2914
  113TMC2    O1 1767   2.156   1.928   1.021 -0.1627 -0.4568  0.2218
  113TMC2    O2 1768   2.356   2.181   1.351  0.1763 -0.0096  0.1524
  113TMC2    O5 1769   2.253   2.126   1.549  0.1354  0.0300 -0.5037
  113TMC2    H5 1770   2.200   2.052   1.586 -1.4537  0.8029 -1.2318
  114MPD2     C 1771   2.414   1.111   1.560 -0.4802  0.2225  0.1475
  114MPD2    C1 1772   2.453   1.218   1.631 -0.1671  0.0805 -0.2533
  114MPD2    C2 1773   2.412   1.345   1.586  0.4881  0.1826 -0.8915
  114MPD2    C3 1774   2.339   1.365   1.472  0.6565  0.1891 -1.0203
  114MPD2    C4 1775   2.291   1.251   1.414 -0.5194  0.0077  0.2400
  114MPD2    C5 1776   2.333   1.128   1.449  0.0728 -0.3304  0.1676
  114MPD2     H 1777   2.458   1.427   1.640  0.8748 -0.6816  0.1056
  114MPD2    H1 1778   2.235   1.253   1.321 -0.7130 -1.5712  0.3289
  114MPD2    H2 1779   2.441   1.010   1.589 -0.4512 -0.3726 -1.9100
  114MPD2    H3 1780   2.304   1.039   1.394 -0.2329  0.0152 -0.2279
  114MPD2     N 1781   2.298   1.493   1.427 -0.3985 -0.4671 -0.5844
  114MPD2    H5 1782   2.236   1.491   1.346 -1.9672 -1.4655  0.6574
  114MPD2    N1 1783   2.536   1.217   1.747  0.5920 -0.2025  0.2155
  114MPD2    H7 1784   2.555   1.304   1.794 -2.0497 -0.4245  1.7424
  115TMC2    C1 1785   2.908   3.909  17.597 -0.6077 -0.9685  0.1284
  115TMC2    C2 1786   3.027   3.855  17.568  0.1409  0.3564 -0.1955
  115TMC2    C3 1787   3.136   3.932  17.583  0.6358 -0.2475  0.8636
  115TMC2    C4 1788   2.899   4.040  17.635 -0.0835  0.0937 -0.5867
  115TMC2    C5 1789   3.009   4.119  17.645 -0.2133 -0.5845 -0.2476
  115TMC2    C6 1790   3.132   4.062  17.634 -0.4346 -1.1964 -0.6514
  115TMC2     C 1791   2.787   3.826  17.564  0.1954 -0.2133 -0.1541
  115TMC2     O 1792   2.811   3.731  17.490 -0.3050  0.0705 -0.5123
  115TMC2     H 1793   3.028   3.752  17.532 -2.8156 -0.6908  2.6709
  115TMC2    H1 1794   2.802   4.087  17.643  0.2199  0.8790 -1.3489
  115TMC2    H2 1795   3.220   4.111  17.675 -0.7758 -1.1506  0.0379
  115TMC2    C7 1796   3.008   4.255  17.683 -0.3239 -0.2235 -0.2960
  115TMC2    C8 1797   3.257   3.857  17.573  0.0561 -0.2690  0.0204
  115TMC2    O1 1798   2.904   4.290  17.734 -0.6074 -0.0236  0.4625
  115TMC2    O2 1799   3.258   3.735  17.584 -0.0943  0.3793 -0.2822
  115TMC2    O5 1800   3.362   3.938  17.566  0.6127 -0.3599 -0.3119
  115TMC2    H5 1801   3.347   4.035  17.556  0.8312 -0.4300 -1.3588
  116MPD2     C 1802   2.325   3.635  17.645 -0.3623 -0.3731  0.4272
  116MPD2    C1 1803   2.427   3.593  17.563  0.1928 -0.1213  0.0002
  116MPD2    C2 1804   2.552   3.653  17.565 -0.8105  0.0685 -0.1555
  116MPD2    C3 1805   2.574   3.767  17.649 -0.6632 -0.7787  0.0208
  116MPD2    C4 1806   2.470   3.812  17.729 -0.2789  0.1107  0.1595
  116MPD2    C5 1807   2.348   3.745  17.727 -0.0877 -0.2814  0.4261
  116MPD2     H 1808   2.623   3.628  17.487 -2.5266  1.2488 -2.0955
  116MPD2    H1 1809   2.490   3.891   0.062  1.1062  1.0955 -1.2982
  116MPD2    H2 1810   2.228   3.588  17.639  0.1153 -1.2807 -0.1470
  116MPD2    H3 1811   2.276   3.777   0.063  0.1070  0.0077  0.4895
  116MPD2     N 1812   2.680   3.857  17.645 -0.5034  0.3207 -0.5960
  116MPD2    H5 1813   2.675   3.942  17.700  3.0400  0.5833 -0.6251
  116MPD2    N1 1814   2.399   3.476  17.491  0.1573  0.7434  0.4658
  116MPD2    H7 1815   2.306   3.441  17.511  0.9254 -1.2351  0.5478
  117TMC2    C1 1816   2.081   4.556  14.265 -0.3256  0.3386 -0.6192
  117TMC2    C2 1817   2.209   4.514  14.222  0.7488 -0.4947 -0.3899
  117TMC2    C3 1818   2.294   4.623  14.202 -0.9449 -0.4089  0.4022
  117TMC2    C4 1819   2.044   4.685  14.286 -0.2397  0.3007 -0.5822
  117TMC2    C5 1820   2.129   0.053  14.268  0.2079 -0.2346  0.4015
  117TMC2    C6 1821   2.254   0.024  14.227  0.8262  0.4296  0.4704
  117TMC2     C 1822   1.980   4.453  14.266  0.4205 -0.0242 -0.2976
  117TMC2     O 1823   2.012   4.352  14.327 -0.2909 -0.1541 -0.2850
  117TMC2     H 1824   2.232   4.409  14.207 -2.3980 -0.9651 -1.7804
  117TMC2    H1 1825   1.951   4.691  14.342  0.6396 -0.8471  0.9971
  117TMC2    H2 1826   2.317   0.108  14.199  0.4642  0.7259  0.5453
  117TMC2    C7 1827   2.077   0.187  14.260  0.1058 -0.0349  0.3208
  117TMC2    C8 1828   2.399   4.614  14.105  0.1286 -0.7575 -0.5596
  117TMC2    O1 1829   2.153   0.279  14.239  0.3152 -0.1274 -0.2126
  117TMC2    O2 1830   2.390   4.563  13.993  0.0738 -0.6370 -0.0200
  117TMC2    O5 1831   2.501   4.676  14.160 -0.4347 -0.0114  0.3530
  117TMC2    H5 1832   2.483   4.708  14.251  1.5511 -0.7716  1.0215
  118MPD2     C 1833   1.730   0.263  14.184 -0.2494  0.2658  0.8724
  118MPD2    C1 1834   1.862   0.300  14.207 -0.3799 -0.6361 -0.4462
  118MPD2    C2 1835   1.908   0.429  14.191 -0.4551  0.4345  0.0582
  118MPD2    C3 1836   1.817   0.527  14.163 -1.2337  0.1659 -0.4709
  118MPD2    C4 1837   1.681   0.493  14.157 -0.2650  0.0106  0.0667
  118MPD2    C5 1838   1.638   0.361  14.168 -0.1199 -0.1646  0.2588
  118MPD2     H 1839   2.013   0.456  14.196 -0.3698 -0.0036  0.6608
  118MPD2    H1 1840   1.606   0.569  14.141  0.1299  0.4176  0.1569
  118MPD2    H2 1841   1.706   0.157  14.189  1.4568 -0.3119 -2.8695
  118MPD2    H3 1842   1.532   0.343  14.156 -0.2752 -1.7910  3.7927
  118MPD2     N 1843   1.851   0.667  14.163  0.6515  0.3413  0.0500
  118MPD2    H5 1844   1.772   0.728  14.181  1.2520  1.2710 -0.4826
  118MPD2    N1 1845   1.945   0.186  14.242 -0.0607 -0.2759  0.1655
  118MPD2    H7 1846   1.892   0.099  14.243  2.3560 -1.7241  0.2092
  119TMC2    C1 1847   0.082   1.006  13.633 -0.1508  0.1241 -0.7072
  119TMC2    C2 1848   0.155   0.893  13.617 -0.1290 -0.5939 -0.0190
  119TMC2    C3 1849   0.100   0.785  13.552 -0.2883  0.6823 -0.1230
  119TMC2    C4 1850   4.680   1.003  13.613  0.4716 -0.1372 -0.3953
  119TMC2    C5 1851   4.625   0.882  13.571  0.2396  0.2036 -0.4817
  119TMC2    C6 1852   4.698   0.771  13.548  0.0190 -0.1211 -0.1801
  119TMC2     C 1853   0.135   1.130  13.693  0.2677 -0.1333 -0.2802
  119TMC2     O 1854   0.052   1.200  13.745 -0.2110  0.1845  0.1639
  119TMC2     H 1855   0.262   0.900  13.636  0.0411  0.5984 -1.4027
  119TMC2    H1 1856   4.627   1.097  13.599 -1.2447 -0.7992  1.7041
  119TMC2    H2 1857   4.643   0.694  13.495  0.2581 -0.6967  0.4101
  119TMC2    C7 1858   4.486   0.883  13.552  0.3472 -0.0184 -0.4780
  119TMC2    C8 1859   0.198   0.674  13.535 -0.1176  0.5720  0.5918
  119TMC2    O1 1860   4.440   0.807  13.471  0.1426  0.5346 -0.4147
  119TMC2    O2 1861   0.296   0.654  13.601  0.1798  0.0011 -0.2216
  119TMC2    O5 1862   0.139   0.597  13.442  0.2735  0.1121  0.1537
  119TMC2    H5 1863   0.079   0.656  13.393 -1.5018 -1.3850  0.5234
  120MPD2     C 1864   0.528   1.397  13.877 -0.7755  0.3301 -0.7908
  120MPD2    C1 1865   0.396   1.426  13.885 -0.8182 -0.4551  0.2398
  120MPD2    C2 1866   0.307   1.339  13.823  0.3601  0.6943 -0.5525
  120MPD2    C3 1867   0.357   1.227  13.764  0.2255 -0.0623  1.0576
  120MPD2    C4 1868   0.493   1.199  13.767 -0.2316  0.3608  0.5566
  120MPD2    C5 1869   0.579   1.280  13.831  0.3399  0.0090 -0.2907
  120MPD2     H 1870   0.205   1.368  13.800  0.9634  0.9589 -2.8784
  120MPD2    H1 1871   0.518   1.100  13.730  1.2943  0.8377  0.3255
  120MPD2    H2 1872   0.599   1.447  13.942 -1.5401  0.0035  0.2882
  120MPD2    H3 1873   0.686   1.264  13.834  0.6351  1.7835 -1.0339
  120MPD2     N 1874   0.274   1.132  13.704 -0.3774  0.0734  0.2001
  120MPD2    H5 1875   0.322   1.055  13.659  1.2483 -0.1618  2.3007
  120MPD2    N1 1876   0.372   1.546  13.953 -0.4983  0.3212  0.1449
  120MPD2    H7 1877   0.446   1.614  13.962  2.0424 -2.6456  1.6691
  121TMC2    C1 1878   1.319   3.117  13.697  0.2502 -0.1913 -0.6822
  121TMC2    C2 1879   1.444   3.060  13.667  0.0400  0.0646  0.0420
  121TMC2    C3 1880   1.446   2.925  13.689 -0.1775 -0.3015 -0.2785
  121TMC2    C4 1881   1.208   3.046  13.737 -0.4669 -0.3485  0.8656
  121TMC2    C5 1882   1.220   2.911  13.738 -0.4882 -0.1715  0.5851
  121TMC2    C6 1883   1.338   2.849  13.724  0.3800  0.4754  0.2091
  121TMC2     C 1884   1.280   3.241  13.624  0.6046  0.2752  0.1164
  121TMC2     O 1885   1.180   3.301  13.662  0.3010  0.3792  0.5447
  121TMC2     H 1886   1.531   3.119  13.639  1.0673 -1.1904  0.5588
  121TMC2    H1 1887   1.114   3.095  13.716  0.2317  0.3429 -0.6322
  121TMC2    H2 1888   1.343   2.744  13.751 -2.0086  0.8267  2.0980
  121TMC2    C7 1889   1.104   2.822  13.757  0.5444  0.2746 -0.4386
  121TMC2    C8 1890   1.573   2.855  13.653  0.1135  0.6285 -0.1439
  121TMC2    O1 1891   1.108   2.701  13.734 -0.1063  0.0184  0.0112
  121TMC2    O2 1892   1.658   2.929  13.602 -0.3151  0.3874 -0.3045
  121TMC2    O5 1893   1.593   2.747  13.730  0.0875  0.0952  0.2815
  121TMC2    H5 1894   1.524   2.691  13.772 -1.6651  1.2873 -1.0083
  122MPD2     C 1895   1.274   3.490  13.447  0.1491 -0.5833  0.2060
  122MPD2    C1 1896   1.355   3.380  13.428  0.0601  0.0049  0.3521
  122MPD2    C2 1897   1.452   3.390  13.331 -0.0142  0.4704 -0.6569
  122MPD2    C3 1898   1.472   3.506  13.249 -0.3739 -0.2780 -0.0860
  122MPD2    C4 1899   1.378   3.607  13.260 -0.1187  0.5386 -0.1466
  122MPD2    C5 1900   1.284   3.603  13.362 -0.1469  0.5692 -0.2128
  122MPD2     H 1901   1.519   3.307  13.314  0.3398  0.0914  2.6280
  122MPD2    H1 1902   1.380   3.695  13.196 -0.4538  0.9884  0.4673
  122MPD2    H2 1903   1.208   3.496  13.532  0.2854 -0.8559  0.3291
  122MPD2    H3 1904   1.220   3.688  13.383 -0.3825 -0.0856  1.7461
  122MPD2     N 1905   1.565   3.522  13.141 -0.0021  0.3066  0.0573
  122MPD2    H5 1906   1.547   3.589  13.067  1.1730 -1.1820 -1.5872
  122MPD2    N1 1907   1.355   3.261  13.508  0.3776 -0.4450  0.2220
  122MPD2    H7 1908   1.419   3.188  13.478  0.1036 -1.3679  1.8797
  123TMC2    C1 1909   0.790   1.489   9.917 -0.2715 -0.2301 -1.5853
  123TMC2    C2 1910   0.918   1.501   9.873  0.1244 -0.4758 -0.4061
  123TMC2    C3 1911   0.973   1.392   9.810 -0.3307  0.1142 -0.3836
  123TMC2    C4 1912   0.728   1.361   9.921  0.4530 -0.8759  1.0851
  123TMC2    C5 1913   0.790   1.258   9.850  0.2122 -0.1996  0.4550
  123TMC2    C6 1914   0.912   1.271   9.798 -0.0005  0.0955 -0.0202
  123TMC2     C 1915   0.737   1.607   9.993 -0.2675 -0.4378 -0.1117
  123TMC2     O 1916   0.817   1.702  10.015  0.4039 -0.0704  0.0662
  123TMC2     H 1917   0.971   1.591   9.900 -0.0692 -0.5205  0.1223
  123TMC2    H1 1918   0.643   1.347   9.986 -0.5836 -1.9600 -0.5050
  123TMC2    H2 1919   0.951   1.184   9.748  1.5530  2.4629 -2.9121
  123TMC2    C7 1920   0.707   1.143   9.830 -0.3077 -0.2979  0.3404
  123TMC2    C8 1921   1.103   1.400   9.739 -0.2567  0.4495 -0.4329
  123TMC2    O1 1922   0.593   1.153   9.871 -0.2535  0.5008 -0.3961
  123TMC2    O2 1923   1.183   1.307   9.731  0.2059  0.1534 -0.0287
  123TMC2    O5 1924   1.107   1.512   9.662  0.1817 -0.3522  0.0290
  123TMC2    H5 1925   1.045   1.587   9.678  0.6692  0.1641 -0.5090
  124MPD2     C 1926   0.373   1.826  10.289 -0.3766  0.5931  0.7152
  124MPD2    C1 1927   0.319   1.709  10.231  0.3176  0.3856  0.7749
  124MPD2    C2 1928   0.394   1.641  10.137  0.1926 -0.1661  0.5042
  124MPD2    C3 1929   0.524   1.672  10.111 -0.4361 -0.0249  0.0464
  124MPD2    C4 1930   0.572   1.790  10.164 -0.3403  0.0610  0.1094
  124MPD2    C5 1931   0.500   1.868  10.250 -0.5699  0.1886  0.4005
  124MPD2     H 1932   0.359   1.555  10.080 -2.1829  0.4444  1.0589
  124MPD2    H1 1933   0.672   1.830  10.145  1.2060 -4.4974 -1.3497
  124MPD2    H2 1934   0.312   1.880  10.359  1.2411  0.1052  2.4940
  124MPD2    H3 1935   0.555   1.947  10.301  0.1800  0.5456 -0.9678
  124MPD2     N 1936   0.601   1.593  10.026  0.3103 -0.1511  0.0390
  124MPD2    H5 1937   0.564   1.511   9.979 -1.7233 -0.4470  2.1316
  124MPD2    N1 1938   0.186   1.668  10.272 -0.7335  0.3051  0.1551
  124MPD2    H7 1939   0.140   1.724  10.342 -0.7511 -0.0799  0.4521
  125TMC2    C1 1940   0.871   3.145  10.030 -0.3704  0.3708 -0.1466
  125TMC2    C2 1941   0.869   3.250  10.115 -0.0872 -0.4805  0.6567
  125TMC2    C3 1942   0.917   3.369  10.059  0.7240  0.1952 -0.3161
  125TMC2    C4 1943   0.930   3.149   9.899  0.1476 -0.7889 -0.2895
  125TMC2    C5 1944   1.004   3.260   9.861 -0.2206 -0.4323 -0.0067
  125TMC2    C6 1945   0.987   3.376   9.934  0.6227  0.2756 -0.5427
  125TMC2     C 1946   0.823   3.021  10.078  0.2646  0.2798  0.0485
  125TMC2     O 1947   0.883   2.926  10.038 -0.5084 -0.3249  0.0589
  125TMC2     H 1948   0.817   3.246  10.211 -3.0699 -0.0003 -0.9434
  125TMC2    H1 1949   0.924   3.065   9.830  0.1038 -2.4806  1.7950
  125TMC2    H2 1950   1.042   3.467   9.914 -1.3005  1.7370  0.8219
  125TMC2    C7 1951   1.116   3.239   9.771 -0.4212  0.2581  0.3232
  125TMC2    C8 1952   0.929   3.476  10.150  0.5954 -0.7930  0.1780
  125TMC2    O1 1953   1.129   3.125   9.724  0.0317  0.0877 -0.0042
  125TMC2    O2 1954   0.930   3.453  10.271  0.5978 -0.3848  0.3112
  125TMC2    O5 1955   0.941   3.592  10.079  0.5702  0.5366 -0.5544
  125TMC2    H5 1956   0.915   3.573   9.987 -1.3810 -3.8033  0.9278
  126MPD1     C 1957   0.500   2.718  10.333  0.4108 -0.4513  0.0380
  126MPD1    C1 1958   0.449   2.848  10.339 -0.0278  0.7320  0.3714
  126MPD1    C2 1959   0.514   2.950  10.267 -0.2362 -0.2254 -0.2760
  126MPD1    C3 1960   0.635   2.919  10.206  0.4953  0.5024  0.6159
  126MPD1    C4 1961   0.689   2.793  10.215 -0.4813  0.6057 -0.0964
  126MPD1    C5 1962   0.618   2.689  10.277 -0.2854 -0.5729 -0.3276
  126MPD1     H 1963   0.481   3.053  10.273 -2.6399 -0.9119 -1.2451
  126MPD1    H1 1964   0.786   2.769  10.174 -0.0828  3.4789 -0.8910
  126MPD1    H2 1965   0.449   2.633  10.377  0.2806 -0.8029 -0.8009
  126MPD1    H3 1966   0.666   2.592  10.274  2.4072  0.6872  2.0887
  126MPD1     N 1967   0.709   3.029  10.151 -0.4217  0.5748 -1.0847
  126MPD1    H5 1968   0.676   3.124  10.158  2.4159  1.3111  2.2795
  126MPD1    N1 1969   0.316   2.873  10.380 -0.8922 -0.3103  0.1359
  126MPD1    H6 1970   0.272   2.808  10.445 -0.9486 -1.2390 -0.8115
  126MPD1    H7 1971   0.310   2.965  10.422 -0.1849  0.2819 -1.0630
  127TMC2    C1 1972   2.056   2.423   9.630 -0.4248 -0.2278  0.0190
  127TMC2    C2 1973   2.148   2.403   9.725  0.4017 -0.4260  0.0741
  127TMC2    C3 1974   2.105   2.353   9.841 -0.7249 -0.1842  0.0775
  127TMC2    C4 1975   1.925   2.387   9.640 -0.1633  0.4782  0.3593
  127TMC2    C5 1976   1.900   2.311   9.752  0.2150 -0.5274  0.9164
  127TMC2    C6 1977   1.985   2.290   9.854  0.0701  0.0851 -0.5388
  127TMC2     C 1978   2.104   2.494   9.510 -0.2109 -0.5336  0.2099
  127TMC2     O 1979   2.217   2.543   9.511  0.0428  0.1191 -0.3253
  127TMC2     H 1980   2.251   2.434   9.711  0.0003  2.2735  3.1032
  127TMC2    H1 1981   1.847   2.415   9.571 -0.0268 -1.7529 -0.7067
  127TMC2    H2 1982   1.975   2.224   9.939  0.2125 -1.4016 -1.6616
  127TMC2    C7 1983   1.757   2.296   9.788  0.1016 -0.9396 -0.1274
  127TMC2    C8 1984   2.211   2.330   9.942  0.3201 -0.1914 -0.3190
  127TMC2    O1 1985   1.681   2.336   9.700  0.2687  0.5397 -0.1907
  127TMC2    O2 1986   2.329   2.350   9.927 -0.1470 -0.5324 -0.3429
  127TMC2    O5 1987   2.146   2.326  10.059 -0.4624 -0.7232 -0.0997
  127TMC2    H5 1988   2.049   2.311  10.062 -0.1301 -2.9308  0.1981
  128MPD2     C 1989   1.942   2.510   9.181 -0.4818  0.0399 -0.7338
  128MPD2    C1 1990   2.039   2.546   9.273 -0.1679 -0.8660  0.0240
  128MPD2    C2 1991   2.132   2.635   9.238 -0.3582  0.3934 -0.4948
  128MPD2    C3 1992   2.123   2.701   9.117  0.1259  0.4796  0.3687
  128MPD2    C4 1993   2.020   2.670   9.029  0.4624 -0.8150 -0.0646
  128MPD2    C5 1994   1.932   2.572   9.059  0.3833  0.7783 -0.2998
  128MPD2     H 1995   2.201   2.679   9.309 -1.0941 -0.0862  0.5099
  128MPD2    H1 1996   2.008   2.727   8.937  1.8677 -0.1694  0.1482
  128MPD2    H2 1997   1.868   2.436   9.210  0.0603  0.5916  2.0818
  128MPD2    H3 1998   1.850   2.556   8.990  0.4941 -0.4433 -0.1610
  128MPD2     N 1999   2.221   2.801   9.090 -0.0191  0.5088 -0.4056
  128MPD2    H5 2000   2.300   2.811   9.153  0.5336  0.3395 -1.0693
  128MPD2    N1 2001   2.030   2.483   9.403  0.1814  0.3513  0.2157
  128MPD2    H7 2002   1.964   2.406   9.403 -0.4294  0.8703  0.1186
  129TMC2    C1 2003   0.355   2.306   1.626 -0.1682 -0.0766  0.0519
  129TMC2    C2 2004   0.476   2.299   1.557  0.6962 -0.5942 -0.3808
  129TMC2    C3 2005   0.541   2.176   1.559 -0.2419  0.7291  0.5594
  129TMC2    C4 2006   0.293   2.198   1.683  0.4877  0.2516 -0.0651
  129TMC2    C5 2007   0.351   2.077   1.654 -0.4510  0.1920 -0.1527
  129TMC2    C6 2008   0.480   2.067   1.611 -0.4201 -0.6268  0.0105
  129TMC2     C 2009   0.287   2.437   1.622  0.2735 -0.4575  0.1793
  129TMC2     O 2010   0.179   2.434   1.680  0.3379 -0.5164 -0.2858
  129TMC2     H 2011   0.532   2.377   1.507 -2.1105  1.7574  0.1702
  129TMC2    H1 2012   0.187   2.194   1.704  0.7406 -0.2345  1.0926
  129TMC2    H2 2013   0.507   1.966   1.584  2.1607  0.2863 -0.8338
  129TMC2    C7 2014   0.279   1.970   1.717 -0.1162 -0.0924 -0.1301
  129TMC2    C8 2015   0.680   2.173   1.522  1.0539  0.1700  0.3734
  129TMC2    O1 2016   0.157   1.973   1.708  0.6139  0.1545  0.3728
  129TMC2    O2 2017   0.723   2.248   1.435  0.0729  0.5063  0.4398
  129TMC2    O5 2018   0.704   2.043   1.526  0.2747  0.3223 -0.0229
  129TMC2    H5 2019   0.669   2.005   1.610  4.4075 -0.4517  1.3512
  130MPD2     C 2020   0.172   2.700   1.573  0.2539  0.1814  0.0512
  130MPD2    C1 2021   0.304   2.676   1.559 -0.6577 -0.1497  0.0094
  130MPD2    C2 2022   0.381   2.787   1.524  0.9301 -0.3342 -0.3371
  130MPD2    C3 2023   0.337   2.917   1.507 -0.2894  0.7909 -1.0080
  130MPD2    C4 2024   0.204   2.942   1.527 -0.2306 -0.1633  0.0569
  130MPD2    C5 2025   0.124   2.831   1.549  0.4066 -0.2230 -0.0669
  130MPD2     H 2026   0.488   2.768   1.532  1.5392  2.0919 -2.7532
  130MPD2    H1 2027   0.162   3.039   1.505 -0.9476 -0.5705 -0.3664
  130MPD2    H2 2028   0.105   2.619   1.600  1.1751 -0.9501 -1.0523
  130MPD2    H3 2029   0.017   2.847   1.559  0.1564 -1.8658 -0.1806
  130MPD2     N 2030   0.432   3.022   1.505 -0.5219 -0.8807  0.6087
  130MPD2    H5 2031   0.530   2.997   1.490  0.3761  1.8587  1.9855
  130MPD2    N1 2032   0.366   2.547   1.582  0.5538  0.3565  0.3135
  130MPD2    H7 2033   0.465   2.534   1.568  0.6174 -1.8586  2.9006
  131TMC2    C1 2034   4.520   2.282   9.791 -0.1443  0.8571 -0.3731
  131TMC2    C2 2035   4.453   2.398   9.819  0.1507 -0.3302 -0.7940
  131TMC2    C3 2036   4.510   2.512   9.783  0.7952 -0.5665 -0.0830
  131TMC2    C4 2037   4.621   2.287   9.706  0.0919 -0.9004 -0.4546
  131TMC2    C5 2038   4.673   2.408   9.651  0.2359 -0.4549  0.1762
  131TMC2    C6 2039   4.618   2.527   9.695 -0.3172 -0.2421 -0.8247
  131TMC2     C 2040   4.502   2.161   9.867 -0.0008 -0.6868  0.4659
  131TMC2     O 2041   4.607   2.098   9.898  0.3457 -0.0750 -0.0891
  131TMC2     H 2042   4.367   2.403   9.885  1.9412 -1.6306  1.6306
  131TMC2    H1 2043   4.658   2.191   9.672  1.3930 -0.2128 -0.9728
  131TMC2    H2 2044   4.654   2.620   9.654  0.2177  0.2845  0.8792
  131TMC2    C7 2045   0.086   2.406   9.637 -0.3800  0.0049 -0.4529
  131TMC2    C8 2046   4.457   2.636   9.840 -0.3383  0.7896 -0.1607
  131TMC2    O1 2047   0.132   2.295   9.611  0.0052 -0.3954 -0.6423
  131TMC2    O2 2048   4.476   2.745   9.793  0.2682  0.9093  0.1244
  131TMC2    O5 2049   4.474   2.611   9.971  0.2067 -0.1097 -0.4271
  131TMC2    H5 2050   4.505   2.524  10.001  0.8942  0.0224 -0.7627
  132MPD2     C 2051   4.193   1.993   9.949 -0.4458 -0.4225  0.3976
  132MPD2    C1 2052   4.322   2.026   9.968  0.2827  0.2771 -0.6856
  132MPD2    C2 2053   4.401   1.953  10.048  0.0347  0.5198  0.6121
  132MPD2    C3 2054   4.348   1.850  10.125  0.4621 -0.2521  0.4674
  132MPD2    C4 2055   4.212   1.827  10.127 -0.3655 -0.9490  0.3282
  132MPD2    C5 2056   4.141   1.892  10.026  0.0253 -0.5226  0.3170
  132MPD2     H 2057   4.507   1.972  10.049 -0.0749  1.1019  0.8755
  132MPD2    H1 2058   4.158   1.750  10.179  2.1260 -2.9882 -0.0910
  132MPD2    H2 2059   4.132   2.048   9.878  0.6514 -2.0111 -1.7914
  132MPD2    H3 2060   4.040   1.864   9.998 -0.0779 -1.6590  1.8225
  132MPD2     N 2061   4.438   1.778  10.209  0.0608 -0.4980  0.0214
  132MPD2    H5 2062   4.532   1.809  10.186 -0.0581  0.0021  0.2038
  132MPD2    N1 2063   4.370   2.136   9.891 -0.3913  0.5690  0.6692
  132MPD2    H7 2064   4.305   2.203   9.852 -0.0229 -0.3024 -1.4595
  133TMC2    C1 2065   4.080   4.148   9.444 -0.3847 -0.1308  0.3340
  133TMC2    C2 2066   4.133   4.254   9.508 -0.3552  0.5827 -0.1343
  133TMC2    C3 2067   4.040   4.343   9.552  0.8485 -0.0515 -0.2168
  133TMC2    C4 2068   3.950   4.142   9.395  0.0445 -0.0716 -0.2493
  133TMC2    C5 2069   3.862   4.243   9.430  0.7817 -0.2170  0.1317
  133TMC2    C6 2070   3.904   4.339   9.519  1.1147  0.7022  0.5771
  133TMC2     C 2071   4.167   4.048   9.381  0.5205  0.0425  0.4363
  133TMC2     O 2072   4.284   4.075   9.388 -0.3757 -0.5402  0.1475
  133TMC2     H 2073   4.237   4.261   9.536  0.0112  0.9204 -1.5907
  133TMC2    H1 2074   3.915   4.059   9.336  0.1563  0.1251 -0.5895
  133TMC2    H2 2075   3.840   4.412   9.566 -1.4352 -2.2071  1.6125
  133TMC2    C7 2076   3.723   4.235   9.378 -0.0726 -0.0071 -0.2074
  133TMC2    C8 2077   4.081   4.452   9.635 -0.3936 -0.3315 -0.6914
  133TMC2    O1 2078   3.687   4.119   9.350 -0.0169  0.3132 -0.3834
  133TMC2    O2 2079   4.036   4.565   9.622 -0.5042  0.0555 -0.4371
  133TMC2    O5 2080   4.182   4.416   9.720  0.0052 -0.1351  0.0275
  133TMC2    H5 2081   4.191   4.319   9.733 -2.4078 -0.3658  0.0367
  134MPD2     C 2082   4.310   3.800   9.288 -0.0343  0.1380  0.3953
  134MPD2    C1 2083   4.177   3.806   9.332 -0.4398  0.2353  0.2270
  134MPD2    C2 2084   4.108   3.687   9.354 -0.5705 -0.5152 -0.3401
  134MPD2    C3 2085   4.180   3.569   9.349  1.0339 -0.0345  0.2691
  134MPD2    C4 2086   4.317   3.571   9.330 -0.5260  0.3292  0.3467
  134MPD2    C5 2087   4.380   3.683   9.292 -0.4843  1.2755 -0.2823
  134MPD2     H 2088   4.002   3.694   9.373 -0.2759  0.9829  0.7588
  134MPD2    H1 2089   4.372   3.477   9.333  1.7758  1.6988  0.4716
  134MPD2    H2 2090   4.367   3.888   9.260 -1.0141  0.1625 -1.5236
  134MPD2    H3 2091   4.486   3.676   9.272 -0.3963 -1.8525  1.3076
  134MPD2     N 2092   4.120   3.440   9.369  0.1843  0.2620 -0.0583
  134MPD2    H5 2093   4.188   3.366   9.374  3.1439  2.8983 -0.9835
  134MPD2    N1 2094   4.105   3.928   9.357 -0.5799 -0.8795  0.4417
  134MPD2    H7 2095   4.013   3.910   9.396 -0.2062  0.5909  2.0279
  135TMC2    C1 2096   1.213   4.059   9.701 -0.0736 -0.5143 -0.4317
  135TMC2    C2 2097   1.177   3.947   9.643 -0.0620  0.0991 -0.1069
  135TMC2    C3 2098   1.126   3.847   9.721 -0.0482  0.1093 -1.0023
  135TMC2    C4 2099   1.189   4.091   9.834 -0.2556 -1.1646  0.4052
  135TMC2    C5 2100   1.146   3.984   9.908 -0.5365  0.0689  0.1515
  135TMC2    C6 2101   1.103   3.866   9.854  0.1679 -0.3175  0.1143
  135TMC2     C 2102   1.275   4.162   9.619 -0.8832 -0.3454 -0.2474
  135TMC2     O 2103   1.252   4.279   9.633  0.1462 -0.7780 -0.1661
  135TMC2     H 2104   1.176   3.941   9.535 -1.4180  0.9007 -0.1354
  135TMC2    H1 2105   1.240   4.172   9.883  2.2856 -2.9791  0.7842
  135TMC2    H2 2106   1.056   3.793   9.920  0.9315 -0.4011  0.5671
  135TMC2    C7 2107   1.147   4.009  10.047 -0.4721  0.6941  0.3929
  135TMC2    C8 2108   1.050   3.739   9.662  0.1435 -0.2952  0.1045
  135TMC2    O1 2109   1.162   4.127  10.083 -0.1390  0.0737  0.1391
  135TMC2    O2 2110   1.078   3.625   9.698 -0.4303  0.4394 -0.1885
  135TMC2    O5 2111   0.924   3.785   9.676 -0.3099 -0.2993 -0.2822
  135TMC2    H5 2112   0.925   3.879   9.650 -0.9195 -0.2640 -0.1650
  136MPD2     C 2113   1.448   4.281   9.391 -0.0969 -0.5462 -0.0594
  136MPD2    C1 2114   1.460   4.154   9.441  0.7206  0.3012  0.0752
  136MPD2    C2 2115   1.570   4.075   9.404  0.6629 -0.7166  0.5150
  136MPD2    C3 2116   1.666   4.129   9.316 -0.1887  0.7821 -0.1062
  136MPD2    C4 2117   1.649   4.253   9.258 -0.8454  0.6834  0.3971
  136MPD2    C5 2118   1.542   4.324   9.303 -0.1746 -0.4417 -0.2039
  136MPD2     H 2119   1.584   3.973   9.441  0.9630 -0.4319  1.1865
  136MPD2    H1 2120   1.706   4.297   9.178  2.2926 -1.5450  1.4024
  136MPD2    H2 2121   1.362   4.338   9.422 -1.2320 -1.7810 -0.9361
  136MPD2    H3 2122   1.537   4.429   9.281 -1.9697 -0.3378  0.6838
  136MPD2     N 2123   1.781   4.066   9.274 -0.2731 -0.2106 -0.6626
  136MPD2    H5 2124   1.838   4.103   9.199 -0.4921  2.6981  0.6347
  136MPD2    N1 2125   1.367   4.099   9.532 -0.0474  0.2159  0.0586
  136MPD2    H7 2126   1.368   3.997   9.532 -0.6543  0.2094  0.6720
  137TMC2    C1 2127   1.454   3.068   9.257  0.4144  1.0917  0.3663
  137TMC2    C2 2128   1.571   3.120   9.236  0.6396  0.3636  0.8099
  137TMC2    C3 2129   1.585   3.232   9.150  0.4355 -0.6238  0.5967
  137TMC2    C4 2130   1.341   3.128   9.220  0.6880 -0.3224 -0.8340
  137TMC2    C5 2131   1.347   3.249   9.153 -0.4198 -0.8593 -0.3977
  137TMC2    C6 2132   1.469   3.300   9.114 -0.0904  0.3670 -0.3844
  137TMC2     C 2133   1.448   2.951   9.353  0.5375  0.0539 -0.2597
  137TMC2     O 2134   1.534   2.938   9.439 -0.0690  0.3822  0.2614
  137TMC2     H 2135   1.655   3.061   9.271 -0.8970 -1.7903  0.8665
  137TMC2    H1 2136   1.247   3.087   9.255  0.1383  1.5272 -0.1485
  137TMC2    H2 2137   1.473   3.375   9.036 -1.2683 -2.1982 -2.9164
  137TMC2    C7 2138   1.250   3.354   9.193 -0.6656 -0.4454 -0.0759
  137TMC2    C8 2139   1.695   3.329   9.176 -0.2473 -0.2271  0.5103
  137TMC2    O1 2140   1.259   3.454   9.121  0.1505  0.0739  0.5656
  137TMC2    O2 2141   1.663   3.447   9.187  0.4294  0.3249  0.1352
  137TMC2    O5 2142   1.791   3.266   9.250  0.3102 -0.2241  0.0911
  137TMC2    H5 2143   1.813   3.177   9.216  0.1545 -1.0614  2.2309
  138MPD2     C 2144   1.246   2.642   9.336  0.0451 -0.3182  0.0061
  138MPD2    C1 2145   1.316   2.747   9.394 -0.1268 -0.4179  0.5007
  138MPD2    C2 2146   1.347   2.737   9.526  0.5442 -0.2605  0.1654
  138MPD2    C3 2147   1.308   2.622   9.607  0.4170 -0.5441 -0.3688
  138MPD2    C4 2148   1.252   2.519   9.543  0.4202  0.1502  0.0517
  138MPD2    C5 2149   1.216   2.526   9.412 -0.4359  0.2150  0.5701
  138MPD2     H 2150   1.387   2.824   9.576 -0.4423  0.0259  0.4485
  138MPD2    H1 2151   1.242   2.424   9.596  0.3984 -0.3268 -0.8149
  138MPD2    H2 2152   1.221   2.639   9.230  0.7822 -0.3690 -0.1677
  138MPD2    H3 2153   1.169   2.439   9.369 -0.5379  0.3453  0.4200
  138MPD2     N 2154   1.331   2.632   9.749  0.3955  0.1100 -0.2843
  138MPD2    H5 2155   1.383   2.713   9.778  2.0286 -1.5659  1.4804
  138MPD2    N1 2156   1.352   2.857   9.314  0.1219  0.0623  0.0011
  138MPD2    H7 2157   1.305   2.863   9.224 -1.3743 -0.0214  0.7739
  139TMC2    C1 2158   1.801   0.831  13.506  0.3247  0.4526  0.1836
  139TMC2    C2 2159   1.832   0.910  13.394 -0.4639 -0.3646  0.2224
  139TMC2    C3 2160   1.755   1.019  13.365 -0.3910 -0.0499 -0.5322
  139TMC2    C4 2161   1.690   0.863  13.578  0.0981  0.7042  0.3049
  139TMC2    C5 2162   1.624   0.979  13.549  0.5144  0.1629 -0.1208
  139TMC2    C6 2163   1.649   1.057  13.444  0.1375  0.2446  0.0456
  139TMC2     C 2164   1.882   0.710  13.518  0.5474  0.0161  0.8613
  139TMC2     O 2165   1.953   0.689  13.424 -0.3022 -0.3495 -0.3300
  139TMC2     H 2166   1.918   0.893  13.330  0.1700 -0.9223  1.2142
  139TMC2    H1 2167   1.678   0.823  13.679 -1.0201 -2.4236 -1.0553
  139TMC2    H2 2168   1.593   1.150  13.446 -2.8642 -1.5687 -0.3708
  139TMC2    C7 2169   1.519   1.014  13.637  0.2540  0.4524 -0.4288
  139TMC2    C8 2170   1.755   1.068  13.229  0.3716 -0.4171 -0.1335
  139TMC2    O1 2171   1.511   1.136  13.663 -0.6874  0.3118 -0.1031
  139TMC2    O2 2172   1.764   1.001  13.127 -0.3029 -0.2673 -0.0306
  139TMC2    O5 2173   1.724   1.194  13.237  0.0164 -0.7215 -0.0894
  139TMC2    H5 2174   1.767   1.242  13.310  0.6832  0.5540 -1.3275
  140MPD2     C 2175   1.952   0.490  13.806 -0.4969 -0.3172  1.1726
  140MPD2    C1 2176   1.952   0.529  13.676 -0.3564  0.6600  0.2006
  140MPD2    C2 2177   2.030   0.454  13.590  0.0379 -0.2041  0.3628
  140MPD2    C3 2178   2.101   0.343  13.636  0.8592  0.3627 -0.1291
  140MPD2    C4 2179   2.101   0.321  13.769 -0.3978  0.2075 -0.4538
  140MPD2    C5 2180   2.030   0.397  13.853  0.5138  0.3035  0.6097
  140MPD2     H 2181   2.035   0.479  13.485  2.8610  0.4433  0.6582
  140MPD2    H1 2182   2.164   0.248  13.820 -1.0567  0.1895  0.3448
  140MPD2    H2 2183   1.891   0.547  13.876 -0.0295  1.6915 -0.0478
  140MPD2    H3 2184   2.032   0.367  13.957 -0.1125 -0.1252  0.4967
  140MPD2     N 2185   2.157   0.250  13.548 -0.1392 -0.3976  0.4084
  140MPD2    H5 2186   2.152   0.271  13.448  0.6122  1.5925  0.7788
  140MPD2    N1 2187   1.884   0.643  13.641 -0.2981  0.2028 -0.3230
  140MPD2    H7 2188   1.831   0.680  13.719  1.3730  0.1272  0.8483
  141TMC2    C1 2189   2.265   2.328  13.924  0.2652 -0.2071 -0.1559
  141TMC2    C2 2190   2.335   2.247  14.010 -0.0798 -0.0989  0.2353
  141TMC2    C3 2191   2.358   2.299  14.131  0.7733  0.0942 -0.0727
  141TMC2    C4 2192   2.236   2.454  13.962  0.1726 -1.0981 -0.0594
  141TMC2    C5 2193   2.271   2.500  14.084  0.1627  0.0947  0.3012
  141TMC2    C6 2194   2.333   2.425  14.178 -0.1267 -0.7928 -0.7732
  141TMC2     C 2195   2.301   2.317  13.786  0.1906  0.4815 -0.3659
  141TMC2     O 2196   2.265   2.403  13.709  0.2537  0.0469  0.2732
  141TMC2     H 2197   2.371   2.148  13.983  0.9000  0.2193  0.3805
  141TMC2    H1 2198   2.186   2.517  13.889  0.0457  1.2793  2.0965
  141TMC2    H2 2199   2.368   2.470  14.271  0.5176 -1.7176 -0.5719
  141TMC2    C7 2200   2.224   2.632  14.117 -0.4555  0.0166  0.2212
  141TMC2    C8 2201   2.415   2.215  14.234  0.2500 -0.0573  0.4816
  141TMC2    O1 2202   2.146   2.681  14.032 -0.0393 -0.0663  0.1800
  141TMC2    O2 2203   2.382   2.225  14.351  0.6076  0.0009 -0.0700
  141TMC2    O5 2204   2.531   2.164  14.186  0.3912 -0.1395  0.0120
  141TMC2    H5 2205   2.552   2.191  14.094 -2.8852 -0.7685 -0.9139
  142TMC2    C1 2206   4.656   0.881   9.685  0.6114 -0.1546 -0.7154
  142TMC2    C2 2207   4.626   0.851   9.550 -0.2557 -0.3413 -0.3332
  142TMC2    C3 2208   4.730   0.844   9.467  0.0961 -0.3889  0.3350
  142TMC2    C4 2209   0.047   0.880   9.734 -0.7136  0.6988  0.1165
  142TMC2    C5 2210   0.149   0.869   9.644  0.7959 -0.0052 -0.5798
  142TMC2    C6 2211   0.124   0.854   9.511 -0.2547  0.4579 -0.2859
  142TMC2     C 2212   4.556   0.841   9.792 -0.9579 -0.6399  0.3675
  142TMC2     O 2213   4.600   0.805   9.902 -0.0180  0.5250  0.2344
  142TMC2     H 2214   4.525   0.867   9.514  0.7314  0.1398 -2.8736
  142TMC2    H1 2215   0.074   0.883   9.839 -0.8371  0.0201  0.1705
  142TMC2    H2 2216   0.200   0.842   9.434 -1.4728  0.3522 -1.4741
  142TMC2    C7 2217   0.282   0.876   9.696 -0.3166  0.5727  0.0100
  142TMC2    C8 2218   4.706   0.832   9.329  0.3141 -0.8188  0.1486
  142TMC2    O1 2219   0.299   0.910   9.812  0.4211 -0.1834 -0.0539
  142TMC2    O2 2220   0.038   0.900   9.255  0.3904  0.0946  0.4939
  142TMC2    O5 2221   4.606   0.750   9.305 -0.0177  0.2419 -0.3273
  142TMC2    H5 2222   4.573   0.702   9.384 -0.7067  2.1896  0.5754
  143MPD2     C 2223   4.090   0.727   9.957 -0.2333 -0.5602 -0.5284
  143MPD2    C1 2224   4.212   0.663   9.977  0.1040 -0.7210 -0.0308
  143MPD2    C2 2225   4.328   0.700   9.914 -0.5314 -1.1136 -0.4187
  143MPD2    C3 2226   4.316   0.803   9.822 -0.1414 -0.4579  0.0439
  143MPD2    C4 2227   4.196   0.861   9.797 -0.7079 -0.1779  0.7265
  143MPD2    C5 2228   4.082   0.822   9.857  0.1558 -0.7978 -0.6728
  143MPD2     H 2229   4.425   0.656   9.931 -0.6297 -0.5576  1.6175
  143MPD2    H1 2230   4.186   0.922   9.708 -0.1143 -0.6451  0.3459
  143MPD2    H2 2231   4.000   0.695  10.008 -0.5350  3.3121  1.3856
  143MPD2    H3 2232   3.984   0.860   9.831  0.1190 -0.6983 -0.3781
  143MPD2     N 2233   4.426   0.856   9.752 -0.0959  0.1114 -0.4125
  143MPD2    H5 2234   4.402   0.918   9.675  1.4052 -0.2789 -1.1837
  143MPD2    N1 2235   4.210   0.557  10.067  0.4547 -0.1207 -0.6339
  143MPD2    H7 2236   4.119   0.534  10.105  0.9409 -0.2457  0.4319
  144TMC2    C1 2237   2.660   0.024   0.732  0.2833  0.1136  0.2319
  144TMC2    C2 2238   2.718   4.733   0.610 -0.2341 -0.0571 -0.6981
  144TMC2    C3 2239   2.836   0.059   0.586 -0.7585  0.2619  0.5658
  144TMC2    C4 2240   2.712   0.119   0.821 -0.0058 -0.4057 -0.3705
  144TMC2    C5 2241   2.839   0.173   0.787  0.3653  0.1863 -1.0345
  144TMC2    C6 2242   2.901   0.141   0.672  0.1794 -0.0740  0.6548
  144TMC2     C 2243   2.522   4.719   0.740 -0.5612  0.6797 -0.0667
  144TMC2     O 2244   2.490   4.633   0.661  0.2390 -0.0448 -0.2947
  144TMC2     H 2245   2.661   4.671   0.541 -2.2808  1.8595 -0.7380
  144TMC2    H1 2246   2.682   0.131   0.925 -1.0347  2.8316 -1.0288
  144TMC2    H2 2247   3.001   0.178   0.653 -0.2570  0.7978  0.0441
  144TMC2    C7 2248   2.917   0.251   0.888  0.1423  0.1994 -0.2436
  144TMC2    C8 2249   2.907   0.015   0.463  0.0765 -0.0451 -0.4340
  144TMC2    O1 2250   3.033   0.265   0.875  0.2401  0.2450  0.7067
  144TMC2    O2 2251   2.858   4.661   0.400  0.2773  0.3445  0.1150
  144TMC2    O5 2252   3.016   0.089   0.428 -0.1029 -0.1681  0.5250
  144TMC2    H5 2253   3.013   0.180   0.466  4.3565 -0.3499  1.3346
  145MPD2     C 2254   2.041   0.130   0.872  0.1195 -0.1656  0.0928
  145MPD2    C1 2255   2.087   0.041   0.778  0.8267 -0.0237  0.7654
  145MPD2    C2 2256   2.218   0.009   0.775  0.3534 -0.3210  0.6247
  145MPD2    C3 2257   2.312   0.073   0.848 -0.9801 -0.2608 -0.6258
  145MPD2    C4 2258   2.270   0.164   0.940 -0.2921 -0.9143 -0.9774
  145MPD2    C5 2259   2.135   0.186   0.954 -0.1089 -0.4298 -0.5412
  145MPD2     H 2260   2.243   4.660   0.711 -1.3920 -0.9573  0.7573
  145MPD2    H1 2261   2.333   0.214   1.013 -3.2433  2.7225 -0.8879
  145MPD2    H2 2262   1.936   0.139   0.899  0.9967  1.1240  2.9553
  145MPD2    H3 2263   2.099   0.257   1.028  1.0134 -0.2658 -0.1539
  145MPD2     N 2264   2.451   0.054   0.836 -0.0378  0.1080 -0.1730
  145MPD2    H5 2265   2.504   0.119   0.893 -0.2152 -0.2638  0.4084
  145MPD2    N1 2266   2.000   4.710   0.683 -0.2289 -0.4748 -0.5687
  145MPD2    H7 2267   2.041   4.640   0.622 -0.4782 -0.1988 -1.0543
  146TMC2    C1 2268   3.725   3.861  12.315  0.4551  0.7010 -0.1739
  146TMC2    C2 2269   3.657   3.866  12.194 -0.3958  0.5212 -0.0672
  146TMC2    C3 2270   3.736   3.827  12.085  0.2244 -0.7174  0.4125
  146TMC2    C4 2271   3.866   3.841  12.336 -0.0553  0.3834  0.9360
  146TMC2    C5 2272   3.934   3.808  12.217  0.4295  0.2378  0.4443
  146TMC2    C6 2273   3.868   3.795  12.100 -0.2319 -0.6117  0.7837
  146TMC2     C 2274   3.648   3.915  12.423 -0.5985  0.2131  0.2512
  146TMC2     O 2275   3.564   4.001  12.402  0.4608 -0.3189 -0.3542
  146TMC2     H 2276   3.561   3.914  12.183 -0.7374 -0.2050 -0.2734
  146TMC2    H1 2277   3.903   3.850  12.437 -1.2766  2.9901  1.1679
  146TMC2    H2 2278   3.918   3.781  12.005  0.1790  1.4777  0.6750
  146TMC2    C7 2279   4.069   3.751  12.220 -0.5027  0.7133  0.4328
  146TMC2    C8 2280   3.681   3.831  11.954  0.2820 -0.0859 -0.1637
  146TMC2    O1 2281   4.129   3.724  12.118 -0.4052  0.3817  0.0155
  146TMC2    O2 2282   3.728   3.873  11.850  0.0528  0.0258  0.5755
  146TMC2    O5 2283   3.550   3.806  11.979  0.3952 -0.1713 -0.8185
  146TMC2    H5 2284   3.532   3.759  12.064  0.8133 -0.7646 -1.0592
  147MPD2     C 2285   4.417   3.482  12.474  1.1132  0.5822  0.6424
  147MPD2    C1 2286   4.320   3.510  12.564 -0.2929 -0.0133  0.6751
  147MPD2    C2 2287   4.213   3.588  12.520 -0.3529  0.5785  0.1043
  147MPD2    C3 2288   4.207   3.632  12.388  0.4328  0.3635 -0.5364
  147MPD2    C4 2289   4.310   3.595  12.301  0.0328  0.3837 -0.0749
  147MPD2    C5 2290   4.418   3.524  12.349 -0.1058  0.1050 -0.2651
  147MPD2     H 2291   4.140   3.628  12.590 -1.7904  1.1729 -1.7178
  147MPD2    H1 2292   4.321   3.631  12.200 -0.2950  0.5352 -0.0595
  147MPD2    H2 2293   4.500   3.415  12.496  1.6222  1.1041  0.3253
  147MPD2    H3 2294   4.499   3.489  12.286  0.1599 -2.6608  1.6164
  147MPD2     N 2295   4.093   3.711  12.349  0.2487 -0.3702 -0.4080
  147MPD2    H5 2296   4.021   3.726  12.418  1.7651 -2.5309  1.6497
  147MPD2    N1 2297   4.340   3.448  12.689  0.6082  0.5663  0.4591
  147MPD2    H7 2298   4.412   3.377  12.686 -2.1004 -2.1142 -0.9432
  148TMC2    C1 2299   4.265   2.895  10.636  0.3520 -0.1844 -0.5799
  148TMC2    C2 2300   4.304   2.978  10.734  0.0518 -0.3692 -0.4372
  148TMC2    C3 2301   4.377   2.920  10.843  0.1276  0.6341 -0.1973
  148TMC2    C4 2302   4.279   2.758  10.644  0.3878 -0.8209  0.0622
  148TMC2    C5 2303   4.358   2.712  10.748 -0.5419  0.5393  0.4416
  148TMC2    C6 2304   4.412   2.791  10.845  0.3143  0.2310  0.6021
  148TMC2     C 2305   4.213   2.951  10.515  0.7084  0.2140 -0.6193
  148TMC2     O 2306   4.221   3.071  10.502 -0.4680 -0.5734 -0.1635
  148TMC2     H 2307   4.305   3.086  10.729  2.6501 -0.4595 -1.6137
  148TMC2    H1 2308   4.246   2.681  10.576  2.5961 -0.4061 -1.4864
  148TMC2    H2 2309   4.478   2.749  10.920 -0.3788 -0.2649  0.9353
  148TMC2    C7 2310   4.384   2.568  10.749 -0.2346 -0.6187  0.9866
  148TMC2    C8 2311   4.388   3.004  10.958  0.0033 -0.5276  0.3526
  148TMC2    O1 2312   4.378   2.521  10.638 -0.8169 -0.2124 -0.2156
  148TMC2    O2 2313   4.330   3.110  10.985 -0.4438  0.0548  0.3332
  148TMC2    O5 2314   4.506   2.974  11.009  0.8116 -0.2965 -0.0775
  148TMC2    H5 2315   4.561   2.914  10.955  0.0313  1.0182 -2.3215
  149MPD2     C 2316   4.082   2.997  10.257  0.4486 -0.4212  0.3148
  149MPD2    C1 2317   4.071   2.880  10.333  0.2753 -0.0942 -0.4816
  149MPD2    C2 2318   3.973   2.792  10.294  0.2468  0.0955 -0.5910
  149MPD2    C3 2319   3.887   2.820  10.189 -0.6652 -0.1678  0.4052
  149MPD2    C4 2320   3.910   2.923  10.103 -0.9439 -0.4654 -0.0909
  149MPD2    C5 2321   3.999   3.022  10.145  0.6822 -0.1070  0.0241
  149MPD2     H 2322   3.967   2.707  10.361 -0.8154 -0.0874 -0.9152
  149MPD2    H1 2323   3.846   2.938  10.016  2.1561 -0.0230 -2.2969
  149MPD2    H2 2324   4.156   3.073  10.278 -0.9951  1.5323 -1.7017
  149MPD2    H3 2325   4.008   3.116  10.091  1.6803 -0.8662 -1.1301
  149MPD2     N 2326   3.784   2.732  10.150  0.4895  0.2340 -0.3156
  149MPD2    H5 2327   3.741   2.757  10.062 -0.7161 -3.9041 -0.8946
  149MPD2    N1 2328   4.143   2.859  10.447 -0.3414 -0.1103  0.2365
  149MPD2    H7 2329   4.131   2.771  10.496  2.7441  0.1996  1.5312
  150TMC2    C1 2330   1.071   1.557  12.334 -0.8693  0.7924 -0.1099
  150TMC2    C2 2331   1.105   1.460  12.244  0.3394 -0.0345 -0.2376
  150TMC2    C3 2332   1.239   1.426  12.237 -0.1727 -0.2162 -0.9514
  150TMC2    C4 2333   1.163   1.617  12.411 -0.4394  0.4819  0.7585
  150TMC2    C5 2334   1.297   1.576  12.410  0.3827 -0.3770 -0.4416
  150TMC2    C6 2335   1.337   1.481  12.319  0.2964  0.0461 -0.0676
  150TMC2     C 2336   0.941   1.618  12.348 -0.3626  0.3302 -0.3780
  150TMC2     O 2337   0.904   1.649  12.454 -0.0464 -0.0341  0.0044
  150TMC2     H 2338   1.033   1.400  12.190  1.7925 -0.7020 -1.4553
  150TMC2    H1 2339   1.128   1.707  12.460  0.0295  0.1622  1.6869
  150TMC2    H2 2340   1.440   1.448  12.318  0.3121  0.1100 -0.4442
  150TMC2    C7 2341   1.407   1.665  12.460  0.2874 -0.4604 -0.3004
  150TMC2    C8 2342   1.281   1.320  12.146 -0.1788  0.3649  0.9126
  150TMC2    O1 2343   1.378   1.783  12.482 -0.0053 -0.1622  0.0074
  150TMC2    O2 2344   1.393   1.280  12.162  0.0904  0.0545 -0.3742
  150TMC2    O5 2345   1.216   1.347  12.031  0.4189  0.3993 -0.5654
  150TMC2    H5 2346   1.154   1.420  12.053  1.0782  1.5215 -2.4177
  151MPD2     C 2347   0.463   1.608  12.150 -0.1949 -0.1269  1.0587
  151MPD2    C1 2348   0.557   1.590  12.044 -0.4553 -0.0881 -0.2737
  151MPD2    C2 2349   0.694   1.609  12.068  0.5810 -0.5807  0.2102
  151MPD2    C3 2350   0.742   1.619  12.197 -0.0741  0.1052  0.1467
  151MPD2    C4 2351   0.654   1.642  12.300 -0.4825  0.6263  0.8861
  151MPD2    C5 2352   0.517   1.634  12.276  0.5788  0.2873  0.0799
  151MPD2     H 2353   0.760   1.596  11.984 -0.4467  0.7442 -0.8027
  151MPD2    H1 2354   0.679   1.649  12.406  0.9311  1.2092  0.5114
  151MPD2    H2 2355   0.356   1.616  12.136 -0.4972  1.2597  4.2498
  151MPD2    H3 2356   0.469   1.652  12.372 -0.0203  1.0957 -0.3610
  151MPD2     N 2357   0.880   1.598  12.228  0.8163  0.2521  0.1021
  151MPD2    H5 2358   0.946   1.589  12.150  1.9826 -0.8590  1.2310
  151MPD2    N1 2359   0.519   1.570  11.903  0.6618 -0.0055 -0.0730
  151MPD2    H7 2360   0.591   1.565  11.831  0.8399  1.7857 -0.0247
  152TMC2    C1 2361   1.117   1.325  12.786 -0.5080 -0.1637  0.1928
  152TMC2    C2 2362   1.172   1.204  12.751  0.8865  1.1839 -0.4455
  152TMC2    C3 2363   1.306   1.180  12.751  0.5153  0.1236  0.0450
  152TMC2    C4 2364   1.202   1.428  12.821 -0.6597 -0.0111 -0.8667
  152TMC2    C5 2365   1.339   1.401  12.823 -0.3267 -0.4415  0.4250
  152TMC2    C6 2366   1.396   1.284  12.782  0.3697 -0.1026  0.1406
  152TMC2     C 2367   0.976   1.328  12.819 -0.1671  0.1273  0.2812
  152TMC2     O 2368   0.918   1.436  12.821  0.4278 -0.0137 -0.4569
  152TMC2     H 2369   1.111   1.118  12.728  0.8115  1.3696 -0.9382
  152TMC2    H1 2370   1.158   1.520  12.860  3.3038  1.3215  0.4281
  152TMC2    H2 2371   1.503   1.266  12.772  0.5238  1.4865 -0.9052
  152TMC2    C7 2372   1.423   1.506  12.862  0.3609 -0.1531 -0.0519
  152TMC2    C8 2373   1.374   1.068  12.687  0.9088 -0.9940  0.5384
  152TMC2    O1 2374   1.366   1.616  12.861 -0.6442  0.2618  0.7100
  152TMC2    O2 2375   1.474   1.092  12.616  0.0396 -0.5367  0.2217
  152TMC2    O5 2376   1.364   0.967  12.771  0.7940  0.2114  0.0737
  152TMC2    H5 2377   1.283   0.953  12.825 -0.5474 -0.9908 -2.2622
  153MPD2     C 2378   0.790   1.043  12.955  0.5915  0.1466 -0.6262
  153MPD2    C1 2379   0.804   1.174  12.903 -0.0859  0.4962 -0.1111
  153MPD2    C2 2380   0.695   1.252  12.885 -0.2588 -0.0037 -0.1680
  153MPD2    C3 2381   0.572   1.201  12.931  0.4371  0.4323 -0.1474
  153MPD2    C4 2382   0.560   1.070  12.971  0.4462 -0.0102  0.9800
  153MPD2    C5 2383   0.668   0.993  12.990  0.6311 -0.5143  0.3755
  153MPD2     H 2384   0.700   1.357  12.856 -0.6404  0.1233  0.2232
  153MPD2    H1 2385   0.467   1.020  12.996  0.5709 -1.1835 -0.9160
  153MPD2    H2 2386   0.879   0.986  12.977  1.8861  2.1534 -0.7011
  153MPD2    H3 2387   0.666   0.890  13.025 -2.9461  0.8728  4.3066
  153MPD2     N 2388   0.456   1.285  12.914 -0.2765 -0.0208 -0.2612
  153MPD2    H5 2389   0.476   1.376  12.874  0.6980  0.1834  0.6997
  153MPD2    N1 2390   0.936   1.214  12.868 -0.0148 -0.6315  0.1992
  153MPD2    H7 2391   1.004   1.142  12.887 -0.8551 -1.1805  1.1329
  154TMC2    C1 2392   2.518   1.138   1.083  0.4468  0.1693 -0.0543
  154TMC2    C2 2393   2.615   1.043   1.128 -0.0896  0.4483 -0.3347
  154TMC2    C3 2394   2.605   0.911   1.087 -0.3166 -0.5689  0.3148
  154TMC2    C4 2395   2.416   1.093   1.006  0.1205  0.0918 -0.2577
  154TMC2    C5 2396   2.410   0.966   0.956 -0.0153  0.0308 -0.0576
  154TMC2    C6 2397   2.511   0.875   0.987  0.0328 -0.3116 -0.2141
  154TMC2     C 2398   2.543   1.285   1.111  0.7324 -0.2933 -0.1472
  154TMC2     O 2399   2.632   1.315   1.190  0.1049 -0.4317  0.0356
  154TMC2     H 2400   2.703   1.065   1.188 -0.1901 -2.4867  0.8917
  154TMC2    H1 2401   2.337   1.164   0.986 -0.1335 -0.2737 -0.5368
  154TMC2    H2 2402   2.512   0.777   0.939 -0.8031 -1.2889  1.7583
  154TMC2    C7 2403   2.304   0.933   0.866 -0.2848  0.5793  0.4657
  154TMC2    C8 2404   2.720   0.823   1.104  0.1276 -0.1932 -0.0410
  154TMC2    O1 2405   2.251   1.028   0.809  0.1819 -0.4051 -0.0333
  154TMC2    O2 2406   2.753   0.756   1.008  0.0658  0.4432 -0.1995
  154TMC2    O5 2407   2.803   0.865   1.201 -0.0084 -0.2689 -0.5024
  154TMC2    H5 2408   2.751   0.898   1.277 -2.4723 -1.2562 -1.7650
  155MPD2     C 2409   2.447   1.588   0.927 -0.0664  0.3856 -0.6716
  155MPD2    C1 2410   2.490   1.510   1.036 -0.2444 -0.4828 -1.1622
  155MPD2    C2 2411   2.552   1.582   1.135  1.0461  0.1468 -0.1560
  155MPD2    C3 2412   2.574   1.722   1.134 -0.0838  0.0221  0.4546
  155MPD2    C4 2413   2.542   1.790   1.019  0.1587  0.3429  0.2874
  155MPD2    C5 2414   2.481   1.722   0.916  0.4548 -0.0991  0.1158
  155MPD2     H 2415   2.604   1.529   1.214 -3.7475 -2.5572  1.1401
  155MPD2    H1 2416   2.553   1.897   1.000  1.5356  0.1509 -0.0146
  155MPD2    H2 2417   2.392   1.541   0.847  1.0003  1.8771 -2.2712
  155MPD2    H3 2418   2.457   1.778   0.826 -0.5509 -0.6672  0.0300
  155MPD2     N 2419   2.638   1.784   1.248 -0.1553  0.6762 -0.2264
  155MPD2    H5 2420   2.665   1.722   1.323  1.9360  1.3162 -0.4586
  155MPD2    N1 2421   2.477   1.368   1.028  0.4660  0.9435 -0.5463
  155MPD2    H7 2422   2.415   1.332   0.956  1.2884 -1.9637  0.2070
  156TMC2    C1 2423   1.834   4.092  11.365 -0.0018 -0.2065 -0.0830
  156TMC2    C2 2424   1.847   3.998  11.268  0.1799 -0.9209 -0.9945
  156TMC2    C3 2425   1.809   4.035  11.142 -0.3598 -0.6068  0.3663
  156TMC2    C4 2426   1.807   4.219  11.332  0.0306  0.2649 -0.3040
  156TMC2    C5 2427   1.782   4.260  11.208  0.1610 -0.2221 -0.0793
  156TMC2    C6 2428   1.782   4.163  11.107 -0.9869 -0.1832 -0.3871
  156TMC2     C 2429   1.751   4.061  11.473  0.1739 -0.2361 -0.3255
  156TMC2     O 2430   1.665   4.143  11.515  0.4543  0.6987  0.1734
  156TMC2     H 2431   1.853   3.891  11.285  1.7468 -0.8643 -1.2223
  156TMC2    H1 2432   1.789   4.298  11.404 -0.3044 -0.8111  0.7971
  156TMC2    H2 2433   1.761   4.193  11.005  0.6642  0.3990 -0.5574
  156TMC2    C7 2434   1.678   4.364  11.199 -0.1192 -0.4236 -0.7119
  156TMC2    C8 2435   1.771   3.940  11.042  0.1113 -0.3137 -0.2770
  156TMC2    O1 2436   1.696   4.472  11.247 -0.9074  0.5240  0.3127
  156TMC2    O2 2437   1.686   3.964  10.962  0.0265  0.4383 -0.0432
  156TMC2    O5 2438   1.822   3.822  11.054  0.4549  0.3432 -0.3576
  156TMC2    H5 2439   1.913   3.818  11.091  1.1006 -1.4273 -2.0833
  157MPD2     C 2440   1.749   3.783  11.709  0.5519 -0.3445 -0.2512
  157MPD2    C1 2441   1.701   3.880  11.631 -0.1937 -0.0724 -0.1116
  157MPD2    C2 2442   1.568   3.916  11.653 -0.0600 -0.3014  0.1057
  157MPD2    C3 2443   1.490   3.857  11.746 -1.5014  0.2621 -0.4012
  157MPD2    C4 2444   1.545   3.764  11.832 -0.3425 -0.1962 -0.0147
  157MPD2    C5 2445   1.676   3.726  11.812  1.0867 -0.5576 -0.7565
  157MPD2     H 2446   1.520   3.974  11.574 -2.3119 -0.2004  1.5452
  157MPD2    H1 2447   1.488   3.708  11.905  0.4361  0.3199  0.9957
  157MPD2    H2 2448   1.845   3.739  11.684  1.7222  1.6589  0.7122
  157MPD2    H3 2449   1.707   3.637  11.865 -0.3781  1.1047  2.9650
  157MPD2     N 2450   1.352   3.892  11.758 -0.2856  0.6282 -0.0133
  157MPD2    H5 2451   1.326   3.986  11.731 -0.7861  0.7960  1.0357
  157MPD2    N1 2452   1.778   3.941  11.528  0.2574 -0.3287  0.4811
  157MPD2    H7 2453   1.870   3.901  11.515  0.7463  1.7956 -2.4738
  158TMC2    C1 2454   1.983   2.066  13.878  0.8608 -0.1866  0.2928
  158TMC2    C2 2455   2.020   2.088  13.744  0.3829  0.2843 -0.0146
  158TMC2    C3 2456   1.937   2.150  13.661 -0.3516  0.1885  0.1660
  158TMC2    C4 2457   1.866   2.117  13.926 -0.0180 -0.6316 -0.4908
  158TMC2    C5 2458   1.780   2.179  13.838 -0.6985  0.4158  0.1834
  158TMC2    C6 2459   1.816   2.191  13.707  0.9366 -0.0700 -0.4268
  158TMC2     C 2460   2.075   2.015  13.976 -0.4522  0.3488 -0.2832
  158TMC2     O 2461   2.190   2.013  13.934  0.4033  0.3985 -0.5891
  158TMC2     H 2462   2.119   2.054  13.717  0.1275 -1.2287  0.9387
  158TMC2    H1 2463   1.842   2.119  14.031  0.8235 -0.7261 -0.2945
  158TMC2    H2 2464   1.749   2.226  13.630  0.9826 -2.0374 -1.3591
  158TMC2    C7 2465   1.642   2.200  13.869 -0.1325 -0.2979  0.5368
  158TMC2    C8 2466   1.955   2.149  13.515  0.2245  0.2382  0.8781
  158TMC2    O1 2467   1.589   2.298  13.816  0.4380  0.2194 -0.0215
  158TMC2    O2 2468   1.893   2.210  13.429 -0.4879  0.0706  0.2721
  158TMC2    O5 2469   2.057   2.074  13.489 -0.5536  0.1834  0.2392
  158TMC2    H5 2470   2.074   2.016  13.566  0.5844 -1.8226 -1.5529
  159MPD2     C 2471   2.200   1.734  14.397  0.0912 -0.5927 -0.3993
  159MPD2    C1 2472   2.067   1.721  14.378  0.1131 -0.7791 -0.3759
  159MPD2    C2 2473   2.011   1.787  14.268  0.6334  0.4884  0.4640
  159MPD2    C3 2474   2.085   1.873  14.183  0.5229 -0.2967 -0.0165
  159MPD2    C4 2475   2.218   1.878  14.203 -0.2964  0.0644 -0.3800
  159MPD2    C5 2476   2.275   1.819  14.315 -0.1874  0.4855 -0.1511
  159MPD2     H 2477   1.906   1.779  14.242  0.3299 -1.0698  2.0843
  159MPD2    H1 2478   2.283   1.933  14.137  0.1721 -0.5020 -0.3884
  159MPD2    H2 2479   2.238   1.683  14.485 -0.1044  0.9778  0.5837
  159MPD2    H3 2480   2.381   1.833  14.330  0.0429 -0.9494 -0.4328
  159MPD2     N 2481   2.015   1.938  14.075  0.1059  0.5795 -0.1866
  159MPD2    H5 2482   1.915   1.921  14.069  0.4167 -1.9336  1.6917
  159MPD2    N1 2483   2.000   1.638  14.472 -0.1645 -0.4689 -1.0173
  159MPD2    H7 2484   2.056   1.590  14.541 -0.2584 -0.2930 -0.8177
  160TMC2    C1 2485   1.282   0.192   1.374 -0.2181 -0.3557  0.3883
  160TMC2    C2 2486   1.376   0.189   1.467 -0.2518 -0.3230  0.0144
  160TMC2    C3 2487   1.479   0.271   1.441  0.1697  0.7945  0.9215
  160TMC2    C4 2488   1.276   0.264   1.259 -0.2620 -0.2001  0.2491
  160TMC2    C5 2489   1.387   0.346   1.240 -0.0534  0.2574  0.4026
  160TMC2    C6 2490   1.484   0.359   1.333  0.2210 -0.3413  0.1468
  160TMC2     C 2491   1.163   0.116   1.404 -1.1851 -0.0593 -0.1451
  160TMC2     O 2492   1.167   0.021   1.484 -0.2375  0.1490  0.6887
  160TMC2     H 2493   1.371   0.124   1.554 -0.3698 -1.8425 -1.1243
  160TMC2    H1 2494   1.206   0.242   1.179  0.9182 -0.2676 -0.7593
  160TMC2    H2 2495   1.566   0.426   1.313 -0.0091  0.1890  0.9847
  160TMC2    C7 2496   1.384   0.448   1.135  0.4845 -0.3783 -0.0028
  160TMC2    C8 2497   1.574   0.273   1.547  0.1049  0.0699  0.1021
  160TMC2    O1 2498   1.300   0.427   1.047  0.5155 -0.4294 -0.3918
  160TMC2    O2 2499   1.595   0.172   1.612 -0.2529 -0.1953  0.5237
  160TMC2    O5 2500   1.630   0.396   1.554 -0.4683 -0.4517  0.0754
  160TMC2    H5 2501   1.573   0.469   1.520  2.1263  0.9205 -1.3191
  161MPD2     C 2502   0.875   0.025   1.444  0.1183  0.5214  0.3120
  161MPD2    C1 2503   0.912   0.143   1.383  1.0236  0.2373  0.2135
  161MPD2    C2 2504   0.814   0.241   1.354  0.4785 -0.0140  0.7645
  161MPD2    C3 2505   0.684   0.222   1.380 -0.0033 -1.0551 -0.0322
  161MPD2    C4 2506   0.651   0.103   1.451 -0.2412 -0.1821 -0.0276
  161MPD2    C5 2507   0.743   0.003   1.481  0.2660 -0.0660  0.5811
  161MPD2     H 2508   0.852   0.331   1.307  1.8277 -0.5124  0.8978
  161MPD2    H1 2509   0.546   0.090   1.473 -0.0791  0.1110  0.9451
  161MPD2    H2 2510   0.948   4.682   1.466  0.7845  1.0401 -0.0590
  161MPD2    H3 2511   0.711   4.648   1.533 -2.1509  2.0230  2.6778
  161MPD2     N 2512   0.577   0.308   1.343 -0.2646 -0.0930  0.7138
  161MPD2    H5 2513   0.481   0.273   1.340 -0.2940 -0.1396  2.1526
  161MPD2    N1 2514   1.044   0.176   1.359 -0.0661 -0.1311  0.2189
  161MPD2    H7 2515   1.058   0.259   1.302 -0.9168  0.5147  0.9385
  162TMC2    C1 2516   3.808   2.112   1.644 -0.4396  0.8002  0.4895
  162TMC2    C2 2517   3.672   2.116   1.668 -0.0073 -0.2903 -0.2954
  162TMC2    C3 2518   3.632   2.078   1.797  0.5358 -0.4701 -0.1142
  162TMC2    C4 2519   3.902   2.086   1.738 -0.4644  0.8618 -0.9084
  162TMC2    C5 2520   3.854   2.059   1.865  0.0256  0.2468  0.5011
  162TMC2    C6 2521   3.721   2.047   1.896 -0.3100 -0.3724 -0.2253
  162TMC2     C 2522   3.850   2.126   1.503  0.4531  0.1904  0.0746
  162TMC2     O 2523   3.774   2.083   1.420 -0.3761 -0.1049 -0.0305
  162TMC2     H 2524   3.599   2.142   1.592  0.6618  0.4806 -0.6769
  162TMC2    H1 2525   4.007   2.098   1.713 -0.9595  1.0900 -2.8666
  162TMC2    H2 2526   3.682   2.027   1.994  0.3316  1.2918  0.3708
  162TMC2    C7 2527   3.950   1.999   1.961 -0.6545  0.4525 -0.2691
  162TMC2    C8 2528   3.488   2.100   1.818  0.2545  0.4435  0.2820
  162TMC2    O1 2529   3.904   1.989   2.072  0.1827  0.1961  0.4131
  162TMC2    O2 2530   3.414   2.121   1.721 -0.4397  0.0170 -0.4713
  162TMC2    O5 2531   3.462   2.117   1.948  0.6603  0.0506  0.4036
  162TMC2    H5 2532   3.539   2.100   2.005 -1.5881  1.4750  3.8781
  163MPD2     C 2533   4.136   2.332   1.128 -0.1039  0.1038  0.1534
  163MPD2    C1 2534   4.008   2.272   1.120  0.1936  0.5111 -0.3310
  163MPD2    C2 2535   3.946   2.240   1.242 -0.2421  0.3696  0.6762
  163MPD2    C3 2536   4.018   2.243   1.359  0.1683 -0.6091  0.5855
  163MPD2    C4 2537   4.145   2.301   1.366  0.8723  0.2058 -0.1723
  163MPD2    C5 2538   4.191   2.360   1.249  0.4302  0.6830  0.1997
  163MPD2     H 2539   3.843   2.206   1.244 -0.0293 -0.3715 -0.4418
  163MPD2    H1 2540   4.201   2.317   1.457  0.5773  1.0993 -0.1476
  163MPD2    H2 2541   4.192   2.362   1.040 -1.4068  0.9727 -0.3795
  163MPD2    H3 2542   4.279   2.422   1.255 -1.6901  3.7056  0.1592
  163MPD2     N 2543   3.966   2.197   1.482  0.1976 -0.0845 -0.2444
  163MPD2    H5 2544   4.018   2.234   1.561 -2.5600  3.2160  0.0152
  163MPD2    N1 2545   3.958   2.254   0.992 -0.3029  0.0081  0.3564
  163MPD2    H7 2546   4.025   2.278   0.920 -0.9739  3.8039  0.9971
  164TMC2    C1 2547   0.061   2.462  11.160 -0.0232  0.0280  0.1278
  164TMC2    C2 2548   0.149   2.493  11.260  0.1613  0.6970  0.3444
  164TMC2    C3 2549   0.100   2.575  11.356 -0.1402 -0.4246  0.2391
  164TMC2    C4 2550   4.667   2.500  11.160  1.2202 -0.1938  0.1163
  164TMC2    C5 2551   4.626   2.582  11.262 -0.7252  0.1982 -0.5110
  164TMC2    C6 2552   4.709   2.619  11.361 -1.4081  0.2005  0.0723
  164TMC2     C 2553   0.111   2.416  11.030  0.0565  0.1870  0.0429
  164TMC2     O 2554   0.037   2.354  10.956  0.0727  0.5321  0.4123
  164TMC2     H 2555   0.251   2.455  11.265 -1.4474 -3.5361  0.7213
  164TMC2    H1 2556   4.599   2.479  11.078 -1.4306  1.3766  1.9190
  164TMC2    H2 2557   4.689   2.699  11.431 -0.2800  0.0912  0.5082
  164TMC2    C7 2558   4.493   2.635  11.250 -0.3269 -0.2180 -0.3992
  164TMC2    C8 2559   0.175   2.575  11.477 -0.1317 -0.0002  0.2844
  164TMC2    O1 2560   4.429   2.628  11.143  0.5093 -0.3050  0.2844
  164TMC2    O2 2561   0.119   2.567  11.586 -0.1738 -0.0871  0.6658
  164TMC2    O5 2562   0.308   2.577  11.456 -0.7163 -0.5918 -0.2637
  164TMC2    H5 2563   0.324   2.599  11.362  1.2111  0.0900  0.2286
  165TMC2    C1 2564   1.299   4.700   0.913 -0.3733  0.3026 -0.3777
  165TMC2    C2 2565   1.200   4.663   0.830  0.3184  0.1837  1.1372
  165TMC2    C3 2566   1.186   0.008   0.718 -0.4056  0.0317  0.0788
  165TMC2    C4 2567   1.349   0.094   0.895 -0.6773 -0.0404  0.1679
  165TMC2    C5 2568   1.318   0.177   0.792  0.2716  0.1990 -0.4256
  165TMC2    C6 2569   1.231   0.130   0.692  0.6026 -0.4408  0.2808
  165TMC2     C 2570   1.327   4.637   1.043 -0.3815 -0.2571 -0.2115
  165TMC2     O 2571   1.232   4.570   1.082 -0.0728 -0.3394  0.2477
  165TMC2     H 2572   1.153   4.566   0.834  2.1200 -0.7606 -0.6746
  165TMC2    H1 2573   1.422   0.135   0.965  0.7415 -1.2433 -0.6000
  165TMC2    H2 2574   1.202   0.181   0.600 -0.4765 -1.8283 -0.1516
  165TMC2    C7 2575   1.405   0.287   0.769 -0.2873  0.4115 -0.1963
  165TMC2    C8 2576   1.101   4.674   0.624  0.0891 -0.1516  0.9203
  165TMC2    O1 2577   1.513   0.279   0.827  0.5365 -0.9134 -0.3727
  165TMC2    O2 2578   1.013   4.595   0.658 -0.1794  0.1306 -0.0681
  165TMC2    O5 2579   1.180   4.661   0.514 -0.1816 -0.4279 -0.5633
  165TMC2    H5 2580   1.262   4.711   0.530 -0.6339  0.0301  0.3196
  166MPD2     C 2581   1.577   4.608   1.483  0.0023 -0.4659 -0.1276
  166MPD2    C1 2582   1.461   4.544   1.440 -0.2591 -0.6256  0.3601
  166MPD2    C2 2583   1.422   4.566   1.310  0.6686 -0.5280  0.0283
  166MPD2    C3 2584   1.488   4.645   1.221 -0.5001  0.2502  0.5062
  166MPD2    C4 2585   1.606   4.703   1.266  0.0728 -1.2192  0.2130
  166MPD2    C5 2586   1.647   4.679   1.393 -0.5774  0.9431 -0.8173
  166MPD2     H 2587   1.327   4.525   1.279  0.8979 -0.5309 -0.6719
  166MPD2    H1 2588   1.668   0.030   1.203 -1.6329 -1.0114 -1.2538
  166MPD2    H2 2589   1.621   4.583   1.578 -0.7900  0.7808  0.5632
  166MPD2    H3 2590   1.737   4.722   1.433 -0.6973  0.0227  0.4516
  166MPD2     N 2591   1.449   4.668   1.090  0.4351  1.0264 -0.2019
  166MPD2    H5 2592   1.516   4.714   1.030  0.1661  0.3721 -1.0015
  166MPD2    N1 2593   1.388   4.466   1.534  0.4480  0.5731 -0.0782
  166MPD2    H7 2594   1.415   4.481   1.630  0.5131 -1.2125  0.1818
  167TMC2    C1 2595   3.447   2.177  12.291  0.3718 -0.2905  0.3007
  167TMC2    C2 2596   3.353   2.129  12.201 -0.3963  0.1009  0.5238
  167TMC2    C3 2597   3.341   1.997  12.173  0.0533 -1.1649 -0.2176
  167TMC2    C4 2598   3.529   2.091  12.359  0.0090  0.2137 -0.1460
  167TMC2    C5 2599   3.518   1.958  12.316 -0.0021  0.2794 -0.4626
  167TMC2    C6 2600   3.406   1.907  12.256  0.0788  0.0281  0.3091
  167TMC2     C 2601   3.495   2.314  12.279  0.4992  0.1101  0.5256
  167TMC2     O 2602   3.613   2.331  12.304 -0.3606  0.0666 -0.4647
  167TMC2     H 2603   3.279   2.194  12.155 -1.2353 -1.3305 -0.1463
  167TMC2    H1 2604   3.615   2.119  12.419 -0.1610  0.1546  0.1263
  167TMC2    H2 2605   3.384   1.803  12.236  1.9784 -0.5878  1.3651
  167TMC2    C7 2606   3.603   1.861  12.379  0.5370  0.1484 -0.0813
  167TMC2    C8 2607   3.216   1.943  12.134 -0.1340 -0.4313  0.2288
  167TMC2    O1 2608   3.560   1.746  12.399  0.2196  1.1356 -0.2551
  167TMC2    O2 2609   3.215   1.839  12.068 -0.1024  0.0064 -0.1339
  167TMC2    O5 2610   3.130   1.955  12.234 -0.4760 -0.0904  0.3928
  167TMC2    H5 2611   3.149   2.030  12.295  0.7383 -0.6554  0.7023
  168MPD2     C 2612   3.549   2.594  12.217  0.7787 -0.7262  0.2481
  168MPD2    C1 2613   3.425   2.531  12.198 -0.2358  0.5712  0.5201
  168MPD2    C2 2614   3.321   2.598  12.155 -0.6034 -0.4937  0.8763
  168MPD2    C3 2615   3.327   2.739  12.126 -0.0967 -0.2897  0.3573
  168MPD2    C4 2616   3.451   2.804  12.148 -0.3739 -0.2836  0.2248
  168MPD2    C5 2617   3.556   2.728  12.188  0.5837  0.1104 -0.0203
  168MPD2     H 2618   3.232   2.537  12.138  0.2570 -1.9887  1.7491
  168MPD2    H1 2619   3.470   2.910  12.133 -0.4135 -0.6149 -2.2272
  168MPD2    H2 2620   3.644   2.554  12.248  0.5919 -1.2198  0.1931
  168MPD2    H3 2621   3.644   2.781  12.224  0.3635 -0.2039  0.9963
  168MPD2     N 2622   3.214   2.802  12.071  0.3401  0.3528  0.2398
  168MPD2    H5 2623   3.131   2.747  12.056  1.0030 -0.4561 -0.5100
  168MPD2    N1 2624   3.403   2.396  12.223 -0.3179  0.6487  0.5114
  168MPD2    H7 2625   3.312   2.358  12.201  0.2131 -0.1732 -0.2785
  169MPD1     C 2626   1.510   2.491   8.696  0.0049 -0.2301 -0.1353
  169MPD1    C1 2627   1.636   2.477   8.741  0.3303  0.4632 -0.8374
  169MPD1    C2 2628   1.657   2.417   8.868 -0.1539 -0.4492  0.5643
  169MPD1    C3 2629   1.546   2.382   8.954  0.2807 -0.2081 -0.0912
  169MPD1    C4 2630   1.416   2.411   8.905 -0.3329 -0.0805 -0.4676
  169MPD1    C5 2631   1.406   2.461   8.777 -0.0283  0.0833 -0.1919
  169MPD1     H 2632   1.756   2.394   8.906 -0.0477  0.2116  0.6830
  169MPD1    H1 2633   1.323   2.388   8.956  0.3430 -0.5619  0.5500
  169MPD1    H2 2634   1.500   2.526   8.594  1.4412  3.9940  1.1604
  169MPD1    H3 2635   1.309   2.477   8.730 -1.3961 -2.1513  1.8475
  169MPD1     N 2636   1.570   2.314   9.077 -0.2357 -0.2844  0.0222
  169MPD1    H5 2637   1.662   2.269   9.081 -0.6790 -1.1780  0.2670
  169MPD1    N1 2638   1.742   2.487   8.653 -0.6020 -0.3578  0.3926
  169MPD1    H6 2639   1.729   2.575   8.603 -2.1793 -0.1337  1.1963
  169MPD1    H7 2640   1.827   2.504   8.706  0.5209  1.3589 -1.9481
  170MPD1     C 2641   0.664   4.649  13.015  0.2488 -0.0214  0.4661
  170MPD1    C1 2642   0.543   4.718  13.012  0.3603  0.3598  0.1776
  170MPD1    C2 2643   0.450   4.687  13.105 -0.1815  0.2493 -0.6167
  170MPD1    C3 2644   0.459   4.575  13.183 -0.3458 -0.0079  0.5001
  170MPD1    C4 2645   0.575   4.495  13.175 -0.4086  0.2656 -0.4072
  170MPD1    C5 2646   0.674   4.533  13.089  0.7563  0.3365  0.5857
  170MPD1     H 2647   0.357   0.004  13.127  0.1143  1.0999 -1.3723
  170MPD1    H1 2648   0.589   4.402  13.228  0.1471 -0.1856 -1.3438
  170MPD1    H2 2649   0.754   4.671  12.959 -0.7775  0.9609 -0.8081
  170MPD1    H3 2650   0.765   4.473  13.091  0.0189 -0.8820 -1.9642
  170MPD1     N 2651   0.361   4.557  13.279 -0.3069 -0.9528 -0.0369
  170MPD1    H5 2652   0.286   4.624  13.293  0.6457 -0.0490  0.7777
  170MPD1    N1 2653   0.542   0.092  12.929 -0.2257 -0.4445  0.2620
  170MPD1    H6 2654   0.579   0.074  12.836 -1.3875 -1.1732 -0.0574
  170MPD1    H7 2655   0.446   0.120  12.909  0.1553  0.8755  0.2908
  171MPD1     C 2656   3.145   0.924  15.667  0.3725 -0.4716  0.0127
  171MPD1    C1 2657   3.082   0.809  15.634  0.5049 -0.4569 -0.5469
  171MPD1    C2 2658   3.142   0.693  15.681  0.2611 -0.4612  0.0533
  171MPD1    C3 2659   3.274   0.699  15.738  0.1065 -1.1369  0.5254
  171MPD1    C4 2660   3.333   0.817  15.759 -0.1701  0.0276  0.0593
  171MPD1    C5 2661   3.265   0.929  15.723 -0.2523 -0.4434 -0.2500
  171MPD1     H 2662   3.097   0.595  15.670 -0.1084 -0.4929  1.7044
  171MPD1    H1 2663   3.439   0.823  15.782 -0.0375  0.3086 -0.6157
  171MPD1    H2 2664   3.101   1.022  15.659 -0.0001 -0.3524  3.9018
  171MPD1    H3 2665   3.309   1.024  15.751 -3.4091  0.9836 -0.0962
  171MPD1     N 2666   3.355   0.584  15.768 -0.3472  0.7859  0.0198
  171MPD1    H5 2667   3.442   0.605  15.816 -0.9650  0.6262  1.2282
  171MPD1    N1 2668   2.947   0.811  15.591  0.0162  0.2820  0.0023
  171MPD1    H6 2669   2.919   0.888  15.531 -1.8998 -0.6812 -0.3463
  171MPD1    H7 2670   2.933   0.722  15.544 -0.8250  0.7077 -0.5426
  172MPD1     C 2671   2.290   0.423  17.581 -0.1161 -0.0051 -0.6963
  172MPD1    C1 2672   2.165   0.433  17.631 -0.1129 -0.0776  0.2685
  172MPD1    C2 2673   2.136   0.358   0.002 -1.0657  0.8198  0.3069
  172MPD1    C3 2674   2.229   0.279   0.072 -0.2166 -0.3192 -0.1814
  172MPD1    C4 2675   2.351   0.281   0.023 -0.2337  0.1831  0.5904
  172MPD1    C5 2676   2.378   0.342  17.646 -0.2869  0.5269 -0.7990
  172MPD1     H 2677   2.034   0.369   0.036 -1.7556 -1.8349 -0.8702
  172MPD1    H1 2678   2.427   0.222   0.073 -1.0816 -1.2120  0.2455
  172MPD1    H2 2679   2.322   0.472  17.490  0.5565 -0.0156 -0.4637
  172MPD1    H3 2680   2.483   0.343  17.618  0.0700  0.8549  0.5542
  172MPD1     N 2681   2.208   0.216   0.195  0.2768  0.3392  0.6906
  172MPD1    H5 2682   2.288   0.167   0.233  0.1586 -0.8092 -0.5742
  172MPD1    N1 2683   2.069   0.522  17.578 -0.6223 -0.4941 -0.0600
  172MPD1    H6 2684   2.099   0.542  17.483  1.4654  0.9791  0.9251
  172MPD1    H7 2685   2.074   0.606  17.634 -0.5850 -0.7408  0.3046
  173MPD1     C 2686   4.165   0.215  13.732 -0.3141  0.1253 -0.5272
  173MPD1    C1 2687   4.217   0.090  13.748  0.1925 -0.4324  0.1805
  173MPD1    C2 2688   4.177   0.025  13.858  0.0099 -0.1843 -0.1560
  173MPD1    C3 2689   4.102   0.079  13.959  0.1111  0.4883 -1.1346
  173MPD1    C4 2690   4.044   0.199  13.943 -0.0862  1.2686 -0.3618
  173MPD1    C5 2691   4.077   0.267  13.827 -0.1012 -0.0282  0.2778
  173MPD1     H 2692   4.209   4.657  13.873 -0.4050 -0.3545 -0.4366
  173MPD1    H1 2693   3.991   0.250  14.023  1.1710  1.1581  0.5491
  173MPD1    H2 2694   4.190   0.269  13.641 -0.0342 -0.5280 -0.8397
  173MPD1    H3 2695   4.047   0.370  13.821 -0.6697 -0.3384 -2.0649
  173MPD1     N 2696   4.090   0.008  14.079  0.1580  0.4160 -0.2849
  173MPD1    H5 2697   4.155   4.664  14.078 -0.1510  0.1567  0.0809
  173MPD1    N1 2698   4.282   0.024  13.646  0.4736  0.2240 -0.2419
  173MPD1    H6 2699   4.348   4.694  13.689  1.6212  0.7286 -1.2498
  173MPD1    H7 2700   4.340   0.093  13.600  2.1146 -1.1369 -0.2182
  174MPD1     C 2701   0.074   4.389  14.237 -0.4509 -0.1462 -0.7999
  174MPD1    C1 2702   0.013   4.353  14.355 -1.0328 -0.9539  0.1446
  174MPD1    C2 2703   4.621   4.403  14.379 -0.3389 -0.0076  0.0013
  174MPD1    C3 2704   4.550   4.479  14.292  0.5281  0.2528 -0.8363
  174MPD1    C4 2705   4.610   4.497  14.167  0.5379 -0.0265 -0.7912
  174MPD1    C5 2706   0.004   4.456  14.146 -0.0941  0.0006  0.1998
  174MPD1     H 2707   4.582   4.377  14.477  0.6470 -1.1182  0.1077
  174MPD1    H1 2708   4.553   4.556  14.097  0.5477 -2.0841 -2.5347
  174MPD1    H2 2709   0.172   4.355  14.208 -0.4129 -2.4043  1.9867
  174MPD1    H3 2710   0.051   4.483  14.052  1.2247  1.0335  1.1396
  174MPD1     N 2711   4.428   4.538  14.322  0.2800  0.3120  0.2351
  174MPD1    H5 2712   4.394   4.600  14.249  2.7414  1.8404  0.3726
  174MPD1    N1 2713   0.068   4.265  14.451 -0.1662  0.2064  0.0533
  174MPD1    H6 2714   0.100   4.183  14.401 -1.9397  0.5208 -1.6355
  174MPD1    H7 2715   4.717   4.227  14.492  0.2592 -0.0611  0.6853
  175MPD1     C 2716   2.560   0.887  15.411  0.1809 -0.8605  0.2217
  175MPD1    C1 2717   2.439   0.956  15.420 -0.2175 -0.9100  0.2698
  175MPD1    C2 2718   2.379   0.970  15.545  0.1215 -0.7157 -0.1058
  175MPD1    C3 2719   2.441   0.923  15.657 -0.3860 -0.0867 -0.5269
  175MPD1    C4 2720   2.563   0.860  15.649  0.0597  0.5474 -0.7546
  175MPD1    C5 2721   2.624   0.838  15.530 -0.5160 -0.6522  0.2440
  175MPD1     H 2722   2.278   1.007  15.555  0.4657  0.8646 -2.6611
  175MPD1    H1 2723   2.616   0.811  15.730 -0.2459 -0.9235 -1.4511
  175MPD1    H2 2724   2.615   0.864  15.320 -0.4610  1.8968 -0.8682
  175MPD1    H3 2725   2.717   0.782  15.525  0.5979  1.2328 -0.5274
  175MPD1     N 2726   2.391   0.947  15.788 -0.0091  0.8167 -0.1423
  175MPD1    H5 2727   2.460   0.938  15.862  0.1284 -2.3106 -0.6480
  175MPD1    N1 2728   2.372   0.982  15.298 -0.0283 -0.3607 -0.3153
  175MPD1    H6 2729   2.438   1.007  15.224  0.9774 -2.0431 -0.0014
  175MPD1    H7 2730   2.303   1.056  15.304 -0.8207 -1.2420  1.1916
  176MPD1     C 2731   3.446   2.614  17.327  0.1586  0.2869 -0.5998
  176MPD1    C1 2732   3.493   2.619  17.454 -0.3079 -0.0118 -0.5597
  176MPD1    C2 2733   3.581   2.717  17.482 -1.0789  0.0386  0.2643
  176MPD1    C3 2734   3.614   2.822  17.401  0.0451  0.3443 -0.1920
  176MPD1    C4 2735   3.561   2.822  17.272 -0.1668  0.6320  0.6308
  176MPD1    C5 2736   3.465   2.727  17.247  0.6151 -0.3163  0.1461
  176MPD1     H 2737   3.612   2.721  17.586 -0.8764 -0.1355  0.2115
  176MPD1    H1 2738   3.572   2.896  17.193 -1.5797  0.9595  0.7421
  176MPD1    H2 2739   3.383   2.532  17.294  2.3067 -1.2275 -0.8994
  176MPD1    H3 2740   3.423   2.722  17.147  0.5398  0.4261  0.1436
  176MPD1     N 2741   3.695   2.927  17.456  0.0313  0.1970 -0.1110
  176MPD1    H5 2742   3.700   2.920  17.557  3.8177  2.6501 -0.1476
  176MPD1    N1 2743   3.484   2.500  17.521 -0.1614 -0.2374 -0.4979
  176MPD1    H6 2744   3.503   2.506  17.621 -1.1813 -1.2967 -0.2433
  176MPD1    H7 2745   3.393   2.456  17.510 -1.2349  2.4844 -2.4616
  177MPD1     C 2746   3.037   2.831   9.327 -0.0687 -0.5620 -0.4755
  177MPD1    C1 2747   2.933   2.740   9.308  0.1604 -0.6837  0.4058
  177MPD1    C2 2748   2.815   2.789   9.259 -0.5720 -0.8088  0.2931
  177MPD1    C3 2749   2.800   2.925   9.225  0.0834  0.1936  0.0218
  177MPD1    C4 2750   2.904   3.011   9.246 -0.6185 -0.0221 -0.0721
  177MPD1    C5 2751   3.025   2.966   9.297 -0.0211  0.1223 -0.7396
  177MPD1     H 2752   2.732   2.723   9.236 -0.4337 -1.5599  1.9911
  177MPD1    H1 2753   2.909   3.113   9.210  0.0165  0.4718  1.4537
  177MPD1    H2 2754   3.136   2.808   9.367  0.6515 -0.2420 -2.0811
  177MPD1    H3 2755   3.116   3.024   9.302 -0.1742  0.3787 -0.8931
  177MPD1     N 2756   2.675   2.957   9.172 -0.0644  0.3722 -0.4048
  177MPD1    H5 2757   2.613   2.877   9.163  1.6031 -1.1780  2.2210
  177MPD1    N1 2758   2.959   2.606   9.320  0.6012  0.0369 -0.0497
  177MPD1    H6 2759   2.874   2.553   9.335 -0.8277  2.0422 -1.0016
  177MPD1    H7 2760   3.013   2.598   9.406 -0.0271  0.4440  0.3855
  178MPD1     C 2761   0.141   3.189   0.668 -0.1055  0.3428  0.0862
  178MPD1    C1 2762   0.049   3.128   0.586 -0.0519 -0.1912  0.1330
  178MPD1    C2 2763   0.050   3.156   0.449 -0.6459 -0.5322  0.7756
  178MPD1    C3 2764   0.152   3.231   0.395  0.0266  0.1496  0.8688
  178MPD1    C4 2765   0.253   3.286   0.476  0.0853 -0.0841  0.7895
  178MPD1    C5 2766   0.242   3.268   0.613  0.0212  0.6997  0.1921
  178MPD1     H 2767   4.697   3.119   0.398 -0.3542  1.7913 -1.3661
  178MPD1    H1 2768   0.334   3.344   0.435 -1.3063  0.5846 -1.0403
  178MPD1    H2 2769   0.136   3.171   0.775  0.8056 -1.4503 -0.1848
  178MPD1    H3 2770   0.327   3.293   0.676  0.0608 -0.2346  0.5093
  178MPD1     N 2771   0.154   3.268   0.254 -0.7210 -0.3098  0.4600
  178MPD1    H5 2772   0.227   3.333   0.228 -1.3744  0.3358  0.2658
  178MPD1    N1 2773   4.680   3.049   0.638  0.0701  0.4518  0.0545
  178MPD1    H6 2774   4.708   2.996   0.720 -1.7379 -2.7317 -1.3836
  178MPD1    H7 2775   4.642   2.984   0.569  0.1348  1.1390 -0.6316
  179MPD1     C 2776   4.674   1.087  15.288  0.7989  0.1771 -0.1965
  179MPD1    C1 2777   4.559   1.157  15.265  0.4474  0.6338  0.6336
  179MPD1    C2 2778   4.499   1.228  15.365  0.1441 -0.3102 -0.5026
  179MPD1    C3 2779   4.552   1.242  15.493  0.6376 -0.0952 -0.1682
  179MPD1    C4 2780   4.672   1.178  15.511  0.4226 -0.3621  0.0427
  179MPD1    C5 2781   4.729   1.100  15.411  0.5235 -0.5608 -0.5884
  179MPD1     H 2782   4.412   1.287  15.338  1.0085  1.7564  1.2857
  179MPD1    H1 2783   4.733   1.178  15.601 -1.8165  2.9641  1.5492
  179MPD1    H2 2784   4.728   1.024  15.218 -1.6757  0.0970 -2.0181
  179MPD1    H3 2785   0.088   1.050  15.428  1.2678  0.6916 -1.0962
  179MPD1     N 2786   4.499   1.308  15.601 -0.4973  0.3901 -0.1863
  179MPD1    H5 2787   4.541   1.297  15.693 -2.0418 -1.4205  0.2956
  179MPD1    N1 2788   4.491   1.128  15.146  0.0364  0.3772  0.1139
  179MPD1    H6 2789   4.435   1.201  15.104 -0.1268  0.8911  1.2372
  179MPD1    H7 2790   4.554   1.096  15.072  0.4579  1.3592  0.0518
  180MPD1     C 2791   4.135   2.999  15.696  0.4632 -0.4424 -0.1379
  180MPD1    C1 2792   4.189   3.103  15.631  0.1177  0.2814  0.6747
  180MPD1    C2 2793   4.220   3.082  15.497  0.2584  0.1972 -0.4032
  180MPD1    C3 2794   4.165   2.985  15.420  0.3135 -0.3701 -0.2241
  180MPD1    C4 2795   4.084   2.893  15.481 -1.2348  0.2377  0.5692
  180MPD1    C5 2796   4.081   2.897  15.618  0.9275 -0.4202  1.0303
  180MPD1     H 2797   4.283   3.160  15.455  1.6050  0.4176  2.0224
  180MPD1    H1 2798   4.037   2.810  15.430  1.0968 -0.3840 -0.5581
  180MPD1    H2 2799   4.121   3.006  15.803  0.7338 -1.7399 -0.0203
  180MPD1    H3 2800   4.030   2.818  15.673  0.6105 -1.6060 -0.9648
  180MPD1     N 2801   4.186   2.994  15.277  0.4503  0.0262 -0.3374
  180MPD1    H5 2802   4.244   3.070  15.243 -2.5977  2.6259  0.3125
  180MPD1    N1 2803   4.241   3.202  15.710 -0.2760  0.0229  0.2210
  180MPD1    H6 2804   4.192   3.220  15.797  1.7223 -0.5618  1.4702
  180MPD1    H7 2805   4.244   3.290  15.659  0.5680  0.6501  1.3446
  181MPD1     C 2806   1.220   0.795   9.687  0.5047 -0.8384 -0.3067
  181MPD1    C1 2807   1.233   0.666   9.742 -0.6241 -0.0266 -0.0324
  181MPD1    C2 2808   1.329   0.653   9.840  0.0451 -0.0225  0.0763
  181MPD1    C3 2809   1.419   0.754   9.877  1.2013 -0.3514  0.8977
  181MPD1    C4 2810   1.407   0.875   9.809  0.3740 -0.4630 -0.2980
  181MPD1    C5 2811   1.314   0.886   9.709  0.0881 -0.8603 -0.1698
  181MPD1     H 2812   1.347   0.552   9.872 -0.5131 -0.8114 -2.1061
  181MPD1    H1 2813   1.482   0.952   9.822  0.2888 -0.3628 -0.4042
  181MPD1    H2 2814   1.133   0.815   9.625 -0.7535  0.5728  1.9079
  181MPD1    H3 2815   1.304   0.988   9.675 -0.6188 -1.4526 -1.7030
  181MPD1     N 2816   1.523   0.744   9.980  0.0047  0.1510  0.4472
  181MPD1    H5 2817   1.572   0.830  10.003 -1.4226  0.8592  0.9007
  181MPD1    N1 2818   1.125   0.575   9.723  0.1595  0.8571 -0.3696
  181MPD1    H6 2819   1.073   0.604   9.640 -0.2590  0.6750 -0.1708
  181MPD1    H7 2820   1.147   0.475   9.730 -0.6531  0.6500 -0.7537
  182MPD1     C 2821   2.342   4.297   1.435 -0.7329 -0.2328 -0.2280
  182MPD1    C1 2822   2.278   4.274   1.312  0.0276 -0.4405 -0.5569
  182MPD1    C2 2823   2.142   4.263   1.306 -0.0971  0.5747  0.0534
  182MPD1    C3 2824   2.062   4.302   1.417 -0.4075  0.5477  0.3626
  182MPD1    C4 2825   2.128   4.344   1.531  0.2274  0.3412  0.0116
  182MPD1    C5 2826   2.261   4.331   1.538  0.4057  0.1993 -0.3343
  182MPD1     H 2827   2.090   4.225   1.218 -1.4194  2.5501 -0.0122
  182MPD1    H1 2828   2.079   4.372   1.623 -0.6689 -1.7484  0.1674
  182MPD1    H2 2829   2.449   4.294   1.450 -0.7580  0.9480  0.1711
  182MPD1    H3 2830   2.299   4.356   1.636 -4.5248  0.2394  1.5394
  182MPD1     N 2831   1.919   4.293   1.416  0.0791 -0.5129  0.1558
  182MPD1    H5 2832   1.865   4.314   1.500  1.2317 -0.2175  0.8167
  182MPD1    N1 2833   2.354   4.228   1.206  0.5603  0.1166 -0.6583
  182MPD1    H6 2834   2.305   4.239   1.117  0.5651 -0.0644 -0.6825
  182MPD1    H7 2835   2.449   4.265   1.206  1.4179 -2.1102  1.3907
  183MPD1     C 2836   1.851   4.588   9.354 -0.6805  0.6007  0.0337
  183MPD1    C1 2837   1.810   4.688   9.431 -0.6057 -0.0987  0.7314
  183MPD1    C2 2838   1.902   0.053   9.450  0.1375  0.1850 -0.3202
  183MPD1    C3 2839   2.031   0.038   9.410 -0.1728  0.2585  0.0380
  183MPD1    C4 2840   2.074   4.666   9.341  0.2781  0.1054 -0.0851
  183MPD1    C5 2841   1.980   4.573   9.312 -0.1844 -0.0561 -0.5323
  183MPD1     H 2842   1.879   0.143   9.507  1.5676  0.0162  0.5444
  183MPD1    H1 2843   2.174   4.645   9.305  0.6295 -0.4732  1.2417
  183MPD1    H2 2844   1.779   4.512   9.325  0.6714 -0.5138 -0.4361
  183MPD1    H3 2845   2.012   4.488   9.254  1.5803  0.5642 -0.4646
  183MPD1     N 2846   2.114   0.145   9.450 -0.0763  0.0860  0.3169
  183MPD1    H5 2847   2.079   0.225   9.503  0.8137  0.3970  0.4313
  183MPD1    N1 2848   1.678   4.715   9.468 -0.2924 -0.4995 -0.1499
  183MPD1    H6 2849   1.677   0.041   9.550  0.2829  1.3037 -1.4734
  183MPD1    H7 2850   1.626   4.629   9.483 -1.4853  0.3668  0.6339
  184MPD1     C 2851   1.708   2.622  10.089 -0.8340 -0.0917 -0.1115
  184MPD1    C1 2852   1.809   2.717  10.104  0.6748  0.2239  0.0330
  184MPD1    C2 2853   1.866   2.771   9.991 -0.0134  0.1940  0.2248
  184MPD1    C3 2854   1.821   2.732   9.862  0.6244  0.0764  0.3465
  184MPD1    C4 2855   1.722   2.632   9.851  0.6444 -0.5027 -1.3877
  184MPD1    C5 2856   1.664   2.590   9.964 -0.2268  0.0679  0.1407
  184MPD1     H 2857   1.935   2.854  10.003  0.4353 -0.1890  0.3139
  184MPD1    H1 2858   1.691   2.598   9.753 -3.0081  2.7889 -1.3718
  184MPD1    H2 2859   1.666   2.576  10.178  0.1216  0.3393  0.5599
  184MPD1    H3 2860   1.600   2.503   9.957 -0.4951  0.3615 -1.0841
  184MPD1     N 2861   1.880   2.786   9.742  0.6180  0.0463  0.9569
  184MPD1    H5 2862   1.853   2.747   9.652 -0.4514  1.2339  0.7577
  184MPD1    N1 2863   1.850   2.748  10.233 -0.3071 -0.6279 -0.1087
  184MPD1    H6 2864   1.784   2.753  10.310  1.4354 -1.1479  1.4361
  184MPD1    H7 2865   1.899   2.837  10.235 -1.2096 -0.1054 -1.6258
  185MPD1     C 2866   1.590   2.804   8.953  0.3448 -0.0742  0.7134
  185MPD1    C1 2867   1.685   2.899   8.940 -0.0913 -0.3162 -0.7968
  185MPD1    C2 2868   1.777   2.930   9.037 -0.4216 -0.0903 -0.1656
  185MPD1    C3 2869   1.767   2.862   9.158  0.0636 -0.0850 -0.9585
  185MPD1    C4 2870   1.675   2.769   9.177  0.3486  0.2315  0.4051
  185MPD1    C5 2871   1.579   2.741   9.079  0.1886 -0.1093  0.2698
  185MPD1     H 2872   1.856   3.002   9.019  0.1514 -0.5468  0.4973
  185MPD1    H1 2873   1.679   2.707   9.266 -1.7195 -1.9782 -1.0132
  185MPD1    H2 2874   1.518   2.777   8.876 -0.4953 -1.2616  1.9187
  185MPD1    H3 2875   1.509   2.661   9.099 -1.7335  1.6805  0.6746
  185MPD1     N 2876   1.848   2.891   9.266 -0.7424  0.4792 -0.4827
  185MPD1    H5 2877   1.844   2.834   9.350 -0.8799  0.0812 -0.7583
  185MPD1    N1 2878   1.705   2.961   8.818  0.0799 -0.2763 -0.1526
  185MPD1    H6 2879   1.627   3.001   8.767 -0.2461 -0.1567  0.4342
  185MPD1    H7 2880   1.754   3.049   8.830  0.3327 -0.4664  0.2147
  186MPD1     C 2881   3.925   2.910  16.537  0.2716 -1.0403  0.7514
  186MPD1    C1 2882   3.995   2.907  16.416 -0.2325 -0.5555 -0.3857
  186MPD1    C2 2883   4.103   2.819  16.407 -0.4857  0.1185 -0.2064
  186MPD1    C3 2884   4.162   2.761  16.521 -0.1792 -0.4450  0.4015
  186MPD1    C4 2885   4.089   2.776  16.639  0.9616  0.1677 -0.1322
  186MPD1    C5 2886   3.966   2.835  16.645  1.2137 -0.9429  0.0950
  186MPD1     H 2887   4.144   2.794  16.310 -0.0618  2.0820 -0.5377
  186MPD1    H1 2888   4.120   2.711  16.720  2.3738  1.7480  0.6043
  186MPD1    H2 2889   3.833   2.967  16.547  0.8027  0.2940 -2.0120
  186MPD1    H3 2890   3.900   2.822  16.730 -2.2199  1.1307 -2.2709
  186MPD1     N 2891   4.276   2.681  16.527  0.7672  0.4847 -0.3361
  186MPD1    H5 2892   4.309   2.649  16.617  2.4771  2.5055 -0.2528
  186MPD1    N1 2893   3.940   2.974  16.308 -0.5815  0.5968 -0.3891
  186MPD1    H6 2894   3.880   3.051  16.334 -0.5474  0.6285 -0.4035
  186MPD1    H7 2895   4.005   3.001  16.234  0.1518 -2.6608 -0.9465
  187MPD1     C 2896   4.288   3.537   0.391 -0.4892  0.2721 -0.1952
  187MPD1    C1 2897   4.193   3.481   0.313 -1.0774 -0.0220 -0.3892
  187MPD1    C2 2898   4.148   3.529   0.192  0.2817 -0.2182 -0.2622
  187MPD1    C3 2899   4.196   3.650   0.149 -0.6567 -0.3214  0.8694
  187MPD1    C4 2900   4.291   3.710   0.226  0.0477  0.4063  0.0169
  187MPD1    C5 2901   4.342   3.654   0.345  0.4208  0.0860  0.0311
  187MPD1     H 2902   4.069   3.476   0.141 -2.9229  0.5563  3.9074
  187MPD1    H1 2903   4.328   3.809   0.204  0.4645  0.1259 -0.5595
  187MPD1    H2 2904   4.315   3.504   0.491 -1.9852 -3.2011 -0.8934
  187MPD1    H3 2905   4.420   3.711   0.394  1.1159 -2.5359  1.9923
  187MPD1     N 2906   4.160   3.708   0.023  0.0152 -0.4453 -0.2321
  187MPD1    H5 2907   4.221   3.787   0.006 -0.1119 -0.5622 -1.1878
  187MPD1    N1 2908   4.120   3.384   0.369 -0.1624 -0.6218  0.2221
  187MPD1    H6 2909   4.054   3.435   0.427 -0.1998  0.5224 -0.8294
  187MPD1    H7 2910   4.050   3.355   0.300 -0.0891  1.2158 -0.6470
  188MPD1     C 2911   4.216   4.582  10.621  0.4516 -0.1312 -0.6698
  188MPD1    C1 2912   4.336   4.532  10.658  0.5597  0.0620 -0.1952
  188MPD1    C2 2913   4.386   4.420  10.604  0.1625 -0.7165 -0.7863
  188MPD1    C3 2914   4.330   4.368  10.486  0.2016  0.5534 -0.5903
  188MPD1    C4 2915   4.223   4.431  10.434  0.0830 -0.5201 -0.0350
  188MPD1    C5 2916   4.164   4.533  10.505  0.0668 -0.6142  0.0742
  188MPD1     H 2917   4.471   4.379  10.657  0.4773 -0.6945 -1.2700
  188MPD1    H1 2918   4.174   4.388  10.348  1.1117  0.1492 -0.9547
  188MPD1    H2 2919   4.166   4.673  10.653 -0.2361 -0.0946 -1.8539
  188MPD1    H3 2920   4.080   4.585  10.461 -1.3620 -0.8653  2.5204
  188MPD1     N 2921   4.375   4.249  10.431 -0.2497  0.4921  0.4136
  188MPD1    H5 2922   4.331   4.235  10.341  0.4211  0.8791  0.0217
  188MPD1    N1 2923   4.405   4.588  10.762  0.3798 -0.2359 -0.3187
  188MPD1    H6 2924   4.505   4.568  10.764  0.5182  0.4999  0.3177
  188MPD1    H7 2925   4.385   4.688  10.769  0.1127 -0.2866 -0.3624
  189MPD1     C 2926   0.911   0.258   0.670 -0.2740 -0.0847 -0.5221
  189MPD1    C1 2927   0.953   0.327   0.564 -0.2708  0.6824  0.3405
  189MPD1    C2 2928   0.906   0.300   0.437  0.2486  0.0880 -0.0239
  189MPD1    C3 2929   0.799   0.209   0.417  0.7211  0.4194 -0.5488
  189MPD1    C4 2930   0.771   0.127   0.525 -0.0424 -0.3856 -0.1749
  189MPD1    C5 2931   0.818   0.152   0.654  0.7336  1.1236  0.4171
  189MPD1     H 2932   0.943   0.353   0.350 -1.0992 -1.0256 -1.2875
  189MPD1    H1 2933   0.696   0.049   0.515 -0.3552  0.0009 -0.8332
  189MPD1    H2 2934   0.949   0.282   0.768 -2.6475 -0.3929  0.4556
  189MPD1    H3 2935   0.780   0.095   0.738  1.9291  0.6712  0.6561
  189MPD1     N 2936   0.720   0.195   0.298  0.2008 -0.8135  0.1462
  189MPD1    H5 2937   0.639   0.135   0.313 -1.0633  1.0857  0.8132
  189MPD1    N1 2938   1.063   0.413   0.588 -0.5751  0.4030 -0.3232
  189MPD1    H6 2939   1.072   0.484   0.515  1.6178 -0.8188 -1.2480
  189MPD1    H7 2940   1.050   0.467   0.674 -1.6968  2.5110 -1.8319
  190MPD1     C 2941   3.955   2.358  15.581  0.2661 -0.4162  0.5289
  190MPD1    C1 2942   4.007   2.418  15.465 -1.1305 -0.2926  0.2967
  190MPD1    C2 2943   4.113   2.506  15.479 -0.0470 -0.2535  0.0126
  190MPD1    C3 2944   4.165   2.544  15.599  0.4558  0.2179 -0.5028
  190MPD1    C4 2945   4.095   2.500  15.713  0.2015  0.3505 -0.5064
  190MPD1    C5 2946   3.988   2.417  15.701  0.2125 -0.1507  0.0224
  190MPD1     H 2947   4.177   2.531  15.395  2.4739 -0.5446  1.8228
  190MPD1    H1 2948   4.113   2.541  15.811 -1.5868 -1.8309  0.7194
  190MPD1    H2 2949   3.885   2.276  15.586 -0.6895  0.3622 -0.2560
  190MPD1    H3 2950   3.938   2.386  15.791  2.0621  1.4661  1.6091
  190MPD1     N 2951   4.280   2.628  15.606  0.4674 -0.1850 -0.3021
  190MPD1    H5 2952   4.323   2.666  15.522 -1.4746 -0.2027 -1.2976
  190MPD1    N1 2953   3.972   2.376  15.339 -0.1432 -0.2561  0.0912
  190MPD1    H6 2954   4.003   2.447  15.273 -1.5046 -1.1340 -1.5075
  190MPD1    H7 2955   3.871   2.362  15.330 -0.0069 -1.8242  0.8778
  191MPD1     C 2956   3.517   0.710  12.704 -0.8036 -0.5722 -0.3389
  191MPD1    C1 2957   3.615   0.630  12.648 -0.1458 -0.5544  0.7174
  191MPD1    C2 2958   3.703   0.673  12.556  0.3042 -0.3325  0.0614
  191MPD1    C3 2959   3.693   0.801  12.512  0.3265  0.0887 -0.0403
  191MPD1    C4 2960   3.591   0.886  12.563  0.6999 -0.3652  0.4582
  191MPD1    C5 2961   3.502   0.837  12.653 -0.7102 -0.0519  0.0653
  191MPD1     H 2962   3.781   0.600  12.539 -0.2908 -0.8008 -0.6172
  191MPD1    H1 2963   3.580   0.988  12.528  0.4532 -0.0827  1.3797
  191MPD1    H2 2964   3.445   0.683  12.780 -0.3902  0.6717  0.4847
  191MPD1    H3 2965   3.417   0.897  12.684 -0.5770 -0.8494  1.9007
  191MPD1     N 2966   3.780   0.843  12.411  0.0917  0.2162 -0.5723
  191MPD1    H5 2967   3.850   0.773  12.390 -0.3575 -0.5241  0.3438
  191MPD1    N1 2968   3.614   0.497  12.688  0.3625  0.0490 -0.1978
  191MPD1    H6 2969   3.702   0.444  12.690  0.1149 -0.2884  2.2620
  191MPD1    H7 2970   3.569   0.478  12.777 -0.5549  2.3130 -0.1850
  192MPD1     C 2971   3.712   1.510  11.586 -0.2265 -0.0664 -0.0556
  192MPD1    C1 2972   3.821   1.537  11.670 -0.1425  1.3872 -0.0666
  192MPD1    C2 2973   3.839   1.444  11.774  0.6470  0.5485  0.4846
  192MPD1    C3 2974   3.777   1.315  11.774 -0.0091 -0.1055  0.6984
  192MPD1    C4 2975   3.675   1.293  11.693 -0.6105 -0.2550  0.3858
  192MPD1    C5 2976   3.647   1.391  11.602 -0.1279 -0.0657 -0.9071
  192MPD1     H 2977   3.921   1.465  11.841  1.3790  0.4003 -0.3584
  192MPD1    H1 2978   3.629   1.194  11.692 -0.6883 -0.2313  2.1518
  192MPD1    H2 2979   3.667   1.575  11.512 -0.9772 -1.2168 -0.5898
  192MPD1    H3 2980   3.562   1.385  11.534  0.4074 -1.3420 -1.4717
  192MPD1     N 2981   3.806   1.213  11.867  0.0629  0.1515  0.3982
  192MPD1    H5 2982   3.739   1.136  11.865  2.1100 -1.5564 -2.3930
  192MPD1    N1 2983   3.884   1.662  11.667  0.4881  0.4026 -0.1814
  192MPD1    H6 2984   3.882   1.710  11.577 -0.1478  2.5717  0.9793
  192MPD1    H7 2985   3.982   1.660  11.694  0.1055  1.5551  1.2710
  193MPD1     C 2986   3.276   0.202  16.027  0.6817 -0.5734 -0.1012
  193MPD1    C1 2987   3.406   0.163  16.046 -1.0844 -0.6051  0.2970
  193MPD1    C2 2988   3.487   0.226  16.145  0.0205 -0.2075  0.1121
  193MPD1    C3 2989   3.430   0.330  16.215 -0.5610 -0.1106 -0.0237
  193MPD1    C4 2990   3.299   0.372  16.196  0.1114  0.7236 -0.0715
  193MPD1    C5 2991   3.227   0.311  16.096  0.1815 -0.0270  0.4368
  193MPD1     H 2992   3.585   0.182  16.158 -0.0748 -0.8516 -1.2989
  193MPD1    H1 2993   3.260   0.446  16.265  1.3845  1.1685  0.1618
  193MPD1    H2 2994   3.213   0.158  15.950 -0.3074 -1.3129  1.1391
  193MPD1    H3 2995   3.126   0.350  16.090 -0.0857 -0.7055  0.5468
  193MPD1     N 2996   3.501   0.402  16.320 -0.5132  0.9932  0.2642
  193MPD1    H5 2997   3.447   0.475  16.365  2.0622  3.3117 -0.4111
  193MPD1    N1 2998   3.462   0.056  15.974 -0.1413 -0.0767 -0.4611
  193MPD1    H6 2999   3.393   4.729  15.933  1.4504 -1.3341 -1.2595
  193MPD1    H7 3000   3.531   0.000  16.024  1.9492  1.5398 -1.5316
  194MPD1     C 3001   0.299   1.836  17.383 -0.5450 -0.2621  0.3713
  194MPD1    C1 3002   0.307   1.968  17.417  0.4019 -0.5662  0.5237
  194MPD1    C2 3003   0.437   2.026  17.424  0.1243  0.7941  0.8535
  194MPD1    C3 3004   0.556   1.961  17.382  0.2546  0.1074  0.4450
  194MPD1    C4 3005   0.536   1.826  17.353  0.1298  0.0928 -0.2260
  194MPD1    C5 3006   0.414   1.765  17.354 -0.6464  0.0002 -0.1417
  194MPD1     H 3007   0.435   2.134  17.437  1.0472  0.6719  1.9596
  194MPD1    H1 3008   0.616   1.775  17.300 -0.4192 -1.6063  0.5667
  194MPD1    H2 3009   0.206   1.787  17.359 -0.2611 -0.4090 -0.4213
  194MPD1    H3 3010   0.412   1.661  17.321 -2.3909  0.8703 -2.8027
  194MPD1     N 3011   0.681   2.019  17.374 -0.0454 -0.3214  0.2959
  194MPD1    H5 3012   0.754   1.955  17.342  1.3739  1.4641 -0.0635
  194MPD1    N1 3013   0.201   2.031  17.473  0.1937 -0.7425 -0.7038
  194MPD1    H6 3014   0.208   2.132  17.463 -2.1438 -0.5649 -0.5094
  194MPD1    H7 3015   0.114   2.003  17.429 -0.1274  0.3054 -0.7247
  195MPD1     C 3016   3.019   4.381   0.369 -0.6152  0.1842  0.2390
  195MPD1    C1 3017   2.904   4.319   0.328 -0.7185  0.5734 -0.1587
  195MPD1    C2 3018   2.908   4.189   0.278  0.2263  0.5142  0.4731
  195MPD1    C3 3019   3.026   4.124   0.282 -0.6063 -0.2336  0.2257
  195MPD1    C4 3020   3.139   4.187   0.320  0.1365  0.4194  0.7571
  195MPD1    C5 3021   3.136   4.314   0.352 -0.7604 -0.1209 -0.3547
  195MPD1     H 3022   2.816   4.146   0.241  0.4566  1.5648 -1.3405
  195MPD1    H1 3023   3.232   4.132   0.318 -0.4369 -0.4601 -1.1316
  195MPD1    H2 3024   3.019   4.480   0.412 -0.0350 -0.0668  0.8239
  195MPD1    H3 3025   3.230   4.360   0.381  0.1572 -1.5721 -0.9901
  195MPD1     N 3026   3.028   3.991   0.237 -0.0452 -0.3419  0.5132
  195MPD1    H5 3027   3.123   3.954   0.236 -0.5356 -1.5899 -2.3261
  195MPD1    N1 3028   2.776   4.376   0.353  0.3288  0.1269 -0.0740
  195MPD1    H6 3029   2.794   4.477   0.349 -0.7126  0.2777 -1.0550
  195MPD1    H7 3030   2.715   4.352   0.275 -0.4688  1.0489  0.2635
  196MPD1     C 3031   2.970   3.386   0.534  0.6414 -0.6756  0.3111
  196MPD1    C1 3032   3.048   3.490   0.578  0.6257  0.4395 -0.3298
  196MPD1    C2 3033   2.989   3.615   0.569  0.5812  0.1480  0.0120
  196MPD1    C3 3034   2.859   3.630   0.504  0.4740 -0.5073 -1.0785
  196MPD1    C4 3035   2.798   3.520   0.450 -0.0809  0.7300  0.1363
  196MPD1    C5 3036   2.851   3.396   0.468  0.2924 -0.3216 -0.7707
  196MPD1     H 3037   3.040   3.705   0.602  2.7739 -0.7513 -0.9135
  196MPD1    H1 3038   2.701   3.526   0.401 -0.2212 -0.3156  0.3030
  196MPD1    H2 3039   3.007   3.285   0.542 -1.1065 -1.6378 -3.4969
  196MPD1    H3 3040   2.799   3.307   0.435  0.2186 -1.0370  1.2283
  196MPD1     N 3041   2.793   3.754   0.491 -0.2407 -0.3544  0.4925
  196MPD1    H5 3042   2.696   3.749   0.459  0.4887 -2.3937 -1.3956
  196MPD1    N1 3043   3.165   3.470   0.657 -0.3260  0.0341 -0.6497
  196MPD1    H6 3044   3.231   3.547   0.652  1.5301 -1.5378 -0.4447
  196MPD1    H7 3045   3.216   3.393   0.613  2.0094  0.7197  0.8460
  197MPD1     C 3046   1.624   1.341  17.371  0.4056 -0.0668  0.2157
  197MPD1    C1 3047   1.626   1.464  17.305 -0.4014 -0.1683 -0.4720
  197MPD1    C2 3048   1.699   1.476  17.186  0.2811  0.3628  0.9825
  197MPD1    C3 3049   1.767   1.363  17.135  0.3566  0.0323  0.0057
  197MPD1    C4 3050   1.755   1.239  17.203  0.6761  0.5075  0.4769
  197MPD1    C5 3051   1.687   1.223  17.322  0.8868 -0.3290 -0.8719
  197MPD1     H 3052   1.707   1.573  17.139  1.3040 -0.7286 -1.1398
  197MPD1    H1 3053   1.810   1.147  17.186 -1.0308 -0.5817  0.7425
  197MPD1    H2 3054   1.578   1.329  17.468  0.0515  0.4995  0.1156
  197MPD1    H3 3055   1.672   1.128  17.371 -3.1548 -0.2183 -1.8671
  197MPD1     N 3056   1.846   1.356  17.018 -0.4330  0.2976 -0.5804
  197MPD1    H5 3057   1.886   1.265  16.998 -2.9261 -0.7455 -0.9116
  197MPD1    N1 3058   1.569   1.573  17.368  0.0866  0.4709 -0.2906
  197MPD1    H6 3059   1.528   1.643  17.307 -3.2471  0.5295  2.0533
  197MPD1    H7 3060   1.491   1.545  17.426  0.5218 -0.3561 -0.1002
  198MPD1     C 3061   4.271   4.066  15.365  0.5982  0.0547  0.5689
  198MPD1    C1 3062   4.301   4.195  15.335  0.5661 -0.3013 -0.0810
  198MPD1    C2 3063   4.292   4.291  15.438 -0.1504  0.3048  0.5116
  198MPD1    C3 3064   4.270   4.257  15.566  0.4599  0.0394  0.3237
  198MPD1    C4 3065   4.230   4.129  15.588  0.1905  0.4762 -0.2287
  198MPD1    C5 3066   4.227   4.031  15.490  0.0084  0.3209 -0.5515
  198MPD1     H 3067   4.302   4.397  15.417  0.5304  0.1186 -0.1125
  198MPD1    H1 3068   4.214   4.082  15.685  1.2562 -1.6805 -1.0929
  198MPD1    H2 3069   4.264   3.997  15.281  2.0681  1.4219 -0.6743
  198MPD1    H3 3070   4.213   3.927  15.518 -0.3247  0.1532 -1.3535
  198MPD1     N 3071   4.309   4.343  15.673 -0.7089 -0.1617  0.1767
  198MPD1    H5 3072   4.333   4.439  15.650 -2.9544  0.7765  1.7143
  198MPD1    N1 3073   4.310   4.240  15.202 -0.0289  0.2285  0.4399
  198MPD1    H6 3074   4.350   4.333  15.189 -0.6443  0.6898  1.8164
  198MPD1    H7 3075   4.366   4.177  15.145  0.4128  0.6281  0.4331
  199MPD1     C 3076   2.219   1.003   9.994 -0.3499  0.4156 -0.2882
  199MPD1    C1 3077   2.112   0.916   9.968  0.4169  0.0293 -0.7755
  199MPD1    C2 3078   1.981   0.957   9.986 -0.0732  0.0542 -0.0296
  199MPD1    C3 3079   1.959   1.091  10.027 -0.2315  0.6972  0.1265
  199MPD1    C4 3080   2.063   1.180  10.048  0.1375  0.0678  0.7721
  199MPD1    C5 3081   2.194   1.135  10.025 -0.4144  0.1495  0.1227
  199MPD1     H 3082   1.890   0.898   9.976  0.0028 -0.0833  0.1025
  199MPD1    H1 3083   2.051   1.283  10.079 -0.9891  0.7831 -1.9987
  199MPD1    H2 3084   2.322   0.974   9.974 -0.2690 -0.0303  0.8066
  199MPD1    H3 3085   2.282   1.199  10.025  0.3583 -0.9062  0.6370
  199MPD1     N 3086   1.833   1.152  10.038 -0.3514 -0.0703  0.3118
  199MPD1    H5 3087   1.836   1.252  10.057  0.3231  0.2048 -1.2517
  199MPD1    N1 3088   2.138   0.776   9.951 -0.4780 -0.4746 -0.0348
  199MPD1    H6 3089   2.054   0.729   9.918  0.6657 -1.5870 -1.4213
  199MPD1    H7 3090   2.210   0.754   9.882 -0.6373  1.1303 -0.7242
  200MPD1     C 3091   1.577   0.443  15.005 -0.2296 -1.2135 -0.4560
  200MPD1    C1 3092   1.621   0.563  14.951 -1.2279 -0.2004 -0.8374
  200MPD1    C2 3093   1.523   0.652  14.909  0.2722  0.4663  0.9529
  200MPD1    C3 3094   1.392   0.626  14.928 -0.2564  0.7797  0.2014
  200MPD1    C4 3095   1.357   0.510  14.987  0.5151  0.5806  0.5795
  200MPD1    C5 3096   1.443   0.418  15.031  0.9209 -0.1186 -0.1912
  200MPD1     H 3097   1.546   0.735  14.843  0.8883  0.5016  1.2129
  200MPD1    H1 3098   1.252   0.487  14.998  0.3444  0.6001 -0.9899
  200MPD1    H2 3099   1.652   0.372  15.035  3.6683  2.2070 -2.0376
  200MPD1    H3 3100   1.416   0.326  15.082 -3.5943  1.3287 -0.0087
  200MPD1     N 3101   1.300   0.718  14.876  0.5002 -0.1548 -0.5033
  200MPD1    H5 3102   1.334   0.805  14.838  1.9587 -0.6445 -0.3072
  200MPD1    N1 3103   1.753   0.591  14.915  0.0726  0.0084 -0.1414
  200MPD1    H6 3104   1.764   0.691  14.896 -1.5049 -0.0832 -1.4998
  200MPD1    H7 3105   1.786   0.529  14.842 -2.2965 -0.7706 -0.5560
  201MPD1     C 3106   2.493   4.499  13.552 -0.8627 -0.0554  1.4892
  201MPD1    C1 3107   2.444   4.375  13.582  0.4843  0.0710  0.0415
  201MPD1    C2 3108   2.533   4.269  13.567  0.7856  0.2468  0.9871
  201MPD1    C3 3109   2.660   4.289  13.523 -0.9350 -0.0134 -0.6505
  201MPD1    C4 3110   2.700   4.416  13.485  0.7284 -0.6691  0.2600
  201MPD1    C5 3111   2.619   4.518  13.502  0.7366  0.2547  0.3471
  201MPD1     H 3112   2.493   4.173  13.597 -0.3304 -0.0850 -1.5739
  201MPD1    H1 3113   2.792   4.428  13.430  0.7282 -0.5681  0.2811
  201MPD1    H2 3114   2.431   4.588  13.557  0.3489  0.9702 -1.6337
  201MPD1    H3 3115   2.646   4.612  13.456  1.8626 -0.4144 -0.3357
  201MPD1     N 3116   2.743   4.174  13.516 -0.6762 -0.2279 -0.2020
  201MPD1    H5 3117   2.701   4.091  13.555  1.3945 -0.6665  1.0916
  201MPD1    N1 3118   2.328   4.354  13.653 -0.4954 -0.1553 -0.2775
  201MPD1    H6 3119   2.288   4.261  13.644 -2.2363  0.6073 -0.5674
  201MPD1    H7 3120   2.254   4.417  13.624 -0.1165 -0.0945 -1.1190
  202MPD1     C 3121   2.959   3.735   9.434  0.1061 -0.5461  0.0790
  202MPD1    C1 3122   2.888   3.827   9.513 -0.3721  0.4378 -0.2692
  202MPD1    C2 3123   2.954   3.946   9.525 -0.7157 -0.0999 -0.0343
  202MPD1    C3 3124   3.085   3.961   9.501 -0.4205 -1.1532  1.0612
  202MPD1    C4 3125   3.158   3.861   9.436  0.3081 -0.1185  0.2276
  202MPD1    C5 3126   3.092   3.753   9.405 -0.0693 -0.3559  0.7775
  202MPD1     H 3127   2.900   4.025   9.575 -1.7130  0.1361 -1.5064
  202MPD1    H1 3128   3.265   3.860   9.419  0.4246  0.8347  0.9101
  202MPD1    H2 3129   2.906   3.646   9.400 -0.2511  0.2640 -1.4609
  202MPD1    H3 3130   3.151   3.673   9.361 -0.8144 -0.7868  0.5529
  202MPD1     N 3131   3.151   4.080   9.534  0.5716 -0.7038  0.9166
  202MPD1    H5 3132   3.253   4.074   9.538  0.7383  0.5532 -1.5724
  202MPD1    N1 3133   2.748   3.828   9.514  0.0296  0.1746  0.5430
  202MPD1    H6 3134   2.712   3.896   9.580  2.2779 -0.2569  2.1882
  202MPD1    H7 3135   2.702   3.737   9.516  0.7145 -0.0553  4.4978
  203MPD1     C 3136   1.201   4.616  11.737 -0.8299 -0.5395 -0.1012
  203MPD1    C1 3137   1.295   4.528  11.673 -0.3940  0.0493 -0.0734
  203MPD1    C2 3138   1.398   4.486  11.751 -0.6881 -0.3778 -0.2591
  203MPD1    C3 3139   1.408   4.507  11.885 -0.1395  0.6200 -0.0608
  203MPD1    C4 3140   1.307   4.580  11.946 -0.5718  0.6453  0.1599
  203MPD1    C5 3141   1.203   4.634  11.870 -0.2821  0.0868 -0.0855
  203MPD1     H 3142   1.472   4.423  11.703 -0.2451  1.1594 -1.5830
  203MPD1    H1 3143   1.297   4.588  12.053  0.8873 -0.5247  0.3794
  203MPD1    H2 3144   1.112   4.653  11.687 -1.1161  0.2198  0.9809
  203MPD1    H3 3145   1.123   4.689  11.918 -0.0119 -1.1346  1.7572
  203MPD1     N 3146   1.524   4.455  11.953  0.3370 -0.5502 -0.6784
  203MPD1    H5 3147   1.592   4.418  11.887  0.2597 -2.3071  0.2277
  203MPD1    N1 3148   1.281   4.509  11.538  0.2884 -0.9058 -0.0984
  203MPD1    H6 3149   1.330   4.430  11.497  2.1928 -0.9830  2.3871
  203MPD1    H7 3150   1.190   4.533  11.498  0.0441  1.0622  1.6140
  204MPD1     C 3151   1.184   1.055   0.137 -0.1482 -0.6833  0.0630
  204MPD1    C1 3152   1.155   0.915   0.134  0.0901  0.6238 -0.1447
  204MPD1    C2 3153   1.106   0.868   0.015  0.6690  0.4771  0.2896
  204MPD1    C3 3154   1.060   0.945  17.655 -0.0386 -0.7711 -0.4718
  204MPD1    C4 3155   1.081   1.082  17.657 -0.2363  0.5838 -0.5222
  204MPD1    C5 3156   1.145   1.135   0.026  0.0097 -0.4428 -0.3694
  204MPD1     H 3157   1.084   0.764  17.733 -1.9627  1.1410 -0.2214
  204MPD1    H1 3158   1.054   1.155  17.582  0.7380  0.1852 -1.2589
  204MPD1    H2 3159   1.229   1.106   0.222  1.2749 -2.1788  0.2138
  204MPD1    H3 3160   1.159   1.243   0.027  0.8811 -0.5660  0.2594
  204MPD1     N 3161   0.991   0.890  17.544 -0.4777 -0.3364  0.2276
  204MPD1    H5 3162   0.980   0.789  17.541 -0.8491 -0.3158  1.1051
  204MPD1    N1 3163   1.205   0.821   0.223  0.8543 -0.2579  0.1200
  204MPD1    H6 3164   1.136   0.746   0.220  0.9157 -0.2695 -0.9058
  204MPD1    H7 3165   1.216   0.855   0.319 -0.4530 -3.2153  1.3110
  205MPD1     C 3166   2.202   4.632  17.117 -0.1180 -1.0705  0.1447
  205MPD1    C1 3167   2.154   4.556  17.223  0.3464  0.4101 -0.5298
  205MPD1    C2 3168   2.023   4.574  17.263  0.8476  0.0185 -0.0477
  205MPD1    C3 3169   1.932   4.650  17.190 -0.5505  0.8165 -0.3312
  205MPD1    C4 3170   1.974   4.711  17.069  0.8876 -0.2061  0.1717
  205MPD1    C5 3171   2.111   4.705  17.041 -0.1922  0.0991 -0.0197
  205MPD1     H 3172   1.983   4.522  17.349 -2.3338 -0.1155 -1.5917
  205MPD1    H1 3173   1.912   0.045  17.013  2.1671 -0.2184 -1.2473
  205MPD1    H2 3174   2.299   4.634  17.069 -0.1747 -0.1856  0.0688
  205MPD1    H3 3175   2.143   0.020  16.950 -0.9430 -0.1325 -0.4034
  205MPD1     N 3176   1.796   4.674  17.226 -0.1648 -0.5508  0.1656
  205MPD1    H5 3177   1.729   4.697  17.153 -0.2388 -0.0925  0.3763
  205MPD1    N1 3178   2.249   4.468  17.294 -0.1378  0.6967  0.2133
  205MPD1    H6 3179   2.302   4.407  17.232  0.0598 -0.6062  1.6590
  205MPD1    H7 3180   2.213   4.410  17.370  2.5321  0.8399  1.5983
  206MPD1     C 3181   1.356   2.842  17.437  0.5007 -0.0885  0.2321
  206MPD1    C1 3182   1.431   2.924  17.358  0.2593 -0.3738 -0.2236
  206MPD1    C2 3183   1.399   2.942  17.228  0.3771 -0.4399 -0.7015
  206MPD1    C3 3184   1.276   2.896  17.178  0.6080  1.1089  0.6116
  206MPD1    C4 3185   1.202   2.820  17.263  0.7885  0.2180  0.8803
  206MPD1    C5 3186   1.243   2.790  17.392 -0.9970  0.8923 -0.0792
  206MPD1     H 3187   1.473   2.973  17.156 -0.7046  2.2256 -0.6587
  206MPD1    H1 3188   1.104   2.785  17.234  1.4405 -1.6832  0.9730
  206MPD1    H2 3189   1.383   2.814  17.538  0.7305 -1.5097 -0.2179
  206MPD1    H3 3190   1.176   2.739  17.460  0.7797 -0.4354  0.6608
  206MPD1     N 3191   1.223   2.922  17.048  0.2005  0.5300  0.0661
  206MPD1    H5 3192   1.138   2.871  17.026  0.4502 -0.1675  0.6964
  206MPD1    N1 3193   1.564   2.961  17.400  0.3615  0.2921  0.1456
  206MPD1    H6 3194   1.581   2.952  17.500  0.7424  1.5817  0.1930
  206MPD1    H7 3195   1.591   3.047  17.353 -0.4789  0.6202  0.2639
  207MPD1     C 3196   3.611   0.026  10.037 -0.5518  0.6607 -0.1168
  207MPD1    C1 3197   3.647   0.002  10.166 -0.6072 -0.9549 -0.7375
  207MPD1    C2 3198   3.760   0.072  10.212  0.7295  0.7077 -0.5321
  207MPD1    C3 3199   3.852   0.122  10.121  0.5273  0.7807  0.3969
  207MPD1    C4 3200   3.807   0.140   9.993 -0.2844 -0.3004 -0.5284
  207MPD1    C5 3201   3.686   0.093   9.951  0.2126  0.0704  0.5351
  207MPD1     H 3202   3.782   0.087  10.318  0.8539  0.5621 -0.5357
  207MPD1    H1 3203   3.867   0.192   9.920  0.1498 -0.5113 -0.3182
  207MPD1    H2 3204   3.517   4.721  10.000 -0.4429 -0.2693  0.6128
  207MPD1    H3 3205   3.645   0.117   9.853 -0.5628 -1.1276  0.5759
  207MPD1     N 3206   3.985   0.155  10.154 -0.1177 -0.5633  0.1202
  207MPD1    H5 3207   4.038   0.195  10.077  0.5265  1.5250  1.6570
  207MPD1    N1 3208   3.554   4.681  10.253 -0.0768 -0.2256 -0.0089
  207MPD1    H6 3209   3.488   0.014  10.288  1.9876  1.8949 -0.2579
  207MPD1    H7 3210   3.502   4.603  10.212 -1.2233 -0.9431  2.7998
  208MPD1     C 3211   1.022   3.197   0.801 -0.1220  0.4249  0.4825
  208MPD1    C1 3212   1.138   3.254   0.859  0.2842  0.3938  0.4751
  208MPD1    C2 3213   1.207   3.337   0.771 -0.6009 -0.3321  0.1575
  208MPD1    C3 3214   1.171   3.361   0.641 -0.2254  0.3558  0.1798
  208MPD1    C4 3215   1.065   3.287   0.584  0.3629 -0.5606 -0.3488
  208MPD1    C5 3216   0.988   3.215   0.669 -0.2548  0.1897  0.4490
  208MPD1     H 3217   1.301   3.384   0.794  0.1623 -0.5035 -2.5440
  208MPD1    H1 3218   1.032   3.301   0.482 -0.0941 -2.4036 -0.4512
  208MPD1    H2 3219   0.959   3.128   0.856 -1.3344  2.8361  2.0790
  208MPD1    H3 3220   0.896   3.171   0.632  1.2348 -1.0749 -1.7734
  208MPD1     N 3221   1.241   3.466   0.577  0.5850  0.3217 -0.6654
  208MPD1    H5 3222   1.304   3.525   0.630  2.4185 -1.9549 -0.3319
  208MPD1    N1 3223   1.192   3.220   0.986 -0.1769 -0.4703  0.3815
  208MPD1    H6 3224   1.115   3.214   1.053 -0.4529  1.8598  0.2839
  208MPD1    H7 3225   1.252   3.295   1.021 -1.7300  1.2076 -0.5104
  209MPD1     C 3226   0.266   1.238  11.061  0.0298 -0.2424  0.2010
  209MPD1    C1 3227   0.349   1.172  10.975 -0.1517  0.2989 -0.7475
  209MPD1    C2 3228   0.351   1.034  10.973  0.2752  0.4228 -0.3776
  209MPD1    C3 3229   0.269   0.954  11.048 -0.4796 -0.0628  0.7042
  209MPD1    C4 3230   0.182   1.020  11.137  0.4321 -0.6019  0.6816
  209MPD1    C5 3231   0.182   1.160  11.140  0.0349  0.1775 -0.0003
  209MPD1     H 3232   0.425   0.981  10.915 -0.1604 -2.8815  2.0797
  209MPD1    H1 3233   0.129   0.959  11.210 -0.3782 -0.7837 -0.0638
  209MPD1    H2 3234   0.243   1.343  11.048  1.1305  0.3833  3.5620
  209MPD1    H3 3235   0.114   1.210  11.208 -0.8154  0.7540 -1.2782
  209MPD1     N 3236   0.287   0.814  11.033 -0.4471 -0.4919 -0.2966
  209MPD1    H5 3237   0.365   0.781  10.976 -1.1928 -0.7402 -1.1706
  209MPD1    N1 3238   0.423   1.239  10.882  0.3191  0.3381 -0.4649
  209MPD1    H6 3239   0.509   1.191  10.857 -0.8136 -1.7379 -0.3711
  209MPD1    H7 3240   0.446   1.337  10.898  2.5842 -0.3305  0.5056
  210MPD1     C 3241   0.878   0.268  10.583  0.1030 -0.6134  0.6932
  210MPD1    C1 3242   0.898   0.334  10.701 -0.2154  0.0925  0.6982
  210MPD1    C2 3243   0.789   0.370  10.780 -0.0058 -0.2118 -0.0299
  210MPD1    C3 3244   0.658   0.332  10.734 -0.0925  0.0308  0.0236
  210MPD1    C4 3245   0.645   0.274  10.608  0.5613 -0.8252 -0.0078
  210MPD1    C5 3246   0.757   0.240  10.536 -0.7101 -0.4762 -0.5146
  210MPD1     H 3247   0.812   0.432  10.866  1.4215  0.5331 -0.9428
  210MPD1    H1 3248   0.547   0.248  10.571  0.0068 -0.5458  1.2581
  210MPD1    H2 3249   0.961   0.228  10.527  0.0394 -0.3345  0.4026
  210MPD1    H3 3250   0.754   0.185  10.443 -0.3599 -1.4146  0.0200
  210MPD1     N 3251   0.543   0.353  10.807  0.1119  0.2501  0.4895
  210MPD1    H5 3252   0.457   0.334  10.757  0.3595  0.5689 -0.0600
  210MPD1    N1 3253   1.028   0.340  10.749 -0.4249  0.0763 -0.8682
  210MPD1    H6 3254   1.025   0.414  10.819 -0.9434 -0.3898 -0.3954
  210MPD1    H7 3255   1.103   0.363  10.684  0.8056  1.5016  1.0360
  211MPD1     C 3256   2.102   4.345  16.334  0.8185 -0.3912  0.2258
  211MPD1    C1 3257   1.971   4.307  16.346  0.1158  0.5807 -0.2594
  211MPD1    C2 3258   1.877   4.409  16.330  0.0768  0.3488 -0.2126
  211MPD1    C3 3259   1.913   4.534  16.295 -0.3723 -0.2883  0.0854
  211MPD1    C4 3260   2.050   4.572  16.280 -0.2074  0.1193  0.2843
  211MPD1    C5 3261   2.139   4.469  16.285  0.1655 -0.1904 -0.1689
  211MPD1     H 3262   1.773   4.378  16.330  0.8088 -2.1640 -0.7954
  211MPD1    H1 3263   2.086   4.670  16.250  2.2532 -0.5448  1.0934
  211MPD1    H2 3264   2.174   4.265  16.347  0.8645 -0.3515  0.2181
  211MPD1    H3 3265   2.244   4.493  16.268 -0.0693  0.2357 -1.0203
  211MPD1     N 3266   1.810   4.622  16.281  0.3983 -0.5805 -0.4485
  211MPD1    H5 3267   1.719   4.579  16.293  0.0855 -0.3020 -1.7483
  211MPD1    N1 3268   1.942   4.181  16.392  0.4204  0.0798 -0.7889
  211MPD1    H6 3269   1.867   4.146  16.333  1.0088 -0.8150 -1.0067
  211MPD1    H7 3270   2.022   4.123  16.367  1.3366  1.0110 -0.0071
  212MPD1     C 3271   0.769   3.020  16.731  0.2744  0.2917  0.1273
  212MPD1    C1 3272   0.749   3.034  16.864  0.8279 -0.1806 -0.4643
  212MPD1    C2 3273   0.668   2.934  16.930  0.2534 -0.2465  0.6164
  212MPD1    C3 3274   0.650   2.807  16.876  0.5324  0.2429  0.7047
  212MPD1    C4 3275   0.686   2.797  16.740 -0.2959  0.2871 -0.1661
  212MPD1    C5 3276   0.739   2.906  16.670 -0.3464 -0.2680 -0.0456
  212MPD1     H 3277   0.639   2.959  17.031  0.2257  0.6921  0.3857
  212MPD1    H1 3278   0.676   2.698  16.695 -2.5667 -0.1991  1.3966
  212MPD1    H2 3279   0.816   3.099  16.674 -1.8271  0.2204 -1.7308
  212MPD1    H3 3280   0.769   2.886  16.568  0.3261  1.3005 -0.1490
  212MPD1     N 3281   0.597   2.697  16.944  0.0849  0.4011 -0.1356
  212MPD1    H5 3282   0.591   2.612  16.888 -0.8581 -0.5636  1.4544
  212MPD1    N1 3283   0.768   3.167  16.915  0.3496  0.4986 -0.3132
  212MPD1    H6 3284   0.846   3.211  16.868  0.5216  0.5716  0.0443
  212MPD1    H7 3285   0.775   3.162  17.016 -1.8163 -0.6601 -0.2124
  213MPD1     C 3286   3.396   4.007  15.853  0.1026 -0.2621 -0.5041
  213MPD1    C1 3287   3.402   4.097  15.748 -0.5355  0.4479  0.1796
  213MPD1    C2 3288   3.428   4.041  15.625 -0.2888  0.1136 -0.0384
  213MPD1    C3 3289   3.460   3.907  15.611 -0.3362 -0.6153  0.0540
  213MPD1    C4 3290   3.470   3.826  15.729  0.6325 -0.2074  0.2399
  213MPD1    C5 3291   3.437   3.879  15.846  0.4117 -0.0054 -0.8289
  213MPD1     H 3292   3.417   4.099  15.534  3.1440  0.5301 -0.1834
  213MPD1    H1 3293   3.496   3.721  15.743 -0.8143 -0.6491 -0.4132
  213MPD1    H2 3294   3.362   4.044  15.949 -0.0614  1.0582 -1.0730
  213MPD1    H3 3295   3.438   3.817  15.934  0.3521  0.5613 -0.4302
  213MPD1     N 3296   3.458   3.847  15.482  0.0066 -0.8339 -0.0329
  213MPD1    H5 3297   3.439   3.916  15.410 -0.2319  0.8332  1.6476
  213MPD1    N1 3298   3.309   4.202  15.755  0.0202  0.0324 -0.2538
  213MPD1    H6 3299   3.320   4.272  15.681 -1.9063 -1.3805 -1.8838
  213MPD1    H7 3300   3.323   4.234  15.850 -0.2096  2.8807 -1.1641
  214MPD1     C 3301   2.701   3.487  14.973  0.2932  0.0781 -0.9452
  214MPD1    C1 3302   2.767   3.384  15.037  0.0621  0.1349 -0.0099
  214MPD1    C2 3303   2.900   3.394  15.069 -0.9991 -0.1975 -0.0607
  214MPD1    C3 3304   2.973   3.503  15.027 -0.3558  0.6629  0.2484
  214MPD1    C4 3305   2.909   3.601  14.960 -0.5438 -0.2117 -0.1875
  214MPD1    C5 3306   2.774   3.593  14.927  0.1023 -0.5211  0.5159
  214MPD1     H 3307   2.950   3.335  15.145 -1.5070  0.1745  0.5672
  214MPD1    H1 3308   2.957   3.696  14.940  0.6498 -1.0021 -1.1386
  214MPD1    H2 3309   2.594   3.489  14.958  0.2002  0.7962 -0.1881
  214MPD1    H3 3310   2.716   3.679  14.896 -0.4041 -1.2233 -0.4908
  214MPD1     N 3311   3.106   3.528  15.062  0.3056  0.7440  0.5368
  214MPD1    H5 3312   3.145   3.611  15.019 -3.5278  0.8795 -2.6301
  214MPD1    N1 3313   2.692   3.286  15.107  0.3873 -0.3572  0.5002
  214MPD1    H6 3314   2.732   3.194  15.089 -0.1355 -0.7009  1.0708
  214MPD1    H7 3315   2.596   3.281  15.072 -0.1086  2.1838  1.5217
  215MPD1     C 3316   3.726   4.286  11.280  0.2796 -0.5475  0.5531
  215MPD1    C1 3317   3.788   4.347  11.382 -0.3822 -0.2509  0.3643
  215MPD1    C2 3318   3.823   4.477  11.375  0.7952 -0.3755 -0.6500
  215MPD1    C3 3319   3.817   4.543  11.253  0.3037  0.7887 -0.3197
  215MPD1    C4 3320   3.759   4.478  11.147  1.0448  0.4420 -0.5197
  215MPD1    C5 3321   3.714   4.348  11.163 -0.1477 -0.4027  0.3835
  215MPD1     H 3322   3.861   4.522  11.466  1.2114  0.7793 -1.4002
  215MPD1    H1 3323   3.753   4.518  11.046 -0.9851 -2.0496 -1.3754
  215MPD1    H2 3324   3.680   4.188  11.284 -1.1808  0.0826 -1.0629
  215MPD1    H3 3325   3.664   4.290  11.086 -0.1016  0.6471 -0.4358
  215MPD1     N 3326   3.858   4.684  11.254 -0.3357  0.2776 -0.2298
  215MPD1    H5 3327   3.890   4.716  11.345  0.8690  0.3263 -0.6791
  215MPD1    N1 3328   3.801   4.283  11.505 -0.4469  0.1047 -0.2763
  215MPD1    H6 3329   3.810   4.181  11.499 -0.4571  0.1392 -0.8220
  215MPD1    H7 3330   3.873   4.321  11.566  0.5757 -3.3000  0.6846
  216MPD1     C 3331   0.085   2.790   0.301  0.2533  0.2661  0.2190
  216MPD1    C1 3332   0.107   2.678   0.223  0.6457  0.6339 -0.0940
  216MPD1    C2 3333   0.116   2.558   0.283  0.0125 -0.1818  1.1356
  216MPD1    C3 3334   0.099   2.535   0.422 -0.3397  0.4928 -0.4875
  216MPD1    C4 3335   0.079   2.646   0.500 -0.0807 -1.0536  0.2887
  216MPD1    C5 3336   0.071   2.766   0.437 -0.4393  0.1309 -0.2049
  216MPD1     H 3337   0.158   2.474   0.227  0.1352  0.8773 -0.3696
  216MPD1    H1 3338   0.064   2.639   0.607 -0.0192  0.1282  0.3833
  216MPD1    H2 3339   0.072   2.890   0.263 -0.2225  0.4763  0.9278
  216MPD1    H3 3340   0.068   2.857   0.496  0.4669 -0.8004  1.2801
  216MPD1     N 3341   0.109   2.417   0.487  0.1112 -0.0863  0.8185
  216MPD1    H5 3342   0.095   2.422   0.588 -0.9519  2.0215  0.5512
  216MPD1    N1 3343   0.141   2.688   0.084 -0.3302  0.0552 -0.0269
  216MPD1    H6 3344   0.110   2.611   0.025  1.1492  1.0133 -2.0691
  216MPD1    H7 3345   0.090   2.763   0.039  1.7008 -0.1005 -2.6077
  217MPD1     C 3346   2.540   3.890   8.638  0.1467 -0.6433  0.0989
  217MPD1    C1 3347   2.418   3.958   8.630  0.5228  0.2799 -0.5399
  217MPD1    C2 3348   2.339   3.969   8.746 -0.1232  0.2695  0.3458
  217MPD1    C3 3349   2.374   3.890   8.856  0.2353  0.3484  0.0798
  217MPD1    C4 3350   2.485   3.807   8.846  0.4458 -0.5998 -0.4950
  217MPD1    C5 3351   2.573   3.828   8.748  0.0122 -0.1063 -0.2908
  217MPD1     H 3352   2.246   4.025   8.744 -0.1774  0.2457  2.3565
  217MPD1    H1 3353   2.520   3.754   8.934  0.7557  0.4061 -0.0049
  217MPD1    H2 3354   2.613   3.892   8.558  1.4635 -1.0363  1.2760
  217MPD1    H3 3355   2.671   3.782   8.749  0.0535  0.0066  1.7733
  217MPD1     N 3356   2.309   3.892   8.979 -0.5273 -0.1657  0.6904
  217MPD1    H5 3357   2.343   3.827   9.050 -0.2366 -1.2576 -0.4446
  217MPD1    N1 3358   2.399   4.050   8.531 -0.2003  0.6183 -0.2282
  217MPD1    H6 3359   2.300   4.065   8.513  0.3867 -0.1926 -4.0890
  217MPD1    H7 3360   2.437   4.007   8.447  1.0631 -0.0006  0.6612
  218MPD1     C 3361   2.979   0.399  12.568  0.1010  0.0848  0.3674
  218MPD1    C1 3362   3.079   0.488  12.561 -0.0269  0.1507 -0.2338
  218MPD1    C2 3363   3.209   0.445  12.584  0.4622 -0.3516  0.4712
  218MPD1    C3 3364   3.246   0.318  12.607 -0.1321  0.3726  0.1376
  218MPD1    C4 3365   3.138   0.226  12.620 -0.2815  0.2557  0.0769
  218MPD1    C5 3366   3.008   0.267  12.594  0.4577 -0.1152  0.5438
  218MPD1     H 3367   3.280   0.527  12.575  0.0377 -0.1271 -0.8408
  218MPD1    H1 3368   3.148   0.119  12.636 -0.2511 -0.2566 -3.5675
  218MPD1    H2 3369   2.875   0.430  12.566  0.5329  1.4433 -0.7482
  218MPD1    H3 3370   2.925   0.198  12.596  2.0114 -2.1825 -3.7054
  218MPD1     N 3371   3.384   0.274  12.607 -0.4079 -0.4153 -0.9622
  218MPD1    H5 3372   3.456   0.346  12.607 -1.6310  0.8273 -1.9342
  218MPD1    N1 3373   3.049   0.622  12.544 -0.0385 -0.7393  0.9094
  218MPD1    H6 3374   2.963   0.634  12.489  0.8191  1.1286 -0.0308
  218MPD1    H7 3375   3.126   0.670  12.498  0.2012 -2.8893 -0.9354
  219MPD1     C 3376   3.905   0.359  11.929  0.1775  0.5271 -0.1217
  219MPD1    C1 3377   3.990   0.379  12.034 -0.2085 -0.3731 -0.1093
  219MPD1    C2 3378   3.949   0.341  12.166 -0.2138  0.2825  0.8218
  219MPD1    C3 3379   3.825   0.284  12.188  0.3393  0.1644 -0.3562
  219MPD1    C4 3380   3.738   0.270  12.085 -0.4070 -0.3166  0.6380
  219MPD1    C5 3381   3.773   0.312  11.958 -0.4512 -0.5927  0.0501
  219MPD1     H 3382   4.019   0.357  12.246 -1.3964 -0.0848  1.9280
  219MPD1    H1 3383   3.641   0.220  12.091 -0.3154 -0.2172  3.1659
  219MPD1    H2 3384   3.932   0.403  11.833 -0.5598  0.7141 -0.2407
  219MPD1    H3 3385   3.697   0.302  11.881 -1.1612  0.4300  0.6015
  219MPD1     N 3386   3.783   0.238  12.313  0.5592 -0.0848  0.2630
  219MPD1    H5 3387   3.687   0.205  12.317  1.0927 -1.3524  2.4984
  219MPD1    N1 3388   4.112   0.428  12.001 -0.3272  0.3800 -0.0177
  219MPD1    H6 3389   4.173   0.434  12.082  0.5745  1.9894 -0.8224
  219MPD1    H7 3390   4.161   0.374  11.930 -0.8939 -0.2225  0.0433
  220MPD1     C 3391   3.384   0.741   9.504  0.2066 -0.5987  0.9498
  220MPD1    C1 3392   3.294   0.657   9.566 -0.8966  0.0907  0.2823
  220MPD1    C2 3393   3.335   0.580   9.670  0.4786  0.3966 -0.2355
  220MPD1    C3 3394   3.459   0.601   9.735 -0.5869 -0.3680  0.0913
  220MPD1    C4 3395   3.538   0.698   9.676 -0.5207  0.0540  0.2833
  220MPD1    C5 3396   3.502   0.763   9.564 -0.3386 -0.0498 -0.1621
  220MPD1     H 3397   3.270   0.500   9.704 -2.4377  1.3099 -3.7319
  220MPD1    H1 3398   3.638   0.724   9.708 -0.0644  0.8625 -1.7986
  220MPD1    H2 3399   3.368   0.787   9.407  1.9081  1.5642  1.6999
  220MPD1    H3 3400   3.575   0.833   9.526 -1.3304  1.6522  1.0334
  220MPD1     N 3401   3.502   0.524   9.849  0.0940  0.3907 -0.0094
  220MPD1    H5 3402   3.426   0.477   9.898 -0.4059  1.3062  0.0773
  220MPD1    N1 3403   3.176   0.628   9.495  0.0457 -0.0955  0.2039
  220MPD1    H6 3404   3.156   0.715   9.447  2.3357 -0.3381 -1.2078
  220MPD1    H7 3405   3.102   0.598   9.558  0.2065  0.0156  0.4466
  221MPD1     C 3406   2.646   3.266  16.247  0.0107 -0.3824  0.5043
  221MPD1    C1 3407   2.536   3.232  16.312  0.2287 -0.1203 -0.1550
  221MPD1    C2 3408   2.408   3.270  16.267  0.2820  1.0945  0.9075
  221MPD1    C3 3409   2.398   3.348  16.152  0.4203 -0.0537  0.4691
  221MPD1    C4 3410   2.515   3.388  16.082  0.2170 -0.2345 -0.2091
  221MPD1    C5 3411   2.640   3.352  16.134  0.1511 -0.3914 -0.0297
  221MPD1     H 3412   2.323   3.229  16.320  0.8426  1.8683  2.4186
  221MPD1    H1 3413   2.511   3.455  15.997 -0.3142  0.6587  0.5248
  221MPD1    H2 3414   2.741   3.233  16.286  0.4215  0.3265  0.0941
  221MPD1    H3 3415   2.734   3.374  16.085 -0.0426  1.3937  0.4071
  221MPD1     N 3416   2.267   3.391  16.105 -0.3291 -0.3938 -0.6882
  221MPD1    H5 3417   2.252   3.435  16.015 -1.0515 -0.4076 -0.5717
  221MPD1    N1 3418   2.539   3.146  16.425 -0.1325  0.2068  0.1283
  221MPD1    H6 3419   2.464   3.166  16.490  0.6895 -0.9365  1.4346
  221MPD1    H7 3420   2.632   3.142  16.465  0.6284  2.4049 -1.3772
  222MPD1     C 3421   0.577   2.005   0.284  0.1007 -0.5723  0.2978
  222MPD1    C1 3422   0.541   2.110   0.198 -0.4031 -0.2841 -0.6473
  222MPD1    C2 3423   0.515   2.231   0.254  0.3352 -0.6533  0.1520
  222MPD1    C3 3424   0.548   2.262   0.386  0.1039 -0.2560  0.2663
  222MPD1    C4 3425   0.591   2.157   0.469 -0.0294 -0.9601 -0.2681
  222MPD1    C5 3426   0.602   2.034   0.417  0.1670 -0.0479 -0.0523
  222MPD1     H 3427   0.458   2.305   0.198  0.2178  0.9365  2.3794
  222MPD1    H1 3428   0.607   2.177   0.574 -0.4077 -1.8230 -0.0495
  222MPD1    H2 3429   0.595   1.905   0.245 -0.1827 -0.0107 -1.2972
  222MPD1    H3 3430   0.616   1.955   0.489 -1.5281 -0.5591 -0.2850
  222MPD1     N 3431   0.515   2.381   0.447 -0.1349 -0.0498  0.2343
  222MPD1    H5 3432   0.543   2.380   0.544 -0.9365 -1.6897  0.4546
  222MPD1    N1 3433   0.501   2.076   0.072  0.1952 -0.4226 -1.1718
  222MPD1    H6 3434   0.549   1.995   0.033  1.4734 -0.5797  0.6946
  222MPD1    H7 3435   0.500   2.146  17.737 -0.2302 -1.8340 -2.5215
  223MPD1     C 3436   0.603   2.562   1.247 -0.1974  0.0203  0.1837
  223MPD1    C1 3437   0.651   2.485   1.144 -0.2172 -0.0699  0.2560
  223MPD1    C2 3438   0.610   2.513   1.015 -0.2504 -0.1237 -0.2093
  223MPD1    C3 3439   0.517   2.613   0.986 -0.1048 -0.1371 -0.0363
  223MPD1    C4 3440   0.479   2.690   1.090  0.1152  0.0603  0.0494
  223MPD1    C5 3441   0.525   2.670   1.216 -1.4843 -0.1528  0.2391
  223MPD1     H 3442   0.647   2.440   0.944 -0.5910  0.0818 -0.6022
  223MPD1    H1 3443   0.412   2.774   1.075 -1.0341 -0.8401  0.2011
  223MPD1    H2 3444   0.639   2.555   1.349 -1.5955  2.5494  0.8519
  223MPD1    H3 3445   0.500   2.737   1.298  1.5134 -0.5683  1.5019
  223MPD1     N 3446   0.485   2.631   0.850  0.0163 -0.1313  0.0511
  223MPD1    H5 3447   0.545   2.576   0.788  0.0891 -0.0808  0.0768
  223MPD1    N1 3448   0.758   2.392   1.173  0.1303  0.1604 -0.4913
  223MPD1    H6 3449   0.757   2.359   1.269  1.4771  1.3567 -0.0718
  223MPD1    H7 3450   0.746   2.304   1.124  1.0925 -2.0918  3.3461
  224MPD1     C 3451   3.065   0.982   9.914 -0.0146  0.3869  0.0201
  224MPD1    C1 3452   3.128   0.882   9.850 -1.1692  0.0855 -0.3116
  224MPD1    C2 3453   3.067   0.761   9.828 -0.0344 -0.1155  0.1177
  224MPD1    C3 3454   2.932   0.747   9.853  0.7225 -0.6062  0.1236
  224MPD1    C4 3455   2.863   0.851   9.905 -0.6749 -0.9731 -0.2379
  224MPD1    C5 3456   2.931   0.965   9.947  0.1750  0.5229 -0.1525
  224MPD1     H 3457   3.126   0.685   9.779 -1.5139 -0.5032 -1.0517
  224MPD1    H1 3458   2.755   0.848   9.920 -0.7668  0.5644 -0.5474
  224MPD1    H2 3459   3.108   1.080   9.927  2.5637 -0.4769 -2.0003
  224MPD1    H3 3460   2.872   1.046   9.987  0.6597  0.6642  0.2839
  224MPD1     N 3461   2.857   0.628   9.849 -0.3474  0.0875 -0.1937
  224MPD1    H5 3462   2.757   0.637   9.867 -0.0080 -1.6717  2.5487
  224MPD1    N1 3463   3.263   0.897   9.831 -0.3279 -0.2338 -0.6940
  224MPD1    H6 3464   3.295   0.851   9.745  1.4367 -3.7587  1.8285
  224MPD1    H7 3465   3.291   0.994   9.819  0.0392 -0.1429  0.9231
  225MPD1     C 3466   3.443   1.437  12.376  0.1066  0.3867  0.7158
  225MPD1    C1 3467   3.465   1.300  12.380  0.4828  0.1871 -0.7214
  225MPD1    C2 3468   3.369   1.211  12.333  0.1402 -0.4182  0.1930
  225MPD1    C3 3469   3.261   1.251  12.266  0.2753  0.4151 -0.0719
  225MPD1    C4 3470   3.242   1.394  12.255  0.1427 -0.0702  0.4982
  225MPD1    C5 3471   3.329   1.487  12.315  0.0623 -0.8204  0.1513
  225MPD1     H 3472   3.378   1.106  12.359 -0.0185 -0.3078  0.7009
  225MPD1    H1 3473   3.155   1.433  12.204  0.1911  0.0098  0.4762
  225MPD1    H2 3474   3.499   1.508  12.435  1.4895 -0.7066  0.7056
  225MPD1    H3 3475   3.314   1.594  12.306 -0.4664 -0.7936  1.3911
  225MPD1     N 3476   3.170   1.162  12.201  0.3627  0.5787 -0.5493
  225MPD1    H5 3477   3.083   1.198  12.165  0.0035  0.8512  0.6014
  225MPD1    N1 3478   3.565   1.249  12.462 -0.4135 -0.4399 -0.5210
  225MPD1    H6 3479   3.585   1.156  12.427 -0.4572  0.0494 -1.8642
  225MPD1    H7 3480   3.649   1.306  12.446 -1.4487  1.2170 -0.0564
  226MPD1     C 3481   1.390   1.729   9.312 -0.3601 -0.0573 -0.2411
  226MPD1    C1 3482   1.361   1.652   9.422  0.1650 -0.7767 -0.7847
  226MPD1    C2 3483   1.467   1.591   9.486  1.2663 -0.1521  0.6890
  226MPD1    C3 3484   1.602   1.622   9.459 -0.4491  0.8763 -0.4989
  226MPD1    C4 3485   1.634   1.725   9.367  0.8507  0.5510 -0.6823
  226MPD1    C5 3486   1.526   1.764   9.287  0.0189 -0.2508  0.5526
  226MPD1     H 3487   1.437   1.518   9.560  2.5044 -0.4265  0.9305
  226MPD1    H1 3488   1.728   1.773   9.345  1.0142  0.1545 -0.8440
  226MPD1    H2 3489   1.320   1.767   9.239  0.3810  0.6999 -0.5629
  226MPD1    H3 3490   1.546   1.829   9.203 -1.5293 -0.2085  0.2157
  226MPD1     N 3491   1.696   1.560   9.543 -0.3199 -0.0300  0.5420
  226MPD1    H5 3492   1.662   1.491   9.609 -0.7715 -0.9945 -0.7014
  226MPD1    N1 3493   1.226   1.617   9.434 -0.5657 -0.1063 -0.0180
  226MPD1    H6 3494   1.199   1.586   9.528  0.5093 -0.0109  0.3228
  226MPD1    H7 3495   1.163   1.694   9.412 -0.2183 -0.1177 -1.0288
  227MPD1     C 3496   2.700   1.216   9.793 -0.3101 -0.5211 -0.2910
  227MPD1    C1 3497   2.628   1.126   9.718  0.1644 -0.2333  0.1603
  227MPD1    C2 3498   2.497   1.159   9.698 -0.3621 -0.3586  0.2095
  227MPD1    C3 3499   2.435   1.273   9.748 -0.4151  0.4288 -0.3780
  227MPD1    C4 3500   2.513   1.362   9.821 -0.1099 -0.1330 -0.3556
  227MPD1    C5 3501   2.648   1.333   9.844  0.3305  0.2790  0.1158
  227MPD1     H 3502   2.442   1.097   9.628  0.2039  0.0231 -0.5762
  227MPD1    H1 3503   2.472   1.449   9.871 -2.2245 -1.1658 -0.2513
  227MPD1    H2 3504   2.801   1.200   9.828 -1.1852  0.2758  2.5793
  227MPD1    H3 3505   2.710   1.404   9.897 -1.0740  0.1447  1.9556
  227MPD1     N 3506   2.298   1.291   9.724 -0.1668 -0.1974  0.2322
  227MPD1    H5 3507   2.247   1.222   9.668  0.3118  1.4257 -2.1850
  227MPD1    N1 3508   2.686   1.017   9.652  0.0273  0.6882 -0.1928
  227MPD1    H6 3509   2.622   0.938   9.645  0.7069  0.0653  0.7910
  227MPD1    H7 3510   2.771   0.999   9.705 -0.5898  2.0298  1.2514
  228MPD1     C 3511   0.377   3.224  12.931 -1.1064  0.5896 -0.5583
  228MPD1    C1 3512   0.317   3.292  12.827 -0.0407  0.1312 -0.6198
  228MPD1    C2 3513   0.178   3.298  12.835 -0.6965 -0.5271  0.0920
  228MPD1    C3 3514   0.115   3.263  12.949  0.0866  0.2041  0.3761
  228MPD1    C4 3515   0.180   3.211  13.063  0.3181  0.4566  0.1850
  228MPD1    C5 3516   0.313   3.190  13.045 -0.7243  0.1642 -0.2363
  228MPD1     H 3517   0.132   3.345  12.748  1.8924  0.8954 -0.4955
  228MPD1    H1 3518   0.136   3.180  13.157  1.1359  0.2742  0.5043
  228MPD1    H2 3519   0.481   3.197  12.917 -0.2818  3.4998  0.0874
  228MPD1    H3 3520   0.359   3.136  13.126  3.1918  0.6596 -2.1008
  228MPD1     N 3521   4.708   3.270  12.941  0.5649  0.0021  0.1001
  228MPD1    H5 3522   4.672   3.291  12.848 -2.1565  1.4118  1.4510
  228MPD1    N1 3523   0.390   3.339  12.716  0.9489 -0.3105 -0.2178
  228MPD1    H6 3524   0.476   3.370  12.760 -0.8175  2.4134  1.2817
  228MPD1    H7 3525   0.334   3.405  12.663  0.4551  0.8828  1.7986
  229MPD1     C 3526   4.276   1.791  14.382 -0.5289  0.7404 -0.3372
  229MPD1    C1 3527   4.288   1.844  14.506  0.1347  0.8783 -0.3660
  229MPD1    C2 3528   4.358   1.783  14.610 -0.0474  0.3073  0.1334
  229MPD1    C3 3529   4.417   1.656  14.593 -0.1930  0.3302 -0.9784
  229MPD1    C4 3530   4.401   1.608  14.467 -0.1083 -0.7806 -0.2371
  229MPD1    C5 3531   4.337   1.673  14.363 -0.3553 -0.0650 -1.3857
  229MPD1     H 3532   4.382   1.846  14.695 -4.3541  2.1986 -0.0718
  229MPD1    H1 3533   4.438   1.509  14.441 -1.7534 -1.8578  1.5007
  229MPD1    H2 3534   4.224   1.848  14.307 -0.4736  1.5589  0.2486
  229MPD1    H3 3535   4.335   1.624  14.267 -0.0790 -0.7799 -1.0269
  229MPD1     N 3536   4.497   1.597  14.689 -0.3913  0.2564  0.4330
  229MPD1    H5 3537   4.556   1.519  14.661  1.6591  2.9616 -2.7271
  229MPD1    N1 3538   4.245   1.974  14.530  0.5916 -0.1848 -0.2109
  229MPD1    H6 3539   4.169   1.987  14.464  1.2646 -0.7644 -1.0974
  229MPD1    H7 3540   4.206   1.977  14.624  0.7407 -2.6668 -0.0794
  230MPD1     C 3541   0.220   1.493  15.708  0.0477 -0.3418 -0.4614
  230MPD1    C1 3542   0.297   1.421  15.618 -0.4883  0.1298  0.6169
  230MPD1    C2 3543   0.247   1.403  15.482  0.3137  0.5761  0.1129
  230MPD1    C3 3544   0.128   1.457  15.443  0.1048 -0.1611  0.3405
  230MPD1    C4 3545   0.046   1.511  15.542 -0.3087  0.7063 -0.2299
  230MPD1    C5 3546   0.097   1.537  15.668  0.0789 -0.3521 -0.1092
  230MPD1     H 3547   0.310   1.330  15.433  1.2369  1.5266 -0.1073
  230MPD1    H1 3548   4.678   1.535  15.520 -0.7260 -0.6039  0.2632
  230MPD1    H2 3549   0.261   1.519  15.804 -0.1517  1.9567 -0.9907
  230MPD1    H3 3550   0.024   1.583  15.733  0.1832 -1.3587  0.7083
  230MPD1     N 3551   0.088   1.439  15.309  0.0786 -0.6817  0.6036
  230MPD1    H5 3552   0.147   1.369  15.265  0.2720 -0.0358 -0.1596
  230MPD1    N1 3553   0.431   1.398  15.642  0.2215 -0.0904  0.2580
  230MPD1    H6 3554   0.469   1.330  15.576  0.5131  1.4376 -1.1604
  230MPD1    H7 3555   0.465   1.395  15.738 -0.0517 -0.9333  0.3218
  231MPD1     C 3556   3.014   3.748  15.463 -0.0667  1.0108  0.5119
  231MPD1    C1 3557   2.922   3.743  15.358 -0.1781  0.1738 -0.3441
  231MPD1    C2 3558   2.956   3.810  15.240 -0.2484  0.6494  0.0717
  231MPD1    C3 3559   3.061   3.896  15.232 -0.0625 -0.1373  0.0043
  231MPD1    C4 3560   3.131   3.922  15.344  0.0418  0.1109 -0.4215
  231MPD1    C5 3561   3.112   3.846  15.464  0.6668 -0.1593 -0.0686
  231MPD1     H 3562   2.897   3.803  15.149 -1.1878 -1.4858  0.8348
  231MPD1    H1 3563   3.215   3.990  15.357 -0.4157  1.1494 -2.8926
  231MPD1    H2 3564   3.007   3.669  15.537  0.4999  1.5380  1.1236
  231MPD1    H3 3565   3.178   3.878  15.544  1.2524  0.1262 -0.6638
  231MPD1     N 3566   3.093   3.959  15.103  0.0412  0.6988 -0.3809
  231MPD1    H5 3567   3.028   3.961  15.026  1.5906 -1.4968 -1.7492
  231MPD1    N1 3568   2.815   3.655  15.368  0.9494 -0.3072  0.0124
  231MPD1    H6 3569   2.737   3.682  15.309 -1.0240 -0.0376  2.7523
  231MPD1    H7 3570   2.782   3.652  15.464 -0.0961  0.5671 -0.3170
  232MPD1     C 3571   4.386   1.749   0.769 -0.2331 -0.0823  0.2061
  232MPD1    C1 3572   4.259   1.774   0.725 -0.3884  0.0857  0.5894
  232MPD1    C2 3573   4.207   1.716   0.604  0.1551 -0.3617 -0.1351
  232MPD1    C3 3574   4.280   1.618   0.535 -0.8810  0.0370  0.1841
  232MPD1    C4 3575   4.419   1.610   0.572  0.0073 -0.3873  0.1899
  232MPD1    C5 3576   4.458   1.666   0.693 -0.5270 -0.4243 -0.0775
  232MPD1     H 3577   4.107   1.738   0.569  0.4064 -1.6407 -1.6760
  232MPD1    H1 3578   4.478   1.544   0.510 -1.5142 -1.6554  0.1083
  232MPD1    H2 3579   4.417   1.795   0.862 -1.2071 -0.6876  0.8251
  232MPD1    H3 3580   4.560   1.640   0.723 -0.4388 -1.4313 -1.2428
  232MPD1     N 3581   4.215   1.549   0.429 -0.3486  0.4837  0.0100
  232MPD1    H5 3582   4.128   1.583   0.388 -2.3403 -1.4268  2.6847
  232MPD1    N1 3583   4.187   1.879   0.792  0.4502  0.0471  0.2493
  232MPD1    H6 3584   4.218   1.892   0.888  2.4376 -0.4041 -0.3193
  232MPD1    H7 3585   4.086   1.879   0.780  0.5048 -0.3323 -0.2276
  233MPD1     C 3586   0.517   3.525   2.559  0.1085  0.3310 -0.7051
  233MPD1    C1 3587   0.591   3.642   2.526  0.1657  0.2464  0.1260
  233MPD1    C2 3588   0.674   3.648   2.410 -0.1401  0.2050 -0.4240
  233MPD1    C3 3589   0.673   3.540   2.319  0.0731 -0.3867  0.8266
  233MPD1    C4 3590   0.597   3.429   2.354 -0.0119 -0.0515 -0.6503
  233MPD1    C5 3591   0.521   3.424   2.467 -0.0320 -0.2635 -0.6678
  233MPD1     H 3592   0.712   3.745   2.381  0.8515  0.0547  0.3671
  233MPD1    H1 3593   0.601   3.341   2.291  0.4399 -0.0603 -0.6102
  233MPD1    H2 3594   0.459   3.520   2.651  0.0668 -0.2580 -0.7647
  233MPD1    H3 3595   0.479   3.325   2.483  0.1376  0.1149  2.2339
  233MPD1     N 3596   0.728   3.553   2.193 -0.5988 -0.1620  0.3857
  233MPD1    H5 3597   0.688   3.504   2.114 -1.5125  0.9480  0.1493
  233MPD1    N1 3598   0.590   3.747   2.613  0.0340  0.2880  0.1642
  233MPD1    H6 3599   0.661   3.813   2.583  2.7709 -1.9567  1.6657
  233MPD1    H7 3600   0.598   3.714   2.709 -0.8806 -1.4429 -0.3456
  234MPD1     C 3601   3.311   3.336   9.504 -0.4284  0.0217 -0.4909
  234MPD1    C1 3602   3.183   3.355   9.476 -0.8993 -0.3491 -0.2497
  234MPD1    C2 3603   3.115   3.443   9.559  0.3892 -0.8862  0.8828
  234MPD1    C3 3604   3.182   3.525   9.646 -0.2409  0.5342 -0.4201
  234MPD1    C4 3605   3.319   3.511   9.661 -0.8260  0.3098  0.4519
  234MPD1    C5 3606   3.384   3.415   9.585 -0.5701  0.0361  0.2430
  234MPD1     H 3607   3.007   3.449   9.560  0.3202 -1.3943 -2.0170
  234MPD1    H1 3608   3.375   3.574   9.731  0.9899 -0.0224 -0.6973
  234MPD1    H2 3609   3.363   3.260   9.446 -0.8617  0.6433 -1.6986
  234MPD1    H3 3610   3.492   3.404   9.584 -0.5273  0.0911  3.5692
  234MPD1     N 3611   3.107   3.622   9.723 -0.6527 -0.1566 -0.3406
  234MPD1    H5 3612   3.006   3.629   9.711 -0.4091  1.9580 -1.2062
  234MPD1    N1 3613   3.111   3.262   9.402 -0.0313  0.5184  0.8958
  234MPD1    H6 3614   3.024   3.305   9.373  0.0063 -0.9338 -1.4043
  234MPD1    H7 3615   3.164   3.235   9.320 -1.6326  1.0077 -0.2885
  235MPD1     C 3616   4.497   0.775  10.418 -0.3786  0.3205  0.0420
  235MPD1    C1 3617   4.555   0.835  10.304  0.1711  0.0248  0.4760
  235MPD1    C2 3618   4.590   0.964  10.311  0.9103  0.1172  0.4100
  235MPD1    C3 3619   4.549   1.037  10.422 -0.3348  0.3398 -0.4318
  235MPD1    C4 3620   4.489   0.983  10.532 -0.7564  0.0232  0.6326
  235MPD1    C5 3621   4.454   0.852  10.527 -0.2083  0.2136  0.0943
  235MPD1     H 3622   4.638   1.012  10.226  1.3010 -0.8739  0.0709
  235MPD1    H1 3623   4.469   1.043  10.620  1.1138 -1.1507  1.8603
  235MPD1    H2 3624   4.494   0.667  10.423 -0.4392  0.2948 -0.5660
  235MPD1    H3 3625   4.433   0.802  10.621 -1.2228 -1.2564 -0.9095
  235MPD1     N 3626   4.581   1.173  10.408 -0.3107  0.3872 -0.8450
  235MPD1    H5 3627   4.637   1.203  10.329  0.8041  1.1221  0.2357
  235MPD1    N1 3628   4.600   0.744  10.208 -0.0295  0.5995  0.4751
  235MPD1    H6 3629   4.592   0.788  10.116  1.7534  1.1931  0.6014
  235MPD1    H7 3630   4.541   0.661  10.213  0.1866  0.4709  0.8963
  236MPD1     C 3631   3.096   2.832   9.687 -0.0401 -0.0761 -0.1271
  236MPD1    C1 3632   3.050   2.754   9.787 -0.5572  0.7519 -0.0114
  236MPD1    C2 3633   3.138   2.666   9.840 -0.3295  0.4037 -0.5406
  236MPD1    C3 3634   3.273   2.665   9.802  0.5642 -0.1441 -0.0391
  236MPD1    C4 3635   3.321   2.757   9.712  0.1765 -0.1572  1.0098
  236MPD1    C5 3636   3.226   2.836   9.653 -0.5454 -0.1915 -0.0683
  236MPD1     H 3637   3.103   2.586   9.905 -0.6557  2.5296  1.9071
  236MPD1    H1 3638   3.427   2.761   9.693  0.0662 -0.7719  0.2853
  236MPD1    H2 3639   3.031   2.896   9.627  1.4593  1.2524 -0.3463
  236MPD1    H3 3640   3.256   2.906   9.575  1.7249  1.0606  1.9258
  236MPD1     N 3641   3.379   2.588   9.855 -0.4011  0.0165  0.2226
  236MPD1    H5 3642   3.473   2.611   9.826  0.0628 -1.3088  0.6567
  236MPD1    N1 3643   2.912   2.734   9.801 -0.4919 -0.4154  0.2421
  236MPD1    H6 3644   2.863   2.821   9.784  2.0381  1.4806  2.7048
  236MPD1    H7 3645   2.893   2.691   9.891  0.5882 -1.3305  0.0400
  237MPD1     C 3646   3.526   0.147  14.883 -0.8803 -0.7644  0.3324
  237MPD1    C1 3647   3.536   0.210  15.008 -0.0151 -0.0808 -0.3201
  237MPD1    C2 3648   3.422   0.185  15.086  0.6760 -0.1364  0.2534
  237MPD1    C3 3649   3.319   0.100  15.054  0.4547  0.3039  0.0349
  237MPD1    C4 3650   3.321   0.042  14.929  0.1728 -0.4636 -0.6994
  237MPD1    C5 3651   3.417   0.074  14.840 -0.0864  0.3169  0.5641
  237MPD1     H 3652   3.411   0.238  15.180 -1.0247  0.8155 -0.4817
  237MPD1    H1 3653   3.243   4.709  14.898  0.8283 -0.1059 -3.1957
  237MPD1    H2 3654   3.602   0.163  14.807  1.2371  2.0113  3.0449
  237MPD1    H3 3655   3.418   0.040  14.737  0.4873  0.8990  0.3790
  237MPD1     N 3656   3.205   0.070  15.132  1.1913  0.4230 -0.6027
  237MPD1    H5 3657   3.141   0.010  15.080 -1.1237  2.5887 -0.2482
  237MPD1    N1 3658   3.624   0.318  15.025 -0.4564 -0.0704 -0.1281
  237MPD1    H6 3659   3.614   0.342  15.123  0.8989 -2.4637  0.6079
  237MPD1    H7 3660   3.719   0.313  14.989  0.4938  1.5085  2.1623
  238MPD1     C 3661   0.466   3.053  15.132 -0.1351  0.2272  0.6593
  238MPD1    C1 3662   0.360   3.001  15.058 -0.0531  0.1152 -0.1048
  238MPD1    C2 3663   0.241   3.072  15.047  0.0029  0.8884  0.1470
  238MPD1    C3 3664   0.242   3.205  15.091 -0.4622 -0.1475 -0.3807
  238MPD1    C4 3665   0.353   3.249  15.169 -0.4273  0.0747  1.0675
  238MPD1    C5 3666   0.470   3.178  15.182  0.5180  0.1069 -0.4001
  238MPD1     H 3667   0.165   3.031  14.980 -0.2607  1.0310  0.3591
  238MPD1    H1 3668   0.356   3.344  15.221  0.6638  0.3262  0.5512
  238MPD1    H2 3669   0.558   2.997  15.140  0.3430  1.1718  1.6910
  238MPD1    H3 3670   0.553   3.213  15.241  0.2714  0.7712 -0.4435
  238MPD1     N 3671   0.130   3.287  15.089 -0.5828  0.1117  0.1303
  238MPD1    H5 3672   0.142   3.375  15.138 -0.6453 -0.8352  1.8463
  238MPD1    N1 3673   0.386   2.876  15.000 -0.0586 -0.6724 -0.0231
  238MPD1    H6 3674   0.464   2.821  15.034 -0.4038 -2.0168 -1.4098
  238MPD1    H7 3675   0.304   2.822  14.974 -0.1255 -0.2943 -0.5976
  239MPD1     C 3676   0.382   4.164  14.944  0.2218  0.2145  0.3075
  239MPD1    C1 3677   0.479   4.246  14.898 -0.1982 -0.0692 -0.0010
  239MPD1    C2 3678   0.456   4.306  14.776  0.1398  0.2871 -0.2633
  239MPD1    C3 3679   0.337   4.308  14.718  0.1042  0.3316  0.3333
  239MPD1    C4 3680   0.234   4.236  14.774  0.2058 -0.6912 -0.5309
  239MPD1    C5 3681   0.254   4.164  14.884 -0.1837  0.2040  0.0064
  239MPD1     H 3682   0.536   4.369  14.736  1.1175 -0.2681  0.8255
  239MPD1    H1 3683   0.143   4.224  14.715 -0.5384 -0.5650  0.5788
  239MPD1    H2 3684   0.407   4.099  15.027  0.0082  0.4562  0.5617
  239MPD1    H3 3685   0.183   4.091  14.920 -2.5378  3.5626  2.2856
  239MPD1     N 3686   0.301   4.387  14.607  0.3733  0.5468  0.6879
  239MPD1    H5 3687   0.211   4.369  14.563  0.1079  1.8894  0.6652
  239MPD1    N1 3688   0.605   4.227  14.951  0.1055 -0.1164 -0.5966
  239MPD1    H6 3689   0.669   4.306  14.940 -1.3410  0.9934 -1.1836
  239MPD1    H7 3690   0.591   4.209  15.050 -1.3185 -1.1234 -0.9835
  240MPD1     C 3691   4.461   4.186  13.916 -0.1862  1.0723 -0.5032
  240MPD1    C1 3692   4.326   4.174  13.940  0.2269  0.2826  0.0199
  240MPD1    C2 3693   4.288   4.157  14.074 -0.0809 -0.4023  0.1083
  240MPD1    C3 3694   4.377   4.144  14.178  0.5075 -0.1259  0.2847
  240MPD1    C4 3695   4.510   4.131  14.145  0.5017  0.6790 -0.6557
  240MPD1    C5 3696   4.549   4.153  14.014  0.6188  0.1005  0.0763
  240MPD1     H 3697   4.182   4.172  14.088  0.2310  1.2166  0.8255
  240MPD1    H1 3698   4.588   4.098  14.214  0.7914  2.0763 -0.3131
  240MPD1    H2 3699   4.502   4.202  13.817  0.2367  1.5588 -0.2490
  240MPD1    H3 3700   4.656   4.148  13.994  0.5107  2.4573 -1.1180
  240MPD1     N 3701   4.329   4.122  14.306 -0.0457  0.2099 -0.3883
  240MPD1    H5 3702   4.228   4.129  14.312  0.0863  0.6017  1.5545
  240MPD1    N1 3703   4.230   4.186  13.842 -0.2248 -0.1964  0.5944
  240MPD1    H6 3704   4.271   4.184  13.749 -2.8334  2.8771 -0.5940
  240MPD1    H7 3705   4.162   4.110  13.839  1.2616 -1.5683  1.4069
  241MPD1     C 3706   0.027   4.125  15.236  0.8359  0.6509  0.6108
  241MPD1    C1 3707   4.665   4.033  15.229 -0.1050 -0.0791 -0.5105
  241MPD1    C2 3708   4.577   4.029  15.129  0.4239 -0.1835  0.9859
  241MPD1    C3 3709   4.585   4.117  15.019  0.0564 -0.1878 -0.3931
  241MPD1    C4 3710   4.691   4.202  15.014 -0.1748 -0.2801 -0.1911
  241MPD1    C5 3711   0.041   4.205  15.129 -0.2185  0.0395  0.9354
  241MPD1     H 3712   4.494   3.961  15.137  0.3580 -0.1185  0.8564
  241MPD1    H1 3713   4.710   4.280  14.941  1.1918 -0.9535 -0.5515
  241MPD1    H2 3714   0.102   4.126  15.314  0.0024 -0.8567  1.4363
  241MPD1    H3 3715   0.122   4.276  15.118 -0.2600 -0.0602  0.0011
  241MPD1     N 3716   4.485   4.128  14.924 -0.0402 -0.0947 -0.5691
  241MPD1    H5 3717   4.496   4.199  14.852  1.9464 -0.6247 -0.7643
  241MPD1    N1 3718   4.642   3.962  15.348 -0.3199  0.0197  0.4959
  241MPD1    H6 3719   4.603   3.870  15.329  1.2954 -0.5575  0.0149
  241MPD1    H7 3720   4.732   3.949  15.394 -0.2253 -2.5982 -0.4721
  242MPD1     C 3721   4.729   3.298  15.545 -0.0237  0.4217 -1.4952
  242MPD1    C1 3722   4.603   3.285  15.484  0.2390  0.1450 -0.4641
  242MPD1    C2 3723   4.587   3.187  15.383  0.3892 -0.5804  0.2782
  242MPD1    C3 3724   4.696   3.104  15.358  0.2257 -0.1135  0.5817
  242MPD1    C4 3725   0.086   3.124  15.414 -0.2453 -0.0692 -0.3359
  242MPD1    C5 3726   0.101   3.221  15.499  0.5944 -0.2440 -0.5603
  242MPD1     H 3727   4.489   3.176  15.338 -0.4220  2.4470  1.3053
  242MPD1    H1 3728   0.172   3.060  15.400 -1.5154 -1.2605 -2.6993
  242MPD1    H2 3729   0.018   3.380  15.613 -0.7009 -1.3804  0.8996
  242MPD1    H3 3730   0.190   3.227  15.559  0.0290 -0.4129  0.2912
  242MPD1     N 3731   4.690   2.990  15.269  0.0921 -0.7287  0.1106
  242MPD1    H5 3732   0.050   2.959  15.249 -0.0063 -0.1711 -1.2078
  242MPD1    N1 3733   4.504   3.385  15.497  0.0139  0.5911 -0.1662
  242MPD1    H6 3734   4.504   3.421  15.592 -1.7987  0.7581 -0.2240
  242MPD1    H7 3735   4.409   3.359  15.473 -0.3784  0.9213  1.0193
  243MPD1     C 3736   0.939   1.888   0.504  0.1522  0.0100  0.4606
  243MPD1    C1 3737   0.926   1.943   0.377 -0.3497  0.0051  0.2273
  243MPD1    C2 3738   0.922   1.864   0.272 -0.0311  0.3289  0.2674
  243MPD1    C3 3739   0.921   1.726   0.284 -0.0512  0.0083 -0.2538
  243MPD1    C4 3740   0.926   1.671   0.416  0.1488  0.4926  0.6035
  243MPD1    C5 3741   0.938   1.753   0.523  0.0244 -0.2110  0.2763
  243MPD1     H 3742   0.910   1.898   0.169  1.4572 -1.0403 -0.3659
  243MPD1    H1 3743   0.936   1.565   0.440  0.3052  0.5248  0.6831
  243MPD1    H2 3744   0.938   1.956   0.589 -0.2472  0.5728  0.0112
  243MPD1    H3 3745   0.944   1.714   0.624  0.6729  2.4610  1.2646
  243MPD1     N 3746   0.919   1.641   0.169  0.5829  0.2086  0.1256
  243MPD1    H5 3747   0.924   1.691   0.081 -1.8251 -0.4972 -0.4161
  243MPD1    N1 3748   0.934   2.083   0.372 -0.0104 -0.1277 -0.2493
  243MPD1    H6 3749   0.902   2.137   0.453 -1.8162  0.5933 -1.4400
  243MPD1    H7 3750   0.892   2.111   0.284  2.2095  1.7242 -0.7092
  244MPD1     C 3751   0.496   0.838  17.276 -0.0112 -0.3599 -0.5321
  244MPD1    C1 3752   0.459   0.964  17.232  0.1654  0.4925  0.3636
  244MPD1    C2 3753   0.508   1.070  17.309 -0.2978  0.7600 -0.9479
  244MPD1    C3 3754   0.579   1.052  17.424  0.6636  0.4622 -0.6593
  244MPD1    C4 3755   0.609   0.920  17.463 -0.5401 -0.4224  0.0945
  244MPD1    C5 3756   0.565   0.813  17.390 -0.3833  0.4659  0.0182
  244MPD1     H 3757   0.492   1.172  17.277 -0.4285  0.9870 -0.1521
  244MPD1    H1 3758   0.674   0.892  17.545 -0.4224 -0.5303 -0.0354
  244MPD1    H2 3759   0.483   0.758  17.203 -0.4528 -0.1466 -0.6833
  244MPD1    H3 3760   0.596   0.712  17.414  1.9995  1.1742  0.0186
  244MPD1     N 3761   0.637   1.164  17.487 -0.0801  0.2238  0.3481
  244MPD1    H5 3762   0.637   1.256  17.445  0.8165 -0.5209 -1.2540
  244MPD1    N1 3763   0.403   0.975  17.106  0.1144 -0.0513 -0.2771
  244MPD1    H6 3764   0.346   0.897  17.077  1.8262 -1.7598  0.9820
  244MPD1    H7 3765   0.333   1.050  17.101  0.4906  0.4413  1.5778
  245MPD1     C 3766   3.037   1.518  13.006  0.3750  0.2709  0.9993
  245MPD1    C1 3767   3.108   1.514  13.124  0.0191  0.9814  0.0209
  245MPD1    C2 3768   3.065   1.580  13.233 -0.7463 -0.3534  0.4484
  245MPD1    C3 3769   2.954   1.664  13.231 -0.7050  0.5018 -0.1779
  245MPD1    C4 3770   2.876   1.659  13.117 -0.5032 -0.6059 -0.2833
  245MPD1    C5 3771   2.918   1.583  13.011 -0.0508  0.0303  0.0666
  245MPD1     H 3772   3.119   1.579  13.327  0.3469 -0.7960 -0.1935
  245MPD1    H1 3773   2.782   1.713  13.111  0.5013  0.9987 -1.3119
  245MPD1    H2 3774   3.059   1.466  12.914  0.9899 -0.4167  1.5266
  245MPD1    H3 3775   2.846   1.581  12.930 -1.1330  0.6488  1.0072
  245MPD1     N 3776   2.924   1.737  13.345  1.1847 -0.5112 -0.4531
  245MPD1    H5 3777   2.998   1.754  13.412 -0.5512 -1.9436  1.8360
  245MPD1    N1 3778   3.231   1.449  13.122  0.1033  0.1430  0.2117
  245MPD1    H6 3779   3.237   1.394  13.036  3.1829  0.8846 -0.0351
  245MPD1    H7 3780   3.219   1.382  13.197  1.2798 -1.6290 -1.1868
  246MPD1     C 3781   3.266   4.436   9.209  0.1688 -0.2055  0.1794
  246MPD1    C1 3782   3.346   4.539   9.254  0.3672 -0.1877 -0.0968
  246MPD1    C2 3783   3.466   4.508   9.313 -0.4712 -1.0886  0.0145
  246MPD1    C3 3784   3.521   4.377   9.337  0.2412  0.4515 -0.6171
  246MPD1    C4 3785   3.440   4.278   9.289  0.4490 -0.7677 -0.4978
  246MPD1    C5 3786   3.316   4.305   9.239 -0.2068 -0.1237  0.5980
  246MPD1     H 3787   3.533   4.593   9.328  0.1650 -1.9328  1.9894
  246MPD1    H1 3788   3.478   4.177   9.301  0.7712 -0.4873  0.8040
  246MPD1    H2 3789   3.170   4.448   9.160  0.2738  1.9964  0.5167
  246MPD1    H3 3790   3.256   4.226   9.194 -1.2440  2.0178 -1.7454
  246MPD1     N 3791   3.652   4.351   9.384 -0.4389 -0.2601  0.1234
  246MPD1    H5 3792   3.704   4.435   9.407 -1.6330  0.9666 -1.6522
  246MPD1    N1 3793   3.305   4.677   9.240 -0.3185 -0.1675  1.2647
  246MPD1    H6 3794   3.204   4.680   9.226  0.0372 -1.0373 -1.4177
  246MPD1    H7 3795   3.330   0.001   9.319  0.1357 -1.5868  2.1822
  247MPD1     C 3796   2.313   3.188  15.830 -0.3578  0.3687  0.2821
  247MPD1    C1 3797   2.284   3.064  15.877  0.2205  0.4489 -0.1923
  247MPD1    C2 3798   2.249   2.962  15.790 -0.1581  0.6514 -0.6859
  247MPD1    C3 3799   2.240   2.994  15.658  0.2240  0.0810  0.1929
  247MPD1    C4 3800   2.262   3.119  15.611 -0.8033  0.0264  0.1535
  247MPD1    C5 3801   2.299   3.221  15.699  0.7351  1.3016 -0.0970
  247MPD1     H 3802   2.206   2.874  15.836  0.9111  1.1009  1.1669
  247MPD1    H1 3803   2.248   3.149  15.508 -1.7001  1.1577  0.6033
  247MPD1    H2 3804   2.337   3.267  15.899 -0.4169  0.6694 -0.0424
  247MPD1    H3 3805   2.309   3.323  15.665 -0.8084  2.2867  2.3758
  247MPD1     N 3806   2.189   2.901  15.563 -0.5288  0.1764  0.0360
  247MPD1    H5 3807   2.177   2.944  15.472  1.8080  1.3222  0.2705
  247MPD1    N1 3808   2.287   3.044  16.016 -0.3029 -0.3350 -0.4249
  247MPD1    H6 3809   2.207   2.992  16.049 -0.0342  0.6881  1.8525
  247MPD1    H7 3810   2.312   3.117  16.082 -0.9090 -0.8886  0.4157
  248MPD1     C 3811   1.939   0.661   0.624  0.7661  0.0961 -0.1794
  248MPD1    C1 3812   1.995   0.576   0.714  0.0671  1.0618 -0.2809
  248MPD1    C2 3813   2.099   0.628   0.791 -0.4821 -0.0211  0.1187
  248MPD1    C3 3814   2.152   0.757   0.779 -0.3712 -0.8082  0.0840
  248MPD1    C4 3815   2.087   0.834   0.688  0.6036  0.0851  0.1352
  248MPD1    C5 3816   1.980   0.790   0.610 -0.7687 -0.0281 -1.0527
  248MPD1     H 3817   2.153   0.565   0.862 -1.0066 -1.9593 -1.1975
  248MPD1    H1 3818   2.129   0.929   0.656 -0.6301  0.2743 -0.9734
  248MPD1    H2 3819   1.866   0.623   0.554 -1.2184  1.8116  0.9327
  248MPD1    H3 3820   1.948   0.841   0.519 -0.0910  3.2312  0.5464
  248MPD1     N 3821   2.259   0.801   0.859 -0.0652  0.1062 -0.0244
  248MPD1    H5 3822   2.291   0.737   0.931  0.1069  0.2858  0.0595
  248MPD1    N1 3823   1.946   0.446   0.738 -0.3851  0.0348 -0.1418
  248MPD1    H6 3824   1.880   0.410   0.669  2.0550 -1.1172 -1.9108
  248MPD1    H7 3825   2.013   0.376   0.770 -1.5424 -0.6046  0.8843
  249MPD1     C 3826   4.677   4.624  10.550  0.7294  0.4729 -0.6082
  249MPD1    C1 3827   0.026   4.733  10.592  0.6383 -0.1028  0.7032
  249MPD1    C2 3828   0.028   0.104  10.502 -0.0984 -0.4270  0.5089
  249MPD1    C3 3829   4.694   0.110  10.375  0.3254 -0.0313  0.0111
  249MPD1    C4 3830   4.617   0.002  10.344 -0.0961 -0.1619  0.2902
  249MPD1    C5 3831   4.609   4.637  10.436  0.5374 -0.4232 -0.1230
  249MPD1     H 3832   0.096   0.185  10.529  0.4070 -0.5498 -0.4135
  249MPD1    H1 3833   4.558   0.001  10.253 -1.1186 -0.5099  0.9476
  249MPD1    H2 3834   4.678   4.526  10.597 -1.0629 -0.2256 -2.0354
  249MPD1    H3 3835   4.558   4.555  10.388 -0.4154  0.1234 -0.0526
  249MPD1     N 3836   4.726   0.218  10.286  0.6608  0.1070 -0.3636
  249MPD1    H5 3837   0.029   0.300  10.334  1.4190 -1.1009  1.0799
  249MPD1    N1 3838   0.108   4.721  10.701  0.3268 -0.5169 -0.1062
  249MPD1    H6 3839   0.074   4.651  10.767  0.6603 -0.4784  0.1120
  249MPD1    H7 3840   0.115   0.075  10.751  1.4994 -2.6322  3.5108
  250MPD2     C 3841   1.421   4.703  12.659  0.1574  0.3135  0.3546
  250MPD2    C1 3842   1.357   0.088  12.626 -0.6120 -0.3172 -0.3482
  250MPD2    C2 3843   1.273   0.081  12.522 -0.5367  0.5403  0.2784
  250MPD2    C3 3844   1.229   4.701  12.469 -0.9699  0.8442 -0.9958
  250MPD2    C4 3845   1.268   4.583  12.528  0.3745 -0.0675  0.5445
  250MPD2    C5 3846   1.375   4.588  12.614  0.0610 -1.1841  0.2550
  250MPD2     H 3847   1.253   0.175  12.471 -0.0439 -0.2790 -1.3943
  250MPD2    H1 3848   1.247   4.489  12.478 -1.7687  0.8947 -0.3477
  250MPD2    H2 3849   1.505   4.695  12.726  0.5757 -2.7483 -0.5368
  250MPD2    H3 3850   1.431   4.497  12.634 -0.5266 -1.4624  0.6267
  250MPD2     N 3851   1.139   4.695  12.359 -0.0501 -0.2567 -0.5325
  250MPD2    H5 3852   1.104   4.602  12.338 -0.4878 -0.2743  0.2649
  250MPD2    N1 3853   1.405   0.205  12.691  0.1841  0.2061  0.3817
  250MPD2    H7 3854   1.487   0.184  12.748  0.2766  1.7490  0.7938
  251TMC3    C1 3855   1.421   0.424  12.776  0.2040  0.4300  0.1312
  251TMC3    C2 3856   1.342   0.497  12.858 -0.1830  0.3375  0.0513
  251TMC3    C3 3857   1.404   0.553  12.969  0.3095 -0.7526  0.3710
  251TMC3    C4 3858   1.552   0.398  12.807 -0.6609 -0.6199 -0.0729
  251TMC3    C5 3859   1.608   0.458  12.918 -0.4258  0.8784 -0.3979
  251TMC3    C6 3860   1.538   0.542  12.999 -0.3936  0.2026 -0.2168
  251TMC3     C 3861   1.348   0.331  12.686  0.4935 -0.0117 -0.3703
  251TMC3     O 3862   1.247   0.371  12.625 -0.2769  0.3937  0.2360
  251TMC3     H 3863   1.236   0.511  12.839 -0.2437  2.1533  1.7067
  251TMC3    H1 3864   1.611   0.339  12.739  0.4526 -0.0991  0.4439
  251TMC3    H2 3865   1.587   0.575  13.090  2.1573  2.5652 -2.4712
  251TMC3    C7 3866   1.744   0.428  12.954 -0.4587 -0.0807 -0.1821
  251TMC3    C8 3867   1.321   0.618  13.063 -0.0616  0.0231  0.3076
  251TMC3    O1 3868   1.789   0.323  12.908 -0.1345 -0.0132  0.5098
  251TMC3    O2 3869   1.203   0.596  13.047 -0.2618 -0.7534 -0.8795
  252TMC3    C1 3870   1.532   2.202   9.282 -0.7085 -0.4102  0.1828
  252TMC3    C2 3871   1.666   2.181   9.294  0.0617 -0.0368 -0.0747
  252TMC3    C3 3872   1.719   2.131   9.409  0.3307 -0.5707 -0.3789
  252TMC3    C4 3873   1.449   2.180   9.390  0.3410  0.2804  0.0753
  252TMC3    C5 3874   1.501   2.120   9.503 -1.1417 -0.0646 -0.4535
  252TMC3    C6 3875   1.639   2.095   9.510 -0.9608  0.3144  0.4821
  252TMC3     C 3876   1.472   2.267   9.171 -0.4905  0.1348 -0.1657
  252TMC3     O 3877   1.356   2.301   9.180 -0.9506 -0.1446  0.2637
  252TMC3     H 3878   1.739   2.184   9.214 -1.0775  0.2111 -1.0986
  252TMC3    H1 3879   1.346   2.215   9.393 -0.0823 -1.0566  1.4212
  252TMC3    H2 3880   1.685   2.071   9.605 -0.0433 -0.6100 -0.1961
  252TMC3    C7 3881   1.410   2.071   9.606  0.3312 -0.3019 -0.2441
  252TMC3    C8 3882   1.864   2.131   9.416 -0.3312 -0.4402 -0.6341
  252TMC3    O1 3883   1.298   2.119   9.601  0.1523  0.0014 -0.7852
  252TMC3    O2 3884   1.927   2.208   9.347  0.1210 -0.0064 -0.2935
  253MPD2     C 3885   2.820   0.510  15.377 -0.1266  0.0456 -0.0620
  253MPD2    C1 3886   2.682   0.500  15.373  0.3995  0.0162 -0.7776
  253MPD2    C2 3887   2.620   0.507  15.495 -0.1383 -0.0925 -0.2649
  253MPD2    C3 3888   2.686   0.504  15.617  0.6992  0.6497  0.3438
  253MPD2    C4 3889   2.831   0.495  15.616  0.0943 -0.1283 -0.3184
  253MPD2    C5 3890   2.889   0.499  15.493  0.4895 -0.1906 -0.3714
  253MPD2     H 3891   2.513   0.493  15.506 -0.4046  1.3551 -1.1508
  253MPD2    H1 3892   2.901   0.493  15.699  0.4881 -0.7422 -0.6574
  253MPD2    H2 3893   2.888   0.508  15.293  0.8785 -0.7829  0.7766
  253MPD2    H3 3894   2.997   0.494  15.495  0.5991  1.7796 -1.2593
  253MPD2     N 3895   2.623   0.496  15.744  0.1834  0.2436  0.0023
  253MPD2    H5 3896   2.680   0.474  15.825  0.5253  1.1243  0.0104
  253MPD2    N1 3897   2.607   0.493  15.255 -0.3134 -0.5197 -0.2443
  253MPD2    H7 3898   2.508   0.475  15.268  0.0345 -0.9289  1.8574
  254TMC3    C1 3899   2.454   0.483  15.910  0.5141 -0.4116  0.2774
  254TMC3    C2 3900   2.330   0.514  15.937  0.1193  0.8047 -0.0124
  254TMC3    C3 3901   2.290   0.500  16.065 -0.7316  0.4402  0.0773
  254TMC3    C4 3902   2.539   0.419  15.992  0.3979  0.3369 -0.2939
  254TMC3    C5 3903   2.490   0.394  16.119 -0.3366  0.6820 -0.6684
  254TMC3    C6 3904   2.370   0.443  16.161  0.1700  0.7434 -0.0439
  254TMC3     C 3905   2.490   0.515  15.770  1.0977 -0.1236 -0.2725
  254TMC3     O 3906   2.397   0.542  15.694  0.9948  0.4716  0.1357
  254TMC3     H 3907   2.263   0.563  15.867 -0.7850  1.7764  1.5204
  254TMC3    H1 3908   2.623   0.360  15.957 -0.3825 -0.3819 -0.9447
  254TMC3    H2 3909   2.341   0.427  16.264  2.4042 -0.8316  0.3302
  254TMC3    C7 3910   2.571   0.313  16.212 -0.9142  0.0016  0.1342
  254TMC3    C8 3911   2.150   0.539  16.108  0.8640 -0.5485  0.1316
  254TMC3    O1 3912   2.522   0.271  16.314  0.3750  0.0539  0.0706
  254TMC3    O2 3913   2.102   0.520  16.221  0.6017  0.1845 -0.7616
  255MPD2     C 3914   0.812   2.773  10.607 -0.2177  0.4629 -1.1893
  255MPD2    C1 3915   0.895   2.869  10.555  0.4113 -0.0136 -0.0475
  255MPD2    C2 3916   0.996   2.825  10.465 -0.0424  0.7710 -0.2477
  255MPD2    C3 3917   1.008   2.693  10.430 -0.0558 -0.3707 -0.1798
  255MPD2    C4 3918   0.925   2.598  10.490  0.0725 -0.0246 -0.0662
  255MPD2    C5 3919   0.831   2.640  10.586 -0.5309  0.4227  0.5121
  255MPD2     H 3920   1.055   2.897  10.410 -0.3611 -0.4276 -2.1400
  255MPD2    H1 3921   0.944   2.492  10.475 -0.5160 -0.1837  0.3333
  255MPD2    H2 3922   0.741   2.802  10.683  0.8338  1.1996 -0.4911
  255MPD2    H3 3923   0.759   2.566  10.619 -0.3215  0.0125  0.0567
  255MPD2     N 3924   1.099   2.662  10.331 -0.4712  0.2483 -0.0894
  255MPD2    H5 3925   1.150   2.748  10.309  2.5257 -1.9339 -1.6616
  255MPD2    N1 3926   0.864   3.008  10.582 -0.1379  0.3110 -0.6857
  255MPD2    H7 3927   0.770   3.023  10.618 -2.0717 -1.1348 -5.0986
  256TMC3    C1 3928   0.881   3.242  10.579 -0.1708  0.2429  0.0703
  256TMC3    C2 3929   0.957   3.356  10.583  0.3615  0.0873 -0.6652
  256TMC3    C3 3930   0.903   3.468  10.623 -0.1265 -0.6558 -0.4197
  256TMC3    C4 3931   0.746   3.253  10.600  0.0155 -0.8361 -0.4198
  256TMC3    C5 3932   0.692   3.378  10.615  0.2027  0.6523  0.0633
  256TMC3    C6 3933   0.773   3.484  10.654 -0.0759 -0.1205  0.2371
  256TMC3     C 3934   0.945   3.113  10.560  0.1872  0.2009 -0.2500
  256TMC3     O 3935   1.063   3.110  10.527  0.1502  0.0689  0.9188
  256TMC3     H 3936   1.064   3.353  10.564  0.2709 -0.7990 -1.0412
  256TMC3    H1 3937   0.680   3.169  10.578 -0.6704 -0.1962 -0.8051
  256TMC3    H2 3938   0.738   3.585  10.673  0.6987 -0.4368  3.2935
  256TMC3    C7 3939   0.606   3.401  10.500  0.0371  0.0976 -0.0006
  256TMC3    C8 3940   0.980   3.586  10.638  0.0034 -0.0462  0.1021
  256TMC3    O1 3941   0.537   3.308  10.461  0.0061 -0.1970 -0.4514
  256TMC3    O2 3942   0.960   3.658  10.739 -0.5113  0.2637  0.0339
  257MPD2     C 3943   4.352   0.165  13.192 -0.4778  0.9288  0.1011
  257MPD2    C1 3944   4.483   0.193  13.159  0.3592  0.0547 -0.4579
  257MPD2    C2 3945   4.583   0.116  13.223 -0.1464 -0.2315  0.4301
  257MPD2    C3 3946   4.550   0.024  13.323 -0.1842 -0.4373 -0.2636
  257MPD2    C4 3947   4.420   0.009  13.358 -0.2482  0.3067 -0.0883
  257MPD2    C5 3948   4.326   0.066  13.277 -0.2989 -0.0446 -0.1929
  257MPD2     H 3949   4.683   0.109  13.183 -0.0996  0.1881  0.4826
  257MPD2    H1 3950   4.385   4.690  13.445 -1.3895  2.7230  0.9752
  257MPD2    H2 3951   4.263   0.209  13.148 -0.5876  0.3303 -0.2733
  257MPD2    H3 3952   4.224   0.048  13.309 -0.2662 -2.0167 -1.2014
  257MPD2     N 3953   4.660   4.690  13.384 -0.1357  0.1111 -0.0007
  257MPD2    H5 3954   0.019   4.714  13.353  0.4965 -0.8839  1.1559
  257MPD2    N1 3955   4.507   0.289  13.056  0.0511 -0.4337  0.3003
  257MPD2    H7 3956   4.425   0.320  13.004 -0.5429 -1.2675  0.7437
  258TMC3    C1 3957   0.032   4.520  13.515 -0.4513 -0.4098  0.4718
  258TMC3    C2 3958   0.132   4.528  13.421  0.0296 -0.9693 -0.4305
  258TMC3    C3 3959   0.246   4.461  13.461 -0.4039  0.1740  0.3415
  258TMC3    C4 3960   0.040   4.450  13.631  0.0240  0.6213 -0.0568
  258TMC3    C5 3961   0.157   4.391  13.668 -0.0528 -0.4412 -0.6393
  258TMC3    C6 3962   0.254   4.391  13.583 -0.5622 -0.7507 -0.1137
  258TMC3     C 3963   4.645   4.598  13.487  0.3636  0.1418 -0.2021
  258TMC3     O 3964   4.545   4.569  13.556 -0.6360 -0.3342 -0.0091
  258TMC3     H 3965   0.118   4.576  13.325  2.5785  1.0838  0.2320
  258TMC3    H1 3966   4.697   4.459  13.705 -1.1563  3.0641 -1.6103
  258TMC3    H2 3967   0.343   4.331  13.594  1.3941  2.2668  0.6107
  258TMC3    C7 3968   0.154   4.293  13.771 -0.0065  0.0300 -0.2069
  258TMC3    C8 3969   0.363   4.453  13.370 -0.1800 -0.0108  0.3779
  258TMC3    O1 3970   0.047   4.237  13.784 -0.1636  0.7740  0.2304
  258TMC3    O2 3971   0.442   4.363  13.384 -0.1282  0.4726 -0.2258
  259MPD2     C 3972   3.320   1.515   1.144 -0.2671  0.2380  0.0946
  259MPD2    C1 3973   3.376   1.411   1.080  0.6200  0.6975 -0.2043
  259MPD2    C2 3974   3.404   1.421   0.944 -0.5318 -0.1074 -0.3598
  259MPD2    C3 3975   3.394   1.537   0.868  0.8829  0.7702  0.0178
  259MPD2    C4 3976   3.353   1.648   0.942 -0.5050  0.3825  0.8703
  259MPD2    C5 3977   3.313   1.636   1.073  0.1821  0.0599  0.0584
  259MPD2     H 3978   3.436   1.331   0.892  1.3534 -0.3390  1.1964
  259MPD2    H1 3979   3.344   1.750   0.907  0.2016  0.1951  0.1444
  259MPD2    H2 3980   3.294   1.511   1.249  0.0880 -0.4725  0.1539
  259MPD2    H3 3981   3.269   1.718   1.128  0.9851 -1.8412  3.5178
  259MPD2     N 3982   3.423   1.547   0.730  0.2893  0.1054  0.2825
  259MPD2    H5 3983   3.454   1.466   0.677 -2.2887  0.0405 -1.1182
  259MPD2    N1 3984   3.414   1.296   1.156 -1.3254  0.2383  0.0124
  259MPD2    H7 3985   3.379   1.294   1.252  2.3822 -0.7035  1.3379
  260TMC3    C1 3986   3.402   1.632   0.516  1.3869  0.1520  0.1357
  260TMC3    C2 3987   3.386   1.734   0.434  0.1190  0.0916 -0.4729
  260TMC3    C3 3988   3.349   1.708   0.308 -0.4207  0.4925  0.4311
  260TMC3    C4 3989   3.374   1.499   0.478  0.3919  0.1355  0.1692
  260TMC3    C5 3990   3.343   1.480   0.347  0.1737 -0.3706  0.3492
  260TMC3    C6 3991   3.322   1.581   0.260 -0.1072  0.0604 -0.7104
  260TMC3     C 3992   3.415   1.663   0.658  0.8486 -0.5165  0.0851
  260TMC3     O 3993   3.407   1.781   0.697  0.4363 -0.0525  0.3232
  260TMC3     H 3994   3.424   1.830   0.465  2.7730 -1.7894  2.1285
  260TMC3    H1 3995   3.373   1.407   0.536 -0.8501 -0.4649 -0.8096
  260TMC3    H2 3996   3.299   1.573   0.155 -0.5753 -3.0208 -0.3692
  260TMC3    C7 3997   3.431   1.389   0.274  0.3799 -0.1950  0.0995
  260TMC3    C8 3998   3.435   1.786   0.220 -0.2875  0.5204  0.4256
  260TMC3    O1 3999   3.462   1.423   0.158 -0.1027  0.4132 -0.4366
  260TMC3    O2 4000   3.444   1.908   0.234 -0.7567  0.0279  0.1602
  261MPD2     C 4001   0.933   0.104  11.584  0.5266  0.2103 -0.0294
  261MPD2    C1 4002   0.965   0.198  11.676  0.5146 -0.2687 -0.0537
  261MPD2    C2 4003   1.000   0.329  11.635 -0.0424  0.0836 -0.5473
  261MPD2    C3 4004   1.012   0.357  11.498 -0.4684 -0.2249  0.2492
  261MPD2    C4 4005   0.985   0.256  11.405 -0.2460  0.6415  0.2349
  261MPD2    C5 4006   0.934   0.133  11.453  0.2245 -0.4254 -0.2976
  261MPD2     H 4007   1.010   0.412  11.703 -0.7827  0.8129 -1.3306
  261MPD2    H1 4008   0.994   0.274  11.299  1.5822  0.9017  0.4227
  261MPD2    H2 4009   0.912   0.003  11.615  2.7944 -0.7312 -1.5171
  261MPD2    H3 4010   0.906   0.056  11.382  1.0542 -0.4413 -0.6045
  261MPD2     N 4011   1.066   0.485  11.467 -0.7334  0.1867 -0.0019
  261MPD2    H5 4012   1.083   0.552  11.541 -4.0619 -0.3932  1.2793
  261MPD2    N1 4013   0.928   0.174  11.816  0.4820  0.4935  0.5815
  261MPD2    H7 4014   0.939   0.251  11.882  0.4539 -0.1200  1.3121
  262TMC3    C1 4015   1.122   0.674  11.334  0.0385 -0.0395  0.7930
  262TMC3    C2 4016   1.017   0.758  11.312 -0.5421  0.2254 -0.0353
  262TMC3    C3 4017   1.005   0.876  11.383  0.5899  0.4326 -0.9498
  262TMC3    C4 4018   1.213   0.699  11.429  0.6010 -0.0648 -0.4135
  262TMC3    C5 4019   1.220   0.823  11.478  0.2727  0.1064  0.3836
  262TMC3    C6 4020   1.125   0.920  11.447 -0.6033 -0.4908  0.3610
  262TMC3     C 4021   1.089   0.530  11.337  0.7282  0.3324  0.1290
  262TMC3     O 4022   1.076   0.482  11.226  0.0290 -0.2520 -0.3952
  262TMC3     H 4023   0.933   0.711  11.263 -1.0189  0.4458  0.5805
  262TMC3    H1 4024   1.285   0.623  11.459  0.4383 -0.2215 -0.4160
  262TMC3    H2 4025   1.117   1.006  11.513  3.4413 -1.2762  1.8568
  262TMC3    C7 4026   1.333   0.853  11.572  0.2983 -0.2023  0.1602
  262TMC3    C8 4027   0.889   0.962  11.365 -0.4474  0.3109  0.2961
  262TMC3    O1 4028   1.375   0.751  11.628 -0.5059 -0.3218 -0.0743
  262TMC3    O2 4029   0.895   1.063  11.433  0.4154  0.4215  0.3806
  263MPD2     C 4030   2.006   4.005  10.836  0.0595  1.0255 -0.3388
  263MPD2    C1 4031   2.040   4.128  10.901 -0.4339  0.5727  0.9042
  263MPD2    C2 4032   1.999   4.252  10.847 -0.1831  0.4039 -0.0359
  263MPD2    C3 4033   1.918   4.248  10.732 -0.0898  0.3144 -0.6972
  263MPD2    C4 4034   1.870   4.124  10.682  0.8160  0.2413 -0.1866
  263MPD2    C5 4035   1.921   4.004  10.733 -0.9184  0.4699 -0.3940
  263MPD2     H 4036   2.028   4.349  10.887  1.5429  0.1477 -0.6988
  263MPD2    H1 4037   1.792   4.121  10.606  1.5759 -1.8652 -0.8799
  263MPD2    H2 4038   2.031   3.908  10.879 -1.0945  0.4534 -0.9632
  263MPD2    H3 4039   1.870   3.913  10.701 -0.5586  0.5240 -1.1229
  263MPD2     N 4040   1.866   4.369  10.667 -0.0311 -0.6181 -0.2689
  263MPD2    H5 4041   1.874   4.456  10.719 -0.9165 -0.0288 -1.1234
  263MPD2    N1 4042   2.114   4.117  11.019  0.3492 -0.7621  0.1192
  263MPD2    H7 4043   2.136   4.023  11.050  2.0518 -0.1672  0.7155
  264TMC3    C1 4044   1.780   4.512  10.516  0.2076 -0.5936  0.1733
  264TMC3    C2 4045   1.750   4.596  10.619 -0.0353  0.0443 -0.1256
  264TMC3    C3 4046   1.780   4.731  10.603 -0.6584 -0.9503  0.0813
  264TMC3    C4 4047   1.851   4.560  10.406  0.3633 -0.1232 -0.2346
  264TMC3    C5 4048   1.886   4.693  10.401 -0.0063 -0.9099 -0.3327
  264TMC3    C6 4049   1.840   0.044  10.491  0.6105  0.9417  0.2470
  264TMC3     C 4050   1.805   4.373  10.546  0.9955  0.9096  0.0183
  264TMC3     O 4051   1.818   4.296  10.450  0.0405 -0.2439 -0.0877
  264TMC3     H 4052   1.711   4.551  10.709 -0.4072  2.0523  0.7077
  264TMC3    H1 4053   1.895   4.486  10.340 -0.4576  1.0311 -2.0651
  264TMC3    H2 4054   1.859   0.150  10.497  3.8059  0.2900  1.8979
  264TMC3    C7 4055   2.020   4.714  10.350  0.2301 -0.3042  0.3398
  264TMC3    C8 4056   1.830   0.077  10.712  0.4777 -0.7295 -0.4030
  264TMC3    O1 4057   2.077   4.611  10.313  0.0366  0.5940  0.0423
  264TMC3    O2 4058   1.942   0.125  10.695 -0.6248 -0.3700 -0.5690
  265MPD2     C 4059   3.622   4.518  15.539  0.2535 -0.1132 -0.1339
  265MPD2    C1 4060   3.704   4.623  15.512 -0.4563 -0.0524  0.8950
  265MPD2    C2 4061   3.815   4.603  15.432 -0.2692  0.0955 -0.3029
  265MPD2    C3 4062   3.839   4.484  15.370  0.1620 -0.1647 -0.6626
  265MPD2    C4 4063   3.749   4.388  15.383  0.1916  0.2308 -0.1894
  265MPD2    C5 4064   3.640   4.403  15.470 -0.1526 -0.6625 -0.2668
  265MPD2     H 4065   3.868   4.694  15.405 -0.6263  0.1115 -0.9592
  265MPD2    H1 4066   3.770   4.293  15.336 -0.5542  0.3336 -0.7167
  265MPD2    H2 4067   3.539   4.528  15.607 -0.5501 -0.9707 -0.9779
  265MPD2    H3 4068   3.569   4.322  15.481 -0.1751 -0.4790  0.8968
  265MPD2     N 4069   3.948   4.450  15.284 -0.8326 -0.1638 -0.2565
  265MPD2    H5 4070   3.946   4.360  15.237 -0.9896 -0.9472  1.2773
  265MPD2    N1 4071   3.676   0.020  15.572 -0.1535 -0.5249 -0.3335
  265MPD2    H7 4072   3.757   0.079  15.584  0.1705 -0.5996 -2.1957
  266TMC3    C1 4073   3.553   0.179  15.692  0.6169  0.0940  0.4120
  266TMC3    C2 4074   3.652   0.195  15.785  0.3992 -0.3559  0.3813
  266TMC3    C3 4075   3.640   0.312  15.858 -0.4194 -0.0328  0.6324
  266TMC3    C4 4076   3.441   0.253  15.670  0.1955  0.2241 -0.0194
  266TMC3    C5 4077   3.437   0.365  15.756  0.5439  0.4290  0.3023
  266TMC3    C6 4078   3.531   0.394  15.853  0.1052 -0.1007 -0.3111
  266TMC3     C 4079   3.548   0.055  15.617 -0.9256  0.3231  0.2364
  266TMC3     O 4080   3.443   4.734  15.588  0.7826 -0.3810  0.0818
  266TMC3     H 4081   3.731   0.121  15.787 -0.3100 -1.1388 -0.5390
  266TMC3    H1 4082   3.363   0.222  15.602 -0.1589  1.5072 -0.1818
  266TMC3    H2 4083   3.528   0.481  15.916  1.0100 -0.2549 -0.0519
  266TMC3    C7 4084   3.329   0.459  15.723 -0.2665  0.6854  0.5350
  266TMC3    C8 4085   3.755   0.339  15.943 -0.3566  0.1584  0.1964
  266TMC3    O1 4086   3.244   0.416  15.646  0.0554  0.0029 -0.1441
  266TMC3    O2 4087   3.831   0.246  15.948  0.2640  0.3506  0.4784
  267MPD2     C 4088   0.863   2.102   1.063  0.3649  0.3958  0.4917
  267MPD2    C1 4089   0.853   2.152   0.938 -0.0948 -0.3750  0.3292
  267MPD2    C2 4090   0.727   2.169   0.886 -0.2530 -0.2358 -0.4636
  267MPD2    C3 4091   0.613   2.141   0.954  0.3131  0.1643  0.1404
  267MPD2    C4 4092   0.625   2.088   1.087 -0.3252  0.3795  0.0915
  267MPD2    C5 4093   0.753   2.069   1.134 -0.1716 -0.2417 -0.3912
  267MPD2     H 4094   0.712   2.200   0.783 -1.5519  0.8357  0.0580
  267MPD2    H1 4095   0.538   2.059   1.145  1.4187 -4.7710  0.0798
  267MPD2    H2 4096   0.962   2.090   1.106  1.0057  4.0261  0.0166
  267MPD2    H3 4097   0.778   2.031   1.232 -2.7182  1.3071  0.8744
  267MPD2     N 4098   0.483   2.144   0.895  0.1467  0.1268 -0.0408
  267MPD2    H5 4099   0.410   2.103   0.951 -0.6168  0.3249 -0.9022
  267MPD2    N1 4100   0.969   2.154   0.860 -0.0185  0.7205 -0.4158
  267MPD2    H7 4101   1.059   2.134   0.903 -0.2230 -2.1155 -1.2878
  268TMC3    C1 4102   1.123   2.147   0.687 -0.3671 -0.1290  0.1648
  268TMC3    C2 4103   1.176   2.224   0.582 -0.8377 -0.0700  0.3334
  268TMC3    C3 4104   1.304   2.210   0.556  0.0803  0.2093 -0.3119
  268TMC3    C4 4105   1.201   2.071   0.766  0.0999  0.0771 -0.2470
  268TMC3    C5 4106   1.333   2.066   0.745 -0.0242 -0.2189 -0.5184
  268TMC3    C6 4107   1.388   2.137   0.642  0.8392  0.0214 -0.7370
  268TMC3     C 4108   0.984   2.183   0.726  0.3404  0.5764 -0.0376
  268TMC3     O 4109   0.903   2.228   0.652 -0.9220  0.3964 -0.3274
  268TMC3     H 4110   1.119   2.296   0.524  0.2457  0.5466  0.0331
  268TMC3    H1 4111   1.162   2.005   0.843  3.4384 -1.1119  0.4208
  268TMC3    H2 4112   1.495   2.132   0.625  0.9953  1.4711 -0.1911
  268TMC3    C7 4113   1.411   1.968   0.812 -0.2245  0.6046 -0.4232
  268TMC3    C8 4114   1.360   2.268   0.436  0.5446  0.1151  0.1426
  268TMC3    O1 4115   1.350   1.870   0.854 -1.4258 -0.0668  0.0207
  268TMC3    O2 4116   1.481   2.283   0.427 -0.3350  0.4627 -0.4662
  269MPD2     C 4117   1.599   0.713  15.664 -0.0046 -0.0516 -0.4446
  269MPD2    C1 4118   1.474   0.735  15.712  0.0190  0.1274  0.7876
  269MPD2    C2 4119   1.415   0.862  15.720 -0.4748  0.8998  0.1004
  269MPD2    C3 4120   1.488   0.966  15.676 -0.7871  1.0648  0.5967
  269MPD2    C4 4121   1.616   0.949  15.626  0.1054  0.8939  0.0377
  269MPD2    C5 4122   1.667   0.820  15.612  0.1663  0.4109  0.0154
  269MPD2     H 4123   1.321   0.879  15.772 -0.7081 -2.8211  0.8760
  269MPD2    H1 4124   1.684   1.028  15.597  0.8192  0.3564  0.2388
  269MPD2    H2 4125   1.634   0.611  15.658  2.5352  0.8065 -0.3541
  269MPD2    H3 4126   1.770   0.798  15.586  0.3606  1.7122 -0.3205
  269MPD2     N 4127   1.431   1.095  15.682 -0.0210  0.6360  0.3197
  269MPD2    H5 4128   1.343   1.105  15.732 -0.1772  1.2857 -0.0902
  269MPD2    N1 4129   1.403   0.614  15.751 -0.2697  0.3453  0.6327
  269MPD2    H7 4130   1.446   0.523  15.757 -1.5743 -0.2770  0.5225
  270TMC3    C1 4131   1.233   0.476  15.824 -0.2819 -0.1011 -0.0328
  270TMC3    C2 4132   1.101   0.447  15.826 -0.7059 -0.3742  0.1562
  270TMC3    C3 4133   1.067   0.319  15.867 -0.5187  0.1583 -0.4465
  270TMC3    C4 4134   1.325   0.379  15.860  0.7342 -0.6078  0.2947
  270TMC3    C5 4135   1.281   0.260  15.906  0.3938  0.9172  0.3762
  270TMC3    C6 4136   1.149   0.224  15.916  0.3805 -0.1464 -0.3367
  270TMC3     C 4137   1.270   0.605  15.782 -0.0546 -0.5524  0.3678
  270TMC3     O 4138   1.179   0.685  15.790 -0.4254  0.7180 -0.4635
  270TMC3     H 4139   1.028   0.516  15.786 -1.5067 -1.1615  0.2676
  270TMC3    H1 4140   1.425   0.415  15.880  0.3772  1.0431 -0.8437
  270TMC3    H2 4141   1.103   0.134  15.956 -1.8574  0.2913 -1.8827
  270TMC3    C7 4142   1.387   0.167  15.928 -0.3056  0.3101 -0.0785
  270TMC3    C8 4143   0.997   0.265  15.751  0.4553  0.3217  0.1245
  270TMC3    O1 4144   1.495   0.199  15.897 -0.3589 -0.3662  0.3131
  270TMC3    O2 4145   1.000   0.324  15.645 -0.0646  0.1163  0.1651
  271MPD2     C 4146   0.712   0.090  14.080 -1.6162 -0.2117  0.2037
  271MPD2    C1 4147   0.658   0.121  14.201 -0.3887  0.4454 -0.3633
  271MPD2    C2 4148   0.537   0.200  14.218 -0.4721 -0.1036 -0.0112
  271MPD2    C3 4149   0.481   0.254  14.099  0.5600  0.5113  0.3600
  271MPD2    C4 4150   0.541   0.216  13.978  0.1881 -0.3953  0.1462
  271MPD2    C5 4151   0.655   0.138  13.969 -0.2043 -0.3042  0.0391
  271MPD2     H 4152   0.486   0.205  14.313 -0.9211  3.9001 -0.4624
  271MPD2    H1 4153   0.504   0.244  13.880 -1.5437 -0.4161  0.7969
  271MPD2    H2 4154   0.786   0.013  14.060  0.1040  0.9555  2.1143
  271MPD2    H3 4155   0.693   0.110  13.872  0.1533  0.0969  0.0603
  271MPD2     N 4156   0.372   0.350  14.084  0.0720  0.4497  0.3589
  271MPD2    H5 4157   0.355   0.382  13.990  0.1171 -2.3155 -0.6034
  271MPD2    N1 4158   0.732   0.087  14.316  0.6492  0.1090  0.1552
  271MPD2    H7 4159   0.693   0.110  14.407 -1.9151 -1.3905 -0.5625
  272TMC3    C1 4160   0.923   0.018  14.454  0.5849  0.1993 -0.2537
  272TMC3    C2 4161   1.041   4.690  14.453  0.0473  0.6293 -0.1601
  272TMC3    C3 4162   1.108   4.694  14.572  0.1474  0.3961 -0.7682
  272TMC3    C4 4163   0.872   0.090  14.556  0.8856 -0.0318 -0.0618
  272TMC3    C5 4164   0.943   0.105  14.664  0.1385 -0.6108  0.5037
  272TMC3    C6 4165   1.066   0.042  14.674 -0.4478 -0.0254 -0.5116
  272TMC3     C 4166   0.848   0.013  14.325 -0.2464 -0.0843  0.2444
  272TMC3     O 4167   0.892   4.673  14.241 -0.2895  0.4963 -0.7325
  272TMC3     H 4168   1.075   4.625  14.373 -0.5914 -0.4876  0.4697
  272TMC3    H1 4169   0.774   0.137  14.552 -0.8450 -3.6491  0.1617
  272TMC3    H2 4170   1.121   0.027  14.767  3.0287 -1.6671 -2.8480
  272TMC3    C7 4171   0.881   0.139  14.790  0.0526  0.3112 -0.3129
  272TMC3    C8 4172   1.249   4.656  14.563  0.3351  0.2369  0.7009
  272TMC3    O1 4173   0.761   0.163  14.789 -0.4531 -0.8221  0.5883
  272TMC3    O2 4174   1.296   4.682  14.452  0.2845  0.1189  0.8424
  273MPD2     C 4175   1.938   3.129  11.526 -0.2188 -0.3723  0.3129
  273MPD2    C1 4176   2.056   3.198  11.510  0.1600  0.1588  0.5316
  273MPD2    C2 4177   2.098   3.237  11.384 -0.0850 -0.3077 -0.3877
  273MPD2    C3 4178   2.025   3.205  11.272 -0.2948 -0.2302 -0.1758
  273MPD2    C4 4179   1.898   3.150  11.288 -0.8233  0.0306  0.1532
  273MPD2    C5 4180   1.860   3.103  11.416  0.1210  0.0521  0.1096
  273MPD2     H 4181   2.190   3.292  11.371 -0.2161  0.4048  1.6353
  273MPD2    H1 4182   1.829   3.129  11.207  0.9714 -1.9556 -0.8197
  273MPD2    H2 4183   1.899   3.098  11.622 -0.4751  0.0347  0.3408
  273MPD2    H3 4184   1.759   3.064  11.420  0.4406 -0.7821 -0.1128
  273MPD2     N 4185   2.074   3.229  11.145 -0.3164  0.6803 -0.0497
  273MPD2    H5 4186   2.015   3.215  11.064 -0.5319  1.0212  0.0473
  273MPD2    N1 4187   2.123   3.233  11.630 -0.2708 -0.5470 -0.8764
  273MPD2    H7 4188   2.089   3.198  11.719  1.1214 -0.7783 -0.4482
  274TMC3    C1 4189   2.232   3.296  10.976  0.3458  0.3382  0.0964
  274TMC3    C2 4190   2.145   3.277  10.870  0.0361 -0.3161 -0.6357
  274TMC3    C3 4191   2.182   3.313  10.740 -0.9238  0.4705  0.6196
  274TMC3    C4 4192   2.353   3.352  10.952  0.6132  0.1046  0.0200
  274TMC3    C5 4193   2.380   3.397  10.828 -0.0364  0.2404  0.1968
  274TMC3    C6 4194   2.303   3.369  10.720 -0.0514 -0.9531  0.0506
  274TMC3     C 4195   2.197   3.280  11.116  0.3513 -0.2859 -0.4122
  274TMC3     O 4196   2.296   3.294  11.189  0.0313  0.2108 -0.2443
  274TMC3     H 4197   2.039   3.257  10.882 -0.2753  0.4255 -2.1678
  274TMC3    H1 4198   2.431   3.363  11.027 -0.1356 -1.2028  0.9836
  274TMC3    H2 4199   2.325   3.428  10.632 -3.8210  0.9716  0.3960
  274TMC3    C7 4200   2.492   3.481  10.808 -0.1681 -0.0383  0.3002
  274TMC3    C8 4201   2.095   3.298  10.622  0.0783  0.2988  0.1212
  274TMC3    O1 4202   2.561   3.467  10.710  0.5672  0.1612 -0.3090
  274TMC3    O2 4203   1.980   3.265  10.648  0.2493  0.1398 -0.0575
  275MPD2     C 4204   2.643   0.916  14.527  0.4665 -0.5000 -0.0206
  275MPD2    C1 4205   2.540   0.984  14.466 -0.5748  0.1001  0.5874
  275MPD2    C2 4206   2.414   0.933  14.468 -1.2876  0.3363  0.5322
  275MPD2    C3 4207   2.382   0.812  14.512  0.7641 -0.7680  0.5389
  275MPD2    C4 4208   2.480   0.740  14.572  0.3034  0.5486 -0.4819
  275MPD2    C5 4209   2.609   0.787  14.566  1.2629  0.1615  0.7764
  275MPD2     H 4210   2.341   0.991  14.412  0.3056 -0.9695 -2.9423
  275MPD2    H1 4211   2.467   0.646  14.624  0.7837  0.8053  0.1020
  275MPD2    H2 4212   2.745   0.949  14.539 -0.7871  2.6080  2.0080
  275MPD2    H3 4213   2.682   0.722  14.614  2.3230  0.2249 -0.7245
  275MPD2     N 4214   2.246   0.774  14.532  0.7540  0.2663  0.4168
  275MPD2    H5 4215   2.232   0.689  14.586 -0.7556 -1.7638 -3.1918
  275MPD2    N1 4216   2.542   1.116  14.427 -0.2650  0.1910 -0.1634
  275MPD2    H7 4217   2.459   1.153  14.381 -0.6588 -1.7538 -1.0184
  276TMC3    C1 4218   2.586   1.343  14.441 -0.9717 -0.0034  0.4446
  276TMC3    C2 4219   2.450   1.356  14.452 -0.3235  0.2933 -0.0931
  276TMC3    C3 4220   2.391   1.452  14.522  0.7583  0.1924  0.0365
  276TMC3    C4 4221   2.666   1.445  14.489  0.1203  0.2844  0.6881
  276TMC3    C5 4222   2.603   1.547  14.560  0.5872  0.2455  0.1036
  276TMC3    C6 4223   2.469   1.551  14.578 -0.5941  0.3017  0.7201
  276TMC3     C 4224   2.635   1.210  14.460  0.9159 -0.0396  0.1360
  276TMC3     O 4225   2.740   1.199  14.523 -0.1732  0.3151  0.3452
  276TMC3     H 4226   2.384   1.285  14.402 -0.6143 -0.1868  0.9783
  276TMC3    H1 4227   2.773   1.427  14.482  0.0778 -0.2206  1.3877
  276TMC3    H2 4228   2.425   1.622  14.646 -0.3354  1.7654 -0.6505
  276TMC3    C7 4229   2.683   1.644  14.628  0.2092  0.3467  0.4032
  276TMC3    C8 4230   2.285   1.402  14.607 -0.0190  0.0278  0.9760
  276TMC3    O1 4231   2.627   1.731  14.691  0.3413 -0.2160  0.2416
  276TMC3    O2 4232   2.187   1.476  14.629  0.0556  0.6734 -0.0076
  277MPD2     C 4233   3.982   0.384  12.831  0.2808 -0.1204  0.0995
  277MPD2    C1 4234   3.884   0.420  12.914 -0.0079 -0.0563  0.1644
  277MPD2    C2 4235   3.847   0.334  13.008 -0.0196  0.4280 -0.0435
  277MPD2    C3 4236   3.898   0.213  13.024  0.4665 -0.3974 -0.5692
  277MPD2    C4 4237   3.989   0.172  12.929 -0.1952  0.4596 -0.2843
  277MPD2    C5 4238   4.031   0.257  12.829 -0.1257 -0.3628 -0.7459
  277MPD2     H 4239   3.784   0.374  13.086 -0.0029 -1.0245  0.7188
  277MPD2    H1 4240   4.034   0.073  12.927  2.9326  1.8907 -1.7640
  277MPD2    H2 4241   4.015   0.453  12.755 -0.0625 -0.1393 -0.0636
  277MPD2    H3 4242   4.121   0.238  12.772  0.8238  0.1599  0.5845
  277MPD2     N 4243   3.863   0.143  13.137 -0.0602  0.7691  0.2438
  277MPD2    H5 4244   3.790   0.188  13.192  0.3145 -0.7914  2.0086
  277MPD2    N1 4245   3.850   0.558  12.916  0.0590 -0.4562 -0.3107
  277MPD2    H7 4246   3.891   0.608  12.837 -1.2860  0.1221 -0.6348
  278TMC3    C1 4247   3.837   4.697  13.295  0.6938 -0.6660  0.8589
  278TMC3    C2 4248   3.868   4.569  13.332  0.7265  0.4624 -0.3245
  278TMC3    C3 4249   3.795   4.511  13.433 -0.6713 -0.0608 -0.2649
  278TMC3    C4 4250   3.720   0.027  13.338 -0.9955  0.4605  0.1546
  278TMC3    C5 4251   3.654   4.705  13.442 -0.8054  0.2171  0.9126
  278TMC3    C6 4252   3.691   4.583  13.494  0.3694 -0.0397 -0.2964
  278TMC3     C 4253   3.904   0.021  13.173 -0.8274  0.3838  0.2977
  278TMC3     O 4254   3.995   4.692  13.124  0.8879 -0.3545 -0.4468
  278TMC3     H 4255   3.949   4.516  13.284 -0.1137 -0.2869 -0.9163
  278TMC3    H1 4256   3.682   0.121  13.301  0.7108  0.1094 -2.5359
  278TMC3    H2 4257   3.648   4.545  13.585 -0.5093  1.8976  0.1098
  278TMC3    C7 4258   3.575   0.053  13.527  0.5837  0.1959 -0.0272
  278TMC3    C8 4259   3.799   4.363  13.451 -0.5097 -0.6698  0.0497
  278TMC3    O1 4260   3.585   0.174  13.507 -0.6772  0.2648  0.5619
  278TMC3    O2 4261   3.905   4.305  13.440  0.5742  0.6532 -0.8649
  279MPD2     C 4262   2.791   0.436   0.501 -0.2030  0.0430 -0.3441
  279MPD2    C1 4263   2.704   0.354   0.429  0.0111  1.1512  0.4624
  279MPD2    C2 4264   2.748   0.310   0.302 -0.0162 -0.0886  0.0054
  279MPD2    C3 4265   2.874   0.350   0.262 -0.8849 -0.0566 -0.5071
  279MPD2    C4 4266   2.958   0.417   0.343  0.2210 -0.1846 -0.1417
  279MPD2    C5 4267   2.915   0.472   0.457  0.8471  0.2932 -0.5103
  279MPD2     H 4268   2.682   0.254   0.236 -0.2968  2.5717 -1.9923
  279MPD2    H1 4269   3.059   0.441   0.314 -0.3976  2.8837  0.1821
  279MPD2    H2 4270   2.761   0.478   0.596  2.7888 -0.5687  0.8841
  279MPD2    H3 4271   2.982   0.528   0.521  2.6597 -1.8697 -0.5129
  279MPD2     N 4272   2.927   0.302   0.142 -0.7261  0.3166 -0.0641
  279MPD2    H5 4273   3.025   0.324   0.126 -2.0715  3.9363 -3.2508
  279MPD2    N1 4274   2.578   0.322   0.484 -0.6097  1.1415  0.1053
  279MPD2    H7 4275   2.563   0.375   0.569 -0.1221  1.4455  0.0002
  280TMC3    C1 4276   2.344   0.274   0.480  0.4666  0.4393 -0.0796
  280TMC3    C2 4277   2.245   0.187   0.428 -0.0729 -0.2732 -0.0419
  280TMC3    C3 4278   2.120   0.238   0.409 -0.1923  0.4548  0.2689
  280TMC3    C4 4279   2.311   0.406   0.498  0.2164  0.3240  0.5436
  280TMC3    C5 4280   2.188   0.454   0.474 -0.4173  0.3610 -0.0245
  280TMC3    C6 4281   2.089   0.362   0.445 -0.2260 -0.1840 -0.3026
  280TMC3     C 4282   2.475   0.242   0.433 -0.2817 -0.1990 -0.0621
  280TMC3     O 4283   2.487   0.163   0.340  0.6820  0.2436  0.1563
  280TMC3     H 4284   2.268   0.089   0.389  1.3816 -0.1641  0.5366
  280TMC3    H1 4285   2.395   0.474   0.505 -0.5632  1.3049  0.3580
  280TMC3    H2 4286   1.985   0.395   0.441  0.1382  1.0009 -0.0153
  280TMC3    C7 4287   2.178   0.576   0.387 -0.1331 -0.4149 -0.1639
  280TMC3    C8 4288   2.091   0.236   0.266  0.2026 -0.1712  0.2630
  280TMC3    O1 4289   2.274   0.654   0.403 -0.2229 -0.0002 -0.3387
  280TMC3    O2 4290   1.995   0.310   0.242  0.1304  0.3975  0.6976
  281TMC3    C1 4291   2.272   0.080  13.444 -1.3777  0.3681 -0.1337
  281TMC3    C2 4292   2.301   0.167  13.345 -0.1482  0.3414 -0.0350
  281TMC3    C3 4293   2.276   0.114  13.218  0.5123 -1.0021 -0.1268
  281TMC3    C4 4294   2.222   4.687  13.421 -0.3910  0.2591 -0.2980
  281TMC3    C5 4295   2.209   4.644  13.296  0.3532  0.4740 -0.7275
  281TMC3    C6 4296   2.238   4.723  13.188  0.0016 -0.8000 -0.5512
  281TMC3     C 4297   2.225   0.139  13.575 -0.2782  0.1160  0.4255
  281TMC3     O 4298   2.220   0.065  13.669 -0.1046 -1.0574  0.3820
  281TMC3     H 4299   2.324   0.272  13.361 -2.2837  1.4266 -4.0400
  281TMC3    H1 4300   2.209   4.630  13.513  1.0522 -1.1177 -0.9286
  281TMC3    H2 4301   2.210   4.699  13.086 -1.5901 -1.5927  0.0671
  281TMC3    C7 4302   2.091   4.568  13.262  0.5242 -0.2782  0.0734
  281TMC3    C8 4303   2.196   0.207  13.130  0.1932 -0.0097 -0.3293
  281TMC3    O1 4304   2.087   4.516  13.155  0.2164 -0.0012  0.0224
  281TMC3    O2 4305   2.108   0.156  13.068  0.1087 -0.0077 -0.5246
  282MPD2     C 4306   3.618   1.474  15.394  0.0422 -0.0898 -0.0392
  282MPD2    C1 4307   3.499   1.518  15.352 -0.3462  0.3511  0.3727
  282MPD2    C2 4308   3.436   1.452  15.249 -0.5902 -0.7472  0.5915
  282MPD2    C3 4309   3.490   1.341  15.194 -0.2462  0.3538 -0.3639
  282MPD2    C4 4310   3.606   1.291  15.243  0.8075 -0.4565  0.3746
  282MPD2    C5 4311   3.672   1.356  15.344  0.4934  0.0425  0.4497
  282MPD2     H 4312   3.344   1.489  15.206  0.2912  1.6109  0.7334
  282MPD2    H1 4313   3.634   1.189  15.219 -2.3441 -0.6918 -2.3688
  282MPD2    H2 4314   3.676   1.517  15.475 -1.4680 -0.0475  1.0211
  282MPD2    H3 4315   3.766   1.321  15.385  0.2872  0.3275  1.1613
  282MPD2     N 4316   3.424   1.291  15.077  0.5555  0.0622  0.6716
  282MPD2    H5 4317   3.334   1.334  15.055  1.6663  1.9872 -0.1005
  282MPD2    N1 4318   3.441   1.630  15.400  0.2001 -0.8567  0.1679
  282MPD2    H7 4319   3.353   1.654  15.355 -0.8700 -2.9344  1.1940
  283TMC3    C1 4320   3.405   1.805  15.555 -0.3685 -0.1027 -0.5164
  283TMC3    C2 4321   3.460   1.924  15.593 -0.2828 -0.1159 -0.3221
  283TMC3    C3 4322   3.396   1.997  15.689  0.8287 -0.2204 -0.0680
  283TMC3    C4 4323   3.292   1.749  15.611 -0.4005  0.3763 -0.2442
  283TMC3    C5 4324   3.229   1.825  15.701 -0.3787  0.5624 -0.5095
  283TMC3    C6 4325   3.276   1.951  15.744 -0.7210  0.5530  0.0367
  283TMC3     C 4326   3.501   1.720  15.483  0.8063  0.3910  0.0079
  283TMC3     O 4327   3.619   1.740  15.509  0.3729 -0.1929  0.1368
  283TMC3     H 4328   3.553   1.955  15.548  0.6325  0.4624  1.9969
  283TMC3    H1 4329   3.258   1.648  15.592  0.8691 -0.2884  1.0258
  283TMC3    H2 4330   3.218   2.010  15.815  1.2310  2.7736 -0.2141
  283TMC3    C7 4331   3.093   1.814  15.723  0.3251 -0.4901  0.4454
  283TMC3    C8 4332   3.454   2.097  15.769  0.1203  0.2590  0.5212
  283TMC3    O1 4333   3.046   1.853  15.830  0.1660  0.1636 -0.5689
  283TMC3    O2 4334   3.423   2.095  15.888 -0.2761  0.0806  0.2489
  284MPD2     C 4335   1.518   1.011  11.248 -0.6491 -0.4025  1.0503
  284MPD2    C1 4336   1.652   1.012  11.287  0.4762 -0.1073  0.4422
  284MPD2    C2 4337   1.721   0.893  11.307  0.2237 -0.1988  0.3868
  284MPD2    C3 4338   1.653   0.771  11.301 -0.1319 -0.4700  0.3682
  284MPD2    C4 4339   1.529   0.774  11.253  0.1617  0.2717 -0.1306
  284MPD2    C5 4340   1.460   0.887  11.232  0.4339 -0.3086 -0.0653
  284MPD2     H 4341   1.819   0.893  11.352  0.7066 -1.4082 -0.6761
  284MPD2    H1 4342   1.462   0.690  11.239 -0.8709  1.2413 -0.9849
  284MPD2    H2 4343   1.452   1.096  11.233 -2.1769 -1.1816  3.4002
  284MPD2    H3 4344   1.358   0.888  11.196  0.7749  0.3338 -1.0290
  284MPD2     N 4345   1.695   0.647  11.360  0.7648 -0.4500  0.0039
  284MPD2    H5 4346   1.621   0.583  11.384  0.5752  0.2071  1.1351
  284MPD2    N1 4347   1.716   1.130  11.335 -0.3042 -0.0434 -0.3523
  284MPD2    H7 4348   1.805   1.120  11.383 -0.1742  3.0290  0.0426
  285TMC3    C1 4349   1.735   1.313  11.451  0.9004  0.4893 -0.3516
  285TMC3    C2 4350   1.821   1.228  11.521  0.4561 -0.2994 -0.0921
  285TMC3    C3 4351   1.946   1.275  11.540  0.0291 -0.2561  0.2752
  285TMC3    C4 4352   1.759   1.445  11.423 -0.0663 -0.0069 -0.5681
  285TMC3    C5 4353   1.880   1.490  11.456 -0.0602 -0.5367 -0.6522
  285TMC3    C6 4354   1.979   1.407  11.514  0.2031  0.4304 -0.3944
  285TMC3     C 4355   1.657   1.247  11.353  0.3836  0.3180  0.5504
  285TMC3     O 4356   1.560   1.299  11.311 -0.0570 -0.1378 -0.0380
  285TMC3     H 4357   1.790   1.131  11.556  1.1609 -0.6389 -0.4090
  285TMC3    H1 4358   1.685   1.504  11.371 -0.8263  0.5279  1.1403
  285TMC3    H2 4359   2.066   1.443  11.568  0.7553 -0.9703 -0.3401
  285TMC3    C7 4360   1.886   1.635  11.465 -0.7663  0.2703  0.5090
  285TMC3    C8 4361   2.041   1.180  11.494  0.3423 -0.1133  0.3550
  285TMC3    O1 4362   1.784   1.694  11.442 -0.6120  0.9336 -0.0461
  285TMC3    O2 4363   1.988   1.077  11.450 -0.6129  0.6435 -0.1904
  286MPD2     C 4364   1.889   0.669   1.443  0.4616 -0.0248  0.0387
  286MPD2    C1 4365   1.872   0.615   1.319 -0.5597 -0.4175 -0.2801
  286MPD2    C2 4366   1.879   0.475   1.309 -0.0926  0.1184 -1.2801
  286MPD2    C3 4367   1.910   0.398   1.418 -0.3292 -0.0188  0.3710
  286MPD2    C4 4368   1.918   0.453   1.546 -0.2714  0.4167  0.4591
  286MPD2    C5 4369   1.917   0.591   1.553 -0.4768  0.8144  0.0685
  286MPD2     H 4370   1.872   0.425   1.213 -0.5336  1.3742 -1.9081
  286MPD2    H1 4371   1.957   0.404   1.634  0.3722 -1.2343 -0.7376
  286MPD2    H2 4372   1.909   0.774   1.465 -1.1786 -0.1416  2.0573
  286MPD2    H3 4373   1.942   0.641   1.646  1.2057 -2.3436  1.3051
  286MPD2     N 4374   1.955   0.263   1.419 -0.9497 -0.0197  0.0687
  286MPD2    H5 4375   1.979   0.217   1.506  0.1580 -1.7723 -1.1437
  286MPD2    N1 4376   1.870   0.694   1.199 -0.1364 -0.5977  0.2780
  286MPD2    H7 4377   1.864   0.644   1.111  1.2085 -0.2348 -0.0305
  287TMC3    C1 4378   2.007   0.050   1.324 -0.7384 -0.8532 -0.1330
  287TMC3    C2 4379   2.001   4.709   1.209 -0.3086  0.5464 -0.5607
  287TMC3    C3 4380   2.106   4.628   1.187  0.2088 -0.1270  0.1372
  287TMC3    C4 4381   2.108   0.043   1.414  0.2166  0.1216 -0.0806
  287TMC3    C5 4382   2.208   4.687   1.396  0.0982 -0.2639  0.0120
  287TMC3    C6 4383   2.211   4.607   1.280  0.0088  0.0347 -0.6460
  287TMC3     C 4384   1.936   0.180   1.315  0.5130  0.5520  0.8225
  287TMC3     O 4385   1.886   0.195   1.205  0.1792 -0.2260 -0.2571
  287TMC3     H 4386   1.921   4.723   1.137 -1.0563 -1.3817 -0.1220
  287TMC3    H1 4387   2.122   0.111   1.497  0.2051 -1.1817  0.9807
  287TMC3    H2 4388   2.290   4.535   1.263 -0.3564  0.0706 -2.5276
  287TMC3    C7 4389   2.309   4.689   1.506 -0.2996  0.1135  0.3503
  287TMC3    C8 4390   2.102   4.549   1.069  0.3998 -0.5157  0.4119
  287TMC3    O1 4391   2.262   4.704   1.617  0.1587 -0.2528 -0.4663
  287TMC3    O2 4392   1.992   4.536   1.014  0.9433  0.4469  0.3372
  288TMC3    C1 4393   4.226   4.598  14.425 -0.3147  0.6406 -0.2548
  288TMC3    C2 4394   4.154   4.610  14.543 -0.0025  0.2913 -0.3928
  288TMC3    C3 4395   4.028   4.664  14.532 -0.0686  0.4878  0.7417
  288TMC3    C4 4396   4.176   4.639  14.306  0.3803 -0.1306 -0.5207
  288TMC3    C5 4397   4.043   4.688  14.305  0.1644  0.5051  0.5451
  288TMC3    C6 4398   3.977   4.711  14.417  0.8863 -0.1469  0.4353
  288TMC3     C 4399   4.351   4.521  14.430 -0.1810 -0.1189 -0.1743
  288TMC3     O 4400   4.373   4.472  14.542 -0.0565 -0.0012 -0.5920
  288TMC3     H 4401   4.185   4.568  14.639  0.5517 -1.0826 -1.1749
  288TMC3    H1 4402   4.226   4.618  14.212  0.7996  1.9650 -0.7762
  288TMC3    H2 4403   3.876   0.015  14.419  0.8303 -0.2982  0.5446
  288TMC3    C7 4404   4.015   0.042  14.190  0.4172 -0.9820  0.2494
  288TMC3    C8 4405   3.962   4.685  14.658  0.0381  0.4800  0.0215
  288TMC3    O1 4406   3.910   0.104  14.186 -0.0416  0.5917  0.6862
  288TMC3    O2 4407   4.035   4.710  14.754 -0.9981 -0.1040  0.3935
  289MPD2     C 4408   3.859   3.713  14.860  0.4588 -0.1250  0.0188
  289MPD2    C1 4409   3.870   3.767  14.736  0.0573  0.5345 -0.0736
  289MPD2    C2 4410   3.791   3.737  14.628 -0.0096  0.4300 -0.1023
  289MPD2    C3 4411   3.686   3.648  14.654  0.1664 -0.0592 -0.4524
  289MPD2    C4 4412   3.672   3.592  14.774 -0.5584  0.0956 -0.5668
  289MPD2    C5 4413   3.752   3.630  14.879 -0.6067 -0.7321 -0.5843
  289MPD2     H 4414   3.796   3.783  14.530  1.7377 -0.6760 -0.5471
  289MPD2    H1 4415   3.586   3.530  14.795 -1.5041  2.7294  3.4146
  289MPD2    H2 4416   3.920   3.751  14.942 -0.0802  1.4129 -0.2872
  289MPD2    H3 4417   3.731   3.584  14.975 -1.4295  2.2344  0.6502
  289MPD2     N 4418   3.592   3.606  14.549  0.2299  0.1942  0.3969
  289MPD2    H5 4419   3.538   3.526  14.579  1.3589 -1.3285 -1.6390
  289MPD2    N1 4420   3.983   3.851  14.727 -0.2237  0.7356 -0.9547
  289MPD2    H7 4421   4.042   3.861  14.808 -0.8066  1.5733 -0.6250
  290TMC3    C1 4422   3.509   3.585  14.316 -0.6504 -0.3586 -0.8844
  290TMC3    C2 4423   3.478   3.658  14.201 -0.1894 -0.3027  0.0765
  290TMC3    C3 4424   3.439   3.581  14.096 -0.4300 -0.4548  0.4655
  290TMC3    C4 4425   3.509   3.448  14.330 -0.0257  0.0619  0.5709
  290TMC3    C5 4426   3.451   3.385  14.226  0.3675  0.5086 -0.0431
  290TMC3    C6 4427   3.410   3.444  14.114 -0.2795  0.0955  0.2769
  290TMC3     C 4428   3.580   3.661  14.419 -0.6471 -0.4152 -0.4225
  290TMC3     O 4429   3.640   3.760  14.373  0.8770  0.2604  0.4648
  290TMC3     H 4430   3.463   3.765  14.210  0.5626 -0.1930  0.0429
  290TMC3    H1 4431   3.536   3.393  14.419  0.6250 -0.1629  0.2341
  290TMC3    H2 4432   3.347   3.388  14.046 -1.5863  0.9718  0.7678
  290TMC3    C7 4433   3.397   3.259  14.240  0.2036 -0.0241  0.6960
  290TMC3    C8 4434   3.359   3.658  13.995  0.0134  0.2036  0.3734
  290TMC3    O1 4435   3.393   3.179  14.147  0.0121  0.3934  0.2826
  290TMC3    O2 4436   3.255   3.614  13.947  0.1769 -0.5948  0.1855
  291MPD2     C 4437   2.387   3.210   0.004 -1.0263  0.5341  0.2282
  291MPD2    C1 4438   2.517   3.163  17.736  0.3134 -0.2944 -0.2735
  291MPD2    C2 4439   2.619   3.245   0.038  0.2395  0.2892 -0.1986
  291MPD2    C3 4440   2.603   3.378   0.087  0.2888  0.2192  0.6732
  291MPD2    C4 4441   2.468   3.417   0.094 -0.2492 -0.2180  0.3392
  291MPD2    C5 4442   2.366   3.336   0.054  0.1429  0.4253  0.0856
  291MPD2     H 4443   2.721   3.211   0.023  0.1795  0.0448 -0.0507
  291MPD2    H1 4444   2.439   3.518   0.120  2.4769  0.9242 -1.0898
  291MPD2    H2 4445   2.300   3.160  17.702 -1.4639 -0.5411  2.4773
  291MPD2    H3 4446   2.264   3.371   0.045 -0.3658 -0.3367  2.9545
  291MPD2     N 4447   2.707   3.471   0.116  0.0605  0.3343 -0.1187
  291MPD2    H5 4448   2.671   3.561   0.146  0.0459  1.0357 -2.2116
  291MPD2    N1 4449   2.550   3.027  17.696  0.0736  0.7959  0.3077
  291MPD2    H7 4450   2.651   3.013  17.698 -0.0612 -0.3278 -0.7100
  292TMC3    C1 4451   2.534   2.816  17.592 -0.3925  0.2977  0.1496
  292TMC3    C2 4452   2.665   2.825  17.570  0.1315  0.1925  0.1414
  292TMC3    C3 4453   2.740   2.708  17.556 -0.3920  0.2798  0.2151
  292TMC3    C4 4454   2.478   2.693  17.615  0.5138 -0.1431  0.0639
  292TMC3    C5 4455   2.556   2.579  17.595 -0.8346  0.3252  0.2079
  292TMC3    C6 4456   2.692   2.585  17.581  0.0622  0.3030 -0.3674
  292TMC3     C 4457   2.462   2.931  17.648 -0.8179 -0.9646 -0.3944
  292TMC3     O 4458   2.340   2.916  17.642 -0.1030 -0.3755 -0.2626
  292TMC3     H 4459   2.710   2.922  17.557 -1.1801  0.5291 -1.9703
  292TMC3    H1 4460   2.371   2.690  17.634  0.2283 -0.5088 -1.5866
  292TMC3    H2 4461   2.749   2.493  17.587 -0.7931 -0.3121 -1.6392
  292TMC3    C7 4462   2.503   2.440  17.581 -0.5913 -0.6201  0.4971
  292TMC3    C8 4463   2.877   2.731  17.565  0.0970 -0.2282  0.0104
  292TMC3    O1 4464   2.577   2.342  17.592 -0.7421 -0.1463  0.8845
  292TMC3    O2 4465   2.922   2.834  17.518  0.0616 -0.1248  0.0257
  293MPD2     C 4466   0.238   0.458  12.587 -0.4167 -0.0650 -0.4216
  293MPD2    C1 4467   0.143   0.377  12.651 -0.2230  0.0015 -0.7056
  293MPD2    C2 4468   0.167   0.340  12.785  0.5797 -0.0166 -0.5874
  293MPD2    C3 4469   0.284   0.385  12.847 -0.0212  0.6610 -0.0145
  293MPD2    C4 4470   0.371   0.469  12.781  0.0195 -0.0457  0.6489
  293MPD2    C5 4471   0.346   0.510  12.654  0.4497  0.1907 -0.3513
  293MPD2     H 4472   0.097   0.276  12.838 -0.1222  0.1611 -1.3041
  293MPD2    H1 4473   0.442   0.528  12.837  1.3354  0.1175 -1.1943
  293MPD2    H2 4474   0.213   0.485  12.485 -3.1549  0.5977  0.4236
  293MPD2    H3 4475   0.409   0.587  12.611 -0.6426  1.2255 -0.0825
  293MPD2     N 4476   0.305   0.343  12.978 -0.0920  0.0832 -0.1524
  293MPD2    H5 4477   0.236   0.276  13.010  0.4940  0.3341  1.6389
  293MPD2    N1 4478   0.025   0.347  12.582 -0.5872  0.0171  0.5604
  293MPD2    H7 4479   0.028   0.386  12.489  0.1968  1.5234  1.2146
  294TMC3    C1 4480   4.545   0.265  12.531  0.2416  0.9959  0.6180
  294TMC3    C2 4481   4.434   0.198  12.574 -0.3206  0.7023 -0.0350
  294TMC3    C3 4482   4.323   0.189  12.496 -0.3040 -0.3474 -0.5940
  294TMC3    C4 4483   4.543   0.330  12.409  0.2362 -0.1184  1.1807
  294TMC3    C5 4484   4.433   0.309  12.324 -0.1132  0.0929 -0.3618
  294TMC3    C6 4485   4.320   0.246  12.367 -0.0869  0.4428  0.5115
  294TMC3     C 4486   4.660   0.262  12.621  0.2996  0.7090  0.0513
  294TMC3     O 4487   4.640   0.210  12.733 -0.4017 -0.4145  0.3300
  294TMC3     H 4488   4.436   0.133  12.661 -0.3296  2.0922  0.9929
  294TMC3    H1 4489   4.623   0.391  12.368  1.5625 -1.4025  1.8229
  294TMC3    H2 4490   4.229   0.233  12.310  0.5174  2.3104 -0.8768
  294TMC3    C7 4491   4.402   0.415  12.231  0.9871  0.4393 -1.2581
  294TMC3    C8 4492   4.245   0.074  12.518  0.0543 -0.4716 -0.4219
  294TMC3    O1 4493   4.284   0.444  12.224  0.3990 -0.1368  0.4754
  294TMC3    O2 4494   4.173   0.075  12.615 -0.0854 -0.1850 -0.2692
  295MPD2     C 4495   1.132   3.584   1.043 -0.9544  0.2657  0.4119
  295MPD2    C1 4496   1.005   3.534   1.012 -0.6488 -0.2470 -0.4879
  295MPD2    C2 4497   0.930   3.479   1.110 -0.2365 -0.2197  0.3712
  295MPD2    C3 4498   0.973   3.475   1.241  0.2819  0.5262 -0.1879
  295MPD2    C4 4499   1.102   3.517   1.271 -0.3452 -0.0350  0.7520
  295MPD2    C5 4500   1.177   3.573   1.174  0.0835  0.4596  1.0451
  295MPD2     H 4501   0.829   3.447   1.085  0.2614 -1.1247 -0.4456
  295MPD2    H1 4502   1.130   3.519   1.376  0.2209 -0.8645  0.6150
  295MPD2    H2 4503   1.185   3.635   0.964 -5.1916  1.4548 -1.6226
  295MPD2    H3 4504   1.271   3.621   1.198  1.4338 -2.2205  1.1447
  295MPD2     N 4505   0.892   3.427   1.339 -0.0828 -0.1682  0.3790
  295MPD2    H5 4506   0.924   3.454   1.432  0.3494 -0.9472  0.4589
  295MPD2    N1 4507   0.949   3.552   0.885 -0.1503  0.0208  0.4998
  295MPD2    H7 4508   0.864   3.500   0.866  0.5157 -1.8256  2.5641
  296TMC3    C1 4509   0.703   3.336   1.437 -0.3355  0.4645 -0.0252
  296TMC3    C2 4510   0.702   3.444   1.525  0.1757  0.2910 -0.3713
  296TMC3    C3 4511   0.601   3.441   1.614 -0.1478 -0.1068  0.5460
  296TMC3    C4 4512   0.610   3.234   1.436  0.7136  0.2108  0.1907
  296TMC3    C5 4513   0.524   3.235   1.537  0.0057 -0.0319  0.6359
  296TMC3    C6 4514   0.517   3.337   1.627  0.0339 -0.1138 -0.5869
  296TMC3     C 4515   0.777   3.353   1.321 -0.3206  0.3764 -0.2746
  296TMC3     O 4516   0.726   3.302   1.222  0.2448  0.3674 -0.2527
  296TMC3     H 4517   0.767   3.530   1.509  1.6393 -0.7699 -0.1217
  296TMC3    H1 4518   0.602   3.150   1.367  0.9016 -0.8412  1.4562
  296TMC3    H2 4519   0.447   3.333   1.710  0.3883 -1.1892 -0.3350
  296TMC3    C7 4520   0.407   3.158   1.523 -0.1802  0.1185 -0.0215
  296TMC3    C8 4521   0.578   3.550   1.712  0.1326 -0.7037 -0.0556
  296TMC3    O1 4522   0.304   3.219   1.550 -0.0937 -0.5350  0.1876
  296TMC3    O2 4523   0.477   3.539   1.783 -0.4841  0.1540 -0.2046
  297MPD2     C 4524   2.546   0.628  16.391  0.4331  0.4390 -0.3720
  297MPD2    C1 4525   2.565   0.726  16.295 -0.0659  0.3897  0.1391
  297MPD2    C2 4526   2.697   0.757  16.263 -0.0532 -0.0090  0.1565
  297MPD2    C3 4527   2.805   0.694  16.312  0.0230 -0.3069 -0.1603
  297MPD2    C4 4528   2.785   0.597  16.407 -0.1479  1.0598 -0.7339
  297MPD2    C5 4529   2.651   0.558  16.444 -0.2739  0.3838 -0.1404
  297MPD2     H 4530   2.722   0.842  16.201 -1.6620  0.7079  0.4880
  297MPD2    H1 4531   2.864   0.561  16.473  0.2423  1.1245 -1.1687
  297MPD2    H2 4532   2.448   0.604  16.431  0.8171 -2.1506 -0.9901
  297MPD2    H3 4533   2.642   0.491  16.528  0.3295 -0.3698 -0.6740
  297MPD2     N 4534   2.930   0.751  16.282  0.1167 -0.3109 -0.0245
  297MPD2    H5 4535   2.932   0.847  16.247  1.1326 -0.3052  0.0351
  297MPD2    N1 4536   2.467   0.809  16.233 -0.2360 -0.3239  0.5017
  297MPD2    H7 4537   2.497   0.876  16.162 -0.4931 -0.4816  0.2447
  298TMC3    C1 4538   2.264   0.897  16.169  0.2538  0.2654  0.1323
  298TMC3    C2 4539   2.304   0.905  16.037 -0.2215  0.3906  0.9486
  298TMC3    C3 4540   2.232   0.982  15.958  0.5747 -0.5072  0.1644
  298TMC3    C4 4541   2.155   0.955  16.219  0.3536  0.8740  0.4546
  298TMC3    C5 4542   2.083   1.028  16.133  0.3217  0.1943 -0.1605
  298TMC3    C6 4543   2.120   1.043  16.002  0.0188 -0.3321  0.3615
  298TMC3     C 4544   2.333   0.800  16.252 -0.3417 -0.6854  0.3578
  298TMC3     O 4545   2.271   0.734  16.334  0.5231 -0.5690  0.2509
  298TMC3     H 4546   2.391   0.847  16.005  0.4431  1.3475  1.0288
  298TMC3    H1 4547   2.126   0.931  16.321  1.3386  0.5410  0.6520
  298TMC3    H2 4548   2.090   1.128  15.943  0.4907  0.5598  1.3983
  298TMC3    C7 4549   1.962   1.081  16.184 -0.1801 -0.0982  0.1076
  298TMC3    C8 4550   2.262   0.992  15.815 -0.6692 -0.1947  0.0147
  298TMC3    O1 4551   1.952   1.083  16.307  0.0404 -0.6281 -0.1733
  298TMC3    O2 4552   2.170   1.025  15.744  0.2264 -0.1075  0.7807
  299MPD2     C 4553   3.825   0.912  10.068 -0.5343  0.2549  0.2464
  299MPD2    C1 4554   3.785   0.859  10.183 -0.4078  0.8033 -0.1569
  299MPD2    C2 4555   3.648   0.820  10.187  0.1847  0.0787  0.4777
  299MPD2    C3 4556   3.564   0.820  10.086  0.1812  0.1139 -0.5836
  299MPD2    C4 4557   3.607   0.879   9.971 -0.1579  0.1261 -0.5745
  299MPD2    C5 4558   3.743   0.911   9.959 -0.8335 -0.2851 -0.4822
  299MPD2     H 4559   3.614   0.788  10.285 -1.7856  2.0616  0.4528
  299MPD2    H1 4560   3.552   0.886   9.878 -1.3098  0.1845  0.1127
  299MPD2    H2 4561   3.928   0.943  10.059  0.5088 -2.7272  2.2358
  299MPD2    H3 4562   3.778   0.929   9.859  0.7719  0.9081  0.3066
  299MPD2     N 4563   3.429   0.775  10.100  0.1526 -0.2784  0.1242
  299MPD2    H5 4564   3.365   0.802  10.026  1.2231  3.3127  0.5199
  299MPD2    N1 4565   3.877   0.854  10.293 -0.4409  0.3656  0.2176
  299MPD2    H7 4566   3.973   0.883  10.273 -0.6361 -0.3859 -1.7863
  300TMC3    C1 4567   3.235   0.682  10.189 -0.8817  0.2159 -0.5621
  300TMC3    C2 4568   3.178   0.806  10.195  0.9985  0.4564  0.3779
  300TMC3    C3 4569   3.051   0.813  10.257  0.0146  0.6659  0.7893
  300TMC3    C4 4570   3.175   0.573  10.239 -0.2768 -0.0301 -0.1593
  300TMC3    C5 4571   3.051   0.582  10.295  0.1751  0.5375 -0.2015
  300TMC3    C6 4572   2.988   0.705  10.308 -0.2396  0.6782  0.3677
  300TMC3     C 4573   3.375   0.707  10.208 -0.2198  0.2086 -0.2805
  300TMC3     O 4574   3.432   0.671  10.306  0.2227 -1.2173  0.4788
  300TMC3     H 4575   3.233   0.898  10.181 -2.1410  1.8726 -2.5676
  300TMC3    H1 4576   3.237   0.484  10.232 -0.9745 -0.4347 -1.2181
  300TMC3    H2 4577   2.895   0.717  10.363  1.0320  0.3480  2.6076
  300TMC3    C7 4578   2.995   0.470  10.359 -0.3998  0.0426  0.3445
  300TMC3    C8 4579   2.995   0.942  10.277 -0.1805 -0.6124  0.5005
  300TMC3    O1 4580   3.020   0.365  10.310  0.2802  0.1744  0.2022
  300TMC3    O2 4581   3.070   1.036  10.280  0.3884 -0.3628 -0.1436
  301MPD2     C 4582   0.593   1.346   1.431 -0.0005 -0.5620 -0.2709
  301MPD2    C1 4583   0.465   1.297   1.422  0.2958  0.1585 -0.7835
  301MPD2    C2 4584   0.436   1.163   1.418 -0.0381 -0.1877  0.4254
  301MPD2    C3 4585   0.534   1.066   1.402 -0.2287 -0.0817 -0.6904
  301MPD2    C4 4586   0.657   1.121   1.397  0.1783 -0.0258  0.2219
  301MPD2    C5 4587   0.690   1.254   1.424  0.1322 -0.1791 -0.2365
  301MPD2     H 4588   0.337   1.125   1.441 -0.1107 -0.9144 -1.1029
  301MPD2    H1 4589   0.735   1.046   1.404 -1.7040 -2.2880 -2.7680
  301MPD2    H2 4590   0.612   1.452   1.444  2.9918 -0.9761 -1.4444
  301MPD2    H3 4591   0.793   1.287   1.433 -0.3035  0.8962  0.8041
  301MPD2     N 4592   0.511   0.930   1.376 -0.2045  0.2788  0.0553
  301MPD2    H5 4593   0.591   0.872   1.358  0.3118  1.3569 -1.1347
  301MPD2    N1 4594   0.350   1.375   1.428  0.0802  0.5121  0.2404
  301MPD2    H7 4595   0.260   1.328   1.420 -0.1864  1.1959 -0.7726
  302TMC3    C1 4596   0.381   0.731   1.327 -0.0924 -0.0893  1.1235
  302TMC3    C2 4597   0.489   0.649   1.336  0.1903 -0.0211 -0.3086
  302TMC3    C3 4598   0.479   0.519   1.294 -0.0509 -0.8065  0.0963
  302TMC3    C4 4599   0.264   0.680   1.275  0.2596  0.0766  0.2706
  302TMC3    C5 4600   0.262   0.553   1.224 -0.0439 -0.1170  0.6636
  302TMC3    C6 4601   0.368   0.466   1.239  0.2063 -0.4695 -0.5147
  302TMC3     C 4602   0.384   0.873   1.366 -0.6712 -0.1748  0.0567
  302TMC3     O 4603   0.273   0.922   1.376 -0.3771  0.0501  0.5122
  302TMC3     H 4604   0.574   0.690   1.390  0.1665  0.1263 -0.3837
  302TMC3    H1 4605   0.186   0.754   1.261 -1.7654 -1.5827  2.7678
  302TMC3    H2 4606   0.371   0.368   1.191  0.2986  0.2568 -1.9745
  302TMC3    C7 4607   0.162   0.517   1.126  0.5222 -0.1563  0.0918
  302TMC3    C8 4608   0.598   0.440   1.307  0.5274 -0.7351  0.3065
  302TMC3    O1 4609   0.182   0.420   1.059  0.7865  0.7614 -0.1560
  302TMC3    O2 4610   0.705   0.497   1.320 -1.1061  0.0504 -0.1093
  303MPD2     C 4611   1.216   0.260  10.401  0.3750 -0.2168 -0.4020
  303MPD2    C1 4612   1.133   0.175  10.333 -0.0660  0.0963  0.0678
  303MPD2    C2 4613   1.057   0.222  10.225 -0.4230 -0.5414 -0.1386
  303MPD2    C3 4614   1.063   0.355  10.183  0.0409 -0.2894 -0.4703
  303MPD2    C4 4615   1.160   0.436  10.240  0.4740 -0.2705  0.0204
  303MPD2    C5 4616   1.228   0.388  10.352  0.2349 -0.2899  0.4619
  303MPD2     H 4617   0.978   0.160  10.185 -0.7503  0.7656 -1.5567
  303MPD2    H1 4618   1.176   0.537  10.205  1.2970 -0.9067 -1.4343
  303MPD2    H2 4619   1.278   0.228  10.484 -1.7010 -0.6947  0.9902
  303MPD2    H3 4620   1.284   0.457  10.414 -0.3314  0.9861 -0.4160
  303MPD2     N 4621   0.971   0.413  10.090 -0.0553 -0.2739 -0.0641
  303MPD2    H5 4622   0.984   0.513  10.076  0.1017  0.1676  3.3481
  303MPD2    N1 4623   1.126   0.044  10.381 -0.7125  0.0750 -0.3103
  303MPD2    H7 4624   1.172   0.021  10.468  0.3963  0.7394 -0.7185
  304TMC3    C1 4625   1.083   4.548  10.390  0.0595  0.4892  0.2297
  304TMC3    C2 4626   1.087   4.553  10.532 -0.0756 -0.4874  0.1893
  304TMC3    C3 4627   1.021   4.448  10.599  0.3019  0.1341  0.7387
  304TMC3    C4 4628   1.036   4.436  10.321  0.3842 -0.4122 -0.5276
  304TMC3    C5 4629   0.998   4.330  10.393  0.1487  0.3798  0.1164
  304TMC3    C6 4630   0.982   4.332  10.530 -0.1235  0.2094 -0.7750
  304TMC3     C 4631   1.076   4.675  10.313 -0.1073 -0.2025  0.4177
  304TMC3     O 4632   1.030   4.675  10.200  0.3358  0.1703 -0.2715
  304TMC3     H 4633   1.092   4.645  10.589 -2.8535 -1.2138  1.5937
  304TMC3    H1 4634   1.026   4.444  10.214 -2.1564  1.6896 -0.1408
  304TMC3    H2 4635   0.945   4.245  10.582 -2.8321  1.6285 -0.3238
  304TMC3    C7 4636   0.873   4.273  10.349 -0.1713  0.0397 -0.4790
  304TMC3    C8 4637   0.922   4.494  10.689  0.1127 -0.7246  0.3531
  304TMC3    O1 4638   0.778   4.298  10.423  0.2552  0.3596  0.4949
  304TMC3    O2 4639   0.957   4.560  10.783  0.2152 -0.2044  0.1134
  305MPD2     C 4640   3.528   2.570  13.867 -0.1394 -0.2284 -0.1254
  305MPD2    C1 4641   3.576   2.454  13.927 -0.0882 -0.1439  0.2424
  305MPD2    C2 4642   3.557   2.328  13.863 -0.1353  0.0720 -0.6970
  305MPD2    C3 4643   3.509   2.326  13.737  0.0314 -0.0197 -0.3723
  305MPD2    C4 4644   3.469   2.441  13.674  0.2596  0.6520  0.0232
  305MPD2    C5 4645   3.475   2.564  13.741  0.1335  0.3162 -0.3621
  305MPD2     H 4646   3.592   2.240  13.916  1.7256  0.7557 -0.7843
  305MPD2    H1 4647   3.437   2.446  13.571 -0.8319 -0.0632  0.3361
  305MPD2    H2 4648   3.546   2.666  13.913  1.8102 -0.5577 -0.2215
  305MPD2    H3 4649   3.439   2.657  13.698  0.1930 -0.0902 -1.2935
  305MPD2     N 4650   3.503   2.205  13.655  0.7943 -0.2938  0.3492
  305MPD2    H5 4651   3.462   2.216  13.562  2.0466 -2.3353 -0.4376
  305MPD2    N1 4652   3.637   2.464  14.052 -0.5234 -0.4032  0.0195
  305MPD2    H7 4653   3.658   2.556  14.089  1.8041 -1.0386  0.2707
  306TMC3    C1 4654   3.780   2.389  14.235  0.4330  0.3879 -0.8638
  306TMC3    C2 4655   3.803   2.296  14.325  0.3994  0.0217  0.8228
  306TMC3    C3 4656   3.899   2.317  14.419  0.0636  0.0110  0.0348
  306TMC3    C4 4657   3.852   2.507  14.229  0.2849 -0.0631  0.9189
  306TMC3    C5 4658   3.945   2.531  14.328 -0.4945  0.5724 -0.1898
  306TMC3    C6 4659   3.963   2.440  14.432 -0.0072 -0.6609  0.2532
  306TMC3     C 4660   3.684   2.355  14.132  0.8404  0.1258 -0.3807
  306TMC3     O 4661   3.640   2.240  14.133  0.4332 -0.3276 -0.3283
  306TMC3     H 4662   3.740   2.209  14.336  2.2904 -1.1009  2.5372
  306TMC3    H1 4663   3.844   2.578  14.147  0.8946  0.2841  1.1553
  306TMC3    H2 4664   4.049   2.460  14.495  0.2119  1.4499 -0.7359
  306TMC3    C7 4665   4.009   2.661  14.328  0.1356  0.9035 -0.2982
  306TMC3    C8 4666   3.931   2.218  14.518 -0.7087  0.0682 -0.0797
  306TMC3    O1 4667   4.017   2.726  14.226  0.0829  0.4949  0.2670
  306TMC3    O2 4668   3.913   2.099  14.489  0.2773 -0.3648 -0.1311
  307MPD2     C 4669   0.387   1.797   1.059  0.6777 -0.0068 -0.3296
  307MPD2    C1 4670   0.258   1.753   1.044  0.0554  1.1653  0.0402
  307MPD2    C2 4671   0.229   1.622   1.057 -0.1076 -0.0453 -0.6142
  307MPD2    C3 4672   0.336   1.526   1.071  0.6842  0.1047  0.2266
  307MPD2    C4 4673   0.463   1.576   1.085 -0.1025  0.2221 -0.2823
  307MPD2    C5 4674   0.484   1.711   1.087  0.1022 -0.5390  0.7115
  307MPD2     H 4675   0.125   1.600   1.038  0.4206  0.1712 -3.6503
  307MPD2    H1 4676   0.547   1.512   1.107 -1.3022 -0.6022  1.9434
  307MPD2    H2 4677   0.419   1.900   1.057 -2.7978  1.0844  2.1193
  307MPD2    H3 4678   0.583   1.754   1.097  0.0018  0.8871 -4.2036
  307MPD2     N 4679   0.316   1.387   1.066  0.0319 -0.2244 -0.6450
  307MPD2    H5 4680   0.220   1.357   1.053 -0.0477 -0.4667  0.5603
  307MPD2    N1 4681   0.144   1.836   1.013  0.2999  0.6151 -0.6330
  307MPD2    H7 4682   0.053   1.796   0.995  0.6633 -0.2006 -0.6597
  308TMC3    C1 4683   0.388   0.937   0.997  0.5880  0.2787  0.3190
  308TMC3    C2 4684   0.257   0.910   1.019  0.7521 -0.5573 -0.3939
  308TMC3    C3 4685   0.187   1.013   1.070  0.4225 -0.2022 -0.6617
  308TMC3    C4 4686   0.451   1.050   1.034 -1.0737  0.1187  0.7829
  308TMC3    C5 4687   0.374   1.154   1.077 -0.8268  0.0970  0.6135
  308TMC3    C6 4688   0.243   1.133   1.107 -0.4187  0.9077 -0.2606
  308TMC3     C 4689   0.471   0.825   0.969  0.8391  0.5220 -0.4753
  308TMC3     O 4690   0.587   0.829   1.009  0.3048  0.2312  0.4406
  308TMC3     H 4691   0.217   0.809   1.018 -0.9468  0.1046  0.3712
  308TMC3    H1 4692   0.548   1.067   0.989 -0.8568 -0.8903  0.8760
  308TMC3    H2 4693   0.183   1.210   1.153 -1.4837  1.4815 -2.6137
  308TMC3    C7 4694   0.414   1.293   1.063 -0.0619 -0.0656 -0.0999
  308TMC3    C8 4695   0.047   1.032   1.034  0.0437  0.4172  0.6242
  308TMC3    O1 4696   0.533   1.306   1.033 -0.4835 -0.1753  0.3691
  308TMC3    O2 4697   4.713   1.070   1.129 -0.4034  0.4253 -0.0996
  309MPD2     C 4698   0.563   0.383  16.952 -0.3018 -0.2604  0.7174
  309MPD2    C1 4699   0.533   0.519  16.917  0.6834 -0.8786  0.2633
  309MPD2    C2 4700   0.422   0.583  16.967  0.0024  0.0366 -0.1422
  309MPD2    C3 4701   0.330   0.505  17.046  0.6718 -0.4519 -0.4616
  309MPD2    C4 4702   0.372   0.375  17.077  0.2233  0.0981 -0.0896
  309MPD2    C5 4703   0.484   0.307  17.026 -1.4089 -0.2957 -0.5534
  309MPD2     H 4704   0.407   0.687  16.940  1.7365  0.1928 -0.5043
  309MPD2    H1 4705   0.312   0.318  17.146 -1.0332  0.9375 -0.4883
  309MPD2    H2 4706   0.663   0.350  16.926 -0.4754  0.5082 -0.9130
  309MPD2    H3 4707   0.505   0.202  17.045  2.9616  0.7840  0.4296
  309MPD2     N 4708   0.202   0.545  17.092  0.2612  0.4662  0.1325
  309MPD2    H5 4709   0.143   0.471  17.128  0.5296  0.0545 -0.2688
  309MPD2    N1 4710   0.609   0.604  16.843 -0.0050  0.4616 -0.1081
  309MPD2    H7 4711   0.565   0.695  16.828 -2.8216 -0.7846  0.5954
  310TMC3    C1 4712   0.774   0.691  16.712  0.4222  0.2605 -0.2149
  310TMC3    C2 4713   0.688   0.770  16.637 -0.0779 -0.2928  0.5458
  310TMC3    C3 4714   0.741   0.844  16.535 -0.9053 -0.1743  0.0742
  310TMC3    C4 4715   0.898   0.676  16.667  0.0773 -0.2860 -0.4234
  310TMC3    C5 4716   0.945   0.745  16.557  0.7192  0.6899  0.5773
  310TMC3    C6 4717   0.868   0.823  16.485  0.2771  0.3189 -0.5649
  310TMC3     C 4718   0.724   0.575  16.783  0.0741  0.0798  0.0044
  310TMC3     O 4719   0.799   0.477  16.794  0.0128 -0.5134 -0.0811
  310TMC3     H 4720   0.581   0.775  16.656 -0.3653 -1.8571 -0.6992
  310TMC3    H1 4721   0.962   0.605  16.718 -1.0877 -0.3115  0.9831
  310TMC3    H2 4722   0.883   0.860  16.384  1.1031 -0.4070 -0.7067
  310TMC3    C7 4723   1.068   0.706  16.504 -0.0488 -0.8198 -0.5833
  310TMC3    C8 4724   0.657   0.936  16.471 -0.0789 -0.4146  0.2035
  310TMC3    O1 4725   1.115   0.602  16.549  0.1074  0.2519 -0.3849
  310TMC3    O2 4726   0.540   0.908  16.453 -0.2051 -0.2249  0.0604
  311MPD2     C 4727   2.673   1.635  12.628  0.2087 -0.6790 -0.5575
  311MPD2    C1 4728   2.656   1.724  12.733  0.0475  0.0966  0.2377
  311MPD2    C2 4729   2.607   1.681  12.856 -0.8132 -0.8406 -0.4526
  311MPD2    C3 4730   2.572   1.551  12.882 -0.3974 -0.1268  0.5416
  311MPD2    C4 4731   2.591   1.460  12.776 -0.7077 -0.2671  0.1651
  311MPD2    C5 4732   2.638   1.502  12.650  0.5187 -0.0231  0.6910
  311MPD2     H 4733   2.578   1.753  12.932 -0.8123 -0.2317 -1.0266
  311MPD2    H1 4734   2.573   1.353  12.783  1.3216 -0.5663  0.7868
  311MPD2    H2 4735   2.708   1.670  12.532  0.7328  1.8265  0.5539
  311MPD2    H3 4736   2.637   1.426  12.573  1.1288  2.6012 -1.8907
  311MPD2     N 4737   2.512   1.523  13.005 -0.1951  0.3432 -0.2800
  311MPD2    H5 4738   2.492   1.604  13.062  0.3354 -1.1651  2.0587
  311MPD2    N1 4739   2.679   1.865  12.724 -0.0576 -0.0370  0.4755
  311MPD2    H7 4740   2.663   1.929  12.801 -0.1759  0.1909  0.2625
  312TMC3    C1 4741   2.384   1.407  13.157  0.8307  0.8659 -0.0838
  312TMC3    C2 4742   2.249   1.386  13.130  0.0318 -0.4224 -0.1500
  312TMC3    C3 4743   2.156   1.463  13.202  0.0074  0.8803 -0.5962
  312TMC3    C4 4744   2.415   1.491  13.246  0.0720  0.9221  0.4551
  312TMC3    C5 4745   2.321   1.536  13.332  0.0858 -0.1174 -0.1756
  312TMC3    C6 4746   2.186   1.532  13.310 -1.2042 -0.4938 -0.2347
  312TMC3     C 4747   2.463   1.397  13.039  0.3301  0.4536 -0.2141
  312TMC3     O 4748   2.452   1.300  12.964 -0.6193 -0.1113 -0.1310
  312TMC3     H 4749   2.222   1.318  13.050 -1.9071  0.1128  0.0448
  312TMC3    H1 4750   2.516   1.526  13.261  0.4522 -0.1840  0.4904
  312TMC3    H2 4751   2.115   1.560  13.386 -0.5867  1.6582 -0.4369
  312TMC3    C7 4752   2.364   1.582  13.466  0.0098 -0.1919  0.6352
  312TMC3    C8 4753   2.020   1.445  13.160  0.2796  0.6085  0.2466
  312TMC3    O1 4754   2.276   1.626  13.536 -0.7335 -0.8585 -0.2196
  312TMC3    O2 4755   1.993   1.341  13.098  0.3920  0.2135  0.0896
  313MPD2     C 4756   2.056   1.328  11.121 -0.0231  0.3243  0.0603
  313MPD2    C1 4757   2.153   1.427  11.089  0.3797  0.0963 -1.0752
  313MPD2    C2 4758   2.277   1.389  11.034 -0.1377  0.6115  0.1697
  313MPD2    C3 4759   2.301   1.260  11.001  0.3585  0.3390  0.2026
  313MPD2    C4 4760   2.210   1.167  11.044 -0.0404  0.3901 -0.3964
  313MPD2    C5 4761   2.087   1.201  11.091  0.0336 -0.4595  0.1279
  313MPD2     H 4762   2.349   1.464  11.003  1.7507 -1.4873 -0.5085
  313MPD2    H1 4763   2.222   1.064  11.013 -2.8383 -0.3484  1.0223
  313MPD2    H2 4764   1.958   1.356  11.160  0.4004  1.3738  0.3623
  313MPD2    H3 4765   2.009   1.127  11.106 -1.6115  1.5140  1.3325
  313MPD2     N 4766   2.425   1.234  10.942 -0.2128  0.8279 -0.5287
  313MPD2    H5 4767   2.477   1.318  10.921  1.0175 -0.4952 -2.7399
  313MPD2    N1 4768   2.141   1.562  11.120 -0.1849  0.0620  0.6002
  313MPD2    H7 4769   2.222   1.621  11.106 -0.9329  0.7291 -0.9202
  314TMC3    C1 4770   2.034   1.764  11.163 -0.2905  0.4835 -0.0113
  314TMC3    C2 4771   2.145   1.809  11.229 -0.1429 -0.3029 -0.2717
  314TMC3    C3 4772   2.152   1.946  11.249  0.3215 -0.7225 -0.2338
  314TMC3    C4 4773   1.943   1.843  11.107  0.4269 -0.2601  0.3357
  314TMC3    C5 4774   1.945   1.972  11.139 -0.2394 -0.0410 -0.3626
  314TMC3    C6 4775   2.047   2.026  11.212  0.4542 -0.0699  0.1655
  314TMC3     C 4776   2.017   1.622  11.131  0.2540  0.1953 -0.1353
  314TMC3     O 4777   1.908   1.578  11.111  0.3250 -0.1466 -0.1936
  314TMC3     H 4778   2.218   1.746  11.279 -1.3736 -0.1348  1.7452
  314TMC3    H1 4779   1.865   1.804  11.042  0.6247 -0.0348 -0.0318
  314TMC3    H2 4780   2.051   2.134  11.208  1.7642 -0.0568  1.5019
  314TMC3    C7 4781   1.894   2.060  11.039  0.9583  0.3039 -0.6827
  314TMC3    C8 4782   2.284   2.006  11.253 -0.2633 -0.1686 -0.4889
  314TMC3    O1 4783   1.817   2.152  11.064 -0.6519 -0.4923 -0.2164
  314TMC3    O2 4784   2.384   1.940  11.223  0.1300 -0.2561 -0.7868
  315MPD2     C 4785   1.289   0.173   0.277 -0.3376 -0.6912  0.3608
  315MPD2    C1 4786   1.419   0.184   0.235  0.3051 -0.1899 -0.3915
  315MPD2    C2 4787   1.456   0.271   0.134  0.2725  0.0031  0.3800
  315MPD2    C3 4788   1.357   0.352   0.084 -0.6833  1.0828 -0.1907
  315MPD2    C4 4789   1.226   0.349   0.128 -0.0931 -0.0901  0.1245
  315MPD2    C5 4790   1.194   0.252   0.219 -0.2381  0.4790  0.1901
  315MPD2     H 4791   1.554   0.261   0.089 -0.0186 -1.3791  0.0441
  315MPD2    H1 4792   1.153   0.424   0.101  0.6122  0.1596 -1.0916
  315MPD2    H2 4793   1.258   0.085   0.332  0.7032 -2.4297 -1.8564
  315MPD2    H3 4794   1.090   0.237   0.245 -0.2090  0.6955  0.4227
  315MPD2     N 4795   1.400   0.454  17.728 -0.7439 -0.2819 -0.4664
  315MPD2    H5 4796   1.500   0.456  17.710 -0.5803 -0.7184  0.4078
  315MPD2    N1 4797   1.513   0.092   0.288 -0.2598  0.0606 -0.3259
  315MPD2    H7 4798   1.606   0.090   0.248  0.5833 -1.3899  1.6687
  316TMC3    C1 4799   1.390   0.658  17.602  0.4257  0.0931 -0.5494
  316TMC3    C2 4800   1.517   0.684  17.637 -0.1805  0.5506  0.8969
  316TMC3    C3 4801   1.591   0.772  17.564  0.5629 -0.4121 -0.1462
  316TMC3    C4 4802   1.333   0.699  17.488  0.4688  0.2695  0.6977
  316TMC3    C5 4803   1.415   0.788  17.417 -0.4881 -0.2848  0.6900
  316TMC3    C6 4804   1.537   0.834  17.456 -1.1772 -0.6590  0.8837
  316TMC3     C 4805   1.315   0.549  17.667 -0.1719 -0.2234 -0.0123
  316TMC3     O 4806   1.194   0.538  17.645  0.0633 -0.0579  0.3838
  316TMC3     H 4807   1.548   0.658  17.738  1.2544 -3.0818 -0.4487
  316TMC3    H1 4808   1.237   0.667  17.451  1.4576 -2.5012  0.4839
  316TMC3    H2 4809   1.598   0.903  17.399 -1.5102 -0.5789  0.6300
  316TMC3    C7 4810   1.350   0.855  17.310  0.1128 -0.4593 -0.4431
  316TMC3    C8 4811   1.723   0.807  17.597  0.1931 -0.0428 -0.3989
  316TMC3    O1 4812   1.233   0.820  17.291 -0.2343 -0.5428 -0.4530
  316TMC3    O2 4813   1.771   0.905  17.544  0.0777  0.2773  0.2742
  317MPD2     C 4814   3.575   4.035  12.704  0.3823  0.0997  0.0145
  317MPD2    C1 4815   3.665   3.933  12.674  0.1038  0.0239  0.1137
  317MPD2    C2 4816   3.741   3.873  12.778  0.4716  0.2909 -0.0514
  317MPD2    C3 4817   3.728   3.918  12.909 -0.0289 -0.5610 -0.0572
  317MPD2    C4 4818   3.634   4.023  12.928 -0.2827  0.7864 -0.1449
  317MPD2    C5 4819   3.572   4.082  12.826  0.1220  0.0915  0.1541
  317MPD2     H 4820   3.828   3.809  12.766 -0.2965 -0.9124  0.7752
  317MPD2    H1 4821   3.620   4.067  13.026  1.2179  0.2763  0.2931
  317MPD2    H2 4822   3.524   4.092  12.628 -2.2718  0.6812  2.2584
  317MPD2    H3 4823   3.509   4.167  12.849  0.6452 -0.0607  2.1184
  317MPD2     N 4824   3.817   3.859  13.007  0.6266 -0.1469  0.1378
  317MPD2    H5 4825   3.876   3.783  12.976 -0.6038 -1.3053  0.6044
  317MPD2    N1 4826   3.690   3.877  12.548 -0.0663  0.1152  0.1273
  317MPD2    H7 4827   3.763   3.807  12.542 -0.2043  0.1651 -2.0675
  318TMC3    C1 4828   3.875   3.766  13.212 -0.2142 -0.5290 -0.0594
  318TMC3    C2 4829   3.864   3.648  13.150  0.0773  0.4541  0.5496
  318TMC3    C3 4830   3.896   3.538  13.220 -0.5032  0.7591  0.5823
  318TMC3    C4 4831   3.918   3.776  13.342 -0.0229  0.2338 -0.3996
  318TMC3    C5 4832   3.955   3.668  13.409  0.1138 -0.2206  0.0873
  318TMC3    C6 4833   3.955   3.551  13.348  0.2991  0.3259 -0.3300
  318TMC3     C 4834   3.818   3.883  13.145  0.6763 -0.1427  0.2382
  318TMC3     O 4835   3.790   3.988  13.206 -0.0272  0.7537 -0.8274
  318TMC3     H 4836   3.797   3.642  13.064  0.6157 -2.5805  0.3356
  318TMC3    H1 4837   3.927   3.877  13.381 -2.4094  0.6543 -0.9796
  318TMC3    H2 4838   3.967   3.457  13.399  0.8178 -0.1483 -1.3275
  318TMC3    C7 4839   4.028   3.678  13.532 -0.7064 -0.6632 -0.4696
  318TMC3    C8 4840   3.833   3.419  13.179  0.8446  0.1858  0.8402
  318TMC3    O1 4841   3.973   3.750  13.615  0.8794  0.2455 -0.1891
  318TMC3    O2 4842   3.841   3.385  13.063  0.0046  0.1034  0.5117
  319MPD2     C 4843   4.625   0.165  16.759 -0.0122 -0.5039 -0.2791
  319MPD2    C1 4844   4.581   0.070  16.846 -0.8255 -1.5514 -0.2155
  319MPD2    C2 4845   4.483   4.713  16.794  0.0023  0.4206 -0.1081
  319MPD2    C3 4846   4.442   4.716  16.661  1.3788 -0.0658  0.2947
  319MPD2    C4 4847   4.500   0.074  16.578  0.2251 -0.1184  0.2272
  319MPD2    C5 4848   4.580   0.173  16.628  0.5477 -0.4667 -0.1212
  319MPD2     H 4849   4.440   4.640  16.862  1.3623  0.3891  0.7228
  319MPD2    H1 4850   4.473   0.082  16.474 -1.3021 -2.1427  0.4690
  319MPD2    H2 4851   4.701   0.235  16.792  1.2836 -0.6792 -2.8253
  319MPD2    H3 4852   4.616   0.259  16.572 -1.4791 -0.0798 -0.8169
  319MPD2     N 4853   4.344   4.632  16.598 -0.0902  0.6085 -0.0271
  319MPD2    H5 4854   4.317   4.665  16.506 -0.6717 -0.9545 -0.4192
  319MPD2    N1 4855   4.613   0.063  16.988 -0.3736 -0.0958 -0.9373
  319MPD2    H7 4856   4.580   4.716  17.037 -2.7017  1.1619 -0.4109
  320TMC3    C1 4857   4.204   4.459  16.544  0.2007 -0.0858  0.3875
  320TMC3    C2 4858   4.148   4.542  16.451 -0.1916 -0.5989 -0.6601
  320TMC3    C3 4859   4.125   4.482  16.330  0.1370 -0.0515  0.2524
  320TMC3    C4 4860   4.227   4.323  16.521  0.6726  0.3199  0.3174
  320TMC3    C5 4861   4.202   4.266  16.400 -0.4167  0.9614  0.1097
  320TMC3    C6 4862   4.146   4.348  16.306  0.6103  0.1451  0.1134
  320TMC3     C 4863   4.281   4.517  16.646 -0.1868 -0.0671  0.2332
  320TMC3     O 4864   4.310   4.450  16.740 -0.1480  0.4570  0.5871
  320TMC3     H 4865   4.126   4.647  16.466 -1.8620 -1.1851  0.9752
  320TMC3    H1 4866   4.281   4.271  16.599  0.2718  0.1999  0.5131
  320TMC3    H2 4867   4.126   4.296  16.213  0.6430 -0.4655  0.4445
  320TMC3    C7 4868   4.258   4.142  16.354 -0.2477  0.1969 -0.7154
  320TMC3    C8 4869   4.127   4.564  16.208 -0.0471 -0.3470 -0.1578
  320TMC3    O1 4870   4.271   4.134  16.236  0.3249 -0.7495  0.7899
  320TMC3    O2 4871   4.188   4.670  16.217  0.2118  0.0746  0.2189
  321TMC3    C1 4872   4.716   0.119  17.192  0.0056 -0.2127  0.6685
  321TMC3    C2 4873   0.001   4.723  17.226 -0.5590 -0.8195  0.0950
  321TMC3    C3 4874   0.032   4.695  17.364 -0.2306 -0.1045 -0.0659
  321TMC3    C4 4875   4.713   0.228  17.277  0.0004 -0.1199  0.4265
  321TMC3    C5 4876   0.015   0.200  17.407  0.3071  0.2213 -0.3886
  321TMC3    C6 4877   0.037   0.068  17.453 -0.1458 -0.2984 -1.1097
  321TMC3     C 4878   4.706   0.143  17.047  0.6364 -0.0004  0.1052
  321TMC3     O 4879   0.016   0.250  17.010 -0.0858 -0.2328 -0.5056
  321TMC3     H 4880   0.007   4.654  17.143 -0.3905  0.0093 -0.5898
  321TMC3    H1 4881   4.718   0.332  17.248  1.8523 -0.1987  0.4628
  321TMC3    H2 4882   0.032   0.048  17.559 -2.0682 -4.0768 -1.9097
  321TMC3    C7 4883   0.132   0.280  17.441 -0.2565 -0.2759 -0.9777
  321TMC3    C8 4884   0.117   4.587  17.407 -1.1038  0.4289  0.2704
  321TMC3    O1 4885   0.136   0.397  17.409  0.4166  0.2214 -0.3352
  321TMC3    O2 4886   0.185   4.608  17.508 -0.5643 -0.3528  0.3426
  322MPD2     C 4887   3.733   1.353  13.470  0.4913 -0.1498 -1.3703
  322MPD2    C1 4888   3.699   1.271  13.578  0.3556  0.3210 -0.0493
  322MPD2    C2 4889   3.691   1.126  13.571  0.9235 -0.2268 -0.7067
  322MPD2    C3 4890   3.723   1.072  13.445  0.3265  0.0249 -0.6230
  322MPD2    C4 4891   3.736   1.154  13.332  0.0669 -0.2286  0.4466
  322MPD2    C5 4892   3.744   1.294  13.345  0.1926 -0.4989 -0.1878
  322MPD2     H 4893   3.674   1.065  13.659 -0.7340  1.2280 -0.0269
  322MPD2    H1 4894   3.756   1.111  13.235  2.7989  0.2066  0.8098
  322MPD2    H2 4895   3.743   1.460  13.485  1.7454 -0.4953  0.2146
  322MPD2    H3 4896   3.753   1.356  13.257 -0.9500  2.0287  1.4647
  322MPD2     N 4897   3.739   0.933  13.437 -0.2801  0.4125 -0.0326
  322MPD2    H5 4898   3.707   0.879  13.517  0.0976 -1.4121 -1.1053
  322MPD2    N1 4899   3.691   1.332  13.707 -0.1613 -0.1565 -0.0276
  322MPD2    H7 4900   3.708   1.432  13.706  1.7928 -0.4523  2.8995
  323TMC3    C1 4901   3.708   1.332  13.946 -0.1609  0.0008  0.2019
  323TMC3    C2 4902   3.815   1.411  13.939  0.0146 -0.5558 -0.3512
  323TMC3    C3 4903   3.864   1.468  14.053  0.1503  0.5037  0.2936
  323TMC3    C4 4904   3.649   1.295  14.068  0.3254 -1.0408 -0.2551
  323TMC3    C5 4905   3.703   1.353  14.183  0.2477  0.5770 -0.3315
  323TMC3    C6 4906   3.815   1.440  14.177  0.4779 -0.6679  0.3011
  323TMC3     C 4907   3.662   1.264  13.826 -1.0246 -0.1324  0.4140
  323TMC3     O 4908   3.613   1.154  13.850  0.6269  0.9355  0.0251
  323TMC3     H 4909   3.880   1.416  13.852 -2.7305  0.5073 -2.3470
  323TMC3    H1 4910   3.576   1.215  14.070 -0.7303 -0.0543  0.5976
  323TMC3    H2 4911   3.878   1.469  14.261 -1.1282 -1.8285  1.8943
  323TMC3    C7 4912   3.673   1.284  14.302 -0.6465  0.3400  0.3109
  323TMC3    C8 4913   3.995   1.534  14.050 -0.8305  0.3507 -0.0363
  323TMC3    O1 4914   3.611   1.178  14.289 -0.3658 -0.1946  0.5270
  323TMC3    O2 4915   4.071   1.492  14.137  0.7570  0.6365  0.0515
  324MPD2     C 4916   0.959   2.931  14.288 -1.1616  0.1380 -0.1749
  324MPD2    C1 4917   0.894   3.004  14.387  0.0321 -0.0511 -0.5691
  324MPD2    C2 4918   0.751   3.001  14.387 -0.9821 -0.2424 -0.4187
  324MPD2    C3 4919   0.681   2.955  14.281  0.4233 -0.5737 -0.4126
  324MPD2    C4 4920   0.753   2.893  14.177 -0.2255 -0.0475 -0.2129
  324MPD2    C5 4921   0.889   2.880  14.185 -0.4941 -0.9058  0.3452
  324MPD2     H 4922   0.706   3.039  14.478 -0.3478 -0.1585 -0.1375
  324MPD2    H1 4923   0.714   2.861  14.081  1.8842  1.9927 -1.7576
  324MPD2    H2 4924   1.067   2.925  14.281 -1.0608 -0.9724  2.6166
  324MPD2    H3 4925   0.947   2.833  14.106 -2.3524  0.5642 -1.8762
  324MPD2     N 4926   0.538   2.955  14.266 -0.5867  0.0102  0.0707
  324MPD2    H5 4927   0.503   2.881  14.207 -0.8963 -0.0391  0.3149
  324MPD2    N1 4928   0.956   3.043  14.500  0.3534  0.1689  0.6452
  324MPD2    H7 4929   0.902   3.073  14.581 -2.3013 -1.1650 -0.6128
  325TMC3    C1 4930   0.314   3.033  14.309  0.4097  0.4078 -0.2309
  325TMC3    C2 4931   0.249   2.908  14.303  0.3928  0.6532 -0.2909
  325TMC3    C3 4932   0.116   2.900  14.323 -0.4425  0.0124  0.2011
  325TMC3    C4 4933   0.243   3.141  14.347 -0.1845  0.0809 -0.4944
  325TMC3    C5 4934   0.116   3.132  14.377  0.2594  0.1736  0.7771
  325TMC3    C6 4935   0.045   3.014  14.367 -0.5846 -0.0052 -0.9061
  325TMC3     C 4936   0.456   3.043  14.337  0.3071 -0.1962  0.2244
  325TMC3     O 4937   0.496   3.143  14.395 -0.3660 -0.0873 -0.0898
  325TMC3     H 4938   0.300   2.819  14.267 -0.7000  0.8167 -2.2892
  325TMC3    H1 4939   0.283   3.240  14.364 -2.1445  0.6178  1.0558
  325TMC3    H2 4940   4.672   3.014  14.379 -0.4706 -0.0253  0.1635
  325TMC3    C7 4941   0.033   3.250  14.387 -0.2932  0.9879  0.2016
  325TMC3    C8 4942   0.048   2.784  14.263 -0.1372 -0.0841  0.5391
  325TMC3    O1 4943   0.041   3.336  14.297  0.0661  0.2671 -0.1698
  325TMC3    O2 4944   0.118   2.683  14.253 -0.1800 -0.6795  0.4562
  326MPD2     C 4945   1.701   3.472  10.841 -0.9710  0.1157  0.0777
  326MPD2    C1 4946   1.733   3.551  10.728 -0.3257 -1.2041  0.0765
  326MPD2    C2 4947   1.858   3.606  10.719  0.0372  0.2980  0.6571
  326MPD2    C3 4948   1.961   3.587  10.811  0.0642 -0.0260  0.3553
  326MPD2    C4 4949   1.923   3.512  10.922  0.2498 -0.2638 -0.6039
  326MPD2    C5 4950   1.800   3.454  10.937 -0.1909 -0.3424  0.1902
  326MPD2     H 4951   1.880   3.665  10.631 -1.6163 -1.5234 -1.0011
  326MPD2    H1 4952   1.989   3.504  11.008  0.1982  1.1012 -0.4372
  326MPD2    H2 4953   1.604   3.429  10.862  0.2842 -1.6530  2.2036
  326MPD2    H3 4954   1.776   3.420  11.037 -1.9904  1.4275  0.3671
  326MPD2     N 4955   2.090   3.654  10.799  0.0445  0.3562  0.1261
  326MPD2    H5 4956   2.145   3.670  10.883  1.5544 -0.1104 -0.7761
  326MPD2    N1 4957   1.643   3.592  10.626  0.3094 -0.1226  0.3260
  326MPD2    H7 4958   1.675   3.659  10.558 -0.9950  0.4229  0.2544
  327TMC3    C1 4959   1.457   3.566  10.485 -0.3316 -0.7166 -0.1221
  327TMC3    C2 4960   1.424   3.698  10.476  0.5159 -0.4794 -0.3564
  327TMC3    C3 4961   1.448   3.769  10.360  0.6444 -0.5447 -0.4349
  327TMC3    C4 4962   1.525   3.510  10.376 -0.4309 -0.3357 -0.9497
  327TMC3    C5 4963   1.553   3.586  10.264  0.8794  0.4566  0.0441
  327TMC3    C6 4964   1.511   3.721  10.250 -0.7448 -0.1369 -0.3890
  327TMC3     C 4965   1.524   3.531  10.610 -0.2057  0.4163 -0.4523
  327TMC3     O 4966   1.474   3.430  10.663  0.4027  0.1509 -0.2914
  327TMC3     H 4967   1.372   3.745  10.559  0.4158  1.0904 -1.3068
  327TMC3    H1 4968   1.548   3.405  10.382  0.7519 -0.0204 -0.0061
  327TMC3    H2 4969   1.544   3.790  10.173 -1.0307 -0.0731 -0.4529
  327TMC3    C7 4970   1.676   3.558  10.202 -0.1791  0.4308 -0.2575
  327TMC3    C8 4971   1.425   3.910  10.360  0.1551  0.5437 -0.0220
  327TMC3    O1 4972   1.708   3.622  10.102  0.0289 -0.2748  0.8999
  327TMC3    O2 4973   1.416   3.957  10.247 -0.2667 -0.7537  0.3270
  328MPD2     C 4974   4.384   3.561  17.493  0.7091 -0.5205  0.2449
  328MPD2    C1 4975   4.265   3.534  17.426  0.1694 -0.3865  0.1283
  328MPD2    C2 4976   4.221   3.627  17.334 -0.0333  0.0459  0.2675
  328MPD2    C3 4977   4.298   3.731  17.287  0.0186 -0.1508 -0.2672
  328MPD2    C4 4978   4.413   3.764  17.357 -0.0399  0.5433  0.2193
  328MPD2    C5 4979   4.447   3.676  17.455  0.1084  0.0675 -0.1883
  328MPD2     H 4980   4.126   3.605  17.287  0.8884 -3.9809  0.3055
  328MPD2    H1 4981   4.463   3.859  17.342  4.1788 -1.8440 -0.6605
  328MPD2    H2 4982   4.423   3.503  17.576 -0.5659  1.4758  2.2477
  328MPD2    H3 4983   4.525   3.714  17.520  1.4027 -4.2047  0.7701
  328MPD2     N 4984   4.249   3.812  17.186 -0.4184  0.8643 -0.1693
  328MPD2    H5 4985   4.301   3.899  17.177 -2.1264  1.9711  0.6009
  328MPD2    N1 4986   4.190   3.425  17.479 -0.8636 -0.5432 -0.3518
  328MPD2    H7 4987   4.227   3.375  17.559 -1.6783 -1.5507 -0.5959
  329TMC3    C1 4988   4.035   3.247  17.483 -0.2690 -0.0285  0.5918
  329TMC3    C2 4989   4.012   3.265  17.616 -0.6063 -0.6695  0.7406
  329TMC3    C3 4990   3.890   3.230  17.656  0.7888 -0.6198  0.1185
  329TMC3    C4 4991   3.950   3.185  17.399  0.4897 -0.3925  0.1014
  329TMC3    C5 4992   3.859   3.106  17.464 -0.5635 -0.5743 -0.0439
  329TMC3    C6 4993   3.812   3.139  17.588 -0.4882  0.1281  0.0517
  329TMC3     C 4994   4.083   3.371  17.419  0.5589  0.2941 -0.3392
  329TMC3     O 4995   4.036   3.402  17.310  0.3121 -0.2907  0.3796
  329TMC3     H 4996   4.068   3.335  17.677 -0.6083 -1.5055  1.7156
  329TMC3    H1 4997   3.947   3.188  17.291  3.0022  0.9321  0.0802
  329TMC3    H2 4998   3.724   3.099  17.638  0.1793  0.1540  1.2460
  329TMC3    C7 4999   3.771   3.022  17.378 -0.2629 -0.3056 -0.0681
  329TMC3    C8 5000   3.848   3.246   0.057  0.3611 -0.2900 -0.2408
  329TMC3    O1 5001   3.796   2.999  17.261  0.4473  0.3783 -0.5484
  329TMC3    O2 5002   3.940   3.247   0.139  0.0739  0.4909  0.4680
  330TMC3    C1 5003   2.309   3.215   9.034 -0.2657 -0.1905 -0.3366
  330TMC3    C2 5004   2.243   3.107   8.988  0.0114  0.2565 -0.3151
  330TMC3    C3 5005   2.313   2.988   8.990  0.5202 -0.4508  0.5259
  330TMC3    C4 5006   2.442   3.208   9.074  0.1728  0.2685  0.3460
  330TMC3    C5 5007   2.495   3.085   9.084  0.8714 -0.2759  0.3778
  330TMC3    C6 5008   2.430   2.968   9.058  0.0446  0.0599  0.1715
  330TMC3     C 5009   2.272   3.344   8.988  0.1049 -0.8856 -0.1259
  330TMC3     O 5010   2.352   3.438   8.977  0.1373 -0.5627  0.3380
  330TMC3     H 5011   2.137   3.108   8.967 -0.2630  1.5227  1.1090
  330TMC3    H1 5012   2.485   3.303   9.105  0.3356 -0.0185  1.0096
  330TMC3    H2 5013   2.481   2.872   9.058  0.3027  0.1995 -3.6679
  330TMC3    C7 5014   2.627   3.083   9.142  0.6332  0.0958  0.0394
  330TMC3    C8 5015   2.229   2.875   8.976  1.0420  0.3195 -0.1468
  330TMC3    O1 5016   2.660   3.185   9.201 -0.7432  0.2925  0.0130
  330TMC3    O2 5017   2.152   2.882   8.878 -0.1586  0.5285 -0.7293
  331MPD2     C 5018   0.417   2.051  13.267 -0.3674  0.1623  0.2435
  331MPD2    C1 5019   0.473   2.022  13.146 -0.1187  0.5935 -0.6607
  331MPD2    C2 5020   0.430   1.911  13.075  0.0339  0.1461  0.4588
  331MPD2    C3 5021   0.328   1.834  13.127 -0.2060 -0.5381  0.2168
  331MPD2    C4 5022   0.266   1.871  13.246  0.3841 -0.4490  0.0389
  331MPD2    C5 5023   0.311   1.977  13.314  0.0529  0.4782  0.5090
  331MPD2     H 5024   0.473   1.887  12.979  0.8940  0.1172  0.8468
  331MPD2    H1 5025   0.171   1.832  13.283  2.1381 -1.9921  2.8867
  331MPD2    H2 5026   0.458   2.132  13.326 -0.6107  1.4877 -1.3986
  331MPD2    H3 5027   0.260   2.000  13.406 -0.8011 -0.7051  0.3258
  331MPD2     N 5028   0.280   1.731  13.047 -0.6262 -0.1434 -0.4509
  331MPD2    H5 5029   0.321   1.720  12.954 -1.8878  0.2615 -1.0463
  331MPD2    N1 5030   0.567   2.113  13.086  0.9988  0.6181 -0.4097
  331MPD2    H7 5031   0.596   2.192  13.142  1.3780  0.1728  0.0176
  332TMC3    C1 5032   0.153   1.561  12.964 -0.4418 -0.2556  1.1090
  332TMC3    C2 5033   0.171   1.620  12.840 -0.2383 -0.0349 -0.2411
  332TMC3    C3 5034   0.227   1.542  12.742 -1.0822 -0.4715 -0.3837
  332TMC3    C4 5035   0.170   1.427  12.992 -0.4428  0.1560  0.6835
  332TMC3    C5 5036   0.240   1.360  12.892 -0.2310  0.2051  0.2227
  332TMC3    C6 5037   0.274   1.414  12.774 -0.0753 -0.2670 -0.5586
  332TMC3     C 5038   0.173   1.652  13.075  0.4059 -0.0145  0.6071
  332TMC3     O 5039   0.103   1.644  13.179  0.0243  0.1476  0.2463
  332TMC3     H 5040   0.143   1.724  12.829 -1.4155 -0.4484 -1.1141
  332TMC3    H1 5041   0.166   1.388  13.093 -1.6439  1.4111  1.1236
  332TMC3    H2 5042   0.339   1.364  12.703 -0.9147 -0.6768 -1.0356
  332TMC3    C7 5043   0.330   1.256  12.944  0.0164 -0.4917  0.2195
  332TMC3    C8 5044   0.210   1.579  12.606 -0.8736  0.3922  0.3114
  332TMC3    O1 5045   0.294   1.183  13.035  0.0328  0.0553  0.5958
  332TMC3    O2 5046   0.272   1.528  12.515 -0.0319  0.1604  0.0160
  333MPD2     C 5047   0.649   2.478  11.265 -0.1660 -0.3380  0.5582
  333MPD2    C1 5048   0.690   2.412  11.148  0.5614  0.4314  0.2157
  333MPD2    C2 5049   0.621   2.294  11.117  0.2343 -0.2122 -0.2921
  333MPD2    C3 5050   0.521   2.235  11.196  0.3932  0.9808  0.6123
  333MPD2    C4 5051   0.495   2.310  11.310  0.6340 -0.3753 -0.0040
  333MPD2    C5 5052   0.559   2.426  11.343  0.3156  0.4139  0.1201
  333MPD2     H 5053   0.637   2.256  11.017 -2.4351  1.1428 -1.2176
  333MPD2    H1 5054   0.419   2.277  11.380 -0.8939  0.3425 -1.3324
  333MPD2    H2 5055   0.712   2.554  11.311  2.0744 -1.5269 -0.5614
  333MPD2    H3 5056   0.525   2.459  11.440  0.6906  1.4463 -0.0977
  333MPD2     N 5057   0.461   2.115  11.155  0.6506  0.1252 -0.1844
  333MPD2    H5 5058   0.503   2.067  11.076  1.0191 -1.6458  1.0941
  333MPD2    N1 5059   0.781   2.473  11.066  0.4100 -0.4125  0.2232
  333MPD2    H7 5060   0.812   2.564  11.097  0.4985 -0.6686  0.8935
  334TMC3    C1 5061   0.951   2.502  10.914  0.0798 -0.5044  0.3154
  334TMC3    C2 5062   1.031   2.440  10.820 -0.2384 -0.3886  0.7036
  334TMC3    C3 5063   1.117   2.521  10.753 -0.5137 -0.2277  0.3886
  334TMC3    C4 5064   0.953   2.634  10.942 -0.7950 -0.2333 -0.4437
  334TMC3    C5 5065   1.047   2.708  10.875 -0.0557  0.5746 -0.3060
  334TMC3    C6 5066   1.136   2.650  10.787  0.0718  0.1964  0.1256
  334TMC3     C 5067   0.840   2.424  10.957  0.1019 -0.5779 -0.6582
  334TMC3     O 5068   0.812   2.332  10.880  0.2923  0.2091 -0.5149
  334TMC3     H 5069   1.022   2.335  10.794 -3.3555 -0.4034  1.9249
  334TMC3    H1 5070   0.895   2.674  11.023  1.0638 -0.3041  0.9361
  334TMC3    H2 5071   1.196   2.709  10.719 -0.0808 -0.1714 -0.3270
  334TMC3    C7 5072   1.062   2.850  10.883 -0.2772  0.6301 -0.6180
  334TMC3    C8 5073   1.219   2.462  10.673 -0.1128  0.2409  0.1258
  334TMC3    O1 5074   1.163   2.891  10.830  0.3568 -0.1600  0.6348
  334TMC3    O2 5075   1.182   2.375  10.596  0.7997 -0.2906 -0.5214
  335TMC3    C1 5076   0.081   3.314   0.045  0.0003  0.4715 -0.2547
  335TMC3    C2 5077   4.712   3.313  17.690 -0.3232 -0.3920  0.4948
  335TMC3    C3 5078   0.013   3.318  17.557  0.2225  0.4470 -0.9310
  335TMC3    C4 5079   0.211   3.338   0.002 -0.4485  0.4791  0.3249
  335TMC3    C5 5080   0.233   3.361  17.606 -0.0958 -0.3121 -0.0397
  335TMC3    C6 5081   0.138   3.352  17.510  0.5224 -0.4068  0.4648
  335TMC3     C 5082   0.057   3.234   0.160 -0.0499 -0.4422  0.1542
  335TMC3     O 5083   4.684   3.169   0.166 -0.3091  0.0077  0.1105
  335TMC3     H 5084   4.609   3.298  17.718 -0.5669  2.0877  0.9370
  335TMC3    H1 5085   0.302   3.317   0.055  1.0934 -0.7179 -2.7791
  335TMC3    H2 5086   0.146   3.353  17.402 -0.9568 -0.3365  0.3467
  335TMC3    C7 5087   0.369   3.381  17.560  0.1068  0.1870 -0.1021
  335TMC3    C8 5088   4.634   3.317  17.464 -0.2219  0.1519  0.2981
  335TMC3    O1 5089   0.387   3.367  17.441 -0.7620  0.1811  0.4275
  335TMC3    O2 5090   4.657   3.358  17.352  0.2333  0.4793  0.1268
  336MPD2     C 5091   4.463   1.355  16.354  0.1035 -0.0727  0.4060
  336MPD2    C1 5092   4.505   1.294  16.239  0.0398  0.8654 -0.0743
  336MPD2    C2 5093   4.581   1.181  16.247 -0.4100 -0.3599  0.3587
  336MPD2    C3 5094   4.603   1.122  16.371  0.2678 -0.0747 -0.7491
  336MPD2    C4 5095   4.563   1.182  16.483 -0.8605 -0.5138 -0.1915
  336MPD2    C5 5096   4.487   1.296  16.480 -0.2169 -0.0061 -0.2849
  336MPD2     H 5097   4.619   1.144  16.153  2.3697 -2.5555  2.3295
  336MPD2    H1 5098   4.596   1.148  16.581 -0.2679  0.4311 -0.0654
  336MPD2    H2 5099   4.406   1.448  16.354 -2.0654 -1.4074 -0.8441
  336MPD2    H3 5100   4.468   1.350  16.572 -0.6376  0.5455 -0.6960
  336MPD2     N 5101   4.670   1.000  16.388  0.0993  0.2568  0.5553
  336MPD2    H5 5102   4.693   0.968  16.482  0.7508 -1.3891 -0.1763
  336MPD2    N1 5103   4.459   1.336  16.106  0.4813 -0.0448  0.0996
  336MPD2    H7 5104   4.481   1.286  16.021  1.0276  0.1204  0.1469
  337TMC3    C1 5105   4.327   1.440  15.946 -0.3736 -0.0433 -0.0028
  337TMC3    C2 5106   4.204   1.495  15.952  0.0997 -0.2599 -0.0142
  337TMC3    C3 5107   4.137   1.488  15.830  0.4887  0.4556  0.1976
  337TMC3    C4 5108   4.396   1.399  15.832  0.7156 -0.3380 -0.3404
  337TMC3    C5 5109   4.323   1.415  15.722  0.1437 -0.8108  0.5788
  337TMC3    C6 5110   4.194   1.453  15.715 -0.1271 -0.7750 -0.1233
  337TMC3     C 5111   4.379   1.434  16.084  0.4754  0.2296  0.4111
  337TMC3     O 5112   4.338   1.527  16.159  0.2964 -0.0487 -0.1277
  337TMC3     H 5113   4.143   1.508  16.041  2.4529 -0.2199  1.6047
  337TMC3    H1 5114   4.499   1.366  15.834  1.0314  0.7079  0.6800
  337TMC3    H2 5115   4.147   1.460  15.617 -1.2572 -1.2781  0.3777
  337TMC3    C7 5116   4.372   1.359  15.597  0.0529 -0.6071  0.0800
  337TMC3    C8 5117   3.993   1.495  15.833 -0.6132 -0.0863  0.1643
  337TMC3    O1 5118   4.288   1.352  15.508 -0.1469  0.1313 -0.3016
  337TMC3    O2 5119   3.940   1.552  15.932  0.3718  0.5438  0.4496
  338MPD2     C 5120   4.543   4.686   0.737 -0.0248  0.0930  0.1857
  338MPD2    C1 5121   4.546   0.065   0.655 -0.5153 -0.5617  0.0917
  338MPD2    C2 5122   4.452   0.165   0.686  0.5344 -0.4879  0.4799
  338MPD2    C3 5123   4.370   0.154   0.796  0.5733 -0.3408 -0.0547
  338MPD2    C4 5124   4.387   0.049   0.881 -0.3536 -1.0841  0.0528
  338MPD2    C5 5125   4.460   4.678   0.847 -0.2430 -0.0617 -0.3561
  338MPD2     H 5126   4.454   0.250   0.619 -0.9829 -0.9155 -0.1214
  338MPD2    H1 5127   4.317   0.029   0.961 -2.1731 -2.4249 -1.8755
  338MPD2    H2 5128   4.606   4.598   0.730  0.6526  0.6052 -0.1157
  338MPD2    H3 5129   4.455   4.586   0.902 -2.0148 -0.4426 -1.1650
  338MPD2     N 5130   4.275   0.251   0.816 -0.5302  0.6984  0.0740
  338MPD2    H5 5131   4.273   0.312   0.735 -0.8190 -1.1456 -1.3336
  338MPD2    N1 5132   4.632   0.071   0.534  0.4619  1.1921  0.6505
  338MPD2    H7 5133   4.631   0.155   0.477  1.1990  0.5280 -0.3418
  339TMC3    C1 5134   4.105   0.382   0.915 -0.5225 -0.1958 -0.1887
  339TMC3    C2 5135   4.003   0.392   1.006 -0.0810  0.6301 -0.1108
  339TMC3    C3 5136   3.913   0.490   0.981 -0.1212 -0.2688 -0.2234
  339TMC3    C4 5137   4.116   0.468   0.807 -0.2997 -0.0246  0.0066
  339TMC3    C5 5138   4.030   0.568   0.799  0.3188 -0.1657  0.2737
  339TMC3    C6 5139   3.927   0.580   0.880  0.4596  0.0037 -0.0495
  339TMC3     C 5140   4.197   0.265   0.927 -0.5152 -0.3627 -0.1540
  339TMC3     O 5141   4.201   0.203   1.031  0.7511 -0.2728 -0.4976
  339TMC3     H 5142   3.999   0.313   1.081  1.9392 -0.6624 -1.3629
  339TMC3    H1 5143   4.202   0.463   0.741 -0.0735  0.3343  0.2763
  339TMC3    H2 5144   3.847   0.650   0.860  1.6425  1.7817  1.4140
  339TMC3    C7 5145   4.031   0.650   0.681  1.3107 -0.2681  0.2123
  339TMC3    C8 5146   3.780   0.487   1.031  0.4892 -0.1168  0.4620
  339TMC3    O1 5147   3.966   0.748   0.705  0.5345 -0.1276  0.0865
  339TMC3    O2 5148   3.685   0.526   0.962 -0.3852 -0.0033  0.7729
  340MPD2     C 5149   0.541   3.679  10.081 -0.1133 -0.1057 -0.1277
  340MPD2    C1 5150   0.544   3.542  10.105  0.3822 -0.2672  0.4456
  340MPD2    C2 5151   0.551   3.499  10.236  0.1246 -0.1887 -0.4410
  340MPD2    C3 5152   0.589   3.585  10.333  0.5684  0.5741 -0.3411
  340MPD2    C4 5153   0.610   3.718  10.301  0.0931 -1.1533  0.0292
  340MPD2    C5 5154   0.571   3.764  10.186 -0.6732 -0.2643  0.1074
  340MPD2     H 5155   0.532   3.395  10.261  1.2240 -0.2714  0.0363
  340MPD2    H1 5156   0.646   3.796  10.367 -0.3666  0.2530 -1.3768
  340MPD2    H2 5157   0.535   3.709   9.977  0.5155 -0.6767 -0.3299
  340MPD2    H3 5158   0.584   3.871  10.175  0.8661 -0.5765 -0.9918
  340MPD2     N 5159   0.622   3.530  10.459  0.3567 -0.0845  0.1167
  340MPD2    H5 5160   0.657   3.602  10.521 -1.0045  0.6331  0.0500
  340MPD2    N1 5161   0.533   3.464   9.991  0.1337 -0.1220 -0.3539
  340MPD2    H7 5162   0.523   3.513   9.903  0.2238 -0.5500 -0.6001
  341TMC3    C1 5163   0.526   3.261   9.872  0.1925 -0.2106  0.8635
  341TMC3    C2 5164   0.469   3.134   9.871 -0.0117  0.2896 -0.1412
  341TMC3    C3 5165   0.523   3.042   9.785 -0.2306 -0.3749  1.2355
  341TMC3    C4 5166   0.622   3.291   9.787 -1.6078 -0.0175 -0.3188
  341TMC3    C5 5167   0.659   3.204   9.691  0.4119  0.8345 -0.1345
  341TMC3    C6 5168   0.612   3.078   9.690  0.1520 -0.0110 -0.0530
  341TMC3     C 5169   0.521   3.327  10.003 -0.3128  0.3055 -0.4488
  341TMC3     O 5170   0.526   3.250  10.100 -0.0852  0.6118 -0.0146
  341TMC3     H 5171   0.402   3.101   9.949  0.0002  1.3877  0.3224
  341TMC3    H1 5172   0.685   3.377   9.805 -0.9689 -0.5462 -0.0182
  341TMC3    H2 5173   0.647   3.008   9.615 -0.4302 -1.5313  1.0949
  341TMC3    C7 5174   0.768   3.232   9.602 -0.4176  0.3772  0.5089
  341TMC3    C8 5175   0.471   2.906   9.796 -0.3399  0.1849 -0.8546
  341TMC3    O1 5176   0.825   3.139   9.553  0.0017 -0.0183 -0.5661
  341TMC3    O2 5177   0.364   2.896   9.860  0.6464 -0.7361  0.2230
  342MPD2     C 5178   2.295   1.052  16.980 -0.3633 -0.3275  0.7588
  342MPD2    C1 5179   2.423   1.104  16.983 -0.8920 -0.3348  0.0765
  342MPD2    C2 5180   2.449   1.219  17.053 -0.6553  0.2887  0.3631
  342MPD2    C3 5181   2.344   1.299  17.104  0.4604 -0.4510  0.4099
  342MPD2    C4 5182   2.215   1.239  17.101  0.0860 -0.0230 -0.3164
  342MPD2    C5 5183   2.191   1.116  17.048  0.0071  0.7194 -0.4136
  342MPD2     H 5184   2.548   1.263  17.043 -1.2275  1.7632  1.1493
  342MPD2    H1 5185   2.134   1.299  17.142 -0.3713 -0.7537 -0.1621
  342MPD2    H2 5186   2.260   0.965  16.926  0.1243 -0.4662  0.6648
  342MPD2    H3 5187   2.089   1.079  17.047  0.1740  0.2612 -1.7119
  342MPD2     N 5188   2.368   1.432  17.146  0.4051  0.1467 -0.7753
  342MPD2    H5 5189   2.288   1.493  17.163 -1.6895 -2.8107  0.0329
  342MPD2    N1 5190   2.526   1.051  16.903  0.2038  0.1914 -0.4977
  342MPD2    H7 5191   2.618   1.091  16.919 -0.7619  1.8059  1.0225
  343TMC3    C1 5192   2.637   0.892  16.774  0.1485 -0.5033  0.4229
  343TMC3    C2 5193   2.752   0.965  16.784 -0.1261 -0.9185 -0.4606
  343TMC3    C3 5194   2.869   0.908  16.802 -0.2273 -0.0353  0.4898
  343TMC3    C4 5195   2.649   0.754  16.776  0.2428 -0.2297 -0.7841
  343TMC3    C5 5196   2.771   0.696  16.800  0.8443  0.2865  0.0348
  343TMC3    C6 5197   2.880   0.775  16.815  0.1403  0.0551 -0.2907
  343TMC3     C 5198   2.508   0.950  16.814 -0.6639  0.2554 -0.2072
  343TMC3     O 5199   2.401   0.900  16.775 -0.4518 -0.6113  0.7066
  343TMC3     H 5200   2.746   1.073  16.781 -0.5711 -0.8316  3.1102
  343TMC3    H1 5201   2.553   0.704  16.769  0.5541 -0.7829 -1.1484
  343TMC3    H2 5202   2.970   0.727  16.850 -0.6329 -0.9602  0.3099
  343TMC3    C7 5203   2.759   0.574  16.868 -0.1884  0.3072 -0.2659
  343TMC3    C8 5204   2.992   0.989  16.798 -0.3660  0.2333 -0.0178
  343TMC3    O1 5205   2.680   0.488  16.831 -0.1181 -0.2196  0.0467
  343TMC3    O2 5206   2.981   1.113  16.802  0.2757 -0.0144  0.3394
  344MPD2     C 5207   3.854   1.442  10.650 -0.4771 -0.4758 -0.8807
  344MPD2    C1 5208   3.972   1.405  10.591  0.1355  0.6771  0.1592
  344MPD2    C2 5209   4.041   1.514  10.528  0.1218 -0.3818 -0.1453
  344MPD2    C3 5210   3.990   1.645  10.532 -0.2833 -0.5987 -0.3856
  344MPD2    C4 5211   3.869   1.672  10.591 -0.0380 -0.3801  0.0656
  344MPD2    C5 5212   3.803   1.570  10.656 -0.2476  0.7264  0.0266
  344MPD2     H 5213   4.134   1.508  10.474 -0.9587 -0.9503 -1.9574
  344MPD2    H1 5214   3.822   1.769  10.600 -0.2271 -0.4370 -0.2902
  344MPD2    H2 5215   3.792   1.374  10.707  0.4645 -1.1444 -0.6488
  344MPD2    H3 5216   3.704   1.579  10.700  0.9919 -1.3395  3.2567
  344MPD2     N 5217   4.073   1.746  10.482  0.4704  0.4459 -0.0990
  344MPD2    H5 5218   4.163   1.714  10.446 -1.6897 -2.3495 -2.9689
  344MPD2    N1 5219   4.023   1.270  10.589  0.4976  0.1576 -0.2330
  344MPD2    H7 5220   4.095   1.248  10.521  2.0957  1.2164  1.1297
  345TMC3    C1 5221   4.163   1.959  10.447 -0.5930  0.5020 -0.5353
  345TMC3    C2 5222   4.283   1.945  10.512 -0.5114 -0.0667  0.3556
  345TMC3    C3 5223   4.380   2.028  10.474  0.2858  0.4067  0.5146
  345TMC3    C4 5224   4.135   2.061  10.361 -0.6632  0.4155 -0.4597
  345TMC3    C5 5225   4.244   2.134  10.313 -0.0434 -0.4902 -0.6480
  345TMC3    C6 5226   4.365   2.119  10.378 -0.8576  0.5951 -0.0189
  345TMC3     C 5227   4.049   1.881  10.479 -0.0982 -0.1196  0.4063
  345TMC3     O 5228   3.942   1.940  10.500 -1.0129 -0.2567 -0.3379
  345TMC3     H 5229   4.280   1.871  10.591  2.5656 -0.3217  0.2398
  345TMC3    H1 5230   4.039   2.071  10.313 -1.4930 -0.2022  1.1093
  345TMC3    H2 5231   4.445   2.180  10.339  0.8232 -1.3606  0.4170
  345TMC3    C7 5232   4.222   2.257  10.239 -0.3504  0.4939  0.5008
  345TMC3    C8 5233   4.473   2.075  10.564  0.0551 -0.3949  0.1681
  345TMC3    O1 5234   4.309   2.346  10.250 -0.4247  0.1875 -0.0481
  345TMC3    O2 5235   4.537   2.177  10.537  0.1662 -0.5033  0.0745
  346MPD2     C 5236   3.592   2.814  14.366  0.0245  0.2584 -0.5229
  346MPD2    C1 5237   3.702   2.888  14.332  0.4328  0.5681 -0.2704
  346MPD2    C2 5238   3.795   2.920  14.433 -0.2453  0.2067 -0.7712
  346MPD2    C3 5239   3.780   2.868  14.564 -0.1747  0.3367  0.2866
  346MPD2    C4 5240   3.665   2.800  14.596  0.6426  0.0076  0.9137
  346MPD2    C5 5241   3.573   2.774  14.498  0.2140  1.0535  0.4580
  346MPD2     H 5242   3.876   2.990  14.416  0.9596 -1.0131 -0.0390
  346MPD2    H1 5243   3.642   2.773  14.699  0.2967 -1.9277  0.3170
  346MPD2    H2 5244   3.513   2.805  14.293  2.8519 -3.7095 -3.0843
  346MPD2    H3 5245   3.474   2.734  14.518  0.6859  0.9407  2.6076
  346MPD2     N 5246   3.879   2.916  14.654  0.1744  0.0942 -0.1791
  346MPD2    H5 5247   3.936   2.990  14.614 -3.0145  2.3879 -0.4803
  346MPD2    N1 5248   3.718   2.939  14.203 -0.2845  0.4068  0.4833
  346MPD2    H7 5249   3.773   3.024  14.192  1.3030 -0.8084 -0.9055
  347TMC3    C1 5250   3.991   2.948  14.856 -0.2651 -0.4854  0.3650
  347TMC3    C2 5251   4.057   3.049  14.800  0.3153 -0.2378  0.4181
  347TMC3    C3 5252   4.171   3.092  14.875 -0.3468  0.4825  0.4102
  347TMC3    C4 5253   4.023   2.891  14.979 -0.7776 -0.3408 -0.1336
  347TMC3    C5 5254   4.125   2.943  15.053  0.1191 -0.6856 -0.4713
  347TMC3    C6 5255   4.202   3.038  14.996  0.1432 -0.3093  0.3731
  347TMC3     C 5256   3.892   2.876  14.781 -0.0412  0.4207  0.4434
  347TMC3     O 5257   3.845   2.774  14.828  0.1317  0.2620 -0.1736
  347TMC3     H 5258   4.021   3.099  14.711 -0.1013 -1.7779 -0.2660
  347TMC3    H1 5259   3.967   2.805  15.014  4.9498 -3.3382  1.6373
  347TMC3    H2 5260   4.294   3.074  15.042 -0.5865  1.1850  0.6570
  347TMC3    C7 5261   4.128   2.906  15.191 -0.7129  0.3568  0.3415
  347TMC3    C8 5262   4.283   3.154  14.808  0.5167 -0.7089  0.3728
  347TMC3    O1 5263   4.065   2.801  15.208  0.1555 -0.1518 -0.0092
  347TMC3    O2 5264   4.395   3.117  14.844 -0.0563 -0.2000 -0.9084
  348MPD2     C 5265   3.113   2.822  11.722 -0.1920 -0.3655  0.5349
  348MPD2    C1 5266   2.983   2.817  11.682  0.0463  0.0708 -0.6942
  348MPD2    C2 5267   2.924   2.916  11.606  0.5790 -0.2133  0.4672
  348MPD2    C3 5268   2.999   3.021  11.562  0.1324  0.8694  0.5922
  348MPD2    C4 5269   3.130   3.040  11.615 -0.2258 -0.9696  0.3346
  348MPD2    C5 5270   3.183   2.945  11.696  0.3254  0.1096  0.0400
  348MPD2     H 5271   2.819   2.914  11.578  0.2461  0.1335  1.6601
  348MPD2    H1 5272   3.191   3.126  11.587 -1.1677 -0.0695  1.0927
  348MPD2    H2 5273   3.158   2.750  11.790 -0.9056 -2.2166 -0.9629
  348MPD2    H3 5274   3.284   2.951  11.736 -0.4024 -1.5481  2.1316
  348MPD2     N 5275   2.928   3.113  11.486 -0.0398 -0.2573  0.2593
  348MPD2    H5 5276   2.828   3.103  11.473 -0.2524 -1.2053  2.5751
  348MPD2    N1 5277   2.895   2.713  11.726  0.1215  0.3506 -0.2101
  348MPD2    H7 5278   2.807   2.711  11.676  1.0050  1.0116 -1.8047
  349TMC3    C1 5279   2.804   2.544  11.869  0.0321 -0.6045 -0.4687
  349TMC3    C2 5280   2.824   2.456  11.970 -0.5157 -0.5032  0.1257
  349TMC3    C3 5281   2.731   2.363  11.989 -0.3059  0.1082 -0.3633
  349TMC3    C4 5282   2.684   2.553  11.799  0.2806  0.6501 -0.2699
  349TMC3    C5 5283   2.589   2.462  11.830  0.1646  0.4233 -0.0399
  349TMC3    C6 5284   2.609   2.367  11.929 -0.4500 -0.2829 -0.1696
  349TMC3     C 5285   2.917   2.628  11.837  0.1331 -0.3654  0.2195
  349TMC3     O 5286   3.013   2.630  11.919 -0.8656 -0.3092  0.0881
  349TMC3     H 5287   2.916   2.454  12.029 -1.9617  2.4656  2.4859
  349TMC3    H1 5288   2.661   2.630  11.725  0.2644  0.1830 -0.7488
  349TMC3    H2 5289   2.522   2.311  11.960 -1.0471  2.3544  2.9738
  349TMC3    C7 5290   2.454   2.479  11.783  0.3245  0.5446 -0.4564
  349TMC3    C8 5291   2.776   2.245  12.053  0.1644 -0.3224 -0.3856
  349TMC3    O1 5292   2.380   2.384  11.792 -0.3969  0.8573  0.4426
  349TMC3    O2 5293   2.877   2.252  12.121  0.2830  0.9804 -0.1900
  350MPD2     C 5294   1.955   1.166  10.400  0.3758  0.4274 -0.5645
  350MPD2    C1 5295   2.020   1.047  10.381 -0.5446  0.3745 -1.0725
  350MPD2    C2 5296   2.155   1.044  10.390 -0.3914  0.1030 -0.4513
  350MPD2    C3 5297   2.234   1.153  10.426 -0.0620 -0.5969  0.0291
  350MPD2    C4 5298   2.159   1.267  10.441  0.1115  0.4373  0.6673
  350MPD2    C5 5299   2.020   1.281  10.431 -0.1333  0.6799 -0.5811
  350MPD2     H 5300   2.203   0.947  10.390  0.6335  0.6201  0.9236
  350MPD2    H1 5301   2.210   1.359  10.466 -1.0375  1.6084 -1.3002
  350MPD2    H2 5302   1.847   1.164  10.391  0.4018 -0.0456 -0.7743
  350MPD2    H3 5303   1.975   1.379  10.439 -0.7942  0.1448  2.1417
  350MPD2     N 5304   2.369   1.140  10.464 -0.5552 -0.0722  0.1868
  350MPD2    H5 5305   2.413   1.049  10.461 -0.0303  0.2414 -1.8326
  350MPD2    N1 5306   1.957   0.919  10.351  0.4757 -0.8286 -0.1890
  350MPD2    H7 5307   2.025   0.852  10.317 -0.7128 -2.5474  0.8532
  351TMC3    C1 5308   1.789   0.771  10.289  0.0001 -0.0407 -0.8696
  351TMC3    C2 5309   1.887   0.672  10.282 -0.1102  0.0976  0.4748
  351TMC3    C3 5310   1.866   0.570  10.197 -0.0568  0.5016 -0.1580
  351TMC3    C4 5311   1.667   0.753  10.224  0.1604  0.8253 -0.6852
  351TMC3    C5 5312   1.641   0.637  10.153 -0.6715 -0.2720 -0.0283
  351TMC3    C6 5313   1.744   0.547  10.130 -0.0827 -0.0464  0.7224
  351TMC3     C 5314   1.823   0.902  10.333 -0.7487  0.6008  0.3103
  351TMC3     O 5315   1.726   0.982  10.345 -0.9298  0.1100  0.2447
  351TMC3     H 5316   1.976   0.678  10.344  0.9871 -1.8888 -0.9057
  351TMC3    H1 5317   1.588   0.827  10.230 -0.7476 -0.0493 -1.9079
  351TMC3    H2 5318   1.723   0.472  10.055  0.1335  1.5656 -0.9357
  351TMC3    C7 5319   1.529   0.635  10.066  0.6074 -0.5386 -0.2650
  351TMC3    C8 5320   1.985   0.495  10.166 -0.1919 -0.1504 -0.7777
  351TMC3    O1 5321   1.484   0.525  10.040 -0.1814  0.3150  0.5858
  351TMC3    O2 5322   2.091   0.553  10.186 -0.3121 -0.2964  0.1965
  352MPD2     C 5323   0.253   2.376   1.258 -0.1204  0.0937 -0.0486
  352MPD2    C1 5324   0.127   2.330   1.294  0.8117  0.5909  0.1443
  352MPD2    C2 5325   0.102   2.197   1.328  0.2645  0.3300  0.1107
  352MPD2    C3 5326   0.198   2.101   1.331  0.5147  0.2241 -0.0593
  352MPD2    C4 5327   0.324   2.143   1.296  0.4226 -0.1859 -0.0219
  352MPD2    C5 5328   0.347   2.273   1.264 -0.5162 -0.9767 -0.1146
  352MPD2     H 5329   0.001   2.165   1.350 -0.4571  2.8040  0.3937
  352MPD2    H1 5330   0.402   2.068   1.297  0.2109 -0.4133 -0.3865
  352MPD2    H2 5331   0.275   2.479   1.234  1.3159 -0.2565 -0.2032
  352MPD2    H3 5332   0.447   2.304   1.237 -0.0352 -1.8848  0.6470
  352MPD2     N 5333   0.182   1.966   1.367 -0.5957 -0.2590  0.2285
  352MPD2    H5 5334   0.262   1.905   1.360  0.9411  1.7498  0.3596
  352MPD2    N1 5335   0.021   2.423   1.301 -0.2340 -0.0244 -0.3414
  352MPD2    H7 5336   0.044   2.515   1.265  1.2930  0.6520  2.3148
  353TMC3    C1 5337   0.086   1.760   1.424  0.2489 -0.1986 -0.1693
  353TMC3    C2 5338   0.211   1.707   1.433 -0.6471 -0.1719  0.0357
  353TMC3    C3 5339   0.215   1.568   1.417  0.7493 -0.0744 -0.3543
  353TMC3    C4 5340   4.703   1.688   1.423 -0.1497 -0.1678 -0.7145
  353TMC3    C5 5341   4.721   1.549   1.397  0.1982 -0.1231  0.0176
  353TMC3    C6 5342   0.108   1.492   1.389 -0.2678  0.2771 -0.1880
  353TMC3     C 5343   0.064   1.901   1.389  0.0802  0.6816 -0.0911
  353TMC3     O 5344   4.687   1.950   1.395 -0.4844 -0.0510  0.8054
  353TMC3     H 5345   0.287   1.769   1.480 -0.5327 -0.7961  0.6688
  353TMC3    H1 5346   4.608   1.741   1.427 -0.2094 -0.1687 -2.0387
  353TMC3    H2 5347   0.110   1.388   1.360 -4.3428  0.6423 -1.8121
  353TMC3    C7 5348   4.609   1.473   1.350  0.8991  0.0984 -0.2875
  353TMC3    C8 5349   0.345   1.510   1.444 -0.5268  0.9049 -0.9357
  353TMC3    O1 5350   4.627   1.367   1.286 -0.4920 -0.0689 -0.0941
  353TMC3    O2 5351   0.432   1.588   1.475  0.5201 -0.5907  0.5265
  354TMC3    C1 5352   1.706   3.426  12.972  0.5457 -0.1088  0.3309
  354TMC3    C2 5353   1.652   3.510  12.872 -0.5524 -0.2508 -0.1661
  354TMC3    C3 5354   1.733   3.546  12.769 -0.1602  0.0656 -0.2505
  354TMC3    C4 5355   1.822   3.363  12.954 -0.1978  0.0910 -0.3454
  354TMC3    C5 5356   1.903   3.407  12.857 -0.5234 -0.6767 -0.0946
  354TMC3    C6 5357   1.859   3.491  12.764 -0.2952  0.8532  0.2035
  354TMC3     C 5358   1.650   3.417  13.110 -0.0103  0.1585  0.6263
  354TMC3     O 5359   1.698   3.331  13.180 -0.7199  0.3981  0.4358
  354TMC3     H 5360   1.550   3.545  12.881 -0.7111 -0.8074  0.2412
  354TMC3    H1 5361   1.869   3.307  13.034  2.0169  1.0334 -0.9865
  354TMC3    H2 5362   1.923   3.536  12.689 -0.7914 -1.4953 -1.6489
  354TMC3    C7 5363   2.043   3.373  12.876 -0.9945  0.0293 -0.4210
  354TMC3    C8 5364   1.695   3.648  12.672 -0.9331  0.3544  0.0586
  354TMC3    O1 5365   2.079   3.267  12.936  0.0562  0.1403 -0.3140
  354TMC3    O2 5366   1.778   3.665  12.583 -0.5492 -0.3207 -0.0692
  355MPD2     C 5367   1.934   4.704  11.381 -0.0922 -0.4036 -0.2610
  355MPD2    C1 5368   2.020   4.674  11.286  0.2219 -0.0925 -0.1284
  355MPD2    C2 5369   2.147   4.645  11.325  0.9165  0.5028 -0.5461
  355MPD2    C3 5370   2.193   4.668  11.454  0.5601 -0.0541  0.6448
  355MPD2    C4 5371   2.102   4.697  11.550  0.0203 -0.0306 -0.8899
  355MPD2    C5 5372   1.972   4.711  11.510 -0.0017 -0.0009  0.6335
  355MPD2     H 5373   2.214   4.612  11.247  0.1085 -0.1663 -0.9544
  355MPD2    H1 5374   2.127   4.698  11.655  2.2409  0.3300 -1.4134
  355MPD2    H2 5375   1.829   4.716  11.357 -0.1373 -0.6415 -0.1844
  355MPD2    H3 5376   1.903   4.724  11.593 -2.7133  0.5330 -1.6869
  355MPD2     N 5377   2.331   4.656  11.489 -0.3205  0.1760  0.6355
  355MPD2    H5 5378   2.348   4.658  11.589 -2.1975  0.8005  0.9436
  355MPD2    N1 5379   1.960   4.664  11.152  0.6490 -0.1186  0.2353
  355MPD2    H7 5380   1.860   4.650  11.149  0.6302  0.5128 -1.6261
  356TMC3    C1 5381   2.546   0.013  11.478 -0.4584 -0.0852 -0.4163
  356TMC3    C2 5382   2.630   0.074  11.388 -0.2054 -0.5118 -0.3404
  356TMC3    C3 5383   2.741   0.137  11.434  0.1989  0.7110 -0.8220
  356TMC3    C4 5384   2.561   0.031  11.612 -0.6065 -0.6809  0.4130
  356TMC3    C5 5385   2.669   0.101  11.654  0.5515 -0.1396  0.2789
  356TMC3    C6 5386   2.765   0.148  11.571 -0.2648  0.5846 -0.8767
  356TMC3     C 5387   2.438   4.681  11.412 -0.1525  0.2999  0.1265
  356TMC3     O 5388   2.442   4.658  11.289  0.6748  0.0355 -0.2496
  356TMC3     H 5389   2.629   0.051  11.282  0.7973  0.5729 -0.5815
  356TMC3    H1 5390   2.482   4.735  11.679 -1.4143 -1.4527 -0.8940
  356TMC3    H2 5391   2.852   0.201  11.610 -0.6399  1.0176 -0.6197
  356TMC3    C7 5392   2.681   0.118  11.796  0.2352  0.2498  0.0284
  356TMC3    C8 5393   2.809   0.221  11.334 -0.2969 -0.1090  0.6690
  356TMC3    O1 5394   2.643   0.017  11.856  0.1347  0.2034 -1.1474
  356TMC3    O2 5395   2.777   0.204  11.217  0.2947  0.2392  0.1223
  357MPD2     C 5396   1.458   4.198   1.877  0.2840  1.5223  0.4318
  357MPD2    C1 5397   1.421   4.127   1.764  0.0951 -0.0486 -0.0400
  357MPD2    C2 5398   1.331   4.023   1.786  0.0292 -0.4966 -0.5993
  357MPD2    C3 5399   1.275   3.999   1.910  0.6234 -0.5022  0.6952
  357MPD2    C4 5400   1.302   4.078   2.019  0.1724 -0.4814 -0.4907
  357MPD2    C5 5401   1.398   4.176   2.001 -0.8625  0.2759  0.0236
  357MPD2     H 5402   1.305   3.962   1.701  3.0178 -1.8811 -0.5101
  357MPD2    H1 5403   1.252   4.067   2.115 -0.0563  0.2334 -0.5291
  357MPD2    H2 5404   1.530   4.278   1.864  1.3280  0.5005 -0.0991
  357MPD2    H3 5405   1.423   4.237   2.087 -0.0527  1.1907 -0.8555
  357MPD2     N 5406   1.183   3.892   1.939  0.4318  0.7908 -0.0787
  357MPD2    H5 5407   1.152   3.884   2.036 -0.5441  0.8776 -0.3798
  357MPD2    N1 5408   1.481   4.154   1.638  0.0609 -0.2576 -0.6050
  357MPD2    H7 5409   1.559   4.219   1.637  2.4677 -3.1540  1.5578
  358TMC3    C1 5410   1.528   4.137   1.408 -0.0394  0.1418  1.4540
  358TMC3    C2 5411   1.462   4.149   1.288  0.0335  0.0751  0.1791
  358TMC3    C3 5412   1.517   4.227   1.196 -0.7460  0.2659  0.3497
  358TMC3    C4 5413   1.645   4.206   1.433  0.4134 -0.0566  0.2087
  358TMC3    C5 5414   1.697   4.284   1.326  0.2677  0.5370  0.5855
  358TMC3    C6 5415   1.633   4.301   1.212 -0.1417 -0.1236 -0.5060
  358TMC3     C 5416   1.449   4.090   1.516 -0.2474 -0.0211 -0.0874
  358TMC3     O 5417   1.358   4.012   1.493 -0.0534  0.2148  0.5431
  358TMC3     H 5418   1.364   4.106   1.272  0.4122 -0.8780  0.4226
  358TMC3    H1 5419   1.711   4.179   1.515  2.7617  0.0911 -1.6296
  358TMC3    H2 5420   1.659   4.383   1.146 -2.5007 -0.2770 -1.6266
  358TMC3    C7 5421   1.838   4.286   1.306  0.2435  0.5436  0.1322
  358TMC3    C8 5422   1.487   4.189   1.056  0.6034  0.0679  0.7361
  358TMC3    O1 5423   1.880   4.311   1.192 -0.3218  0.2600 -0.2782
  358TMC3    O2 5424   1.430   4.082   1.043 -0.2293  0.4111 -0.2850
  359MPD2     C 5425   2.437   2.997  12.249 -0.5212  0.3097  0.5386
  359MPD2    C1 5426   2.341   3.005  12.145  0.1369 -0.4483  0.3820
  359MPD2    C2 5427   2.220   2.946  12.179 -0.7521  0.3018 -0.6606
  359MPD2    C3 5428   2.196   2.898  12.306  0.4093 -0.7633  0.9698
  359MPD2    C4 5429   2.289   2.890  12.406 -0.5090 -0.3005  0.8728
  359MPD2    C5 5430   2.415   2.938  12.368 -0.2927 -0.4957 -0.7986
  359MPD2     H 5431   2.142   2.936  12.105  0.7745  0.8199 -2.3470
  359MPD2    H1 5432   2.274   2.844  12.502  1.4626 -1.6714  0.5185
  359MPD2    H2 5433   2.536   3.035  12.229  0.1159 -1.7794 -0.3024
  359MPD2    H3 5434   2.508   2.935  12.423 -0.8436 -0.3191  0.1433
  359MPD2     N 5435   2.072   2.851  12.355  0.7348 -0.4144  0.2403
  359MPD2    H5 5436   2.072   2.830  12.454  0.7062  1.7921  0.7015
  359MPD2    N1 5437   2.350   3.081  12.029 -0.1100  0.1191 -0.8348
  359MPD2    H7 5438   2.262   3.103  11.984 -1.1041  0.2184  1.1780
  360TMC3    C1 5439   2.449   3.240  11.898 -0.3647  0.1097  0.1783
  360TMC3    C2 5440   2.523   3.355  11.901  0.1335  0.1425 -0.6194
  360TMC3    C3 5441   2.455   3.463  11.855  0.4076  0.0155  0.6619
  360TMC3    C4 5442   2.332   3.230  11.827  0.2182 -0.7656  0.0777
  360TMC3    C5 5443   2.276   3.340  11.772  0.0178  0.1414  0.1524
  360TMC3    C6 5444   2.333   3.460  11.790  0.0992  0.4656  0.0533
  360TMC3     C 5445   2.470   3.146  12.000  0.3195 -0.1449  0.1283
  360TMC3     O 5446   2.585   3.147  12.044 -0.4055 -0.0449 -0.0614
  360TMC3     H 5447   2.605   3.369  11.971 -0.6173  0.0394  0.2734
  360TMC3    H1 5448   2.287   3.133  11.808 -0.8284 -0.1177 -0.7659
  360TMC3    H2 5449   2.282   3.551  11.759  1.7665  1.8299  1.3025
  360TMC3    C7 5450   2.230   3.321  11.639  0.5558  0.4812  0.3230
  360TMC3    C8 5451   2.543   3.581  11.851 -1.0905  0.1949 -0.0874
  360TMC3    O1 5452   2.278   3.391  11.554  0.0276  0.5933 -0.0714
  360TMC3    O2 5453   2.488   3.688  11.858  0.3237  0.2224 -0.7431
  361MPD2     C 5454   3.337   1.901  17.411  0.0687  0.0318 -1.5062
  361MPD2    C1 5455   3.400   1.967  17.310 -0.0031 -0.3430 -0.0432
  361MPD2    C2 5456   3.531   1.931  17.283  0.6438 -0.3638 -0.5205
  361MPD2    C3 5457   3.587   1.820  17.339  0.4716 -0.1416 -0.1840
  361MPD2    C4 5458   3.522   1.742  17.432 -0.2149 -0.3270  0.4003
  361MPD2    C5 5459   3.399   1.789  17.474  0.1156 -0.1420  0.8809
  361MPD2     H 5460   3.583   1.992  17.210 -0.0431 -1.7100 -2.1266
  361MPD2    H1 5461   3.568   1.656  17.480  1.0675  0.3079  0.2979
  361MPD2    H2 5462   3.237   1.925  17.446  0.5043 -0.7507  0.2639
  361MPD2    H3 5463   3.350   1.729  17.549  1.8133 -2.9127 -0.2435
  361MPD2     N 5464   3.724   1.776  17.318 -0.1065  0.3353  0.3312
  361MPD2    H5 5465   3.746   1.694  17.373 -0.4722  0.0819  0.1055
  361MPD2    N1 5466   3.339   2.078  17.251  0.4164  0.2343  0.2551
  361MPD2    H7 5467   3.380   2.106  17.163 -0.6645 -1.5381 -0.8103
  362TMC3    C1 5468   3.161   2.228  17.197 -0.3143 -0.5636  0.1465
  362TMC3    C2 5469   3.024   2.246  17.224  0.1246  0.0465  0.1687
  362TMC3    C3 5470   2.963   2.353  17.164 -0.8035 -0.2391 -0.1055
  362TMC3    C4 5471   3.237   2.307  17.114  0.0537  0.6721  0.4085
  362TMC3    C5 5472   3.172   2.415  17.059  0.6039 -0.1517  0.2603
  362TMC3    C6 5473   3.040   2.437  17.090  0.1551 -0.1673  0.3870
  362TMC3     C 5474   3.216   2.128  17.282  0.1440  0.4353  0.9163
  362TMC3     O 5475   3.149   2.109  17.385  0.1517 -0.2771  0.0784
  362TMC3     H 5476   2.962   2.183  17.287  0.9247  0.3268  1.2443
  362TMC3    H1 5477   3.342   2.293  17.094 -0.7116 -0.8173 -2.7488
  362TMC3    H2 5478   2.995   2.519  17.036 -3.4124 -0.9477  2.2303
  362TMC3    C7 5479   3.230   2.485  16.938 -0.3829 -0.8527 -0.3348
  362TMC3    C8 5480   2.816   2.367  17.176  0.0855 -0.0747  0.2745
  362TMC3    O1 5481   3.343   2.529  16.965  0.0525 -0.2122 -0.3574
  362TMC3    O2 5482   2.760   2.278  17.233  0.1578  0.6045  0.5265
  363TMC3    C1 5483   2.313   0.269   9.473  0.2382  0.3436 -0.5446
  363TMC3    C2 5484   2.452   0.260   9.475  0.4517  0.8350 -0.0738
  363TMC3    C3 5485   2.515   0.373   9.524  0.2940  0.5172 -0.0447
  363TMC3    C4 5486   2.241   0.378   9.513  0.1321 -0.4397 -0.7153
  363TMC3    C5 5487   2.317   0.483   9.567 -0.3841 -0.1693  0.1688
  363TMC3    C6 5488   2.454   0.478   9.584  0.0053  0.6945 -0.0177
  363TMC3     C 5489   2.246   0.156   9.412  0.5516  0.5686  0.2417
  363TMC3     O 5490   2.312   0.082   9.339  0.5900 -0.4877 -0.4940
  363TMC3     H 5491   2.504   0.174   9.433  0.5453 -0.6726  3.1128
  363TMC3    H1 5492   2.135   0.392   9.495 -0.0425  0.9804  1.4670
  363TMC3    H2 5493   2.514   0.556   9.629 -0.1248  1.1321 -0.6065
  363TMC3    C7 5494   2.245   0.600   9.619 -0.7175  0.3561  0.2171
  363TMC3    C8 5495   2.656   0.371   9.535  0.5583 -0.1522  0.5025
  363TMC3    O1 5496   2.308   0.704   9.625  0.5967  0.0706 -0.0107
  363TMC3    O2 5497   2.709   0.478   9.548  1.0212 -0.2903 -0.1461
  364MPD2     C 5498   1.397   4.360  10.595  0.8115  0.7405  0.2524
  364MPD2    C1 5499   1.407   4.342  10.464 -0.0393  0.2146  0.7622
  364MPD2    C2 5500   1.421   4.212  10.423 -0.1962  0.1439 -0.2534
  364MPD2    C3 5501   1.428   4.108  10.513  0.5592  0.2520  0.1278
  364MPD2    C4 5502   1.424   4.133  10.650  0.0014  0.2435 -0.1679
  364MPD2    C5 5503   1.399   4.255  10.687 -0.2956  0.6254  0.1204
  364MPD2     H 5504   1.431   4.185  10.319  1.1941  1.9315 -0.5788
  364MPD2    H1 5505   1.419   4.048  10.717  1.5355  0.6189  0.4344
  364MPD2    H2 5506   1.379   4.458  10.637  1.8323  1.1679 -0.3236
  364MPD2    H3 5507   1.385   4.281  10.791 -1.9603 -0.0182  0.0509
  364MPD2     N 5508   1.445   3.972  10.478 -0.1767  0.5487 -0.5905
  364MPD2    H5 5509   1.473   3.915  10.557  0.2264 -0.5767 -1.5487
  364MPD2    N1 5510   1.412   4.446  10.369 -0.2449 -0.4650  0.5205
  364MPD2    H7 5511   1.418   4.423  10.271  0.1779  1.3742  0.1201
  365TMC3    C1 5512   1.467   4.663  10.292  0.3323 -0.2943  0.5779
  365TMC3    C2 5513   1.510   4.608  10.170  0.1434  0.5527 -0.1099
  365TMC3    C3 5514   1.590   4.693  10.099  0.0259  0.5815 -0.1139
  365TMC3    C4 5515   1.491   0.057  10.331  0.1747  0.4276 -0.3375
  365TMC3    C5 5516   1.572   0.132  10.255 -1.0973  0.5074 -0.4078
  365TMC3    C6 5517   1.626   0.083  10.144  0.7318  0.3343 -0.0434
  365TMC3     C 5518   1.430   4.578  10.402  0.2709 -0.0631  0.6088
  365TMC3     O 5519   1.414   4.628  10.510  0.3176  1.0622  0.0345
  365TMC3     H 5520   1.458   4.520  10.134 -0.2038  1.2875 -1.4175
  365TMC3    H1 5521   1.449   0.098  10.422 -0.2104  1.6342 -1.0566
  365TMC3    H2 5522   1.678   0.150  10.078 -0.6167  1.1054 -0.3234
  365TMC3    C7 5523   1.647   0.239  10.317  0.3777 -0.6519  0.2602
  365TMC3    C8 5524   1.657   4.649   9.978 -0.7054 -0.5916  0.2339
  365TMC3    O1 5525   1.760   0.258  10.272 -0.1832  0.0559 -0.3146
  365TMC3    O2 5526   1.718   4.726   9.907 -0.0114  0.5941 -0.4909
  366MPD2     C 5527   4.665   0.125  15.088 -0.5066 -0.6794  0.9328
  366MPD2    C1 5528   4.672   0.224  15.186  0.6110 -0.0684 -0.6334
  366MPD2    C2 5529   0.050   0.300  15.196 -0.3067 -0.2159  0.1291
  366MPD2    C3 5530   0.140   0.305  15.098 -0.1154 -0.0094 -0.2461
  366MPD2    C4 5531   0.134   0.217  14.996 -0.3535 -0.2998  0.6548
  366MPD2    C5 5532   0.037   0.119  14.993  0.5211  0.0672  0.2947
  366MPD2     H 5533   0.057   0.367  15.281  0.3965 -2.8978  2.1807
  366MPD2    H1 5534   0.208   0.211  14.917 -1.0779  2.0194 -0.2099
  366MPD2    H2 5535   4.588   0.051  15.069 -0.8240  0.2254 -1.2882
  366MPD2    H3 5536   0.035   0.044  14.914  0.7557  0.0626  0.2921
  366MPD2     N 5537   0.240   0.399  15.092 -0.1539  0.3059 -0.0816
  366MPD2    H5 5538   0.305   0.385  15.015  0.6460 -1.5367  0.9277
  366MPD2    N1 5539   4.572   0.241  15.282 -0.4376 -0.8559  0.9234
  366MPD2    H7 5540   4.588   0.306  15.358  1.0487 -1.7699  1.4048
  367TMC3    C1 5541   4.352   0.294  15.344  0.7012  0.3096 -0.0348
  367TMC3    C2 5542   4.411   0.397  15.410 -0.6793  1.0346  0.2246
  367TMC3    C3 5543   4.367   0.529  15.397  0.2861  0.3505  0.0174
  367TMC3    C4 5544   4.236   0.319  15.271  0.3428  0.3810  0.2012
  367TMC3    C5 5545   4.199   0.453  15.262 -0.1631 -0.5597 -0.1930
  367TMC3    C6 5546   4.262   0.558  15.318 -0.2931 -0.3367 -0.1220
  367TMC3     C 5547   4.443   0.210  15.263  0.5004  0.8070  0.2335
  367TMC3     O 5548   4.394   0.133  15.181  0.4695 -0.2539 -0.3160
  367TMC3     H 5549   4.485   0.383  15.488  0.9173  0.9159 -1.2905
  367TMC3    H1 5550   4.190   0.241  15.212  0.9646  0.9460 -1.0347
  367TMC3    H2 5551   4.230   0.661  15.302 -0.0321 -0.5819 -2.3064
  367TMC3    C7 5552   4.063   0.480  15.267  0.2043  0.2275  0.2465
  367TMC3    C8 5553   4.431   0.632  15.486 -0.7908 -0.2441  0.4742
  367TMC3    O1 5554   4.019   0.594  15.265  0.2206  0.4811  0.4303
  367TMC3    O2 5555   4.532   0.591  15.537  0.3505  0.1224 -0.1363
  368MPD2     C 5556   1.090   1.976  13.634  0.3885 -0.1121 -0.7493
  368MPD2    C1 5557   1.071   2.069  13.537  0.0369  0.1330 -0.0200
  368MPD2    C2 5558   1.150   2.056  13.425 -1.0442  0.0492 -0.1366
  368MPD2    C3 5559   1.239   1.952  13.407 -1.2732 -0.8473  0.2118
  368MPD2    C4 5560   1.264   1.868  13.514  0.4110 -0.4262 -0.7996
  368MPD2    C5 5561   1.194   1.890  13.625 -0.3488 -0.3918  0.6882
  368MPD2     H 5562   1.119   2.121  13.343 -2.0815 -0.8803 -0.4785
  368MPD2    H1 5563   1.346   1.797  13.519  0.9261  0.2411  0.2086
  368MPD2    H2 5564   1.034   1.979  13.728  2.9614 -2.3062  0.8627
  368MPD2    H3 5565   1.219   1.819  13.703  1.3249 -0.4508  0.1006
  368MPD2     N 5566   1.309   1.941  13.288  0.5196 -0.0428  0.3421
  368MPD2    H5 5567   1.395   1.887  13.287  1.8522  2.1557 -1.9108
  368MPD2    N1 5568   0.979   2.171  13.555 -0.3926  0.0249  0.8964
  368MPD2    H7 5569   0.920   2.165  13.638 -2.7323  0.2743 -0.7615
  369TMC3    C1 5570   0.867   2.374  13.520 -0.1226 -0.3495  0.5455
  369TMC3    C2 5571   0.889   2.504  13.480 -0.1589 -0.3297 -1.0986
  369TMC3    C3 5572   0.781   2.584  13.443 -0.4171 -0.6619  0.1171
  369TMC3    C4 5573   0.737   2.330  13.520  0.0356 -0.6136 -0.2588
  369TMC3    C5 5574   0.636   2.411  13.476 -0.1479 -0.1855  0.6899
  369TMC3    C6 5575   0.652   2.543  13.451  0.3251  0.7274  0.1872
  369TMC3     C 5576   0.978   2.288  13.483 -0.1893 -0.0930 -0.2278
  369TMC3     O 5577   1.054   2.324  13.392  0.0148 -0.2896  0.5405
  369TMC3     H 5578   0.993   2.533  13.486  0.2990 -1.9355 -1.3562
  369TMC3    H1 5579   0.714   2.225  13.537 -1.3194 -0.4697 -1.2073
  369TMC3    H2 5580   0.570   2.599  13.407 -0.1882 -1.4190 -1.6136
  369TMC3    C7 5581   0.504   2.348  13.485 -0.2867 -0.2101 -0.1404
  369TMC3    C8 5582   0.815   2.678  13.347 -0.0395  0.4323  1.0126
  369TMC3    O1 5583   0.487   2.269  13.577  0.7084 -0.3927  1.0436
  369TMC3    O2 5584   0.727   2.754  13.301  0.4415  0.1735 -0.2154
  370TMC3    C1 5585   0.073   3.157  16.316 -0.2804  0.0629 -0.2966
  370TMC3    C2 5586   4.715   3.144  16.414 -0.0398 -0.1811 -1.4341
  370TMC3    C3 5587   4.617   3.047  16.410 -0.5112  0.5636  0.4788
  370TMC3    C4 5588   0.072   3.077  16.209  0.4203 -0.7134  0.2098
  370TMC3    C5 5589   4.707   2.990  16.199 -0.3423 -0.6128 -0.0356
  370TMC3    C6 5590   4.616   2.973  16.294  0.0438 -0.3060 -0.2265
  370TMC3     C 5591   0.201   3.213  16.361  1.0734  0.2794 -0.2849
  370TMC3     O 5592   0.226   3.212  16.478 -0.1806 -0.2167 -0.1925
  370TMC3     H 5593   4.724   3.200  16.507 -0.1888 -2.5584  0.0262
  370TMC3    H1 5594   0.148   3.071  16.132  0.4135 -2.2644  0.3161
  370TMC3    H2 5595   4.535   2.901  16.286 -0.5515  0.8044 -4.1545
  370TMC3    C7 5596   4.710   2.881  16.107  0.0067  0.4084  0.0511
  370TMC3    C8 5597   4.617   2.957  16.521 -0.7732 -0.2803 -0.1461
  370TMC3    O1 5598   4.601   2.833  16.074 -0.1471  0.3252 -0.4443
  370TMC3    O2 5599   4.622   2.839  16.497  0.1572 -0.7498 -0.2154
  371TMC3    C1 5600   1.438   1.324  15.702 -0.2731 -0.0108 -0.2760
  371TMC3    C2 5601   1.307   1.337  15.729  0.3572  0.0834 -0.2400
  371TMC3    C3 5602   1.259   1.450  15.786 -0.7766 -0.4876  1.1658
  371TMC3    C4 5603   1.526   1.427  15.729  0.4651 -0.2817 -0.0794
  371TMC3    C5 5604   1.475   1.533  15.804 -0.1358 -0.1219 -0.1809
  371TMC3    C6 5605   1.344   1.547  15.831  0.6333 -0.6950  0.1610
  371TMC3     C 5606   1.488   1.210  15.635  0.5622  0.8528  0.1488
  371TMC3     O 5607   1.599   1.223  15.590 -0.3419 -0.1425  0.2749
  371TMC3     H 5608   1.240   1.258  15.696  0.1306 -0.1335  0.7253
  371TMC3    H1 5609   1.633   1.415  15.715  0.7477  1.6807  0.3813
  371TMC3    H2 5610   1.312   1.634  15.887  0.8587 -0.3744 -0.2102
  371TMC3    C7 5611   1.546   1.659  15.797 -0.0384  0.2866 -0.6771
  371TMC3    C8 5612   1.142   1.505  15.718  0.1318 -0.1633  0.7461
  371TMC3    O1 5613   1.627   1.674  15.705  1.1384  0.1784  0.4144
  371TMC3    O2 5614   1.096   1.443  15.625  0.4293 -0.2574  0.6318
  372MPD2     C 5615   1.358   2.185  13.942 -0.1017  0.0948  0.0609
  372MPD2    C1 5616   1.441   2.075  13.944 -0.2396 -0.0243  0.6711
  372MPD2    C2 5617   1.400   1.945  13.967  0.4254  0.3105  0.5222
  372MPD2    C3 5618   1.263   1.926  13.980 -0.0930 -0.6443  0.0694
  372MPD2    C4 5619   1.174   2.033  13.960  0.4844 -0.1721  0.0978
  372MPD2    C5 5620   1.223   2.159  13.938  0.0272 -0.8103 -0.6357
  372MPD2     H 5621   1.473   1.865  13.971  0.2614  0.1623  0.5583
  372MPD2    H1 5622   1.066   2.030  13.964  0.5172  1.6145  2.1384
  372MPD2    H2 5623   1.388   2.287  13.959  0.5115 -0.1445  0.4066
  372MPD2    H3 5624   1.149   2.238  13.928 -1.1698 -1.7614  0.7313
  372MPD2     N 5625   1.209   1.797  13.991 -0.0818 -0.0118 -0.0349
  372MPD2    H5 5626   1.269   1.720  13.962  0.5546  1.0942 -1.6226
  372MPD2    N1 5627   1.587   2.087  13.926 -0.3418 -0.6369 -0.0346
  372MPD2    H7 5628   1.646   2.010  13.954 -1.4559 -1.8617 -1.0706
  373TMC3    C1 5629   1.039   1.621  14.029 -0.4267  0.5761  1.1222
  373TMC3    C2 5630   0.947   1.587  14.128 -0.4597 -0.0215 -0.1210
  373TMC3    C3 5631   0.920   1.456  14.155  0.3281 -0.2149  0.0948
  373TMC3    C4 5632   1.090   1.530  13.939  0.5398 -1.0547 -0.0893
  373TMC3    C5 5633   1.053   1.400  13.978 -0.0922  0.4927 -0.9079
  373TMC3    C6 5634   0.986   1.362  14.088  0.0935  0.0235 -0.4799
  373TMC3     C 5635   1.083   1.769  14.046 -0.1436  0.1152  0.6922
  373TMC3     O 5636   1.016   1.835  14.124 -0.1125 -0.3824 -0.1588
  373TMC3     H 5637   0.897   1.666  14.183  0.2851  1.4087 -1.4965
  373TMC3    H1 5638   1.165   1.552  13.863  0.0422  0.0964 -0.2437
  373TMC3    H2 5639   0.986   1.260  14.125  1.2388 -0.5932 -2.1867
  373TMC3    C7 5640   1.130   1.293  13.914  0.1818  0.2045  0.0482
  373TMC3    C8 5641   0.909   1.427  14.295 -1.0662  0.3383 -0.4953
  373TMC3    O1 5642   1.233   1.329  13.862  0.4513 -0.3195  0.1988
  373TMC3    O2 5643   0.801   1.432  14.352  0.0564 -0.6581  0.2310
  374TMC3    C1 5644   2.050   2.890   9.605 -0.1136  0.6111 -0.0651
  374TMC3    C2 5645   2.183   2.914   9.595  0.9043  0.2796 -0.1869
  374TMC3    C3 5646   2.229   2.989   9.490  0.3541 -0.1687 -0.6430
  374TMC3    C4 5647   1.960   2.935   9.510 -0.0037 -0.0697 -0.4942
  374TMC3    C5 5648   2.017   2.994   9.398 -0.4846 -0.1805  0.5296
  374TMC3    C6 5649   2.150   3.027   9.388 -0.4783  0.2208 -0.4480
  374TMC3     C 5650   2.001   2.862   9.739  0.7098  0.2059  0.2178
  374TMC3     O 5651   2.070   2.909   9.828 -0.2033 -0.7521  0.5806
  374TMC3     H 5652   2.245   2.869   9.672 -1.1963  0.0640  1.3728
  374TMC3    H1 5653   1.854   2.919   9.522  0.1947 -0.3523  0.9098
  374TMC3    H2 5654   2.187   3.096   9.314 -0.3862  0.2554 -0.3690
  374TMC3    C7 5655   1.951   2.993   9.273  0.3519  0.1518 -0.2695
  374TMC3    C8 5656   2.368   3.024   9.476  0.3100 -0.4866 -0.2095
  374TMC3    O1 5657   1.990   3.076   9.190 -0.0006 -0.0786  0.5119
  374TMC3    O2 5658   2.404   3.088   9.377  0.2008  0.2786  0.8043
  375MPD2     C 5659   1.706   3.276  17.322 -0.0109 -0.0647 -0.4220
  375MPD2    C1 5660   1.631   3.227  17.220 -0.0422  0.0058 -0.6645
  375MPD2    C2 5661   1.697   3.169  17.106 -0.2539  0.1745  0.0908
  375MPD2    C3 5662   1.834   3.154  17.110 -0.8146  0.1967  0.3521
  375MPD2    C4 5663   1.898   3.188  17.221  0.1011  0.2235 -0.8397
  375MPD2    C5 5664   1.838   3.247  17.328  0.5808  0.3301 -0.5510
  375MPD2     H 5665   1.634   3.123  17.030 -1.0141 -1.8310  1.9100
  375MPD2    H1 5666   2.004   3.169  17.233  0.3961  1.8260 -0.8460
  375MPD2    H2 5667   1.662   3.331  17.405 -1.0551 -2.1340  0.3935
  375MPD2    H3 5668   1.910   3.277  17.404  0.1706 -0.0513 -0.0068
  375MPD2     N 5669   1.910   3.094  17.011  0.1853 -0.4807  0.4784
  375MPD2    H5 5670   2.011   3.101  17.020  0.2177  0.3512 -0.5646
  375MPD2    N1 5671   1.495   3.249  17.206 -0.4230 -0.4124 -0.4233
  375MPD2    H7 5672   1.453   3.207  17.123 -1.7601 -1.7544  0.9337
  376TMC3    C1 5673   1.965   3.046  16.787  0.5583 -0.3857 -0.7532
  376TMC3    C2 5674   2.100   3.043  16.806 -0.1478  0.1438  0.4509
  376TMC3    C3 5675   2.184   3.036  16.696 -0.0879  0.8085 -0.0901
  376TMC3    C4 5676   1.918   3.054  16.658 -0.1708  0.0091 -0.0096
  376TMC3    C5 5677   2.005   3.063  16.553  0.5902 -0.5384 -0.6965
  376TMC3    C6 5678   2.138   3.041  16.571  0.4397  0.2338 -0.0919
  376TMC3     C 5679   1.864   3.070  16.884  0.2108  0.3753 -0.0360
  376TMC3     O 5680   1.749   3.060  16.848 -0.0452 -0.4761 -0.1703
  376TMC3     H 5681   2.135   3.054  16.908 -1.1369 -1.5961  0.9955
  376TMC3    H1 5682   1.814   3.061  16.629 -0.3440  0.9529  0.8726
  376TMC3    H2 5683   2.194   3.044  16.478  1.7842 -0.3875  0.6950
  376TMC3    C7 5684   1.942   3.036  16.421 -0.1740  0.0777 -0.0778
  376TMC3    C8 5685   2.309   3.113  16.708 -0.4782  0.2662  0.0932
  376TMC3    O1 5686   1.827   3.067  16.402  0.1815 -0.1289  0.1184
  376TMC3    O2 5687   2.331   3.205  16.630 -0.1761 -0.3889 -0.0963
  377MPD2     C 5688   0.343   2.747  13.377  0.0976 -0.3628 -0.0135
  377MPD2    C1 5689   0.236   2.753  13.285 -0.1398 -0.3188 -0.4530
  377MPD2    C2 5690   0.110   2.700  13.323  0.9013 -0.0425  0.0615
  377MPD2    C3 5691   0.091   2.651  13.450 -0.4457  0.2957  0.0451
  377MPD2    C4 5692   0.197   2.653  13.540 -0.0448  0.3307  0.7849
  377MPD2    C5 5693   0.321   2.693  13.503 -0.7435 -0.1195 -0.1225
  377MPD2     H 5694   0.024   2.701  13.257  1.7614 -1.8227 -1.0986
  377MPD2    H1 5695   0.192   2.621  13.644 -2.4319  1.5386  1.0402
  377MPD2    H2 5696   0.444   2.774  13.347 -0.4174  0.4004 -1.0663
  377MPD2    H3 5697   0.397   2.707  13.578  0.7439  1.5405 -1.9317
  377MPD2     N 5698   4.704   2.612  13.512 -0.7303  0.5168 -0.0758
  377MPD2    H5 5699   4.684   2.611  13.612 -0.1108 -1.4076  0.0136
  377MPD2    N1 5700   0.262   2.810  13.156  0.1689  0.0426 -0.4706
  377MPD2    H7 5701   0.358   2.833  13.131  0.7182  0.1138  1.6240
  378TMC3    C1 5702   0.195   2.952  12.720 -0.1808 -0.3577 -0.6419
  378TMC3    C2 5703   0.146   2.930  12.853 -0.1492 -0.2662  0.4981
  378TMC3    C3 5704   0.228   2.874  12.938 -1.1412 -0.8294 -0.1388
  378TMC3    C4 5705   0.326   2.933  12.690  0.4910  0.3936 -0.0222
  378TMC3    C5 5706   0.411   2.885  12.787  0.3477  0.5597  0.4818
  378TMC3    C6 5707   0.363   2.856  12.913  0.3281  0.4434 -0.0519
  378TMC3     C 5708   0.102   3.006  12.622 -0.0828 -0.1905 -0.3886
  378TMC3     O 5709   4.723   3.033  12.659  0.4529  0.4050 -0.0528
  378TMC3     H 5710   0.043   2.956  12.877  0.9196  2.2681  2.4283
  378TMC3    H1 5711   0.361   2.956  12.590  1.3090 -0.6974  0.0152
  378TMC3    H2 5712   0.418   2.785  12.975  1.6652  1.7899  0.3060
  378TMC3    C7 5713   0.539   2.844  12.747  0.0628 -0.1078  0.5234
  378TMC3    C8 5714   0.167   2.819  13.059  0.4235 -0.5645 -0.3290
  378TMC3    O1 5715   0.596   2.766  12.822 -0.0175 -0.1135  0.0817
  378TMC3    O2 5716   0.045   2.814  13.070  0.0022  0.6512 -0.2281
  379MPD2     C 5717   0.628   1.378  16.218 -0.0758  0.3078  0.1945
  379MPD2    C1 5718   0.541   1.274  16.223 -0.0186 -0.1288  0.0402
  379MPD2    C2 5719   0.556   1.167  16.313 -0.4932 -0.4951  0.9631
  379MPD2    C3 5720   0.682   1.159  16.373 -0.0974 -0.0927  0.4212
  379MPD2    C4 5721   0.777   1.259  16.365 -0.0310  0.3636  0.4960
  379MPD2    C5 5722   0.736   1.377  16.300  0.0232 -0.5808 -0.2959
  379MPD2     H 5723   0.484   1.088  16.329 -0.7528 -0.6356 -0.8851
  379MPD2    H1 5724   0.872   1.256  16.417 -1.1481 -0.0008  2.5142
  379MPD2    H2 5725   0.600   1.462  16.157  0.3815 -0.3141 -0.8758
  379MPD2    H3 5726   0.803   1.462  16.303 -2.2412  1.1349  1.9621
  379MPD2     N 5727   0.730   1.050  16.445  0.6810  0.3705  0.4154
  379MPD2    H5 5728   0.825   1.054  16.480  0.1271 -1.4041  2.0894
  379MPD2    N1 5729   0.445   1.273  16.125 -0.1393  0.1524 -0.5922
  379MPD2    H7 5730   0.462   1.344  16.054  1.1511 -0.9432 -1.3790
  380TMC3    C1 5731   0.281   1.192  15.985 -0.7023 -0.2684 -0.2038
  380TMC3    C2 5732   0.358   1.113  15.900  1.0575  0.4975 -0.8479
  380TMC3    C3 5733   0.303   1.043  15.794 -0.8180 -0.1125  0.3032
  380TMC3    C4 5734   0.145   1.185  15.977  0.0837 -0.0129 -0.5094
  380TMC3    C5 5735   0.094   1.126  15.868 -0.5908  0.8218 -0.4817
  380TMC3    C6 5736   0.169   1.048  15.778 -0.1935  0.7491 -0.0698
  380TMC3     C 5737   0.334   1.194  16.117 -0.2015  0.2740  0.1065
  380TMC3     O 5738   0.289   1.119  16.200 -0.5027  0.7777  0.2295
  380TMC3     H 5739   0.465   1.110  15.919  1.0952  0.6273 -1.0461
  380TMC3    H1 5740   0.085   1.243  16.048  0.5007 -0.7897  0.4720
  380TMC3    H2 5741   0.125   0.995  15.694  2.0437  2.3182 -2.2225
  380TMC3    C7 5742   4.688   1.106  15.877 -0.3573  0.7684 -0.4378
  380TMC3    C8 5743   0.386   0.952  15.718 -0.3079 -0.1136 -0.3893
  380TMC3    O1 5744   4.620   1.194  15.925  0.1854  0.2044  0.5642
  380TMC3    O2 5745   0.367   0.955  15.595  0.1517  0.4265  0.4475
  381TMC3    C1 5746   4.451   2.557  16.444  0.2404 -0.1886  0.4079
  381TMC3    C2 5747   4.569   2.588  16.380 -0.5283 -0.1392 -0.5558
  381TMC3    C3 5748   4.673   2.503  16.397  1.3641  0.0222  0.4171
  381TMC3    C4 5749   4.435   2.463  16.540 -0.4536 -0.2682 -0.3407
  381TMC3    C5 5750   4.543   2.385  16.551 -0.2061 -0.1659 -0.5079
  381TMC3    C6 5751   4.656   2.394  16.477  0.1729 -0.5024 -0.1370
  381TMC3     C 5752   4.346   2.646  16.416  0.1032  0.9053  0.0825
  381TMC3     O 5753   4.340   2.686  16.299 -0.7242 -0.0135  0.0030
  381TMC3     H 5754   4.570   2.668  16.307  0.9948  1.3454  1.0627
  381TMC3    H1 5755   4.335   2.434  16.570  0.1760 -0.1308  1.8760
  381TMC3    H2 5756   0.005   2.326  16.487  0.4934 -0.1930 -0.7799
  381TMC3    C7 5757   4.542   2.285  16.656 -0.5466  0.6289 -0.3989
  381TMC3    C8 5758   0.074   2.546  16.362  0.2402 -0.3678 -0.7443
  381TMC3    O1 5759   4.623   2.193  16.655  0.4049 -0.7006 -0.0951
  381TMC3    O2 5760   0.148   2.457  16.321 -0.2679  0.1582 -0.1360
  382MPD2     C 5761   4.469   4.408  17.397  0.0286 -1.1939 -1.1917
  382MPD2    C1 5762   4.343   4.429  17.367  0.1506  0.5254  0.5473
  382MPD2    C2 5763   4.258   4.322  17.393  0.3814  0.1685  0.6530
  382MPD2    C3 5764   4.308   4.200  17.439 -0.2710 -0.7474 -0.1867
  382MPD2    C4 5765   4.437   4.197  17.488 -0.9288  0.0633 -0.2836
  382MPD2    C5 5766   4.520   4.302  17.460 -0.0428  0.3359  0.0688
  382MPD2     H 5767   4.152   4.337  17.377  0.8589  3.8331  0.9918
  382MPD2    H1 5768   4.484   4.117  17.546 -0.1462 -0.8290 -2.1651
  382MPD2    H2 5769   4.553   4.471  17.368  0.4908 -1.0820  0.3933
  382MPD2    H3 5770   4.626   4.288  17.471 -0.3264 -1.3184  0.6798
  382MPD2     N 5771   4.227   4.083  17.457  0.3446 -0.4174 -0.2603
  382MPD2    H5 5772   4.277   4.011  17.508 -0.5276 -0.7391  0.1231
  382MPD2    N1 5773   4.283   4.550  17.329 -0.2292 -0.0217  0.3556
  382MPD2    H7 5774   4.183   4.561  17.319 -0.0736 -2.7905 -4.2084
  383TMC3    C1 5775   4.036   3.944  17.446  0.2104  0.1048 -0.2294
  383TMC3    C2 5776   3.959   3.893  17.349 -0.1428  0.6244 -0.3375
  383TMC3    C3 5777   3.909   3.766  17.369 -0.1446  0.4009 -0.0670
  383TMC3    C4 5778   4.076   3.876  17.558  0.1375 -0.3799 -0.6547
  383TMC3    C5 5779   4.027   3.750  17.570  0.8139 -0.1888  1.0741
  383TMC3    C6 5780   3.939   3.691  17.477 -0.0594  0.4260 -0.6194
  383TMC3     C 5781   4.102   4.066  17.413 -0.2201  0.6593  0.1660
  383TMC3     O 5782   4.042   4.140  17.336 -0.4665  0.0063  0.0667
  383TMC3     H 5783   3.932   3.947  17.259 -0.5983  1.3954  0.2661
  383TMC3    H1 5784   4.118   3.933  17.640 -0.2079 -0.9781 -0.0638
  383TMC3    H2 5785   3.909   3.588  17.490 -0.7913  0.6102 -0.8992
  383TMC3    C7 5786   4.060   3.666  17.680  0.0434 -0.3976 -0.7240
  383TMC3    C8 5787   3.802   3.718  17.280 -0.4099  0.1937  0.1995
  383TMC3    O1 5788   3.978   3.576  17.695  0.0333 -0.2081  0.1074
  383TMC3    O2 5789   3.736   3.797  17.219  0.0817 -0.0387 -0.8849
  384MPD2     C 5790   0.656   1.225  11.949 -0.1675 -0.8454  0.3516
  384MPD2    C1 5791   0.721   1.226  12.071 -0.0009 -0.0654  0.2794
  384MPD2    C2 5792   0.849   1.179  12.062  0.5525  0.0347 -0.7615
  384MPD2    C3 5793   0.905   1.125  11.947 -0.0608  0.3718 -0.6596
  384MPD2    C4 5794   0.835   1.117  11.831 -0.0953 -0.6509  0.1954
  384MPD2    C5 5795   0.708   1.172  11.834  0.4960 -0.3951  0.6269
  384MPD2     H 5796   0.894   1.170  12.160  0.4278 -1.3642 -0.8283
  384MPD2    H1 5797   0.874   1.083  11.735  0.6058  1.9215 -0.4094
  384MPD2    H2 5798   0.558   1.266  11.930 -0.9378 -1.9882  1.8935
  384MPD2    H3 5799   0.644   1.176  11.746  1.1376 -3.1650  0.0348
  384MPD2     N 5800   1.042   1.076  11.959  0.4413 -0.2378 -0.0736
  384MPD2    H5 5801   1.084   1.078  12.051  0.0278 -0.6716  0.1248
  384MPD2    N1 5802   0.664   1.267  12.195  0.4692  0.1691 -0.0186
  384MPD2    H7 5803   0.725   1.249  12.274  1.4291 -0.9886 -1.0378
  385TMC3    C1 5804   1.227   0.933  11.915  0.0064  0.3986 -0.6718
  385TMC3    C2 5805   1.233   0.793  11.891 -0.4068 -0.4223  0.8597
  385TMC3    C3 5806   1.281   0.717  11.990 -0.5291 -0.6481  0.0783
  385TMC3    C4 5807   1.277   0.990  12.022  0.5256 -0.6839  0.6678
  385TMC3    C5 5808   1.317   0.918  12.125 -0.4651  0.3298  0.3471
  385TMC3    C6 5809   1.308   0.776  12.111  0.0715 -0.7384  0.4020
  385TMC3     C 5810   1.103   0.989  11.862 -0.2801 -0.0709  0.6914
  385TMC3     O 5811   1.059   0.946  11.757 -0.2426 -0.1541 -0.0590
  385TMC3     H 5812   1.187   0.756  11.800  2.0539 -3.9161  1.0373
  385TMC3    H1 5813   1.290   1.097  12.031 -2.1798 -0.3082  0.1279
  385TMC3    H2 5814   1.338   0.725  12.202 -1.2069  0.0340  1.2569
  385TMC3    C7 5815   1.237   0.971  12.244  0.5737  0.1315  0.4376
  385TMC3    C8 5816   1.320   0.581  11.976 -0.1322 -0.1596 -0.1772
  385TMC3    O1 5817   1.160   1.065  12.218 -0.3035 -0.3745 -0.0061
  385TMC3    O2 5818   1.316   0.509  12.077 -0.6327  0.8507  0.3905
  386TMC3    C1 5819   1.626   3.164  11.960  0.0606  0.3170  0.3804
  386TMC3    C2 5820   1.669   3.262  11.880 -0.0326  0.3841  0.1026
  386TMC3    C3 5821   1.594   3.377  11.858  0.0941 -0.1637 -0.1491
  386TMC3    C4 5822   1.520   3.180  12.043 -0.4849  0.1181  0.2131
  386TMC3    C5 5823   1.450   3.299  12.031 -0.0478 -0.2058  0.2140
  386TMC3    C6 5824   1.478   3.393  11.930 -0.1508  0.0683 -0.1476
  386TMC3     C 5825   1.686   3.030  11.953  0.6369 -0.4776 -0.0194
  386TMC3     O 5826   1.797   3.015  11.899 -0.3650 -0.6718  0.1604
  386TMC3     H 5827   1.759   3.250  11.821 -0.9757 -2.2196 -0.8396
  386TMC3    H1 5828   1.492   3.104  12.115 -1.6979  0.6841  0.3393
  386TMC3    H2 5829   1.424   3.484  11.905  1.3585  1.1751  0.5966
  386TMC3    C7 5830   1.337   3.308  12.122  0.3996 -0.2601  0.1395
  386TMC3    C8 5831   1.585   3.418  11.717  0.2412  0.2161 -0.5667
  386TMC3    O1 5832   1.348   3.246  12.227 -0.3443 -0.0884 -0.0896
  386TMC3    O2 5833   1.477   3.440  11.668 -0.5035 -0.0793  0.4287
  387MPD2     C 5834   4.271   3.765   9.823 -0.2236  0.1969  0.4304
  387MPD2    C1 5835   4.259   3.704   9.946 -0.0476 -0.2167  0.1188
  387MPD2    C2 5836   4.223   3.570   9.952  0.3140 -0.6593  0.7430
  387MPD2    C3 5837   4.201   3.489   9.845  0.4304 -0.3482 -0.4774
  387MPD2    C4 5838   4.216   3.546   9.721  0.0316  0.2504  0.0562
  387MPD2    C5 5839   4.257   3.677   9.717 -0.4946 -0.6073  0.3333
  387MPD2     H 5840   4.201   3.531  10.051  0.9215 -1.3656  0.6015
  387MPD2    H1 5841   4.200   3.485   9.633 -0.4269 -0.9924  0.9999
  387MPD2    H2 5842   4.301   3.867   9.801  1.8093 -0.5476 -0.2736
  387MPD2    H3 5843   4.273   3.721   9.619  0.3248  2.9679  2.0796
  387MPD2     N 5844   4.184   3.356   9.877  1.0249  0.0848 -0.2147
  387MPD2    H5 5845   4.215   3.325   9.969 -0.4209  1.3698  0.7025
  387MPD2    N1 5846   4.290   3.779  10.061 -0.7237 -0.0828  0.3838
  387MPD2    H7 5847   4.305   3.729  10.148  3.3291 -2.3296 -1.6318
  388TMC3    C1 5848   4.424   3.942  10.176 -0.2558  0.0093 -0.2966
  388TMC3    C2 5849   4.415   4.052  10.256  0.0573 -0.0568  0.0996
  388TMC3    C3 5850   4.493   4.052  10.369 -0.3894 -0.3057 -0.3720
  388TMC3    C4 5851   4.500   3.832  10.202 -0.1262  0.7051  0.0987
  388TMC3    C5 5852   4.575   3.839  10.310 -0.3868 -0.4232  0.4153
  388TMC3    C6 5853   4.570   3.942  10.399  0.0416 -0.5571  0.3093
  388TMC3     C 5854   4.335   3.914  10.065  0.2052 -0.6121  0.8021
  388TMC3     O 5855   4.312   4.014   9.993 -0.1686 -0.4273  0.3881
  388TMC3     H 5856   4.332   4.117  10.232 -0.2554  0.7475  3.4372
  388TMC3    H1 5857   4.524   3.775  10.113  0.5953 -2.9317  2.6411
  388TMC3    H2 5858   4.629   3.943  10.490 -0.0026 -0.6644  0.3406
  388TMC3    C7 5859   4.609   3.713  10.371  0.1236  0.8300  0.2626
  388TMC3    C8 5860   4.478   4.161  10.471  0.5650  0.0021  0.0880
  388TMC3    O1 5861   4.606   3.715  10.496 -0.5204  0.0455 -0.1824
  388TMC3    O2 5862   4.577   4.177  10.546 -0.5520 -0.4040 -0.1005
  389MPD2     C 5863   3.085   1.673  11.051 -0.2812 -0.4691 -1.1313
  389MPD2    C1 5864   3.010   1.576  10.983 -0.2645  0.0960  0.0245
  389MPD2    C2 5865   2.960   1.468  11.057 -0.2532 -0.0408 -0.0911
  389MPD2    C3 5866   2.990   1.456  11.197  0.0175 -0.8420  0.0428
  389MPD2    C4 5867   3.068   1.553  11.260 -0.7758  0.0065  0.1951
  389MPD2    C5 5868   3.118   1.658  11.185 -0.4105 -0.4272  0.0105
  389MPD2     H 5869   2.898   1.388  11.019 -0.9640  1.2583 -1.6662
  389MPD2    H1 5870   3.100   1.546  11.363  0.8386 -0.5041 -0.3469
  389MPD2    H2 5871   3.130   1.757  11.000 -1.0184  1.3628  1.2372
  389MPD2    H3 5872   3.186   1.729  11.231 -0.5133 -1.3305  1.5514
  389MPD2     N 5873   2.954   1.335  11.269 -0.8108 -0.4818 -0.1350
  389MPD2    H5 5874   2.992   1.323  11.362 -3.3992  1.8470  1.2129
  389MPD2    N1 5875   3.005   1.599  10.846  0.5029 -0.2338  0.1548
  389MPD2    H7 5876   3.059   1.681  10.818 -0.0665  1.0856  2.9009
  390TMC3    C1 5877   2.858   1.123  11.337 -0.0884 -0.4054  0.4184
  390TMC3    C2 5878   2.834   0.988  11.300  0.7570 -0.3932  0.0917
  390TMC3    C3 5879   2.781   0.901  11.388 -0.0862  0.0284 -0.3985
  390TMC3    C4 5880   2.807   1.175  11.455  0.1221  0.4855 -0.1074
  390TMC3    C5 5881   2.743   1.087  11.533 -0.2305 -0.0179 -0.5717
  390TMC3    C6 5882   2.744   0.949  11.513  0.2934  0.0202 -0.3657
  390TMC3     C 5883   2.890   1.218  11.231  0.4891 -0.4655 -0.4221
  390TMC3     O 5884   2.856   1.182  11.119  0.0300  0.1258 -0.0401
  390TMC3     H 5885   2.876   0.945  11.210 -0.4415 -0.4569 -0.4337
  390TMC3    H1 5886   2.815   1.283  11.465  0.9982  0.5116 -1.0581
  390TMC3    H2 5887   2.709   0.887  11.595  0.0977 -1.6563 -1.7387
  390TMC3    C7 5888   2.639   1.139  11.617  0.3627 -0.3950 -0.5167
  390TMC3    C8 5889   2.733   0.774  11.340 -0.2958  0.7002 -0.0111
  390TMC3    O1 5890   2.649   1.258  11.655  0.1168 -0.0409  0.4688
  390TMC3    O2 5891   2.726   0.756  11.219  0.2554  0.2114 -0.2398
  391MPD2     C 5892   2.527   2.969  10.986  0.1608  0.7520  0.0148
  391MPD2    C1 5893   2.605   3.080  10.960 -0.1230  0.1048 -0.0506
  391MPD2    C2 5894   2.671   3.090  10.835  0.1258 -0.3565 -0.6959
  391MPD2    C3 5895   2.649   3.003  10.732 -0.0656  0.9845 -0.2905
  391MPD2    C4 5896   2.559   2.904  10.753  0.4403 -0.1441 -0.3283
  391MPD2    C5 5897   2.495   2.883  10.879 -0.4618 -0.1984  0.6651
  391MPD2     H 5898   2.743   3.168  10.814 -1.6787  1.2767 -0.9111
  391MPD2    H1 5899   2.530   2.833  10.676 -2.3555  0.5796  0.0435
  391MPD2    H2 5900   2.490   2.944  11.085  2.0325  0.8358  0.7426
  391MPD2    H3 5901   2.429   2.799  10.893  0.6568 -0.7742  2.4304
  391MPD2     N 5902   2.722   3.014  10.609  0.2003 -0.7133 -0.0851
  391MPD2    H5 5903   2.779   3.097  10.599  0.9918 -1.1780  0.5505
  391MPD2    N1 5904   2.650   3.156  11.070 -0.3583 -0.2921 -0.1081
  391MPD2    H7 5905   2.627   3.116  11.161  0.1418  0.3263  0.2825
  392TMC3    C1 5906   2.780   2.989  10.387  0.3283  0.4482  0.0953
  392TMC3    C2 5907   2.737   2.943  10.268  0.9724  0.6615  0.0461
  392TMC3    C3 5908   2.795   2.987  10.150 -0.2450 -0.1680  0.4434
  392TMC3    C4 5909   2.879   3.085  10.399  0.4176 -0.1573 -0.8022
  392TMC3    C5 5910   2.950   3.107  10.282 -0.4094  0.6455 -0.1029
  392TMC3    C6 5911   2.910   3.068  10.154  0.1340 -0.3697  0.0649
  392TMC3     C 5912   2.713   2.930  10.502  0.0709  0.4647 -0.7722
  392TMC3     O 5913   2.664   2.822  10.494 -0.0193  0.1809 -0.0375
  392TMC3     H 5914   2.649   2.879  10.266  1.5549 -0.1208 -0.4567
  392TMC3    H1 5915   2.927   3.103  10.495 -3.0549 -0.8042  1.0646
  392TMC3    H2 5916   2.966   3.097  10.065 -0.5028 -0.4054 -0.3474
  392TMC3    C7 5917   3.055   3.207  10.301 -0.3141 -0.0732  0.2108
  392TMC3    C8 5918   2.729   2.964  10.023 -0.3813  0.1111 -0.3861
  392TMC3    O1 5919   3.061   3.269  10.401 -0.3778 -0.1055 -0.1116
  392TMC3    O2 5920   2.627   2.896  10.022 -0.6738  0.5582 -0.4310
  393TMC3    C1 5921   1.710   1.188  10.911 -0.9421  0.2093 -0.3782
  393TMC3    C2 5922   1.574   1.173  10.891 -0.6966 -0.1494  0.7851
  393TMC3    C3 5923   1.521   1.041  10.888 -0.6902 -0.0503  0.4785
  393TMC3    C4 5924   1.791   1.080  10.926 -1.0801  0.0876 -0.2121
  393TMC3    C5 5925   1.739   0.950  10.923 -0.0731 -0.8546  0.5383
  393TMC3    C6 5926   1.605   0.933  10.907  0.2824 -0.2017 -0.0998
  393TMC3     C 5927   1.751   1.322  10.898 -0.8461  0.7255  0.5179
  393TMC3     O 5928   1.684   1.408  10.952  0.3454 -0.1079  0.3881
  393TMC3     H 5929   1.511   1.259  10.870  1.6101  0.9506 -1.6407
  393TMC3    H1 5930   1.896   1.099  10.942 -0.9491 -0.5291 -0.3434
  393TMC3    H2 5931   1.558   0.837  10.892  1.2546 -0.8082  0.7224
  393TMC3    C7 5932   1.815   0.845  10.853 -0.0668  0.1211  0.6943
  393TMC3    C8 5933   1.402   1.019  10.817 -0.9104 -0.3098  0.1759
  393TMC3    O1 5934   1.754   0.753  10.800  0.4760  0.0353  0.1320
  393TMC3    O2 5935   1.352   0.906  10.835  0.4619  0.0505  0.1671
  394TMC3    C1 5936   2.910   1.582  10.622  0.1055  0.3596  0.0327
  394TMC3    C2 5937   2.800   1.547  10.544  0.2756  0.5583  0.8953
  394TMC3    C3 5938   2.784   1.615  10.432 -0.4032 -0.7098  0.2500
  394TMC3    C4 5939   3.011   1.673  10.583 -0.2992 -0.8910  0.9367
  394TMC3    C5 5940   2.990   1.733  10.463 -0.1475 -0.1909 -0.3428
  394TMC3    C6 5941   2.883   1.693  10.381 -0.2677  0.0087 -0.1152
  394TMC3     C 5942   2.928   1.525  10.755 -0.6606  0.1429  0.8169
  394TMC3     O 5943   2.857   1.435  10.790 -0.1170  0.3189 -0.7373
  394TMC3     H 5944   2.735   1.468  10.582  0.5881  0.2504  0.7910
  394TMC3    H1 5945   3.095   1.687  10.650  0.0722 -0.4290  0.3705
  394TMC3    H2 5946   2.863   1.733  10.282 -2.4336  1.2477  0.8253
  394TMC3    C7 5947   3.108   1.789  10.392  1.1531 -0.0129  0.1192
  394TMC3    C8 5948   2.731   1.531  10.335 -0.0018  0.6673  0.0090
  394TMC3    O1 5949   3.074   1.874  10.306 -0.3226 -0.3947  0.7399
  394TMC3    O2 5950   2.635   1.566  10.269 -0.2076 -0.5102 -0.5113
  395TMC3    C1 5951   2.746   3.043  14.828 -0.7909 -0.1021 -0.3555
  395TMC3    C2 5952   2.635   3.056  14.752  0.4400  0.1535  0.8583
  395TMC3    C3 5953   2.645   3.134  14.642 -0.3300  0.4916 -0.7989
  395TMC3    C4 5954   2.859   3.115  14.813  0.6633  0.1248 -0.7731
  395TMC3    C5 5955   2.864   3.194  14.703  1.0771  0.9030  0.2969
  395TMC3    C6 5956   2.758   3.213  14.612 -0.2528  0.0336 -0.3159
  395TMC3     C 5957   2.739   2.974  14.956 -0.4570  0.2900 -0.2600
  395TMC3     O 5958   2.810   3.015  15.048 -0.4329 -0.3846 -0.1895
  395TMC3     H 5959   2.543   3.004  14.773  0.8581  0.6248  3.8633
  395TMC3    H1 5960   2.940   3.106  14.884 -1.2114 -0.7078  1.2614
  395TMC3    H2 5961   2.752   3.278  14.525 -0.7626  1.4169  0.7349
  395TMC3    C7 5962   2.967   3.299  14.693 -0.1964 -0.2343 -0.2016
  395TMC3    C8 5963   2.530   3.144  14.550  0.3814  0.3173  0.7050
  395TMC3    O1 5964   3.042   3.321  14.790  0.0458 -0.2003 -0.1542
  395TMC3    O2 5965   2.497   3.253  14.502  0.1045 -0.2136 -0.4686
  396MPD2     C 5966   2.106   3.917  16.707  0.1489  0.8771  0.0683
  396MPD2    C1 5967   2.186   3.926  16.815 -0.5182 -0.0269  0.2001
  396MPD2    C2 5968   2.278   4.031  16.818  0.2182  0.1472  0.2787
  396MPD2    C3 5969   2.295   4.102  16.703  0.3213  0.5859 -0.6780
  396MPD2    C4 5970   2.232   4.070  16.583  0.8102  0.4469 -0.3277
  396MPD2    C5 5971   2.128   3.980  16.594 -0.2530  0.4669 -0.1178
  396MPD2     H 5972   2.329   4.055  16.911  2.8024 -1.0042 -0.8486
  396MPD2    H1 5973   2.249   4.126  16.492 -2.0530 -3.1577 -3.0691
  396MPD2    H2 5974   2.047   3.826  16.700 -0.8600  1.5056  0.3420
  396MPD2    H3 5975   2.074   3.948  16.506 -0.3864  1.0405 -0.2425
  396MPD2     N 5976   2.392   4.211  16.718 -0.6044  0.4231  0.5436
  396MPD2    H5 5977   2.423   4.222  16.814 -4.3250  0.9415  1.6744
  396MPD2    N1 5978   2.158   3.836  16.921  0.2737  0.4724 -0.6882
  396MPD2    H7 5979   2.072   3.782  16.925 -0.2767  1.4259  0.1683
  397TMC3    C1 5980   2.218   3.727  17.121 -0.6915 -0.4904 -0.2292
  397TMC3    C2 5981   2.326   3.721  17.203 -0.3699  0.0413 -0.1544
  397TMC3    C3 5982   2.329   3.815  17.308  0.4028  0.5624 -0.1091
  397TMC3    C4 5983   2.098   3.780  17.169 -0.1270  0.0245 -0.2549
  397TMC3    C5 5984   2.096   3.829  17.300  0.2974 -0.3792 -0.1882
  397TMC3    C6 5985   2.213   3.851  17.374 -0.0675  0.3626  0.2865
  397TMC3     C 5986   2.263   3.794  17.002 -0.0710  0.4495 -0.5933
  397TMC3     O 5987   2.381   3.816  16.984 -0.0763  0.3036 -0.2942
  397TMC3     H 5988   2.424   3.696  17.164 -0.6127 -2.2669  0.6879
  397TMC3    H1 5989   2.005   3.780  17.112 -0.3693  0.4541  0.1481
  397TMC3    H2 5990   2.214   3.910  17.464 -0.8900 -1.0055  1.1842
  397TMC3    C7 5991   1.966   3.857  17.350 -0.9025  0.3781  0.0030
  397TMC3    C8 5992   2.443   3.906  17.321  0.1101 -0.4797 -0.3770
  397TMC3    O1 5993   1.870   3.867  17.273 -0.9075 -0.6477  0.3165
  397TMC3    O2 5994   2.464   3.949  17.432  0.6965 -0.2530 -0.2740
  398MPD2     C 5995   0.283   0.718  17.499 -0.3176  0.1447  0.4883
  398MPD2    C1 5996   0.254   0.703  17.635 -0.2930 -0.0637 -0.1284
  398MPD2    C2 5997   0.162   0.784  17.697 -0.4534  0.4859 -0.2686
  398MPD2    C3 5998   0.106   0.890  17.633 -0.4869 -0.1209 -0.1991
  398MPD2    C4 5999   0.123   0.898  17.492  0.4130 -0.3397 -0.4285
  398MPD2    C5 6000   0.212   0.816  17.431 -0.4978 -0.8113  0.2308
  398MPD2     H 6001   0.133   0.761   0.060 -1.2463 -1.6574 -0.9559
  398MPD2    H1 6002   0.071   0.974  17.434  0.8613  0.0256 -0.3519
  398MPD2    H2 6003   0.352   0.654  17.445 -1.1902 -1.3139  1.1049
  398MPD2    H3 6004   0.243   0.830  17.328  0.4708  3.0693  1.0227
  398MPD2     N 6005   0.027   0.976  17.708 -0.2104 -0.3906  0.1577
  398MPD2    H5 6006   0.040   0.955   0.068 -0.6887  0.1562  0.3377
  398MPD2    N1 6007   0.305   0.595  17.711 -0.5370 -0.1856 -0.2157
  398MPD2    H7 6008   0.270   0.572   0.065  1.4901  0.3000  0.6688
  399TMC3    C1 6009   0.448   0.431   0.035 -0.1662  0.6143 -0.4895
  399TMC3    C2 6010   0.582   0.403   0.068 -0.0035 -0.1605 -0.1207
  399TMC3    C3 6011   0.613   0.279   0.105 -0.2593 -1.4222 -0.6040
  399TMC3    C4 6012   0.348   0.338   0.033  0.0929 -0.2854  0.6061
  399TMC3    C5 6013   0.385   0.215   0.080 -0.3841  0.1550 -0.5563
  399TMC3    C6 6014   0.518   0.183   0.113 -0.2621 -0.0238 -0.0520
  399TMC3     C 6015   0.424   0.539  17.681 -1.1399  0.0266  0.5326
  399TMC3     O 6016   0.518   0.582  17.613 -0.1803  0.5729 -0.2968
  399TMC3     H 6017   0.651   0.487   0.066  0.9677 -0.9957 -1.4892
  399TMC3    H1 6018   0.253   0.355  17.723 -0.8129 -0.9960  2.1011
  399TMC3    H2 6019   0.545   0.081   0.136 -3.0940 -0.7188  0.1445
  399TMC3    C7 6020   0.284   0.111   0.055  0.1406 -0.3413 -0.5500
  399TMC3    C8 6021   0.732   0.268   0.181  0.1501 -0.5822 -0.2345
  399TMC3    O1 6022   0.176   0.149   0.017 -0.1815 -0.1117  0.1359
  399TMC3    O2 6023   0.820   0.345   0.152  0.2058  0.1776 -0.2158
  400TMC3    C1 6024   4.102   3.884  17.016 -0.5111  0.7566 -0.1626
  400TMC3    C2 6025   3.981   3.847  16.961  0.4735  0.3092  0.2781
  400TMC3    C3 6026   3.896   3.958  16.943 -0.2486  0.2077  0.2936
  400TMC3    C4 6027   4.146   4.010  17.055  0.3705  0.1205 -0.0821
  400TMC3    C5 6028   4.047   4.104  17.034  0.0655 -0.0447  0.3145
  400TMC3    C6 6029   3.925   4.085  16.977  0.3757  0.1780 -0.3342
  400TMC3     C 6030   4.157   3.774  17.092  1.0128  0.4828  0.1389
  400TMC3     O 6031   4.110   3.663  17.069 -0.5463 -0.0883  0.1115
  400TMC3     H 6032   3.962   3.745  16.930  1.3821  0.3483 -0.4056
  400TMC3    H1 6033   4.245   4.037  17.090  0.2150 -2.3479  2.2294
  400TMC3    H2 6034   3.854   4.166  16.966 -1.1843 -1.0643  0.6446
  400TMC3    C7 6035   4.096   4.238  17.025 -0.6014  0.0536  0.2315
  400TMC3    C8 6036   3.755   3.924  16.903  0.4749  0.8066  0.4238
  400TMC3    O1 6037   4.216   4.248  16.986  0.1816  1.0887 -0.3431
  400TMC3    O2 6038   3.687   4.017  16.864  0.2767  0.2019  0.0721
  401MPD2     C 6039   3.272   2.479   1.124  0.0446  0.7924  0.1226
  401MPD2    C1 6040   3.196   2.385   1.055 -0.6483 -0.7462 -0.4180
  401MPD2    C2 6041   3.116   2.292   1.121 -0.4761 -0.1348 -0.6588
  401MPD2    C3 6042   3.103   2.301   1.255  0.1942 -0.6194  0.0644
  401MPD2    C4 6043   3.164   2.405   1.323 -0.1898  0.0270  0.9960
  401MPD2    C5 6044   3.256   2.490   1.261 -0.5882 -0.0885  0.2162
  401MPD2     H 6045   3.051   2.223   1.068 -0.5482 -2.6874  2.7338
  401MPD2    H1 6046   3.147   2.423   1.428 -0.5668 -0.0022  0.9403
  401MPD2    H2 6047   3.341   2.549   1.078 -0.0274  0.5475 -0.3563
  401MPD2    H3 6048   3.304   2.571   1.315  0.2255  2.6578 -4.6144
  401MPD2     N 6049   3.025   2.198   1.323  0.3216  0.3632 -0.0946
  401MPD2    H5 6050   2.971   2.132   1.268  1.7868 -1.8953  1.2072
  401MPD2    N1 6051   3.187   2.384   0.915  0.0427  0.2391 -0.0935
  401MPD2    H7 6052   3.116   2.324   0.875  1.7939 -2.4250  0.7559
  402TMC3    C1 6053   2.901   2.092   1.475 -0.2929  0.9104  0.0220
  402TMC3    C2 6054   2.894   2.005   1.584 -0.7064 -0.0085  0.2657
  402TMC3    C3 6055   2.815   1.894   1.585 -0.1009 -0.3174 -0.1682
  402TMC3    C4 6056   2.816   2.066   1.370 -0.7462 -0.8354  0.0286
  402TMC3    C5 6057   2.743   1.950   1.374  0.2517 -0.0008 -0.6802
  402TMC3    C6 6058   2.745   1.858   1.477  1.4632  0.1231  0.0927
  402TMC3     C 6059   3.013   2.182   1.454 -0.0493 -0.3588  0.1636
  402TMC3     O 6060   3.061   2.247   1.550 -0.0601 -0.5735  0.2395
  402TMC3     H 6061   2.964   2.023   1.665 -1.7451 -0.5364  1.2745
  402TMC3    H1 6062   2.802   2.134   1.287 -0.1299 -1.3234 -0.4796
  402TMC3    H2 6063   2.674   1.777   1.487  0.9737  0.4566 -0.7008
  402TMC3    C7 6064   2.652   1.920   1.265  0.9983  0.0995 -0.5650
  402TMC3    C8 6065   2.822   1.791   1.688 -0.4302  0.3257 -0.9210
  402TMC3    O1 6066   2.611   2.013   1.200 -0.1793  0.5279 -0.6036
  402TMC3    O2 6067   2.783   1.678   1.663  1.1351  0.1091 -0.1684
  403MPD2     C 6068   0.744   0.024  13.400 -0.2760  0.2207  0.0406
  403MPD2    C1 6069   0.717   0.131  13.487 -0.7414  0.3808  0.0616
  403MPD2    C2 6070   0.770   0.132  13.618  0.0087  0.7121  0.8025
  403MPD2    C3 6071   0.858   0.034  13.655 -0.0029 -0.8346 -0.3384
  403MPD2    C4 6072   0.873   4.662  13.574  0.3344  0.7195 -0.9831
  403MPD2    C5 6073   0.812   4.657  13.455 -1.2256 -0.3863 -0.3065
  403MPD2     H 6074   0.745   0.209  13.690  0.9399 -0.0859  1.9921
  403MPD2    H1 6075   0.924   4.572  13.608 -1.1557  0.2956  0.0844
  403MPD2    H2 6076   0.717   0.029  13.296 -2.1402  0.2095  0.5134
  403MPD2    H3 6077   0.830   4.572  13.390 -2.2840 -1.5113  0.8920
  403MPD2     N 6078   0.924   0.055  13.782 -0.4724  0.0736  0.3896
  403MPD2    H5 6079   0.904   0.144  13.826 -0.9804  1.2124 -2.1566
  403MPD2    N1 6080   0.635   0.235  13.431  0.1125 -0.3920 -0.3703
  403MPD2    H7 6081   0.607   0.225  13.334 -0.8373 -1.3917  0.0157
  404TMC3    C1 6082   0.452   0.367  13.424 -0.1740  0.1219  0.3035
  404TMC3    C2 6083   0.335   0.316  13.473 -0.6493  0.6481 -0.3671
  404TMC3    C3 6084   0.241   0.276  13.385  0.2891  0.4737  0.3289
  404TMC3    C4 6085   0.472   0.385  13.290  0.3291  0.1189 -0.0948
  404TMC3    C5 6086   0.378   0.347  13.203  0.8989  0.2902  0.6136
  404TMC3    C6 6087   0.266   0.286  13.251 -0.5598  0.2491  0.3866
  404TMC3     C 6088   0.559   0.313  13.512 -0.0717  0.6490 -0.1498
  404TMC3     O 6089   0.538   0.323  13.632  0.0422  0.6317  0.4247
  404TMC3     H 6090   0.312   0.312  13.578  2.1039  0.8469  0.2407
  404TMC3    H1 6091   0.573   0.411  13.259  0.1859 -0.7756 -1.3404
  404TMC3    H2 6092   0.198   0.234  13.183 -1.7320  0.2998  1.5324
  404TMC3    C7 6093   0.409   0.376  13.059 -0.0363 -0.5040  0.1450
  404TMC3    C8 6094   0.195   0.141  13.421 -0.4112  0.2301  0.2761
  404TMC3    O1 6095   0.506   0.447  13.037 -0.5393 -0.3213 -0.3206
  404TMC3    O2 6096   0.235   0.057  13.339 -0.1683  0.1312 -0.1685
  405MPD2     C 6097   0.748   1.272  14.853 -0.5278 -0.6621 -0.4187
  405MPD2    C1 6098   0.749   1.175  14.756 -0.6691 -0.9821  0.0549
  405MPD2    C2 6099   0.632   1.150  14.692 -0.6430 -0.1546  0.5573
  405MPD2    C3 6100   0.517   1.233  14.699  0.0477 -0.9493 -0.4035
  405MPD2    C4 6101   0.513   1.329  14.797  0.5440 -0.3227  0.4029
  405MPD2    C5 6102   0.632   1.343  14.872 -0.0640  0.1050 -0.4113
  405MPD2     H 6103   0.623   1.073  14.616 -0.0383  0.6062 -0.2877
  405MPD2    H1 6104   0.423   1.381  14.828  0.7083 -0.6842  1.4859
  405MPD2    H2 6105   0.835   1.278  14.917 -0.6701 -1.4436 -0.1538
  405MPD2    H3 6106   0.625   1.420  14.949 -1.3585  1.1059 -1.5266
  405MPD2     N 6107   0.410   1.196  14.613 -0.1686  0.2165 -0.1606
  405MPD2    H5 6108   0.433   1.117  14.553 -0.2473 -0.3058  0.4906
  405MPD2    N1 6109   0.863   1.099  14.716  0.4298 -0.2530  0.1280
  405MPD2    H7 6110   0.846   1.038  14.636  1.1644  1.3326 -1.2337
  406TMC3    C1 6111   4.719   1.089  14.442 -0.2488  0.1340 -0.2926
  406TMC3    C2 6112   0.031   0.962  14.420  0.4039 -0.1074 -0.3339
  406TMC3    C3 6113   0.157   0.925  14.460 -0.3579  0.6321 -0.4293
  406TMC3    C4 6114   0.064   1.181  14.510  0.1780  0.6657  0.0644
  406TMC3    C5 6115   0.190   1.140  14.548 -0.0943  0.6319  0.5241
  406TMC3    C6 6116   0.234   1.012  14.540 -1.3035  0.1332  0.7535
  406TMC3     C 6117   4.581   1.112  14.423 -0.8977  0.2621  0.1287
  406TMC3     O 6118   4.529   1.070  14.321  0.8785 -0.6513 -0.7225
  406TMC3     H 6119   4.701   0.898  14.362 -0.9230 -0.1958  1.2432
  406TMC3    H1 6120   0.043   1.287  14.517  2.2741  1.0262  1.0205
  406TMC3    H2 6121   0.320   0.971  14.592 -3.0426 -0.3092  3.2654
  406TMC3    C7 6122   0.274   1.232  14.625 -1.1431  0.4973  1.4823
  406TMC3    C8 6123   0.209   0.789  14.431 -0.4768  2.0473 -0.0227
  406TMC3    O1 6124   0.223   1.324  14.687 -0.1339  0.5800 -0.0912
  406TMC3    O2 6125   0.139   0.690  14.412  0.2539  0.2803 -0.0325
  407MPD2     C 6126   3.710   3.198   9.994 -0.1883  0.7152 -0.5333
  407MPD2    C1 6127   3.780   3.280   9.907 -0.1492 -0.1965 -0.6529
  407MPD2    C2 6128   3.819   3.402   9.958  0.1736  0.3516 -0.1039
  407MPD2    C3 6129   3.823   3.434  10.090  0.5436  0.4918 -0.4891
  407MPD2    C4 6130   3.766   3.338  10.177  0.1903  0.0317 -0.3758
  407MPD2    C5 6131   3.697   3.226  10.129  0.6400  0.0284 -0.0250
  407MPD2     H 6132   3.876   3.463   9.888 -2.9659  1.3568 -1.7935
  407MPD2    H1 6133   3.757   3.349  10.285 -1.6094  1.0632 -0.6264
  407MPD2    H2 6134   3.655   3.115   9.950  0.2101 -0.2705  0.8530
  407MPD2    H3 6135   3.640   3.161  10.194  0.8133 -0.9414 -0.8445
  407MPD2     N 6136   3.867   3.557  10.140 -0.0258  0.1450 -0.2277
  407MPD2    H5 6137   3.874   3.574  10.240 -0.5477  0.6665 -0.2851
  407MPD2    N1 6138   3.804   3.255   9.769 -0.6070 -0.1266  0.1357
  407MPD2    H7 6139   3.867   3.319   9.722 -1.3585  1.1709  0.8937
  408TMC3    C1 6140   3.817   3.147   9.557  0.1073  0.2633  0.8717
  408TMC3    C2 6141   3.868   3.031   9.498  0.1175 -0.1513 -0.1359
  408TMC3    C3 6142   3.962   3.052   9.404 -0.2370 -0.5297 -1.3093
  408TMC3    C4 6143   3.858   3.273   9.521 -0.4580  0.2029 -0.3507
  408TMC3    C5 6144   3.949   3.282   9.420 -0.0766 -0.0601  0.3378
  408TMC3    C6 6145   4.014   3.174   9.361  0.1467  0.0672  0.1168
  408TMC3     C 6146   3.775   3.138   9.693 -0.8905  0.4759  0.4340
  408TMC3     O 6147   3.712   3.040   9.731 -0.4540  0.2491 -0.3732
  408TMC3     H 6148   3.835   2.930   9.519  2.3322 -1.1746 -1.6049
  408TMC3    H1 6149   3.802   3.361   9.551 -0.8466 -0.8148  1.9050
  408TMC3    H2 6150   4.098   3.191   9.294  1.3251 -0.3978  1.4684
  408TMC3    C7 6151   3.986   3.419   9.385 -0.3092 -0.0416  1.0248
  408TMC3    C8 6152   4.037   2.929   9.372  0.3560 -0.0528 -0.6936
  408TMC3    O1 6153   3.891   3.497   9.377 -0.0311  0.5340 -0.4853
  408TMC3    O2 6154   3.988   2.820   9.365  0.1450  0.0143  0.2814
  409MPD2     C 6155   2.333   3.476  16.865 -0.2031 -0.3242  0.3919
  409MPD2    C1 6156   2.418   3.426  16.966  0.7897 -0.3703 -0.1536
  409MPD2    C2 6157   2.549   3.473  16.971  0.6676  0.0597  0.3288
  409MPD2    C3 6158   2.600   3.561  16.877 -0.1624 -0.3028 -0.6600
  409MPD2    C4 6159   2.510   3.608  16.783  0.1072 -0.0828 -0.1726
  409MPD2    C5 6160   2.383   3.561  16.772  0.1227  0.2754  0.3756
  409MPD2     H 6161   2.613   3.434  17.049 -1.0935  0.3835  1.9338
  409MPD2    H1 6162   2.530   3.695  16.721 -1.9057  0.1611 -0.4724
  409MPD2    H2 6163   2.228   3.452  16.852 -0.7348  1.7867  0.9659
  409MPD2    H3 6164   2.308   3.605  16.707  0.3440  0.5256  0.2880
  409MPD2     N 6165   2.736   3.613  16.872  0.4398  0.4419 -0.2851
  409MPD2    H5 6166   2.752   3.700  16.822  0.2457 -0.5149 -2.0345
  409MPD2    N1 6167   2.378   3.345  17.071 -0.5028 -0.4514 -0.1986
  409MPD2    H7 6168   2.448   3.314  17.138 -0.1034 -0.7814 -0.7647
  410TMC3    C1 6169   2.963   3.646  16.928  0.4847  0.1443 -0.0664
  410TMC3    C2 6170   3.067   3.635  17.017  0.5838  0.3452 -0.3020
  410TMC3    C3 6171   3.179   3.717  16.995  0.1380  0.0660 -0.5123
  410TMC3    C4 6172   2.982   3.705  16.809 -0.1117  0.6217 -0.0994
  410TMC3    C5 6173   3.097   3.771  16.789 -0.4384 -0.0495  0.1180
  410TMC3    C6 6174   3.200   3.779  16.880 -0.7590 -0.2856 -0.2619
  410TMC3     C 6175   2.839   3.578  16.960 -0.2378 -0.1077 -0.2469
  410TMC3     O 6176   2.836   3.498  17.047  0.2139 -0.0478 -0.4413
  410TMC3     H 6177   3.058   3.575  17.107 -0.4584  1.0743  0.0870
  410TMC3    H1 6178   2.906   3.698  16.732  0.7948  0.2959 -0.9567
  410TMC3    H2 6179   3.289   3.839  16.870 -0.8061 -0.0855  0.4813
  410TMC3    C7 6180   3.098   3.827  16.655 -0.4297  0.3817  1.0492
  410TMC3    C8 6181   3.303   3.683  17.067  0.4795  0.7343  0.3165
  410TMC3    O1 6182   3.026   3.781  16.567  0.2852  0.9622 -0.0695
  410TMC3    O2 6183   3.357   3.777  17.129  0.1771 -0.2951 -0.1636
  411MPD2     C 6184   3.130   4.308  14.279 -0.0146  1.3156  0.1660
  411MPD2    C1 6185   3.071   4.289  14.403  0.6005 -0.4217  0.0765
  411MPD2    C2 6186   3.004   4.167  14.427  0.1180  0.0642  0.6407
  411MPD2    C3 6187   2.998   4.063  14.328 -0.5599 -0.7055 -1.3349
  411MPD2    C4 6188   3.072   4.079  14.216  0.1194  0.0097  0.6378
  411MPD2    C5 6189   3.136   4.198  14.192  0.6327 -0.2360  0.4360
  411MPD2     H 6190   2.952   4.151  14.520  0.9468 -0.8426  0.9547
  411MPD2    H1 6191   3.087   3.990  14.156  0.6951  1.3521 -1.2104
  411MPD2    H2 6192   3.176   4.403  14.253  0.9439  0.6548 -0.5214
  411MPD2    H3 6193   3.187   4.208  14.097 -1.3352  1.4274 -0.4370
  411MPD2     N 6194   2.929   3.941  14.349  0.3505  0.2020  0.3378
  411MPD2    H5 6195   2.937   3.874  14.273  0.6740  0.5703  0.0498
  411MPD2    N1 6196   3.093   4.403  14.487  0.4572  0.1952  0.2935
  411MPD2    H7 6197   3.136   4.484  14.443  0.5740 -0.2416 -0.3952
  412TMC3    C1 6198   2.808   3.765  14.448  0.0784 -0.2482 -0.3602
  412TMC3    C2 6199   2.741   3.713  14.560  0.5245  0.1483 -0.0819
  412TMC3    C3 6200   2.675   3.593  14.550 -0.3182  0.2364 -0.1073
  412TMC3    C4 6201   2.800   3.694  14.329  0.5397 -0.8999  0.2068
  412TMC3    C5 6202   2.757   3.562  14.327  0.3262  0.6453  0.3245
  412TMC3    C6 6203   2.705   3.514  14.438 -0.4018  0.4777 -0.0102
  412TMC3     C 6204   2.864   3.899  14.462  0.3604  0.0338  0.3852
  412TMC3     O 6205   2.856   3.953  14.570 -0.3987 -0.3049 -0.1300
  412TMC3     H 6206   2.723   3.773  14.649  0.0077 -0.2099  0.0539
  412TMC3    H1 6207   2.820   3.745  14.236 -1.3899 -2.3644 -1.0094
  412TMC3    H2 6208   2.641   3.428  14.423 -0.3836  0.2681  1.0844
  412TMC3    C7 6209   2.695   3.521  14.199 -0.1755  0.5996 -0.3912
  412TMC3    C8 6210   2.538   3.594  14.594  0.0934  0.6301 -0.1896
  412TMC3    O1 6211   2.640   3.606  14.130  0.2324  0.4183  0.4375
  412TMC3    O2 6212   2.508   3.653  14.696 -0.4941  0.7354  0.4990
  413MPD2     C 6213   0.169   2.402  15.411 -0.0304 -0.7944  0.4689
  413MPD2    C1 6214   0.098   2.386  15.298 -0.5188 -0.3462 -0.2552
  413MPD2    C2 6215   0.089   2.254  15.247  0.2698 -0.8884 -0.2285
  413MPD2    C3 6216   0.165   2.154  15.306  0.4091  0.1385  0.1700
  413MPD2    C4 6217   0.256   2.181  15.402 -0.7767 -0.2175 -0.0281
  413MPD2    C5 6218   0.260   2.306  15.454  0.1186  0.0034  0.1683
  413MPD2     H 6219   0.034   2.237  15.155 -0.0477  0.9892 -0.3789
  413MPD2    H1 6220   0.327   2.112  15.447 -0.7761  0.2786  0.7364
  413MPD2    H2 6221   0.184   2.504  15.446  1.4260 -0.4568 -1.1153
  413MPD2    H3 6222   0.334   2.336  15.528 -1.3697 -2.1412  2.5249
  413MPD2     N 6223   0.147   2.032  15.241  0.0586  0.3293  0.0230
  413MPD2    H5 6224   0.089   2.018  15.159  1.5209  0.1027 -0.9803
  413MPD2    N1 6225   0.039   2.492  15.233  0.4999 -0.4764  0.2235
  413MPD2    H7 6226   0.039   2.582  15.280 -1.5798 -0.3946  0.0735
  414TMC3    C1 6227   0.222   1.817  15.177  0.0829 -0.0967 -0.3915
  414TMC3    C2 6228   0.276   1.702  15.224  0.7313  0.5946  0.1567
  414TMC3    C3 6229   0.310   1.618  15.129  0.2602  1.5094  0.3387
  414TMC3    C4 6230   0.203   1.859  15.048 -0.2493  0.0025 -0.1552
  414TMC3    C5 6231   0.242   1.772  14.956  0.3442 -0.1562 -0.3328
  414TMC3    C6 6232   0.289   1.649  15.000  0.3492 -0.4986  0.0350
  414TMC3     C 6233   0.209   1.915  15.281  0.0571 -0.2884 -0.5490
  414TMC3     O 6234   0.277   1.893  15.378 -0.7745  0.3255 -0.0067
  414TMC3     H 6235   0.285   1.664  15.325  0.9350  1.4267  0.4516
  414TMC3    H1 6236   0.177   1.960  15.016 -0.4359  0.1607  0.4852
  414TMC3    H2 6237   0.318   1.575  14.927  2.0668  0.4407 -0.2489
  414TMC3    C7 6238   0.343   1.851  14.878 -0.0300 -0.0853  0.5509
  414TMC3    C8 6239   0.406   1.513  15.154 -0.1842 -0.0773 -0.2008
  414TMC3    O1 6240   0.383   1.955  14.930  0.2238  0.3227  0.2823
  414TMC3    O2 6241   0.401   1.421  15.076 -0.2370 -0.3310  0.0307
  415TMC3    C1 6242   0.771   0.445   9.975 -0.3648 -0.4852 -0.3865
  415TMC3    C2 6243   0.782   0.578  10.013  0.0965 -0.4858  0.2148
  415TMC3    C3 6244   0.671   0.649  10.000 -0.7216  0.3206  0.4668
  415TMC3    C4 6245   0.660   0.398   9.907  0.2084  0.0838  0.0381
  415TMC3    C5 6246   0.551   0.480   9.904 -0.2627 -0.7986  0.5120
  415TMC3    C6 6247   0.548   0.608   9.954  0.3027  0.0028 -0.3406
  415TMC3     C 6248   0.873   0.354  10.021  0.3626 -0.0683  0.2257
  415TMC3     O 6249   0.855   0.233   9.998  0.5525 -0.2456  0.2303
  415TMC3     H 6250   0.862   0.608  10.080 -1.3040  0.3920  1.4807
  415TMC3    H1 6251   0.656   0.296   9.870  0.9375  0.4294 -0.9852
  415TMC3    H2 6252   0.463   0.674   9.956  3.5695  4.1591  2.1965
  415TMC3    C7 6253   0.431   0.424   9.854  0.4908 -0.8823 -0.5777
  415TMC3    C8 6254   0.676   0.790  10.034  0.2914  0.5947 -0.5836
  415TMC3    O1 6255   0.355   0.499   9.797 -0.1604 -0.2821  0.7628
  415TMC3    O2 6256   0.567   0.843  10.053  0.3054 -0.4722  0.5515
  416MPD2     C 6257   2.736   3.928  10.951  0.3763 -0.4536  0.2413
  416MPD2    C1 6258   2.627   3.903  11.032 -0.4407 -0.3141  0.2160
  416MPD2    C2 6259   2.549   3.787  11.019 -0.4564 -0.0357 -0.5616
  416MPD2    C3 6260   2.579   3.690  10.920 -0.1345  0.0502  0.1189
  416MPD2    C4 6261   2.700   3.710  10.847 -0.1339 -0.4849 -0.1127
  416MPD2    C5 6262   2.768   3.828  10.861  0.1658 -0.8820  0.6412
  416MPD2     H 6263   2.461   3.779  11.080 -0.4897 -0.5935 -0.6780
  416MPD2    H1 6264   2.735   3.654  10.761  0.2424  1.7831 -1.4391
  416MPD2    H2 6265   2.800   4.015  10.960  1.9918 -1.3796 -2.4989
  416MPD2    H3 6266   2.860   3.846  10.807  1.1827 -3.0130  1.6572
  416MPD2     N 6267   2.483   3.582  10.898  0.1023  0.7763  0.6294
  416MPD2    H5 6268   2.407   3.590  10.965  0.3932 -2.5406  1.3648
  416MPD2    N1 6269   2.591   4.003  11.118 -0.0214  0.0898  0.7849
  416MPD2    H7 6270   2.614   4.100  11.098 -1.2396  0.5790  1.7659
  417TMC3    C1 6271   2.423   4.061  11.273  0.5616 -0.2422 -0.1513
  417TMC3    C2 6272   2.397   4.096  11.401 -0.1934 -0.5912 -0.2981
  417TMC3    C3 6273   2.294   4.190  11.418 -0.7673 -0.1937 -0.0796
  417TMC3    C4 6274   2.335   4.095  11.176  0.7659  0.3327 -0.3620
  417TMC3    C5 6275   2.226   4.173  11.205  0.9946  0.2466 -0.1447
  417TMC3    C6 6276   2.203   4.227  11.325  1.1063 -0.3878 -0.2060
  417TMC3     C 6277   2.524   3.973  11.231  0.5470 -0.1914 -0.3169
  417TMC3     O 6278   2.564   3.891  11.313 -0.2218  0.0603  0.4737
  417TMC3     H 6279   2.484   4.093  11.465 -1.2096 -1.8864  1.0184
  417TMC3    H1 6280   2.337   4.052  11.076 -0.2305 -0.8463  0.1289
  417TMC3    H2 6281   2.107   4.271  11.348  1.4090 -0.1919  0.6731
  417TMC3    C7 6282   2.147   4.222  11.101  0.1569  0.4374 -0.3380
  417TMC3    C8 6283   2.250   4.223  11.559  0.7738  0.1580 -0.8703
  417TMC3    O1 6284   2.115   4.342  11.110 -0.0004 -0.5487  0.0607
  417TMC3    O2 6285   2.155   4.298  11.581 -0.1779  0.2942 -0.2358
  418TMC3    C1 6286   4.660   1.396   0.149 -0.7177  0.2945  0.1037
  418TMC3    C2 6287   4.655   1.316   0.038  0.0780  0.6262  0.8776
  418TMC3    C3 6288   4.643   1.182   0.039 -0.0012 -0.1756 -0.4326
  418TMC3    C4 6289   4.628   1.340   0.267  0.5048 -0.1914 -0.1488
  418TMC3    C5 6290   4.610   1.205   0.273  0.4991  0.6155  0.7542
  418TMC3    C6 6291   4.624   1.118   0.161 -0.2224  0.4136 -0.8391
  418TMC3     C 6292   4.672   1.543   0.130  0.4180 -0.5841 -0.4515
  418TMC3     O 6293   4.654   1.585   0.017 -0.0987  0.5714 -0.0715
  418TMC3     H 6294   4.655   1.366  17.680 -0.1066 -1.6177 -0.2947
  418TMC3    H1 6295   4.623   1.396   0.360  1.6434  0.4637 -0.4787
  418TMC3    H2 6296   4.619   1.010   0.166 -0.6398  0.5148  0.7667
  418TMC3    C7 6297   4.629   1.136   0.402 -0.2075 -0.0681  0.1728
  418TMC3    C8 6298   4.708   1.099  17.673 -0.0737 -0.3914 -0.2119
  418TMC3    O1 6299   4.696   1.036   0.407  0.2146 -0.6360 -0.1977
  418TMC3    O2 6300   4.698   1.136  17.557 -0.5342 -0.1547 -0.2368
  419MPD2     C 6301   4.702   3.688  12.639  0.1126 -0.0405  0.5855
  419MPD2    C1 6302   4.595   3.765  12.606  0.7584 -0.1226 -0.3542
  419MPD2    C2 6303   4.493   3.791  12.703 -0.0788  0.1450 -0.1518
  419MPD2    C3 6304   4.507   3.754  12.833 -0.1639 -0.5863 -0.1717
  419MPD2    C4 6305   4.627   3.697  12.870 -0.4108 -0.2048 -0.3619
  419MPD2    C5 6306   4.709   3.649  12.771  0.5833 -0.7250 -0.3931
  419MPD2     H 6307   4.416   3.862  12.677 -1.3318 -1.6805 -1.4070
  419MPD2    H1 6308   4.649   3.673  12.973 -0.5036  0.6599 -0.1434
  419MPD2    H2 6309   0.040   3.660  12.564  2.5216  3.4852  1.5969
  419MPD2    H3 6310   0.066   3.603  12.807 -1.0466 -3.0469  0.8164
  419MPD2     N 6311   4.409   3.786  12.926 -0.2139  0.2228  0.0412
  419MPD2    H5 6312   4.433   3.778  13.025 -0.6193  0.4930  0.1624
  419MPD2    N1 6313   4.587   3.830  12.483 -0.0204  0.6608  0.1056
  419MPD2    H7 6314   4.500   3.880  12.472  0.0056  0.4747 -1.0190
  420TMC3    C1 6315   4.225   3.909  13.009  0.6278 -0.5495  0.4448
  420TMC3    C2 6316   4.159   4.028  12.981  0.3595 -0.2797 -0.0140
  420TMC3    C3 6317   4.118   4.102  13.088  0.1848 -0.1302  0.3971
  420TMC3    C4 6318   4.254   3.877  13.140 -0.0819  0.0045  0.7767
  420TMC3    C5 6319   4.208   3.958  13.243 -0.3492  0.3743  0.8396
  420TMC3    C6 6320   4.130   4.064  13.218 -0.9301  0.3120  1.3598
  420TMC3     C 6321   4.288   3.842  12.894  0.2354 -0.3796  0.4304
  420TMC3     O 6322   4.231   3.843  12.784  0.6645 -0.4407  0.4941
  420TMC3     H 6323   4.128   4.060  12.882  1.5233 -0.5060 -0.4445
  420TMC3    H1 6324   4.319   3.796  13.170 -0.9648 -0.7593  0.6550
  420TMC3    H2 6325   4.089   4.121  13.301 -1.5514 -1.3755  2.2222
  420TMC3    C7 6326   4.256   3.945  13.382  0.3714 -0.0476 -0.0129
  420TMC3    C8 6327   4.044   4.223  13.053 -0.1405 -1.2952  0.0029
  420TMC3    O1 6328   4.193   4.005  13.469 -0.4051 -0.0150 -0.6064
  420TMC3    O2 6329   4.085   4.280  12.955 -0.1340 -0.2204 -0.3398
  421TMC3    C1 6330   1.060   0.019  13.968  0.3078  0.5775 -0.2464
  421TMC3    C2 6331   1.026   0.146  14.013  0.3185  0.3514 -0.2810
  421TMC3    C3 6332   1.097   0.203  14.115 -0.7686 -0.1665  0.9482
  421TMC3    C4 6333   1.172   4.691  14.013  0.5374  0.2623 -0.5832
  421TMC3    C5 6334   1.238   0.015  14.120  0.3223 -0.1268 -0.5456
  421TMC3    C6 6335   1.212   0.139  14.162 -0.0656  0.8937  0.7470
  421TMC3     C 6336   1.008   4.704  13.842 -0.2718 -0.6915  0.3054
  421TMC3     O 6337   1.050   4.600  13.792 -0.5615  0.3040  0.5745
  421TMC3     H 6338   0.931   0.189  13.985  0.0852  0.6172  0.9141
  421TMC3    H1 6339   1.204   4.594  13.976  0.4988  0.1781 -0.3912
  421TMC3    H2 6340   1.281   0.176  14.237 -0.7445  1.0633  1.2854
  421TMC3    C7 6341   1.367   4.697  14.157 -0.1361 -0.7086 -0.3912
  421TMC3    C8 6342   1.069   0.338  14.171  0.4070 -0.2684  0.1795
  421TMC3    O1 6343   1.460   0.038  14.175  0.0741  0.7501 -0.6706
  421TMC3    O2 6344   1.144   0.381  14.257  0.2529 -0.0752 -0.1146
  422TMC3    C1 6345   2.708   2.297  12.578  0.2405 -0.1098 -0.3679
  422TMC3    C2 6346   2.754   2.343  12.700  0.0186  0.9977 -0.1712
  422TMC3    C3 6347   2.780   2.244  12.793  0.3317 -0.0239 -0.9180
  422TMC3    C4 6348   2.677   2.166  12.554 -0.7070 -0.0192 -0.1280
  422TMC3    C5 6349   2.722   2.077  12.642 -0.3685 -0.2791  0.0274
  422TMC3    C6 6350   2.770   2.111  12.766  0.1598 -0.4687  0.9577
  422TMC3     C 6351   2.701   2.401  12.478 -1.3655  0.2047 -0.7790
  422TMC3     O 6352   2.777   2.496  12.495 -0.3468 -1.1511 -0.3412
  422TMC3     H 6353   2.776   2.448  12.713  1.1578  1.1744 -3.4785
  422TMC3    H1 6354   2.622   2.124  12.470 -0.4777 -3.3917  1.4342
  422TMC3    H2 6355   2.821   2.051  12.840  0.8196 -0.5395  0.4453
  422TMC3    C7 6356   2.711   1.933  12.609 -0.0364  0.1625  0.2843
  422TMC3    C8 6357   2.833   2.296  12.918 -0.2533  0.2895  0.7284
  422TMC3    O1 6358   2.699   1.892  12.495 -0.8968  0.3259 -0.1403
  422TMC3    O2 6359   2.867   2.414  12.918  0.1135 -0.2058  0.4268
  423MPD2     C 6360   4.406   2.878   0.877 -0.1905  0.8774 -0.6448
  423MPD2    C1 6361   4.441   2.747   0.905  0.0493  0.2337 -0.9093
  423MPD2    C2 6362   4.460   2.660   0.799  0.4503 -0.0775  0.6640
  423MPD2    C3 6363   4.451   2.702   0.666 -0.4612 -0.0294  0.2016
  423MPD2    C4 6364   4.441   2.836   0.642 -0.6269  0.6704 -0.3576
  423MPD2    C5 6365   4.405   2.918   0.749  0.3004  0.7547 -0.0838
  423MPD2     H 6366   4.490   2.559   0.821 -0.2296 -0.1147  1.4052
  423MPD2    H1 6367   4.445   2.881   0.544 -1.0787  0.8214 -0.3067
  423MPD2    H2 6368   4.379   2.957   0.946 -0.0612 -0.9042  1.4497
  423MPD2    H3 6369   4.378   3.021   0.727  1.7292  0.8968 -1.1698
  423MPD2     N 6370   4.462   2.620   0.552 -0.0361  0.1685  0.0245
  423MPD2    H5 6371   4.462   2.676   0.467 -1.4358 -2.1492 -1.5057
  423MPD2    N1 6372   4.444   2.697   1.039 -0.7165  0.0986 -0.3691
  423MPD2    H7 6373   4.490   2.608   1.056 -0.3692 -0.0461 -2.0072
  424TMC3    C1 6374   4.426   2.694   1.266  0.4816  0.2273  0.1553
  424TMC3    C2 6375   4.535   2.608   1.266  0.2499  0.7463 -0.4344
  424TMC3    C3 6376   4.561   2.534   1.378 -0.8742 -0.4740  0.4176
  424TMC3    C4 6377   4.336   2.690   1.365 -0.7423  0.5017  0.0474
  424TMC3    C5 6378   4.354   2.600   1.470 -0.2241 -0.7378 -0.0452
  424TMC3    C6 6379   4.467   2.532   1.481 -0.1511 -0.3369 -0.4804
  424TMC3     C 6380   4.385   2.760   1.144 -0.9799  0.3426  0.3113
  424TMC3     O 6381   4.295   2.847   1.137  0.2918  0.2154  0.1714
  424TMC3     H 6382   4.611   2.625   1.190  0.4980  1.0563 -0.1180
  424TMC3    H1 6383   4.249   2.754   1.365  0.1477  1.7093  1.9268
  424TMC3    H2 6384   4.490   2.476   1.571 -2.9100 -1.8580 -0.7016
  424TMC3    C7 6385   4.247   2.572   1.560 -0.2922 -0.2266 -0.0278
  424TMC3    C8 6386   4.648   2.415   1.381 -0.0361 -0.2123  0.3702
  424TMC3    O1 6387   4.276   2.530   1.669 -0.4004  0.5331  0.2576
  424TMC3    O2 6388   4.608   2.330   1.458 -0.3297 -0.6939  0.2410
  425MPD2     C 6389   3.166   1.967  16.966 -0.2289 -0.4902 -0.4856
  425MPD2    C1 6390   3.145   1.852  17.042 -0.0678 -0.2160 -0.1461
  425MPD2    C2 6391   3.021   1.838  17.090 -0.4487 -0.1851 -0.0465
  425MPD2    C3 6392   2.917   1.921  17.051 -0.2136  0.0435  0.2313
  425MPD2    C4 6393   2.945   2.032  16.979 -0.3284  0.2632 -1.2889
  425MPD2    C5 6394   3.072   2.058  16.932  0.7567 -0.3176 -0.0715
  425MPD2     H 6395   2.999   1.747  17.145  2.6159 -1.3428 -0.7007
  425MPD2    H1 6396   2.860   2.088  16.943 -0.5790 -0.0997 -1.2597
  425MPD2    H2 6397   3.265   1.987  16.927 -1.3309 -2.0643 -4.1214
  425MPD2    H3 6398   3.090   2.141  16.865 -0.6890  0.2136  0.1848
  425MPD2     N 6399   2.788   1.883  17.097  0.0763 -0.5699  0.0173
  425MPD2    H5 6400   2.785   1.803  17.159  1.0699 -1.0370 -0.5419
  425MPD2    N1 6401   3.253   1.757  17.064  0.7601 -0.6603  0.0290
  425MPD2    H7 6402   3.347   1.786  17.041  0.8592 -0.5187  0.5992
  426TMC3    C1 6403   3.373   1.565  17.149  0.3955  0.1662  0.1086
  426TMC3    C2 6404   3.465   1.584  17.048  0.2909 -0.1195 -0.2893
  426TMC3    C3 6405   3.588   1.540  17.069  0.1433 -0.0595  0.9029
  426TMC3    C4 6406   3.395   1.501  17.264 -0.0939  0.8930 -0.1869
  426TMC3    C5 6407   3.520   1.443  17.274 -0.2614 -0.2806 -0.1738
  426TMC3    C6 6408   3.616   1.467  17.182 -0.1605 -0.8523 -0.6744
  426TMC3     C 6409   3.248   1.638  17.138 -0.7168  0.3886  0.3585
  426TMC3     O 6410   3.154   1.590  17.198 -0.8988  0.2090  0.0805
  426TMC3     H 6411   3.436   1.631  16.954  0.3272  2.5069  0.9930
  426TMC3    H1 6412   3.306   1.482  17.324  0.7579 -1.6346  0.2930
  426TMC3    H2 6413   3.718   1.435  17.195 -0.1088 -1.3301 -2.2059
  426TMC3    C7 6414   3.510   1.295  17.265 -0.1855  0.2866  0.5036
  426TMC3    C8 6415   3.682   1.524  16.964  0.5975 -0.3555 -0.5924
  426TMC3    O1 6416   3.598   1.228  17.214 -0.1717 -0.1853  0.1985
  426TMC3    O2 6417   3.743   1.417  16.967  0.0906 -0.4313  0.2708
  427MPD2     C 6418   2.284   3.998  15.161 -0.6597 -0.8263  0.2157
  427MPD2    C1 6419   2.259   4.055  15.288 -0.5242 -0.4418 -0.0767
  427MPD2    C2 6420   2.131   4.084  15.318  0.6711 -0.3260 -0.5577
  427MPD2    C3 6421   2.033   4.071  15.223  0.6655  0.1325  0.1561
  427MPD2    C4 6422   2.059   4.007  15.101 -0.1526 -0.0712 -0.0224
  427MPD2    C5 6423   2.185   3.968  15.072  0.3382  0.1317  0.4341
  427MPD2     H 6424   2.117   4.105  15.424 -1.0555 -1.1560 -0.6184
  427MPD2    H1 6425   1.984   3.992  15.024 -1.1023  0.6507  0.7678
  427MPD2    H2 6426   2.378   3.949  15.138  0.1611  0.5910  0.5922
  427MPD2    H3 6427   2.211   3.938  14.971  0.4282  1.6761  0.0027
  427MPD2     N 6428   1.904   4.118  15.240  0.2337 -0.5520 -0.2560
  427MPD2    H5 6429   1.845   4.096  15.160 -0.6319 -0.9617  0.5010
  427MPD2    N1 6430   2.363   4.062  15.390  0.2406 -0.2517 -0.0219
  427MPD2    H7 6431   2.339   4.082  15.487 -0.0659 -0.3465 -0.0778
  428TMC3    C1 6432   2.593   4.073  15.460  0.5319 -0.5311 -0.2109
  428TMC3    C2 6433   2.577   3.965  15.550  0.3237 -0.6853  0.8382
  428TMC3    C3 6434   2.686   3.923  15.614  0.3934 -0.1947  0.4758
  428TMC3    C4 6435   2.715   4.120  15.428  0.0483  0.1330  0.5310
  428TMC3    C5 6436   2.824   4.067  15.488  0.4130 -0.4128 -0.1999
  428TMC3    C6 6437   2.811   3.978  15.587  0.9295 -0.2616  1.0358
  428TMC3     C 6438   2.497   4.079  15.354 -0.9028  0.4889  0.6165
  428TMC3     O 6439   2.536   4.103  15.243  0.3824  0.2522  0.1905
  428TMC3     H 6440   2.481   3.918  15.564 -1.5615  2.5608 -1.2090
  428TMC3    H1 6441   2.730   4.204  15.360  1.7267  0.2815  1.0973
  428TMC3    H2 6442   2.905   3.945  15.630  0.3980  0.2234  2.6011
  428TMC3    C7 6443   2.941   4.155  15.503 -0.7082  0.1630  0.1932
  428TMC3    C8 6444   2.686   3.798  15.685  0.2397 -0.1859  0.3238
  428TMC3    O1 6445   2.994   4.142  15.613 -0.4092 -0.3446  0.6606
  428TMC3    O2 6446   2.601   3.716  15.657 -0.0429 -0.5745 -0.6776
  429MPD2     C 6447   3.097   4.528   0.068 -0.3911  0.3825  0.0549
  429MPD2    C1 6448   3.158   4.460  17.699  0.4095 -0.3331  0.0396
  429MPD2    C2 6449   3.263   4.531  17.643 -0.0008  0.1979 -0.3768
  429MPD2    C3 6450   3.307   4.658  17.683  0.4247 -0.5111 -0.2975
  429MPD2    C4 6451   3.235   4.721   0.044  0.0470 -1.3459 -0.5368
  429MPD2    C5 6452   3.140   4.648   0.101 -0.3944  0.8949 -0.0164
  429MPD2     H 6453   3.323   4.478  17.571  2.0534  2.7033 -0.5235
  429MPD2    H1 6454   3.251   0.090   0.070  0.3747 -1.2190 -1.2400
  429MPD2    H2 6455   3.012   4.484   0.120 -1.0936 -0.1846 -1.5822
  429MPD2    H3 6456   3.099   4.700   0.187  0.5079 -2.2411  2.3057
  429MPD2     N 6457   3.402   4.723  17.604 -0.3524 -0.6433 -0.2744
  429MPD2    H5 6458   3.447   4.672  17.528 -0.1699  1.6058 -1.6696
  429MPD2    N1 6459   3.129   4.327  17.652  0.2096 -0.1606 -0.0407
  429MPD2    H7 6460   3.191   4.273  17.593 -1.1304 -2.3735  0.5276
  430TMC3    C1 6461   3.532   0.160  17.504 -0.3705  0.1195  0.7387
  430TMC3    C2 6462   3.528   0.279  17.437  0.3359 -0.2212 -0.2760
  430TMC3    C3 6463   3.640   0.313  17.366  0.6593  0.2572  0.6529
  430TMC3    C4 6464   3.641   0.081  17.498 -0.1790 -0.1838 -0.4834
  430TMC3    C5 6465   3.752   0.120  17.427  0.5327 -0.1026  0.5670
  430TMC3    C6 6466   3.753   0.240  17.360 -0.4553 -0.5828  0.3342
  430TMC3     C 6467   3.430   0.126  17.603  0.7975 -0.2432 -0.8765
  430TMC3     O 6468   3.359   0.210  17.651  0.4746  0.2265  0.1654
  430TMC3     H 6469   3.441   0.342  17.453 -0.4082 -1.3315  0.1385
  430TMC3    H1 6470   3.637   4.724  17.556 -2.3302 -0.1286 -0.5474
  430TMC3    H2 6471   3.835   0.281  17.302 -1.0144  1.2717  0.8724
  430TMC3    C7 6472   3.803   4.735  17.356  0.6404  0.5344  0.3497
  430TMC3    C8 6473   3.633   0.389  17.246  0.2948  0.5879 -0.5761
  430TMC3    O1 6474   3.769   4.625  17.389 -0.4475  0.6322 -0.1300
  430TMC3    O2 6475   3.724   0.465  17.225  0.2657 -0.5746 -0.4126
  431MPD2     C 6476   4.199   4.515  12.569 -0.6839 -0.0631 -0.3714
  431MPD2    C1 6477   4.296   4.572  12.490 -0.0280 -0.3223  0.1199
  431MPD2    C2 6478   4.387   4.487  12.430 -0.0078 -0.0967 -0.7395
  431MPD2    C3 6479   4.371   4.344  12.452  0.0923  0.5784  0.1262
  431MPD2    C4 6480   4.275   4.292  12.535  0.6847  0.4403  0.1282
  431MPD2    C5 6481   4.195   4.381  12.595  0.0302 -0.0110  0.2706
  431MPD2     H 6482   4.457   4.535  12.364  0.9954 -1.2322 -0.4943
  431MPD2    H1 6483   4.247   4.190  12.559  1.3677  0.8899  2.7435
  431MPD2    H2 6484   4.116   4.574  12.606  0.5987  1.7151 -0.3183
  431MPD2    H3 6485   4.112   4.342  12.653  1.5159 -2.7043  0.6201
  431MPD2     N 6486   4.463   4.251  12.391  0.5613  0.6814 -0.2739
  431MPD2    H5 6487   4.456   4.153  12.416  2.7944  0.6989  0.4069
  431MPD2    N1 6488   4.314   4.708  12.460 -0.7208  0.3450  0.2200
  431MPD2    H7 6489   4.394   4.730  12.401 -0.9648 -0.2970 -0.3586
  432TMC3    C1 6490   4.639   4.169  12.262 -0.4150 -0.1176 -0.3210
  432TMC3    C2 6491   4.654   4.160  12.128 -0.8120  0.3950  0.1118
  432TMC3    C3 6492   4.670   4.032  12.075 -0.0671  0.2142  0.5596
  432TMC3    C4 6493   4.628   4.061  12.339 -0.3705  0.0668  0.6787
  432TMC3    C5 6494   4.650   3.937  12.288 -0.3921  0.1103 -0.4012
  432TMC3    C6 6495   4.675   3.921  12.151 -0.5200  0.1181 -0.0808
  432TMC3     C 6496   4.574   4.285  12.314  0.6524  0.5363 -0.2343
  432TMC3     O 6497   4.589   4.391  12.257 -0.1150  0.1267  0.2634
  432TMC3     H 6498   4.647   4.248  12.065 -1.0891 -0.9767 -1.7754
  432TMC3    H1 6499   4.644   4.079  12.445 -1.0970 -0.0178  0.8017
  432TMC3    H2 6500   4.714   3.831  12.105  1.5388  0.5605  0.7955
  432TMC3    C7 6501   4.678   3.826  12.381 -0.2164  0.0643 -0.6249
  432TMC3    C8 6502   4.706   4.009  11.934 -0.2336 -0.6295 -0.4338
  432TMC3    O1 6503   0.031   3.749  12.353  0.1410  0.1296 -0.1622
  432TMC3    O2 6504   4.675   3.898  11.896 -0.0466 -0.0417 -0.2694
  433MPD2     C 6505   3.560   3.537  10.745  0.2946  0.3313  0.0992
  433MPD2    C1 6506   3.534   3.407  10.787 -0.5755  0.7695  0.1512
  433MPD2    C2 6507   3.480   3.379  10.915  0.1420 -0.3478 -0.1046
  433MPD2    C3 6508   3.457   3.481  11.002  0.1921  0.2718 -0.5634
  433MPD2    C4 6509   3.473   3.609  10.958  0.4136 -0.2863  0.6322
  433MPD2    C5 6510   3.522   3.634  10.836 -0.1307 -0.0997  0.4031
  433MPD2     H 6511   3.461   3.278  10.951 -0.5368 -0.1156  0.1928
  433MPD2    H1 6512   3.465   3.698  11.019  0.2689  0.0815  0.0784
  433MPD2    H2 6513   3.583   3.561  10.641 -0.1613 -2.1832 -0.5824
  433MPD2    H3 6514   3.512   3.736  10.801 -0.0813 -0.3882 -0.4499
  433MPD2     N 6515   3.436   3.449  11.136  0.2812  0.2691 -1.0847
  433MPD2    H5 6516   3.466   3.356  11.165  1.4736  1.9166  2.8691
  433MPD2    N1 6517   3.569   3.297  10.708  0.5891  0.5185  0.1131
  433MPD2    H7 6518   3.537   3.206  10.739  1.1901 -0.1862 -1.3183
  434TMC3    C1 6519   3.694   3.174  10.541  0.3653 -0.7063 -0.3230
  434TMC3    C2 6520   3.780   3.102  10.619  0.6559  0.2099  0.3800
  434TMC3    C3 6521   3.792   2.972  10.572 -0.0796 -0.0113 -0.6393
  434TMC3    C4 6522   3.603   3.128  10.451  0.2363  0.1756  0.2224
  434TMC3    C5 6523   3.615   3.000  10.416  0.1610 -0.3339  0.0996
  434TMC3    C6 6524   3.714   2.919  10.469  0.0615 -0.0555 -0.2417
  434TMC3     C 6525   3.645   3.302  10.592  0.8837  0.4957  0.3163
  434TMC3     O 6526   3.688   3.397  10.529 -0.2021  0.1578 -0.2691
  434TMC3     H 6527   3.846   3.144  10.693 -1.2613  1.9088  1.1398
  434TMC3    H1 6528   3.524   3.189  10.410 -0.1957 -0.2019  0.4921
  434TMC3    H2 6529   3.723   2.815  10.443 -1.1000 -0.2134 -0.0327
  434TMC3    C7 6530   3.509   2.935  10.341  0.1110  0.2490 -0.3833
  434TMC3    C8 6531   3.844   2.878  10.671  0.2041 -0.1913 -0.4905
  434TMC3    O1 6532   3.447   3.000  10.256  0.0394  0.0152 -0.1034
  434TMC3    O2 6533   3.873   2.929  10.774  0.1042  0.4651  0.2006
  435MPD2     C 6534   0.314   2.796  15.448 -0.3750  0.4414 -0.6030
  435MPD2    C1 6535   0.268   2.814  15.573  0.4928 -0.5324  0.1594
  435MPD2    C2 6536   0.357   2.813  15.679  0.7986  0.2417 -0.2718
  435MPD2    C3 6537   0.492   2.792  15.654 -0.0576 -0.6735  0.3412
  435MPD2    C4 6538   0.535   2.752  15.526  0.2865 -0.2922 -0.7007
  435MPD2    C5 6539   0.445   2.760  15.425  0.2110 -0.2146  0.1297
  435MPD2     H 6540   0.323   2.828  15.781  2.0117  1.4998 -0.0465
  435MPD2    H1 6541   0.636   2.723  15.500  0.1999 -0.3406 -0.9839
  435MPD2    H2 6542   0.242   2.798  15.367  0.4171 -0.4852 -1.3524
  435MPD2    H3 6543   0.482   2.751  15.323 -0.5363  1.0119 -0.2500
  435MPD2     N 6544   0.580   2.791  15.764  0.7284 -0.0590  0.1400
  435MPD2    H5 6545   0.545   2.797  15.859 -1.0804 -1.4262 -0.4379
  435MPD2    N1 6546   0.133   2.835  15.607  0.2793  0.0956 -0.4480
  435MPD2    H7 6547   0.119   2.892  15.690  0.7630 -2.1179  1.1478
  436TMC3    C1 6548   4.547   2.976  15.751 -0.2613  0.0447 -0.0147
  436TMC3    C2 6549   4.641   2.950  15.658 -0.3798  0.1333  0.1327
  436TMC3    C3 6550   4.633   2.839  15.586 -1.0943  0.6343 -0.7140
  436TMC3    C4 6551   4.449   2.882  15.782  0.3303 -0.0517  0.2325
  436TMC3    C5 6552   4.444   2.769  15.696  0.4677 -0.1985 -0.3976
  436TMC3    C6 6553   4.535   2.746  15.595  0.5066  0.4236  0.2426
  436TMC3     C 6554   4.588   3.083  15.851  0.7376  0.5777 -0.0974
  436TMC3     O 6555   4.706   3.116  15.851 -0.5197 -0.1052 -0.2823
  436TMC3     H 6556   4.719   3.025  15.651 -3.0077  2.8498 -0.1468
  436TMC3    H1 6557   4.368   2.893  15.854 -1.2384  1.1272 -1.7106
  436TMC3    H2 6558   4.539   2.650  15.545 -0.6525 -0.7896  2.4567
  436TMC3    C7 6559   4.337   2.678  15.724 -0.2293 -0.7131 -0.1430
  436TMC3    C8 6560   0.025   2.790  15.540 -0.4710 -0.2380 -0.3456
  436TMC3    O1 6561   4.304   2.664  15.841 -0.1023 -0.1115 -0.7394
  436TMC3    O2 6562   0.030   2.704  15.448 -0.5871 -0.2264  0.6617
  437TMC3    C1 6563   3.859   0.968  12.227 -0.1223 -0.0455 -0.4160
  437TMC3    C2 6564   3.834   1.056  12.120 -1.0264 -0.5735 -0.3294
  437TMC3    C3 6565   3.932   1.094  12.033  0.5172  0.4511  0.3875
  437TMC3    C4 6566   3.988   0.927  12.247 -0.1924 -0.1878  0.4267
  437TMC3    C5 6567   4.084   0.965  12.157  0.3315  0.1488 -0.2803
  437TMC3    C6 6568   4.060   1.052  12.049 -0.6945  0.1009  0.5075
  437TMC3     C 6569   3.762   0.954  12.331  0.1223  0.1684  0.1945
  437TMC3     O 6570   3.658   1.012  12.301 -0.5205  0.2134 -0.3359
  437TMC3     H 6571   3.742   1.113  12.113 -0.8563 -0.3824 -0.9628
  437TMC3    H1 6572   4.007   0.853  12.324 -0.6301  0.0015  0.7122
  437TMC3    H2 6573   4.142   1.073  11.981 -0.3227 -1.6666  0.3918
  437TMC3    C7 6574   4.225   0.938  12.187 -0.7478 -0.2158 -0.7643
  437TMC3    C8 6575   3.916   1.216  11.955 -0.4509  0.6718  0.2567
  437TMC3    O1 6576   4.304   1.013  12.131 -0.5512  0.2674 -0.6597
  437TMC3    O2 6577   4.011   1.290  11.956  0.0272  0.3808  0.0675
  438MPD2     C 6578   1.151   1.169  16.697  0.5189 -0.1821  0.4254
  438MPD2    C1 6579   1.170   1.041  16.738  0.0080 -0.6123  0.2148
  438MPD2    C2 6580   1.083   0.975  16.818 -0.2490 -0.1118 -0.6106
  438MPD2    C3 6581   0.978   1.043  16.874  0.0461 -0.0308  0.6955
  438MPD2    C4 6582   0.952   1.171  16.833 -0.3243  0.1795  0.9810
  438MPD2    C5 6583   1.043   1.240  16.755 -0.2510  0.0232  0.1788
  438MPD2     H 6584   1.109   0.875  16.850 -1.4074  0.3802  1.8331
  438MPD2    H1 6585   0.872   1.217  16.889  0.0755  0.5132  1.2801
  438MPD2    H2 6586   1.210   1.230  16.629  0.4573  0.3875  0.8839
  438MPD2    H3 6587   1.045   1.348  16.740 -1.4050 -0.0932 -0.7517
  438MPD2     N 6588   0.900   0.979  16.968  0.7556 -0.0573  1.4271
  438MPD2    H5 6589   0.834   1.043  17.011  0.0963 -0.8711  1.6242
  438MPD2    N1 6590   1.289   0.973  16.713  0.2193  0.0826 -0.0544
  438MPD2    H7 6591   1.304   0.894  16.775  0.7052 -0.0311 -0.3118
  439TMC3    C1 6592   1.482   0.900  16.606  0.1585  0.4589  0.0513
  439TMC3    C2 6593   1.541   0.868  16.480  0.1985 -0.4287 -0.1360
  439TMC3    C3 6594   1.615   0.751  16.478  0.0234 -0.3795  0.0573
  439TMC3    C4 6595   1.502   0.828  16.720 -0.8445  0.1338  0.0492
  439TMC3    C5 6596   1.571   0.714  16.707 -0.1323 -0.0680 -0.3425
  439TMC3    C6 6597   1.618   0.671  16.587 -0.0583 -0.3883 -0.0248
  439TMC3     C 6598   1.372   1.005  16.614  0.4023 -0.3345  0.5850
  439TMC3     O 6599   1.348   1.083  16.521 -0.3102 -0.3659 -0.3331
  439TMC3     H 6600   1.540   0.930  16.392 -0.4122 -0.7281 -0.3372
  439TMC3    H1 6601   1.475   0.868  16.817 -2.1388  0.0529 -0.2756
  439TMC3    H2 6602   1.674   0.578  16.591  1.8279  0.8180  1.2551
  439TMC3    C7 6603   1.630   0.649  16.822  0.0212 -0.6928  0.1027
  439TMC3    C8 6604   1.692   0.705  16.364  0.3079  1.1403 -0.2150
  439TMC3    O1 6605   1.741   0.602  16.817 -0.4179  0.3598 -0.3990
  439TMC3    O2 6606   1.763   0.607  16.389  0.1500 -0.2080 -0.3809
  440MPD2     C 6607   0.086   0.914  14.824 -0.4500  0.7859 -0.2012
  440MPD2    C1 6608   0.151   1.011  14.906 -0.3796  0.0089 -0.0476
  440MPD2    C2 6609   0.280   0.987  14.940 -0.2271  0.4186 -0.6363
  440MPD2    C3 6610   0.342   0.873  14.896 -0.1308 -0.4603  0.0863
  440MPD2    C4 6611   0.279   0.783  14.811 -0.0963  1.0403 -1.0311
  440MPD2    C5 6612   0.146   0.801  14.783 -0.6722 -0.3588  0.1975
  440MPD2     H 6613   0.335   1.054  15.005 -1.1118  1.0873 -0.5848
  440MPD2    H1 6614   0.338   0.705  14.765 -0.5956 -0.5967  1.0965
  440MPD2    H2 6615   4.719   0.926  14.790 -0.3568  1.0183 -0.4047
  440MPD2    H3 6616   0.081   0.733  14.729 -1.0553 -0.7882  1.1807
  440MPD2     N 6617   0.475   0.835  14.920 -0.3918 -0.3116 -0.2459
  440MPD2    H5 6618   0.508   0.747  14.883  1.8535  1.0879 -1.4971
  440MPD2    N1 6619   0.090   1.137  14.944 -0.0475  0.0545 -0.5203
  440MPD2    H7 6620   0.157   1.189  14.999 -0.0356 -0.1588 -0.3306
  441TMC3    C1 6621   0.698   0.849  14.986  0.0169 -0.1433 -0.2240
  441TMC3    C2 6622   0.792   0.951  15.008  0.1325  0.2991  0.2951
  441TMC3    C3 6623   0.879   0.956  15.117 -0.3337 -0.9240 -0.1742
  441TMC3    C4 6624   0.702   0.747  15.078  0.2751  0.5008 -0.1787
  441TMC3    C5 6625   0.777   0.763  15.191 -0.2686  0.9088 -0.2550
  441TMC3    C6 6626   0.878   0.852  15.207 -0.0610 -0.2141 -0.0496
  441TMC3     C 6627   0.568   0.904  14.990 -0.3585 -0.8470 -0.0087
  441TMC3     O 6628   0.560   1.019  15.028 -0.1252  0.4379  0.2457
  441TMC3     H 6629   0.792   1.044  14.952 -1.1201 -0.3661 -0.8008
  441TMC3    H1 6630   0.617   0.680  15.089  0.2625  0.7011  0.9717
  441TMC3    H2 6631   0.937   0.848  15.298 -0.8972  1.0800  0.5477
  441TMC3    C7 6632   0.703   0.759  15.313  0.0370  0.0144  0.3621
  441TMC3    C8 6633   0.886   1.079  15.197 -0.0271  0.5365  0.1028
  441TMC3    O1 6634   0.589   0.794  15.294 -0.1208 -0.4404 -0.1410
  441TMC3    O2 6635   0.984   1.081  15.275  0.0682  0.0890  0.4797
  442MPD2     C 6636   3.437   1.573  16.560 -0.1730 -0.0265 -0.6114
  442MPD2    C1 6637   3.316   1.509  16.588 -1.0666  0.0536 -0.1993
  442MPD2    C2 6638   3.302   1.382  16.541 -0.4946 -0.0428  0.1453
  442MPD2    C3 6639   3.400   1.310  16.470 -0.9102  0.0971 -1.0435
  442MPD2    C4 6640   3.520   1.373  16.442 -0.0943 -0.0036 -1.1020
  442MPD2    C5 6641   3.529   1.500  16.483  0.1242 -0.2378  0.0759
  442MPD2     H 6642   3.208   1.336  16.570  0.3468 -1.6861  0.2502
  442MPD2    H1 6643   3.597   1.328  16.381  2.1047  0.7286  1.1325
  442MPD2    H2 6644   3.468   1.664  16.610  0.7546 -0.7116  0.0689
  442MPD2    H3 6645   3.631   1.532  16.465 -0.4711  1.1821 -0.7528
  442MPD2     N 6646   3.389   1.176  16.423  0.5416  0.6797  0.4776
  442MPD2    H5 6647   3.477   1.135  16.394  1.5786  2.9136  0.4142
  442MPD2    N1 6648   3.206   1.570  16.661 -0.1321  0.0014 -0.3648
  442MPD2    H7 6649   3.134   1.506  16.693  0.0751  0.0503  0.1985
  443TMC3    C1 6650   3.072   1.747  16.747 -0.5633 -0.2489  0.4111
  443TMC3    C2 6651   3.016   1.858  16.690  0.1242 -0.0768 -0.3062
  443TMC3    C3 6652   2.880   1.878  16.692  0.1701  0.7406 -0.0940
  443TMC3    C4 6653   2.987   1.654  16.805 -0.7138  0.2212  0.0853
  443TMC3    C5 6654   2.851   1.679  16.811 -0.0123 -0.5684  0.0218
  443TMC3    C6 6655   2.798   1.781  16.747 -0.0839  0.4282  0.2085
  443TMC3     C 6656   3.198   1.705  16.687 -0.0143 -0.4674  0.7257
  443TMC3     O 6657   3.270   1.793  16.640 -0.6389  0.5650 -0.2076
  443TMC3     H 6658   3.082   1.920  16.631 -0.5560  0.0149 -0.9770
  443TMC3    H1 6659   3.020   1.569  16.865 -0.9720 -1.1355 -1.7173
  443TMC3    H2 6660   2.691   1.799  16.755 -0.1809 -0.5481  1.2434
  443TMC3    C7 6661   2.759   1.572  16.821 -0.1099  0.3914 -1.0348
  443TMC3    C8 6662   2.810   1.957  16.587 -0.9614  0.7160  0.1904
  443TMC3    O1 6663   2.645   1.595  16.859  0.1895 -0.5050  0.1036
  443TMC3    O2 6664   2.692   1.928  16.567 -0.6998  0.0632  0.5312
  444MPD2     C 6665   3.274   1.070  16.757  0.0495 -0.4219  0.3827
  444MPD2    C1 6666   3.226   0.943  16.723  0.3509 -0.0506 -0.1422
  444MPD2    C2 6667   3.310   0.850  16.682  0.4995  0.2884  0.3296
  444MPD2    C3 6668   3.445   0.884  16.662  0.0710 -0.0096 -0.2829
  444MPD2    C4 6669   3.495   1.014  16.689  0.9896  0.3451  0.3778
  444MPD2    C5 6670   3.407   1.104  16.747  0.1098  0.2224 -0.4939
  444MPD2     H 6671   3.276   0.748  16.671  0.6923  0.2187  0.3799
  444MPD2    H1 6672   3.598   1.041  16.668  0.4512  0.2519 -2.3262
  444MPD2    H2 6673   3.213   1.147  16.803 -1.0839 -0.1737 -1.5573
  444MPD2    H3 6674   3.436   1.205  16.771 -0.4422  0.2163  0.2120
  444MPD2     N 6675   3.531   0.779  16.613  0.2082  0.2712 -0.6685
  444MPD2    H5 6676   3.484   0.695  16.582  0.6988 -1.2809  2.7771
  444MPD2    N1 6677   3.092   0.905  16.759  0.3655  0.2010  0.0508
  444MPD2    H7 6678   3.056   0.811  16.745  2.6665 -0.5434 -0.8378
  445TMC3    C1 6679   3.726   0.660  16.558 -0.1463  0.0300 -0.7092
  445TMC3    C2 6680   3.655   0.590  16.464  0.0364  0.4011  0.2947
  445TMC3    C3 6681   3.702   0.463  16.440  0.1609  0.4925 -0.5172
  445TMC3    C4 6682   3.840   0.614  16.616 -0.3620 -0.0485 -0.9589
  445TMC3    C5 6683   3.899   0.496  16.567  0.0305  0.0574 -0.3214
  445TMC3    C6 6684   3.822   0.415  16.483 -0.7963 -0.2843 -0.6374
  445TMC3     C 6685   3.668   0.778  16.610 -0.9363 -0.2426  0.2989
  445TMC3     O 6686   3.742   0.844  16.685  0.1616  0.7622 -0.1330
  445TMC3     H 6687   3.567   0.631  16.417  0.7835  2.0331  0.3355
  445TMC3    H1 6688   3.897   0.676  16.684 -1.2140  0.8473 -1.0666
  445TMC3    H2 6689   3.853   0.313  16.466 -1.7231 -1.0389  2.1976
  445TMC3    C7 6690   4.049   0.507  16.544  0.0938 -0.0692 -0.0034
  445TMC3    C8 6691   3.634   0.382  16.344  0.5364 -0.5795  0.6104
  445TMC3    O1 6692   4.089   0.622  16.545  0.0972  0.7579  0.5619
  445TMC3    O2 6693   3.699   0.283  16.315 -0.6423 -0.0084  0.0147
  446MPD2     C 6694   3.185   2.818  11.258 -0.0576  0.1186  0.0412
  446MPD2    C1 6695   3.268   2.739  11.178 -0.4094 -0.2784  0.6065
  446MPD2    C2 6696   3.390   2.785  11.138  0.3027  0.4663  0.2299
  446MPD2    C3 6697   3.433   2.906  11.182 -0.0141  0.7841  0.0064
  446MPD2    C4 6698   3.351   2.981  11.262 -0.4029  0.6715 -0.6462
  446MPD2    C5 6699   3.224   2.942  11.298 -0.2128 -0.3312  0.1566
  446MPD2     H 6700   3.466   2.720  11.097 -0.7795  0.1465 -1.2581
  446MPD2    H1 6701   3.379   3.081  11.295 -0.6506  0.0377  1.5253
  446MPD2    H2 6702   3.084   2.786  11.283  0.8027 -0.4521  2.7483
  446MPD2    H3 6703   3.150   3.005  11.348 -0.4565 -0.5252  0.0414
  446MPD2     N 6704   3.566   2.949  11.143  0.0208  0.3874 -0.3859
  446MPD2    H5 6705   3.626   2.881  11.096  0.2955 -0.0709  0.6160
  446MPD2    N1 6706   3.234   2.600  11.149 -0.0219  0.4899  0.2278
  446MPD2    H7 6707   3.299   2.548  11.091  1.6731  0.9558  1.7223
  447TMC3    C1 6708   3.742   3.091  11.109  0.0112  0.1222  0.0543
  447TMC3    C2 6709   3.783   3.191  11.022  0.7070 -0.1008 -0.2549
  447TMC3    C3 6710   3.910   3.197  10.982 -0.3143  0.4380  0.6417
  447TMC3    C4 6711   3.829   2.998  11.154  0.4216 -0.1612  0.0653
  447TMC3    C5 6712   3.958   3.013  11.111 -0.5913  0.0342 -0.4568
  447TMC3    C6 6713   4.003   3.105  11.022 -0.0077 -0.2211  0.0468
  447TMC3     C 6714   3.604   3.083  11.137 -0.4714 -0.1611 -0.5426
  447TMC3     O 6715   3.543   3.190  11.146 -0.2314  0.5907  0.1998
  447TMC3     H 6716   3.716   3.274  11.004 -0.2978 -1.2948 -2.1192
  447TMC3    H1 6717   3.800   2.925  11.229  0.8476 -0.7341 -0.3253
  447TMC3    H2 6718   4.109   3.110  10.999  0.6508  3.1773  3.6659
  447TMC3    C7 6719   4.065   2.930  11.160 -0.0454 -0.1098  0.7140
  447TMC3    C8 6720   3.950   3.312  10.904  0.8383  0.1467  0.6425
  447TMC3    O1 6721   4.106   2.839  11.091 -0.6243 -0.3295 -0.2973
  447TMC3    O2 6722   3.859   3.395  10.883 -0.0569 -0.6406 -0.5289
  448TMC3    C1 6723   0.844   2.174  17.362 -0.2896  0.0889  0.7672
  448TMC3    C2 6724   0.886   2.133  17.241 -0.2577 -0.3590  0.0701
  448TMC3    C3 6725   1.020   2.154  17.210 -0.3420  0.3272  0.1381
  448TMC3    C4 6726   0.925   2.244  17.446  0.7000  0.8832  1.4245
  448TMC3    C5 6727   1.053   2.265  17.410  0.3099 -0.1922 -0.9892
  448TMC3    C6 6728   1.109   2.217  17.294 -0.1614 -0.4349 -0.0143
  448TMC3     C 6729   0.708   2.147  17.398  0.1195  0.2509  0.0230
  448TMC3     O 6730   0.647   2.238  17.450  0.0615  0.0717  0.2916
  448TMC3     H 6731   0.827   2.063  17.182  0.4799  0.3181 -1.4831
  448TMC3    H1 6732   0.888   2.304  17.529 -0.8254 -0.6677  1.8505
  448TMC3    H2 6733   1.214   2.221  17.270 -0.7246  0.4310 -2.4558
  448TMC3    C7 6734   1.128   2.358  17.493 -0.1234  0.0657 -0.6152
  448TMC3    C8 6735   1.078   2.085  17.095 -0.4646 -0.0651  0.0349
  448TMC3    O1 6736   1.203   2.427  17.425  0.5086 -0.1564 -0.0889
  448TMC3    O2 6737   1.198   2.062  17.103 -0.6866  0.2707 -0.7431
  449MPD2     C 6738   3.080   0.623  13.914 -0.7505  0.2229  0.4224
  449MPD2    C1 6739   2.961   0.669  13.853 -0.1190 -0.3689 -0.5391
  449MPD2    C2 6740   2.849   0.583  13.866  0.5069  0.4536  0.0803
  449MPD2    C3 6741   2.862   0.463  13.940  0.4744 -0.0140 -0.5377
  449MPD2    C4 6742   2.981   0.425  13.993  0.5124 -0.2511 -0.8456
  449MPD2    C5 6743   3.092   0.504  13.977  0.4583 -0.5814 -0.2329
  449MPD2     H 6744   2.758   0.624  13.824 -0.6092 -2.6742 -0.5254
  449MPD2    H1 6745   2.993   0.332  14.047  1.3069  0.5158  0.3092
  449MPD2    H2 6746   3.169   0.685  13.911  1.4659 -3.0259 -0.7912
  449MPD2    H3 6747   3.188   0.483  14.024 -0.0045  0.0943  0.9931
  449MPD2     N 6748   2.737   0.401  13.963  0.0231 -0.0860  0.5581
  449MPD2    H5 6749   2.657   0.440  13.913  0.5919 -2.1342 -1.9563
  449MPD2    N1 6750   2.944   0.791  13.789 -0.1051 -0.3194 -0.3371
  449MPD2    H7 6751   2.849   0.819  13.765 -0.3274 -2.4099 -1.9624
  450TMC3    C1 6752   2.965   0.998  13.710 -0.0487  0.2254  0.2791
  450TMC3    C2 6753   3.002   1.044  13.586 -0.4387 -0.5786  0.2998
  450TMC3    C3 6754   2.905   1.104  13.508 -0.3944 -0.2579  0.6024
  450TMC3    C4 6755   2.841   1.034  13.763  0.0700 -0.4184  0.6091
  450TMC3    C5 6756   2.746   1.083  13.681  0.4609  0.5319  0.4627
  450TMC3    C6 6757   2.776   1.123  13.552  0.3413  0.4905  0.2993
  450TMC3     C 6758   3.035   0.880  13.751 -0.2371 -0.5004  0.3694
  450TMC3     O 6759   3.159   0.875  13.752  0.0807 -0.0120  0.4245
  450TMC3     H 6760   3.097   1.006  13.551 -0.9701 -2.2599  0.6681
  450TMC3    H1 6761   2.814   1.016  13.866  0.3967  0.9631  0.9361
  450TMC3    H2 6762   2.693   1.168  13.499  1.4728  2.4830  0.2359
  450TMC3    C7 6763   2.638   0.990  13.694 -0.5052  0.1362 -0.2974
  450TMC3    C8 6764   2.930   1.133  13.368 -0.1196 -0.0391  0.3463
  450TMC3    O1 6765   2.679   0.876  13.688  0.6370 -0.0432 -0.5942
  450TMC3    O2 6766   2.834   1.176  13.310 -0.6066  0.2591 -0.6471
  451MPD2     C 6767   4.090   3.934   1.395  0.4601  0.1042  0.3196
  451MPD2    C1 6768   4.101   4.031   1.304  0.6257  0.4049  0.2349
  451MPD2    C2 6769   4.082   4.000   1.165 -0.2193  0.5436  0.8376
  451MPD2    C3 6770   4.068   3.867   1.123 -0.2381 -0.8793  0.0980
  451MPD2    C4 6771   4.076   3.766   1.222  0.6469 -0.1257  0.2711
  451MPD2    C5 6772   4.084   3.803   1.351 -1.1444  0.3732  0.2131
  451MPD2     H 6773   4.076   4.077   1.089  0.1655  0.1293  0.3800
  451MPD2    H1 6774   4.059   3.661   1.204 -0.6982  0.2318 -0.4646
  451MPD2    H2 6775   4.085   3.958   1.500 -1.2272  2.7390 -0.3705
  451MPD2    H3 6776   4.080   3.721   1.421  0.8702 -0.3244 -0.4918
  451MPD2     N 6777   4.061   3.826   0.991 -0.1052 -0.1833  0.9929
  451MPD2    H5 6778   4.059   3.727   0.970  1.1279  0.2036 -0.9110
  451MPD2    N1 6779   4.089   4.161   1.354 -0.1468 -0.2165  0.5991
  451MPD2    H7 6780   4.072   4.171   1.454  1.7528  2.8302  0.6146
  452TMC3    C1 6781   4.010   3.820   0.765  1.2011  0.1190 -0.0612
  452TMC3    C2 6782   3.931   3.707   0.776  0.4151  0.7973  0.3980
  452TMC3    C3 6783   3.912   3.636   0.660 -0.1441  0.2484 -1.2639
  452TMC3    C4 6784   4.052   3.872   0.649 -0.1381 -0.7225 -0.1418
  452TMC3    C5 6785   4.018   3.806   0.534 -0.5685  0.8045  0.3601
  452TMC3    C6 6786   3.964   3.683   0.540 -0.1238 -0.0572  0.1750
  452TMC3     C 6787   4.048   3.904   0.878  0.1905  1.4943 -0.0094
  452TMC3     O 6788   4.039   4.026   0.866 -0.3730 -0.7570  0.5863
  452TMC3     H 6789   3.907   3.657   0.870  0.8464  1.2327  0.7428
  452TMC3    H1 6790   4.100   3.969   0.654  0.4937 -1.1264  1.5120
  452TMC3    H2 6791   3.954   3.620   0.452  0.8001  1.4333 -1.0020
  452TMC3    C7 6792   4.045   3.880   0.410  0.0975  0.1370 -0.6196
  452TMC3    C8 6793   3.883   3.496   0.658 -0.0312  0.1292 -0.0162
  452TMC3    O1 6794   4.143   3.955   0.419 -0.1399  0.6280  0.1290
  452TMC3    O2 6795   3.929   3.426   0.568 -0.2895 -0.1020  0.5301
  453TMC3    C1 6796   0.380   1.537  11.716 -0.3445 -0.0043 -0.3388
  453TMC3    C2 6797   0.314   1.421  11.680 -0.5178  0.0043  0.0316
  453TMC3    C3 6798   0.333   1.392  11.546  0.3890 -0.7890  0.6043
  453TMC3    C4 6799   0.466   1.602  11.632 -0.3047 -0.1583  0.4288
  453TMC3    C5 6800   0.473   1.567  11.503 -0.2063  0.0103 -0.1760
  453TMC3    C6 6801   0.407   1.455  11.460  0.7595 -0.0399  0.0028
  453TMC3     C 6802   0.390   1.564  11.857 -0.3634 -0.1141  0.3828
  453TMC3     O 6803   0.283   1.556  11.920 -0.3068 -0.2614  0.0762
  453TMC3     H 6804   0.247   1.372  11.749  0.2643 -0.5538  0.3972
  453TMC3    H1 6805   0.497   1.700  11.665 -0.5603  0.3258 -0.7721
  453TMC3    H2 6806   0.425   1.411  11.363  3.6511  1.5893 -0.1801
  453TMC3    C7 6807   0.558   1.630  11.409 -0.4917  0.4168  0.1337
  453TMC3    C8 6808   0.320   1.250  11.510 -0.2033 -1.0864 -0.3096
  453TMC3    O1 6809   0.529   1.631  11.290  0.0154 -1.4495  0.4096
  453TMC3    O2 6810   0.218   1.189  11.537  0.1412 -0.4052 -0.6660
  454MPD2     C 6811   4.398   0.702  16.040 -0.6619  0.5313 -1.5173
  454MPD2    C1 6812   4.297   0.762  15.968 -0.5109 -0.4433  0.2671
  454MPD2    C2 6813   4.262   0.896  16.007  0.1405  0.1215 -0.8725
  454MPD2    C3 6814   4.307   0.955  16.126 -0.0957  0.0391 -0.4669
  454MPD2    C4 6815   4.402   0.883  16.201 -0.0959  0.0086 -0.1248
  454MPD2    C5 6816   4.444   0.757  16.155 -0.4489 -0.3429 -0.3642
  454MPD2     H 6817   4.181   0.945  15.954  0.0748 -0.6364 -1.4627
  454MPD2    H1 6818   4.415   0.906  16.306 -2.4878 -0.6527  0.3260
  454MPD2    H2 6819   4.428   0.602  16.013 -2.2435 -0.5521  0.7517
  454MPD2    H3 6820   4.500   0.691  16.220 -1.1678  1.2043  1.8265
  454MPD2     N 6821   4.243   1.070  16.182 -0.6341  0.1395 -0.0721
  454MPD2    H5 6822   4.254   1.094  16.280  1.4904  0.3369 -0.3677
  454MPD2    N1 6823   4.231   0.697  15.859  0.8150  0.5851  0.2375
  454MPD2    H7 6824   4.150   0.744  15.820  0.4002 -0.6941 -0.4678
  455TMC3    C1 6825   4.037   1.162  16.199 -1.3899  0.8397  0.2184
  455TMC3    C2 6826   4.026   1.238  16.315  0.0161 -0.3523 -0.7009
  455TMC3    C3 6827   3.925   1.218  16.401  0.3090  0.3855  0.3019
  455TMC3    C4 6828   3.954   1.060  16.175  0.5976  0.5543 -0.2602
  455TMC3    C5 6829   3.856   1.035  16.269  0.3051  0.7837 -0.1817
  455TMC3    C6 6830   3.842   1.109  16.384  0.1133 -0.0240  0.0463
  455TMC3     C 6831   4.155   1.157  16.121  0.2239 -0.2789 -0.1558
  455TMC3     O 6832   4.133   1.171  16.000 -0.6490  0.4601 -0.4295
  455TMC3     H 6833   4.072   1.336  16.324  0.6106 -0.6793 -0.1275
  455TMC3    H1 6834   3.961   1.004  16.083 -1.3084  1.4632 -0.9535
  455TMC3    H2 6835   3.764   1.078  16.452  0.4013 -2.0793 -0.5594
  455TMC3    C7 6836   3.819   0.898  16.272  0.5431 -0.1621  0.1315
  455TMC3    C8 6837   3.878   1.307  16.511 -0.2994  0.6099 -0.2646
  455TMC3    O1 6838   3.704   0.860  16.293  0.0214  0.7053 -0.1710
  455TMC3    O2 6839   3.808   1.260  16.601 -0.2256  0.1212  0.3873
  456MPD2     C 6840   1.634   1.142  16.007  0.3859 -0.4631  0.1028
  456MPD2    C1 6841   1.731   1.160  16.106 -0.1700  0.1942 -0.3646
  456MPD2    C2 6842   1.690   1.205  16.228  0.1209  0.0057  0.6191
  456MPD2    C3 6843   1.563   1.246  16.254  0.1731  0.0577 -0.4826
  456MPD2    C4 6844   1.467   1.229  16.158 -0.1923 -0.7343 -0.5823
  456MPD2    C5 6845   1.501   1.170  16.038 -0.0409  0.3827  0.0497
  456MPD2     H 6846   1.761   1.230  16.306 -0.8920  2.1692  0.8374
  456MPD2    H1 6847   1.369   1.275  16.163 -0.4601 -1.3820  0.1913
  456MPD2    H2 6848   1.662   1.118  15.905  0.4282 -0.6037  0.1472
  456MPD2    H3 6849   1.426   1.162  15.960  1.0014 -4.1027 -0.5246
  456MPD2     N 6850   1.531   1.293  16.381 -0.2379 -0.2298 -0.0385
  456MPD2    H5 6851   1.609   1.291  16.446  1.3745 -1.0700 -2.0186
  456MPD2    N1 6852   1.867   1.117  16.087 -0.7093  0.4548  0.6418
  456MPD2    H7 6853   1.886   1.088  15.992 -1.8633  1.4004  0.1265
  457TMC3    C1 6854   1.431   1.409  16.557  1.1282 -0.4414  0.0946
  457TMC3    C2 6855   1.380   1.535  16.587  0.9213  0.4499 -0.1094
  457TMC3    C3 6856   1.425   1.595  16.700  0.0767 -0.0200 -0.3479
  457TMC3    C4 6857   1.527   1.343  16.633 -0.3225 -0.1811 -0.5000
  457TMC3    C5 6858   1.561   1.403  16.749 -0.0824 -0.4522 -0.1436
  457TMC3    C6 6859   1.514   1.528  16.778 -0.3861  0.1489  0.4714
  457TMC3     C 6860   1.417   1.364  16.421 -0.5182 -0.7127  0.6136
  457TMC3     O 6861   1.330   1.406  16.350 -0.0428 -0.0846 -0.0705
  457TMC3     H 6862   1.299   1.565  16.521  0.6895  0.9221  0.3887
  457TMC3    H1 6863   1.541   1.236  16.622 -1.5750 -0.8398  4.3291
  457TMC3    H2 6864   1.560   1.583  16.859 -1.8135  0.3240  1.1712
  457TMC3    C7 6865   1.555   1.303  16.855  0.1754  0.5346  0.2327
  457TMC3    C8 6866   1.360   1.710  16.757  0.0357  0.6294 -0.2340
  457TMC3    O1 6867   1.618   1.196  16.857  0.2383  0.3747 -0.2942
  457TMC3    O2 6868   1.387   1.738  16.872  0.4393 -0.3708 -0.3016
  458MPD2     C 6869   4.621   0.755  12.433 -0.0206  1.0554 -0.7347
  458MPD2    C1 6870   4.512   0.692  12.487  0.9668 -0.4604 -0.0015
  458MPD2    C2 6871   4.390   0.704  12.419  0.0397 -0.5247 -0.1781
  458MPD2    C3 6872   4.379   0.787  12.311  0.4880 -0.4888  0.3632
  458MPD2    C4 6873   4.500   0.829  12.258  0.1638 -0.1929  0.1896
  458MPD2    C5 6874   4.618   0.809  12.317 -0.0728 -0.2457 -0.2862
  458MPD2     H 6875   4.295   0.673  12.462  0.0075  2.5265  1.9609
  458MPD2    H1 6876   4.506   0.882  12.164  1.0861 -0.0840  0.3099
  458MPD2    H2 6877   4.711   0.749  12.493 -1.0182  0.0350  0.6442
  458MPD2    H3 6878   4.712   0.848  12.279 -0.3990 -0.3198 -1.1523
  458MPD2     N 6879   4.252   0.830  12.265  0.9418  0.3747 -0.5856
  458MPD2    H5 6880   4.171   0.783  12.305  2.5239 -1.4800  0.4119
  458MPD2    N1 6881   4.516   0.637  12.614 -0.5111  0.4121 -0.4368
  458MPD2    H7 6882   4.594   0.663  12.675 -0.4021  0.0042 -0.3974
  459TMC3    C1 6883   4.457   0.565  12.812 -0.5596 -0.3511  0.0360
  459TMC3    C2 6884   4.497   0.693  12.855  0.1472 -0.0876 -0.1743
  459TMC3    C3 6885   4.598   0.706  12.941 -0.1031  0.4448 -0.2976
  459TMC3    C4 6886   4.508   0.449  12.865 -0.2592  0.5315  0.6903
  459TMC3    C5 6887   4.616   0.462  12.950  0.2774 -0.3548  0.5489
  459TMC3    C6 6888   4.660   0.589  12.989  0.1161  0.3393 -0.4387
  459TMC3     C 6889   4.419   0.563  12.667  0.2812  0.0915 -1.4257
  459TMC3     O 6890   4.333   0.492  12.621  0.0751 -0.3236 -0.7185
  459TMC3     H 6891   4.431   0.774  12.823  1.3510  1.0559  0.2546
  459TMC3    H1 6892   4.474   0.359  12.815 -2.6169  0.6847  2.0300
  459TMC3    H2 6893   0.007   0.593  13.059 -0.4025  1.6818  0.0845
  459TMC3    C7 6894   4.624   0.354  13.043 -0.6212 -0.8095 -1.0251
  459TMC3    C8 6895   4.698   0.796  12.897  0.3333  0.1005 -0.1797
  459TMC3    O1 6896   4.714   0.344  13.118  0.4660 -0.2808  0.6971
  459TMC3    O2 6897   0.068   0.750  12.862  0.3795  0.4984  0.5302
  460MPD2     C 6898   4.284   3.447  10.840  0.0758  0.2771 -0.7304
  460MPD2    C1 6899   4.151   3.430  10.822 -0.1924 -0.3828 -0.1208
  460MPD2    C2 6900   4.096   3.514  10.725 -0.8250  0.8555  0.4714
  460MPD2    C3 6901   4.171   3.608  10.645  0.4950 -0.3179  0.2616
  460MPD2    C4 6902   4.306   3.609  10.662 -0.1745  0.0475  0.5229
  460MPD2    C5 6903   4.359   3.535  10.769  0.6104  0.0198 -0.5185
  460MPD2     H 6904   3.988   3.515  10.715 -0.5572 -0.0089 -2.4419
  460MPD2    H1 6905   4.365   3.686  10.615  0.0479 -1.0356 -0.9692
  460MPD2    H2 6906   4.333   3.386  10.916  0.9604 -0.1213 -1.6300
  460MPD2    H3 6907   4.465   3.545  10.791  0.9750 -0.6717 -1.9639
  460MPD2     N 6908   4.107   3.679  10.540  0.2244 -0.7277 -0.4158
  460MPD2    H5 6909   4.010   3.661  10.518  0.8181 -3.4771 -0.8428
  460MPD2    N1 6910   4.086   3.329  10.902  0.7250 -0.2003 -0.0143
  460MPD2    H7 6911   4.152   3.275  10.956  0.2070 -0.8662 -0.0481
  461TMC3    C1 6912   4.078   3.831  10.361 -0.1161  0.1535 -0.1227
  461TMC3    C2 6913   4.022   3.738  10.278 -0.4882  0.2210  0.0723
  461TMC3    C3 6914   3.971   3.769  10.154  0.3433 -0.4025 -0.9205
  461TMC3    C4 6915   4.086   3.959  10.314  0.3241  0.1013 -0.1589
  461TMC3    C5 6916   4.032   3.985  10.192 -0.8158  0.2223 -0.4612
  461TMC3    C6 6917   3.978   3.893  10.105  0.0660 -0.1835 -0.7321
  461TMC3     C 6918   4.155   3.793  10.477 -0.2444 -0.7045 -1.1345
  461TMC3     O 6919   4.258   3.861  10.490  0.4206  0.7643 -0.1732
  461TMC3     H 6920   4.037   3.637  10.315  0.5392 -0.5833 -2.5722
  461TMC3    H1 6921   4.135   4.031  10.379 -0.5582 -0.1920  0.8202
  461TMC3    H2 6922   3.945   3.910  10.003  0.4607 -0.2515 -0.8742
  461TMC3    C7 6923   4.020   4.123  10.157  0.3531 -0.1169  0.0254
  461TMC3    C8 6924   3.901   3.670  10.071 -0.2971 -0.4725  0.5169
  461TMC3    O1 6925   4.112   4.196  10.185  0.2686  0.1035 -0.5468
  461TMC3    O2 6926   3.892   3.685   9.950 -0.2675  0.3390 -0.4138
  462TMC3    C1 6927   2.972   3.770   0.191  0.4271 -0.3649  0.5943
  462TMC3    C2 6928   3.100   3.736   0.241  0.3078  0.4860 -0.5569
  462TMC3    C3 6929   3.128   3.602   0.236  0.6316  0.2037  0.5801
  462TMC3    C4 6930   2.881   3.677   0.147 -0.1363  0.6238  0.3956
  462TMC3    C5 6931   2.927   3.547   0.139  0.2129 -0.0117 -0.6693
  462TMC3    C6 6932   3.049   3.507   0.182 -1.6541  0.0986  0.5804
  462TMC3     C 6933   2.924   3.905   0.212  0.0823  0.3037  0.0822
  462TMC3     O 6934   2.803   3.929   0.211  0.5998  0.2797 -0.9592
  462TMC3     H 6935   3.165   3.802   0.298 -0.1858 -0.9961  1.7596
  462TMC3    H1 6936   2.785   3.698   0.101 -0.8492  0.6224  1.8837
  462TMC3    H2 6937   3.058   3.403   0.210  2.5995  0.8524  2.0559
  462TMC3    C7 6938   2.838   3.438   0.099  0.8829  0.2156 -0.7098
  462TMC3    C8 6939   3.249   3.565   0.297  0.0728  0.4102 -0.8637
  462TMC3    O1 6940   2.889   3.345   0.045 -0.5368  0.4961  0.0814
  462TMC3    O2 6941   3.287   3.633   0.392 -0.2510 -0.0433  0.3454
  463MPD2     C 6942   0.298   1.468   1.807  0.2643 -0.3026  0.2536
  463MPD2    C1 6943   0.190   1.550   1.783  0.2877  0.4453 -0.1901
  463MPD2    C2 6944   0.210   1.684   1.769  0.2503  0.5775  0.1656
  463MPD2    C3 6945   0.329   1.741   1.806 -0.0422 -0.4447 -0.1723
  463MPD2    C4 6946   0.435   1.665   1.847 -0.3909 -0.0206  0.4724
  463MPD2    C5 6947   0.417   1.523   1.842 -0.2562  0.2013  0.5843
  463MPD2     H 6948   0.125   1.748   1.749 -1.3478 -1.0948  1.6260
  463MPD2    H1 6949   0.531   1.710   1.868 -1.3364  1.8679  0.7157
  463MPD2    H2 6950   0.282   1.361   1.812  3.3778 -0.8156 -1.1408
  463MPD2    H3 6951   0.494   1.451   1.868 -0.9987 -0.4231  1.0293
  463MPD2     N 6952   0.361   1.876   1.775  0.1269 -0.6148 -0.2784
  463MPD2    H5 6953   0.459   1.899   1.789 -0.1360 -0.0653  0.6962
  463MPD2    N1 6954   0.063   1.497   1.732  0.3952 -0.0709 -0.2788
  463MPD2    H7 6955   4.728   1.568   1.715  1.5994  0.8284 -1.5748
  464TMC3    C1 6956   4.618   1.329   1.690 -0.7656 -0.3806 -0.4013
  464TMC3    C2 6957   4.523   1.404   1.738 -0.1884  0.1078  0.5109
  464TMC3    C3 6958   4.394   1.374   1.727  0.0481 -0.4321 -0.2040
  464TMC3    C4 6959   4.593   1.213   1.620  0.1874  0.0431 -0.6126
  464TMC3    C5 6960   4.465   1.197   1.574 -1.3084  0.2220  0.5465
  464TMC3    C6 6961   4.360   1.277   1.631 -0.4610  0.2401 -0.4542
  464TMC3     C 6962   0.029   1.358   1.720 -0.1103 -0.1327 -0.3586
  464TMC3     O 6963   0.098   1.256   1.704 -0.0349  0.5428  0.1235
  464TMC3     H 6964   4.560   1.478   1.807 -0.5043  2.4842 -1.8970
  464TMC3    H1 6965   4.668   1.155   1.569 -1.3275 -0.5173 -2.1892
  464TMC3    H2 6966   4.254   1.261   1.615 -0.3685  0.2871 -1.0993
  464TMC3    C7 6967   4.427   1.058   1.532  0.2357  0.4644  0.1884
  464TMC3    C8 6968   4.294   1.470   1.777 -0.8546 -0.5321 -0.2776
  464TMC3    O1 6969   4.514   0.977   1.506  0.3661 -0.0052  0.1689
  464TMC3    O2 6970   4.184   1.492   1.724  0.0711 -0.3328 -0.2998
  465MPD2     C 6971   1.081   1.609  17.181  0.2971 -0.0663 -0.0037
  465MPD2    C1 6972   0.961   1.539  17.209 -0.0054 -0.1872 -0.2582
  465MPD2    C2 6973   0.883   1.490  17.103 -0.3787  0.6093  0.4838
  465MPD2    C3 6974   0.904   1.524  16.972 -0.6354 -0.1649 -0.3916
  465MPD2    C4 6975   1.017   1.604  16.942  0.0127 -0.4769 -0.2886
  465MPD2    C5 6976   1.097   1.641  17.044  0.1020 -1.2508  0.1555
  465MPD2     H 6977   0.793   1.434  17.127  1.4211 -2.0042  1.1084
  465MPD2    H1 6978   1.050   1.633  16.843  1.0947 -1.6392 -0.2627
  465MPD2    H2 6979   1.156   1.641  17.252  1.6740 -0.3516 -1.3118
  465MPD2    H3 6980   1.187   1.693  17.014 -0.1101  0.8577  3.1369
  465MPD2     N 6981   0.809   1.479  16.872  0.0707 -0.4437  0.1104
  465MPD2    H5 6982   0.727   1.427  16.902 -0.4502  0.2732 -0.0614
  465MPD2    N1 6983   0.918   1.504  17.334 -0.3394 -0.3406  0.0987
  465MPD2    H7 6984   0.834   1.447  17.333 -0.6617  0.1287  0.1303
  466TMC3    C1 6985   0.492   1.331  16.665  0.2058  0.2206 -0.5230
  466TMC3    C2 6986   0.429   1.421  16.578 -0.4532 -0.1761  0.4894
  466TMC3    C3 6987   0.505   1.530  16.530 -1.0021  0.7188  0.6063
  466TMC3    C4 6988   0.620   1.358  16.715 -0.6262  0.2186  0.5479
  466TMC3    C5 6989   0.684   1.471  16.672  0.7445 -0.8068  0.4881
  466TMC3    C6 6990   0.636   1.555  16.575  0.5584 -0.2734 -0.0316
  466TMC3     C 6991   0.422   1.261  16.771  0.1349 -0.6941 -0.6097
  466TMC3     O 6992   0.486   1.208  16.859  0.1078 -0.6438  0.1569
  466TMC3     H 6993   0.324   1.423  16.552 -0.3978 -0.1559  0.2629
  466TMC3    H1 6994   0.663   1.302  16.797  0.4393  1.6135  0.9434
  466TMC3    H2 6995   0.698   1.626  16.523  1.1335 -1.9285 -1.6054
  466TMC3    C7 6996   0.810   1.512  16.741  0.0882  0.2336  0.2980
  466TMC3    C8 6997   0.433   1.630  16.453  0.7814  0.4059  0.6068
  466TMC3    O1 6998   0.887   1.570  16.669  0.3819  0.3760 -0.3750
  466TMC3    O2 6999   0.461   1.647  16.338  0.4906 -0.6899 -0.1413
  467TMC3    C1 7000   1.848   4.268  13.957  0.0387 -0.1056 -0.1872
  467TMC3    C2 7001   1.794   4.390  13.932  0.4519 -0.5041 -0.2328
  467TMC3    C3 7002   1.675   4.400  13.861  0.0858  0.2945  0.6184
  467TMC3    C4 7003   1.784   4.154  13.935 -0.1958  0.1431 -0.3882
  467TMC3    C5 7004   1.656   4.168  13.882  0.4625 -0.0357  0.2316
  467TMC3    C6 7005   1.603   4.286  13.837 -0.5895 -0.5082 -0.4902
  467TMC3     C 7006   1.989   4.276  13.960  0.0026  0.0254  0.1162
  467TMC3     O 7007   2.044   4.375  13.911 -0.7153 -0.0829  0.0275
  467TMC3     H 7008   1.855   4.479  13.944 -1.2006  0.4065  1.2842
  467TMC3    H1 7009   1.823   4.057  13.963 -2.5861 -0.7056  0.0272
  467TMC3    H2 7010   1.505   4.287  13.789  0.2924 -0.6351 -2.3158
  467TMC3    C7 7011   1.567   4.059  13.910  0.2452 -0.8025 -0.0618
  467TMC3    C8 7012   1.695   4.486  13.749 -0.6839 -0.2420 -0.8501
  467TMC3    O1 7013   1.611   3.946  13.903  0.2818 -0.4169  0.2335
  467TMC3    O2 7014   1.774   4.579  13.772  0.3614  0.2382  0.0436
  468MPD2     C 7015   0.900   3.328  10.948 -0.6662 -0.7400 -0.4913
  468MPD2    C1 7016   1.029   3.274  10.928  0.5322  0.3418  0.9759
  468MPD2    C2 7017   1.036   3.141  10.908  0.0197 -0.4524  0.6079
  468MPD2    C3 7018   0.932   3.052  10.917  0.5627 -0.1017  0.0428
  468MPD2    C4 7019   0.809   3.106  10.949  0.2720  0.6727 -0.4232
  468MPD2    C5 7020   0.793   3.242  10.954 -0.2903  0.3395  0.1550
  468MPD2     H 7021   1.141   3.117  10.898  0.8617  3.4388  0.2884
  468MPD2    H1 7022   0.721   3.044  10.963 -0.3572  1.2655 -1.7764
  468MPD2    H2 7023   0.890   3.436  10.942 -1.6876 -0.8175 -0.0487
  468MPD2    H3 7024   0.693   3.284  10.956 -0.7071 -0.6875  0.4279
  468MPD2     N 7025   0.946   2.913  10.915 -0.0527 -0.0844 -0.3354
  468MPD2    H5 7026   0.867   2.850  10.923  0.1212 -0.1311  0.9959
  468MPD2    N1 7027   1.146   3.355  10.915  0.6914  0.1516  0.1491
  468MPD2    H7 7028   1.238   3.317  10.894  0.6870  0.1691  0.1012
  469TMC3    C1 7029   1.280   3.527  10.916  0.8627  0.1808  0.0105
  469TMC3    C2 7030   1.368   3.492  11.017  0.0416 -0.0802  0.6204
  469TMC3    C3 7031   1.459   3.585  11.060 -0.3500  0.4891  0.7568
  469TMC3    C4 7032   1.285   3.649  10.862 -0.0460  0.4357 -0.3045
  469TMC3    C5 7033   1.364   3.743  10.920  0.2922 -0.1273  0.0839
  469TMC3    C6 7034   1.452   3.713  11.018 -0.3729 -0.4677  0.3585
  469TMC3     C 7035   1.145   3.485  10.937  0.5070 -0.1034  0.4783
  469TMC3     O 7036   1.069   3.564  10.987 -0.6821  0.1070  0.4651
  469TMC3     H 7037   1.360   3.398  11.071 -2.6461 -1.7859 -2.7346
  469TMC3    H1 7038   1.207   3.680  10.793  0.3761  2.5361  0.1504
  469TMC3    H2 7039   1.508   3.797  11.055  0.5970 -1.0031  0.1108
  469TMC3    C7 7040   1.298   3.867  10.958  0.1926  0.1228  0.2208
  469TMC3    C8 7041   1.501   3.573  11.202  0.3645 -0.0063  0.7958
  469TMC3    O1 7042   1.365   3.968  10.961 -0.2852 -0.0569 -0.1432
  469TMC3    O2 7043   1.426   3.511  11.277 -0.9478  0.5101 -0.5003
  470TMC3    C1 7044   2.748   3.974   0.536 -0.1329 -0.0846 -0.4572
  470TMC3    C2 7045   2.794   4.094   0.598 -0.3461  0.0602  0.0375
  470TMC3    C3 7046   2.716   4.151   0.697 -0.2362 -0.5422 -0.1880
  470TMC3    C4 7047   2.615   3.929   0.561 -0.0972  0.3545 -0.1580
  470TMC3    C5 7048   2.550   3.996   0.661 -0.1264  0.2567  0.5580
  470TMC3    C6 7049   2.600   4.099   0.733  0.4701  0.2007 -0.1812
  470TMC3     C 7050   2.846   3.870   0.537  0.1918 -0.4689 -0.2708
  470TMC3     O 7051   2.965   3.907   0.557  0.2035 -0.2829 -0.8121
  470TMC3     H 7052   2.898   4.124   0.588 -0.5121  0.0622 -1.6537
  470TMC3    H1 7053   2.569   3.847   0.508  2.0346 -0.4745 -0.7251
  470TMC3    H2 7054   2.548   4.139   0.820  2.7700 -0.0693  1.3039
  470TMC3    C7 7055   2.430   3.936   0.719 -0.7085 -0.5456  0.2737
  470TMC3    C8 7056   2.766   4.260   0.778  0.4156 -0.2106  0.0521
  470TMC3    O1 7057   2.405   3.959   0.837  0.8604 -0.0852  0.2212
  470TMC3    O2 7058   2.707   4.287   0.881  0.3612 -0.1305  0.2807
  471MPD2     C 7059   3.536   0.367  16.731 -0.0447  0.2712  0.2159
  471MPD2    C1 7060   3.504   0.245  16.794 -0.1770  0.5834 -0.3129
  471MPD2    C2 7061   3.520   0.232  16.930 -0.1214  0.1629  0.3862
  471MPD2    C3 7062   3.565   0.329  17.010 -0.2909 -0.3392  0.0607
  471MPD2    C4 7063   3.605   0.448  16.949 -0.6174  1.1487  0.5774
  471MPD2    C5 7064   3.585   0.471  16.814 -0.0258 -0.3659 -0.1721
  471MPD2     H 7065   3.489   0.140  16.978  0.8911  0.1650  1.0409
  471MPD2    H1 7066   3.652   0.532  16.999 -1.2600  0.0437  3.0376
  471MPD2    H2 7067   3.509   0.388  16.629  0.7072 -2.8536 -0.6163
  471MPD2    H3 7068   3.615   0.570  16.779  0.9679 -0.5228  0.2334
  471MPD2     N 7069   3.563   0.311  17.152 -0.1379  0.3269  0.9054
  471MPD2    H5 7070   3.529   0.222  17.188  2.0118 -0.9153 -0.1734
  471MPD2    N1 7071   3.468   0.130  16.713 -0.0196  0.5584  0.5139
  471MPD2    H7 7072   3.494   0.043  16.759  0.0298  0.0243 -0.5115
  472TMC3    C1 7073   3.378   0.006  16.540  0.2172  0.1706  0.0826
  472TMC3    C2 7074   3.370   0.007  16.402 -0.1150  0.3796  0.0813
  472TMC3    C3 7075   3.428   4.640  16.330 -0.2714 -0.1942  0.2612
  472TMC3    C4 7076   3.433   4.632  16.603  0.0426  0.0034 -0.6222
  472TMC3    C5 7077   3.494   4.537  16.530 -0.1544 -0.4610 -0.2691
  472TMC3    C6 7078   3.503   4.547  16.394  0.0340 -0.1633 -0.1747
  472TMC3     C 7079   3.407   0.137  16.594  0.8047 -0.1821  0.7536
  472TMC3     O 7080   3.370   0.238  16.534  0.2163 -0.5660  0.2257
  472TMC3     H 7081   3.325   0.096  16.360 -2.1004  0.4638  2.3976
  472TMC3    H1 7082   3.427   4.625  16.711 -0.9708  1.9885 -0.5499
  472TMC3    H2 7083   3.569   4.491  16.328  1.4653  0.8842  0.3648
  472TMC3    C7 7084   3.453   4.405  16.579 -0.3658  0.4160 -0.6363
  472TMC3    C8 7085   3.344   4.573  16.233  0.0718  0.3181 -0.6179
  472TMC3    O1 7086   3.459   4.375  16.701  0.1668  0.7172  0.1270
  472TMC3    O2 7087   3.364   4.456  16.212 -0.0044 -0.2383 -0.0535
  473MPD2     C 7088   3.274   1.849  13.873 -1.3539 -0.1285  0.3761
  473MPD2    C1 7089   3.163   1.923  13.911 -0.0251 -0.8377 -0.3503
  473MPD2    C2 7090   3.187   2.041  13.982  0.6675 -0.0307  0.3259
  473MPD2    C3 7091   3.315   2.079  14.019  0.0174 -0.2198 -0.3634
  473MPD2    C4 7092   3.420   1.999  13.988  0.1765 -0.5892 -0.1787
  473MPD2    C5 7093   3.395   1.879  13.920  0.6909 -0.3474  0.1367
  473MPD2     H 7094   3.106   2.107  14.010  0.5949 -0.0549  0.1733
  473MPD2    H1 7095   3.518   2.033  14.019 -0.1283  0.6175 -0.5539
  473MPD2    H2 7096   3.252   1.759  13.815  0.6647  0.2605 -0.9943
  473MPD2    H3 7097   3.473   1.811  13.889  1.0423 -0.0168  0.3000
  473MPD2     N 7098   3.349   2.188  14.105 -0.0978 -0.3679  0.4622
  473MPD2    H5 7099   3.448   2.199  14.122 -0.1510 -1.4786  1.5022
  473MPD2    N1 7100   3.036   1.893  13.871 -0.3227  0.0438  0.3119
  473MPD2    H7 7101   2.965   1.959  13.903  0.9462  1.0441  1.0560
  474TMC3    C1 7102   3.319   2.364  14.242  0.1756  0.1360  0.5793
  474TMC3    C2 7103   3.255   2.482  14.260  0.3599  0.2420  0.0517
  474TMC3    C3 7104   3.288   2.556  14.372  0.8034  0.7181  0.4675
  474TMC3    C4 7105   3.388   2.299  14.343  0.1161 -0.2149  0.2318
  474TMC3    C5 7106   3.393   2.363  14.465 -0.0155  0.9098 -0.6024
  474TMC3    C6 7107   3.343   2.488  14.483 -0.1517 -0.8666 -0.3605
  474TMC3     C 7108   3.252   2.282  14.151 -0.3583  0.4624  0.5653
  474TMC3     O 7109   3.137   2.300  14.122  0.2784  0.0210  0.2818
  474TMC3     H 7110   3.196   2.517  14.177 -1.4374  2.3095  2.1948
  474TMC3    H1 7111   3.442   2.206  14.328 -3.2788 -2.4441  1.8066
  474TMC3    H2 7112   3.374   2.546  14.569 -0.0517 -0.2844 -0.7881
  474TMC3    C7 7113   3.484   2.309  14.565 -0.2508  0.1810  0.4943
  474TMC3    C8 7114   3.201   2.659  14.415  0.2686 -0.5138  0.2396
  474TMC3    O1 7115   3.545   2.202  14.542 -0.3714  0.1481  0.4234
  474TMC3    O2 7116   3.141   2.628  14.516  0.4172 -0.2164 -0.2056
  475MPD2     C 7117   2.245   0.689  10.605  0.0001 -0.3495  0.1251
  475MPD2    C1 7118   2.277   0.790  10.692 -0.6239  0.8491 -0.1552
  475MPD2    C2 7119   2.184   0.845  10.784  0.3091 -0.1149 -0.1192
  475MPD2    C3 7120   2.053   0.801  10.781  0.1943 -0.6797 -0.4644
  475MPD2    C4 7121   2.023   0.718  10.679  0.2773  0.9005  0.5215
  475MPD2    C5 7122   2.115   0.666  10.594 -0.0371 -0.6245  0.0991
  475MPD2     H 7123   2.213   0.920  10.857 -1.3104  0.7449 -0.3541
  475MPD2    H1 7124   1.921   0.685  10.664  0.9941 -1.7189  1.4966
  475MPD2    H2 7125   2.321   0.650  10.539 -0.9098 -0.6671 -0.7263
  475MPD2    H3 7126   2.078   0.598  10.518 -2.9793  2.6476 -1.3678
  475MPD2     N 7127   1.952   0.863  10.861 -0.2924  0.5951  0.3571
  475MPD2    H5 7128   1.994   0.926  10.929  0.1845 -1.3845  1.8875
  475MPD2    N1 7129   2.406   0.852  10.697  0.1438  1.0971 -0.8792
  475MPD2    H7 7130   2.414   0.911  10.779  0.0108  0.8684 -0.7014
  476TMC3    C1 7131   2.604   0.949  10.634  0.0438  0.0834  0.3675
  476TMC3    C2 7132   2.589   1.050  10.542  0.2614  0.1158 -0.0201
  476TMC3    C3 7133   2.567   1.179  10.587  0.5642 -0.7356  0.5108
  476TMC3    C4 7134   2.603   0.985  10.762  0.3356  0.0621  0.1550
  476TMC3    C5 7135   2.580   1.112  10.808  0.6575 -0.0148 -0.5728
  476TMC3    C6 7136   2.570   1.209  10.716 -0.1645 -0.1032 -0.1179
  476TMC3     C 7137   2.507   0.843  10.604  0.6243 -0.0517  0.5246
  476TMC3     O 7138   2.495   0.803  10.488  0.6284  0.6064  0.5144
  476TMC3     H 7139   2.577   1.023  10.437  1.3712  1.2374 -0.4404
  476TMC3    H1 7140   2.622   0.905  10.832 -2.0801 -1.1417 -0.5599
  476TMC3    H2 7141   2.535   1.308  10.745  1.6365  0.5586 -0.2108
  476TMC3    C7 7142   2.478   1.109  10.903  0.2636 -0.6960  0.6004
  476TMC3    C8 7143   2.444   1.234  10.532  0.6181 -0.2846  0.1412
  476TMC3    O1 7144   2.433   0.996  10.933  0.3119 -0.0784 -0.0566
  476TMC3    O2 7145   2.416   1.349  10.559  0.0307  0.1168 -0.4162
  477MPD2     C 7146   4.337   2.521  11.874  0.0100 -0.3127  0.0135
  477MPD2    C1 7147   4.306   2.427  11.775  0.2358 -0.4288 -0.1938
  477MPD2    C2 7148   4.352   2.298  11.788  0.1374  0.0925  0.0629
  477MPD2    C3 7149   4.418   2.257  11.909 -0.3176 -0.3822 -0.1592
  477MPD2    C4 7150   4.476   2.358  11.985  0.3605  0.5523 -0.0815
  477MPD2    C5 7151   4.426   2.481  11.966  0.5657  0.0409 -0.5844
  477MPD2     H 7152   4.324   2.219  11.719  1.4053  0.5919 -1.0134
  477MPD2    H1 7153   4.542   2.347  12.070 -1.3090  3.2134  1.5755
  477MPD2    H2 7154   4.294   2.620  11.866 -0.5142 -0.5249  0.1550
  477MPD2    H3 7155   4.448   2.551  12.045 -1.4754 -1.9566  1.7634
  477MPD2     N 7156   4.419   2.119  11.938  0.1343 -0.0190 -0.6667
  477MPD2    H5 7157   4.378   2.053  11.872  1.4199 -1.8527  0.3608
  477MPD2    N1 7158   4.221   2.472  11.669  0.7713  0.1276 -0.0222
  477MPD2    H7 7159   4.190   2.569  11.674  2.7253  0.8318 -1.4361
  478TMC3    C1 7160   4.107   2.474  11.467 -0.9528 -0.2729 -0.1797
  478TMC3    C2 7161   4.020   2.563  11.515  0.4219  0.0575  0.1990
  478TMC3    C3 7162   3.950   2.639  11.420 -0.1437  0.6825 -0.3946
  478TMC3    C4 7163   4.131   2.449  11.340 -0.1316  0.1007 -0.1780
  478TMC3    C5 7164   4.071   2.527  11.245 -0.7278  0.1491  0.5865
  478TMC3    C6 7165   3.977   2.628  11.280 -0.9545  0.5007  0.2302
  478TMC3     C 7166   4.190   2.400  11.561 -0.5397  1.2489  0.0253
  478TMC3     O 7167   4.252   2.298  11.523  0.0629  0.5545 -0.2064
  478TMC3     H 7168   3.986   2.548  11.617 -0.0917 -0.9650 -0.1159
  478TMC3    H1 7169   4.200   2.369  11.315  0.6228  0.9753 -0.8636
  478TMC3    H2 7170   3.906   2.668  11.208  0.0296  3.1986  0.7684
  478TMC3    C7 7171   4.072   2.469  11.112 -0.0324 -1.1535 -0.0327
  478TMC3    C8 7172   3.843   2.730  11.465  0.3725  0.1562 -0.3949
  478TMC3    O1 7173   4.068   2.345  11.103  0.0873 -0.3212 -0.0711
  478TMC3    O2 7174   3.748   2.751  11.389  0.3641 -0.3168  0.3491
  479MPD2     C 7175   3.099   4.393  15.282 -0.2491 -1.0001 -1.5021
  479MPD2    C1 7176   3.066   4.330  15.399 -0.2040  0.3272  0.2501
  479MPD2    C2 7177   3.119   4.378  15.515 -0.3528  0.3120 -0.0449
  479MPD2    C3 7178   3.185   4.502  15.518  0.0801 -0.1200  0.1611
  479MPD2    C4 7179   3.225   4.559  15.398  0.2059  0.0544  0.3751
  479MPD2    C5 7180   3.190   4.498  15.284 -0.1352  0.0898  0.6567
  479MPD2     H 7181   3.090   4.346  15.614 -0.3222 -1.0553 -0.4868
  479MPD2    H1 7182   3.287   4.648  15.393  2.3078 -1.2841  2.5637
  479MPD2    H2 7183   3.051   4.352  15.194 -1.1542 -0.6474 -1.1628
  479MPD2    H3 7184   3.219   4.535  15.187 -1.2007 -0.3607  0.1626
  479MPD2     N 7185   3.223   4.574  15.636  0.1339 -0.2250 -0.0354
  479MPD2    H5 7186   3.299   4.638  15.613 -0.9453  0.3116 -2.1363
  479MPD2    N1 7187   2.972   4.227  15.399  0.1203 -0.6908  0.1066
  479MPD2    H7 7188   2.925   4.209  15.310  0.6568 -0.4013 -0.2363
  480TMC3    C1 7189   2.935   4.345  15.912  0.7599 -0.7385  0.0923
  480TMC3    C2 7190   2.828   4.390  15.848  0.3522 -0.0048  1.3941
  480TMC3    C3 7191   2.839   4.490  15.752  0.9012  0.5602  0.2601
  480TMC3    C4 7192   3.051   4.408  15.899  0.5549  0.4975 -0.1550
  480TMC3    C5 7193   3.065   4.506  15.801 -0.2224 -0.2013  0.3026
  480TMC3    C6 7194   2.963   4.547  15.728 -0.0392 -0.7778  0.0397
  480TMC3     C 7195   2.932   4.215  15.985 -0.1117 -0.8114  0.4509
  480TMC3     O 7196   3.037   4.173  16.034  0.1109 -0.0149 -0.2442
  480TMC3     H 7197   2.727   4.353  15.862 -1.0816  3.5626  0.3500
  480TMC3    H1 7198   3.131   4.372  15.963 -0.3298  0.9391  1.1976
  480TMC3    H2 7199   2.974   4.619  15.648  0.9172 -0.7500  0.2039
  480TMC3    C7 7200   3.203   4.529  15.765  0.3821  0.0891 -0.1562
  480TMC3    C8 7201   2.737   4.494  15.645 -0.0349 -0.7962  0.1922
  480TMC3    O1 7202   3.279   4.551  15.856  0.0181  0.5469  0.1160
  480TMC3    O2 7203   2.623   4.457  15.669  0.5134 -0.1587 -0.1376
  481MPD2     C 7204   0.017   3.935  14.563 -0.1104 -0.3420 -0.8066
  481MPD2    C1 7205   4.635   3.864  14.590 -0.3641 -0.0579  0.3858
  481MPD2    C2 7206   4.611   3.803  14.713 -0.1764  0.2206 -0.3782
  481MPD2    C3 7207   4.712   3.799  14.807  0.4051 -0.0951 -0.8626
  481MPD2    C4 7208   0.098   3.859  14.775  1.0402  0.2590  0.1937
  481MPD2    C5 7209   0.106   3.937  14.661 -0.6798  0.6791  0.1303
  481MPD2     H 7210   4.508   3.774  14.733 -0.5316  0.3129 -2.0321
  481MPD2    H1 7211   0.182   3.847  14.843  0.8670 -2.6913 -0.1219
  481MPD2    H2 7212   0.050   3.973  14.466  2.1970  1.0283  0.5173
  481MPD2    H3 7213   0.199   3.988  14.644 -0.6762  0.9573  0.9917
  481MPD2     N 7214   4.696   3.724  14.929  0.1055 -0.3259  0.3586
  481MPD2    H5 7215   0.039   3.712  14.993 -0.2142  0.9415  0.9844
  481MPD2    N1 7216   4.550   3.844  14.477 -0.0572 -0.7202 -0.9268
  481MPD2    H7 7217   4.582   3.887  14.391  0.1468  0.0036 -0.4871
  482TMC3    C1 7218   4.363   3.761  14.352  0.1112 -0.6222 -0.6324
  482TMC3    C2 7219   4.229   3.752  14.352 -0.2666  0.2085  0.7898
  482TMC3    C3 7220   4.166   3.767  14.230 -0.1998  0.2832  0.5241
  482TMC3    C4 7221   4.434   3.803  14.236 -0.3062 -0.4387 -0.5902
  482TMC3    C5 7222   4.366   3.830  14.119  0.2586 -0.5324 -0.6093
  482TMC3    C6 7223   4.227   3.826  14.121  0.4293  0.1460  0.0126
  482TMC3     C 7224   4.432   3.764  14.479  0.2489 -0.5049  0.2538
  482TMC3     O 7225   4.370   3.719  14.572 -0.2052  0.0906  0.7172
  482TMC3     H 7226   4.178   3.729  14.445 -1.2780 -0.8976 -0.0465
  482TMC3    H1 7227   4.541   3.786  14.231 -0.6978 -2.6796 -1.3744
  482TMC3    H2 7228   4.177   3.843  14.026 -1.3552 -0.9196  0.7610
  482TMC3    C7 7229   4.447   3.813  13.999  0.4946 -0.4650 -0.2315
  482TMC3    C8 7230   4.059   3.677  14.203 -0.0086  0.1861  0.4281
  482TMC3    O1 7231   4.562   3.777  14.019  0.9976 -0.5168  0.4046
  482TMC3    O2 7232   4.062   3.561  14.246  0.4359 -0.4774 -0.1213
  483TMC3    C1 7233   3.223   2.441   0.682  0.1833 -0.6859 -0.4324
  483TMC3    C2 7234   3.298   2.518   0.595 -0.2550  0.3379 -0.1113
  483TMC3    C3 7235   3.312   2.467   0.466 -0.4552  0.6510 -0.1147
  483TMC3    C4 7236   3.173   2.321   0.651  0.2901 -0.4240  0.4794
  483TMC3    C5 7237   3.198   2.272   0.522  0.2039 -0.7505 -0.5054
  483TMC3    C6 7238   3.265   2.352   0.430 -0.3749  0.5428 -0.1550
  483TMC3     C 7239   3.251   2.471   0.824  0.9606  0.8339  0.5577
  483TMC3     O 7240   3.317   2.573   0.850  0.2696 -0.1143  0.4026
  483TMC3     H 7241   3.359   2.601   0.626 -0.7839 -0.4161  2.9826
  483TMC3    H1 7242   3.122   2.262   0.726 -1.8542  2.7335  1.5187
  483TMC3    H2 7243   3.297   2.305   0.337  0.4446  0.7037  0.0499
  483TMC3    C7 7244   3.154   2.137   0.492  0.1625 -0.1434  0.1182
  483TMC3    C8 7245   3.325   2.572   0.367  0.3490 -0.5418 -0.1271
  483TMC3    O1 7246   3.125   2.056   0.579  0.1451 -0.8655  0.4433
  483TMC3    O2 7247   3.397   2.666   0.386 -0.3492 -0.1082  0.4245
  484MPD2     C 7248   4.609   1.125  12.776 -0.5894  0.0757  0.4902
  484MPD2    C1 7249   4.687   1.015  12.778  0.3677 -0.2994  0.0808
  484MPD2    C2 7250   0.071   1.012  12.710 -0.2404  0.2103 -0.5775
  484MPD2    C3 7251   0.105   1.126  12.642  0.6067 -0.3126  0.3640
  484MPD2    C4 7252   0.016   1.237  12.636 -0.9864 -0.6090  0.4006
  484MPD2    C5 7253   4.642   1.238  12.710 -0.6241  0.0665  0.6381
  484MPD2     H 7254   0.136   0.925  12.711 -0.0654  0.3670  1.7641
  484MPD2    H1 7255   0.038   1.322  12.573  0.0952 -2.7117 -2.0310
  484MPD2    H2 7256   4.519   1.116  12.836  1.0018 -0.2667  2.8251
  484MPD2    H3 7257   4.565   1.315  12.705 -2.2002 -1.3685  2.4829
  484MPD2     N 7258   0.222   1.132  12.563 -0.1139 -0.5632  0.3238
  484MPD2    H5 7259   0.228   1.212  12.500  1.1962  0.5167  1.8200
  484MPD2    N1 7260   4.634   0.914  12.857  0.2787 -0.1491 -0.0300
  484MPD2    H7 7261   4.547   0.930  12.906 -0.8344  0.5965 -2.2585
  485TMC3    C1 7262   0.442   1.092  12.498 -0.3508 -0.1480  0.8459
  485TMC3    C2 7263   0.558   1.100  12.563  1.0594 -0.1825 -0.0087
  485TMC3    C3 7264   0.647   1.198  12.535  0.0819  0.2534 -0.6122
  485TMC3    C4 7265   0.414   1.167  12.391  0.0281 -0.3672  0.1873
  485TMC3    C5 7266   0.501   1.265  12.359  0.0418 -0.7092 -0.1002
  485TMC3    C6 7267   0.615   1.278  12.428  0.5104  0.2085  0.2606
  485TMC3     C 7268   0.330   1.048  12.582  0.1295  0.1495 -0.3579
  485TMC3     O 7269   0.352   0.962  12.665  1.0324  0.2302 -0.1431
  485TMC3     H 7270   0.582   1.027  12.639  0.6774  2.2294  2.4365
  485TMC3    H1 7271   0.324   1.163  12.332 -0.4002 -1.6787  0.9325
  485TMC3    H2 7272   0.676   1.366  12.409 -2.3699  1.9011 -1.1112
  485TMC3    C7 7273   0.528   1.272  12.218  1.0076 -0.1794  0.1226
  485TMC3    C8 7274   0.777   1.143  12.501 -0.3172 -0.5593  0.5184
  485TMC3    O1 7275   0.439   1.248  12.145 -0.1408 -0.3514 -0.2493
  485TMC3    O2 7276   0.827   1.199  12.405 -0.6139 -0.4561  0.1621
  486MPD2     C 7277   2.548   4.627  13.008  0.1512 -0.1874 -0.6445
  486MPD2    C1 7278   2.470   4.534  12.949 -0.0519 -0.1993  0.8630
  486MPD2    C2 7279   2.362   4.584  12.869  1.2297 -0.1441  0.4142
  486MPD2    C3 7280   2.345   4.717  12.842  0.2860 -0.4691 -0.1095
  486MPD2    C4 7281   2.437   0.076  12.898 -0.7190  0.1313  0.6624
  486MPD2    C5 7282   2.535   0.024  12.976  0.4399  0.3723 -0.6881
  486MPD2     H 7283   2.288   4.511  12.838  2.1114 -1.0573  0.4873
  486MPD2    H1 7284   2.422   0.183  12.888 -1.1750  0.0412  0.3325
  486MPD2    H2 7285   2.629   4.596  13.073  1.0218 -0.6291 -1.9372
  486MPD2    H3 7286   2.604   0.093  13.023  1.0705 -0.9494  0.3234
  486MPD2     N 7287   2.248   0.014  12.748 -0.3550  0.5266  0.0246
  486MPD2    H5 7288   2.194   4.673  12.706 -0.5994  1.2904 -1.0521
  486MPD2    N1 7289   2.500   4.400  12.980 -0.1449  0.3754 -0.1326
  486MPD2    H7 7290   2.573   4.384  13.049  2.1100  0.3939 -2.5101
  487TMC3    C1 7291   2.498   4.174  12.960 -0.3556  0.2837 -0.0052
  487TMC3    C2 7292   2.528   4.077  12.876 -0.2078 -0.2811  0.4872
  487TMC3    C3 7293   2.544   3.952  12.924  0.9520 -0.2305  0.2646
  487TMC3    C4 7294   2.477   4.157  13.095 -0.4544  0.1190 -0.1265
  487TMC3    C5 7295   2.486   4.029  13.137  0.2738  0.6087  0.5268
  487TMC3    C6 7296   2.535   3.925  13.058 -0.2038  0.0923  0.4514
  487TMC3     C 7297   2.458   4.302  12.904  0.1921  0.2645 -0.3245
  487TMC3     O 7298   2.428   4.314  12.784  0.3358 -0.2492  0.6322
  487TMC3     H 7299   2.517   4.090  12.769 -0.4870 -1.0476  0.4212
  487TMC3    H1 7300   2.444   4.242  13.154  0.3965  0.4182 -0.0721
  487TMC3    H2 7301   2.522   3.823  13.093  1.3319  0.2765  1.5818
  487TMC3    C7 7302   2.406   3.995  13.253 -0.0749  0.1702  0.3563
  487TMC3    C8 7303   2.480   3.853  12.839  0.1179 -0.1900  0.7421
  487TMC3    O1 7304   2.440   3.893  13.311  0.3847 -0.4810 -0.3832
  487TMC3    O2 7305   2.380   3.880  12.779  0.4194 -0.3755  0.3469
  488MPD2     C 7306   1.970   1.720  15.995  0.2283  0.3472 -1.0534
  488MPD2    C1 7307   2.064   1.761  16.087  0.0508  0.5224  0.2531
  488MPD2    C2 7308   2.075   1.695  16.210  0.1830  0.6522  0.0409
  488MPD2    C3 7309   1.975   1.617  16.260  0.4067 -0.7034 -0.0244
  488MPD2    C4 7310   1.872   1.591  16.173 -0.3040  0.7097  0.1019
  488MPD2    C5 7311   1.870   1.649  16.046 -0.2551 -0.4154  0.2984
  488MPD2     H 7312   2.164   1.709  16.272 -0.6827 -0.0532  1.4410
  488MPD2    H1 7313   1.780   1.544  16.206 -0.2238  0.4310 -0.0757
  488MPD2    H2 7314   1.978   1.745  15.889  1.5252 -0.0731 -1.0502
  488MPD2    H3 7315   1.796   1.624  15.970  0.7538 -0.8541 -0.5453
  488MPD2     N 7316   1.985   1.569  16.388 -0.2146  0.0015  0.1925
  488MPD2    H5 7317   2.071   1.585  16.441  0.5172  0.2881 -1.0889
  488MPD2    N1 7318   2.172   1.841  16.047  0.0998 -0.0349 -0.7305
  488MPD2    H7 7319   2.253   1.838  16.109 -0.8321  0.4768  0.5078
  489TMC3    C1 7320   1.943   1.431  16.574 -0.4185 -0.8138 -0.3725
  489TMC3    C2 7321   2.076   1.389  16.578  0.5818  0.6864  0.5070
  489TMC3    C3 7322   2.123   1.346  16.701  0.2036  0.1385  0.3783
  489TMC3    C4 7323   1.862   1.440  16.680  0.7836 -0.0882 -0.2140
  489TMC3    C5 7324   1.922   1.413  16.800 -0.0964  0.2069 -0.1919
  489TMC3    C6 7325   2.046   1.361  16.811  0.2841 -0.1952 -0.4008
  489TMC3     C 7326   1.890   1.494  16.456 -0.2262 -0.5844 -0.2877
  489TMC3     O 7327   1.773   1.476  16.430 -1.3632 -0.1208 -1.0868
  489TMC3     H 7328   2.143   1.392  16.492 -2.9204  0.2580 -2.2665
  489TMC3    H1 7329   1.774   1.502  16.678  0.3027 -0.7480  0.5869
  489TMC3    H2 7330   2.088   1.336  16.908  0.2160  0.4956 -0.1976
  489TMC3    C7 7331   1.850   1.455  16.924  0.5637  0.4143 -0.1709
  489TMC3    C8 7332   2.266   1.352  16.729  0.2321  0.5812  0.2048
  489TMC3    O1 7333   1.807   1.570  16.919 -0.0873 -0.0571  1.0320
  489TMC3    O2 7334   2.300   1.434  16.816  0.7132 -0.5326 -0.0483
  490MPD2     C 7335   3.175   0.422  17.078 -0.0161 -0.3972  0.9464
  490MPD2    C1 7336   3.202   0.433  17.212 -0.8663  0.3527  0.3961
  490MPD2    C2 7337   3.303   0.522  17.247 -0.5264  0.2084 -0.3178
  490MPD2    C3 7338   3.355   0.622  17.166 -0.0063 -0.2912 -0.4129
  490MPD2    C4 7339   3.319   0.608  17.031  1.0089 -0.9491 -0.4548
  490MPD2    C5 7340   3.237   0.508  16.989 -0.1178  0.5527 -0.1771
  490MPD2     H 7341   3.340   0.519  17.349 -1.6258 -0.1187  0.0834
  490MPD2    H1 7342   3.351   0.670  16.948  1.5867 -0.4326  0.1537
  490MPD2    H2 7343   3.088   0.367  17.047  0.8479 -1.0799 -0.2814
  490MPD2    H3 7344   3.214   0.492  16.884 -0.3741 -2.2622  0.2972
  490MPD2     N 7345   3.445   0.729  17.208  0.2998  0.3392  0.3917
  490MPD2    H5 7346   3.487   0.780  17.130  0.3575  0.9000  0.7884
  490MPD2    N1 7347   3.150   0.340  17.297  0.2168 -0.3197 -0.4369
  490MPD2    H7 7348   3.089   0.271  17.255 -1.2039  1.0175 -0.5770
  491TMC3    C1 7349   3.084   0.235  17.506 -0.4772 -0.1620 -0.3773
  491TMC3    C2 7350   3.021   0.272  17.625 -0.3310 -0.0847 -0.2056
  491TMC3    C3 7351   2.952   0.170  17.689  0.1513  0.0263  0.2809
  491TMC3    C4 7352   3.068   0.116  17.444 -0.6155  0.2352  0.0670
  491TMC3    C5 7353   2.993   0.022  17.520 -0.1986 -0.2383  0.6483
  491TMC3    C6 7354   2.940   0.046  17.646 -0.5002 -0.4743  0.2601
  491TMC3     C 7355   3.166   0.333  17.440 -0.0819  0.8418 -0.8759
  491TMC3     O 7356   3.213   0.420  17.511  0.1804 -0.1246  0.4420
  491TMC3     H 7357   3.010   0.374  17.659  0.0923 -1.1404  3.1031
  491TMC3    H1 7358   3.122   0.094  17.352 -0.5724 -1.7938  0.5766
  491TMC3    H2 7359   2.886   4.703  17.698 -2.3034  0.5295 -0.0971
  491TMC3    C7 7360   2.949   4.651  17.439  0.7715 -0.4857  0.4943
  491TMC3    C8 7361   2.881   0.190   0.073 -0.3037 -0.4752 -0.2719
  491TMC3    O1 7362   3.022   4.612  17.348  0.2845 -0.3648 -0.3261
  491TMC3    O2 7363   2.785   0.116   0.091  0.2748 -0.2940 -0.7100
  492MPD2     C 7364   4.142   0.787  11.196  0.5786 -0.4614 -0.3116
  492MPD2    C1 7365   4.035   0.761  11.112 -0.4543 -0.1906 -0.1023
  492MPD2    C2 7366   3.921   0.700  11.166 -0.3087  0.4892  0.0223
  492MPD2    C3 7367   3.913   0.668  11.298  0.0208  0.2277 -0.1667
  492MPD2    C4 7368   4.029   0.677  11.376  0.9471  0.6209  0.2702
  492MPD2    C5 7369   4.137   0.734  11.318  0.0575 -0.4749  0.5460
  492MPD2     H 7370   3.836   0.689  11.100  0.5584  2.5511 -1.4533
  492MPD2    H1 7371   4.033   0.640  11.478 -1.4074  1.4300  0.6536
  492MPD2    H2 7372   4.224   0.849  11.161  0.7155 -0.7605 -0.5245
  492MPD2    H3 7373   4.226   0.749  11.378  2.2052 -3.5308 -1.9319
  492MPD2     N 7374   3.790   0.620  11.349  0.3320  0.1975 -0.0493
  492MPD2    H5 7375   3.795   0.593  11.447  3.5908  1.2838  0.1067
  492MPD2    N1 7376   4.045   0.813  10.977  0.0407  0.0018 -0.1048
  492MPD2    H7 7377   4.132   0.856  10.947 -1.2419  2.5098 -0.2122
  493TMC3    C1 7378   3.992   0.844  10.738  0.1779 -0.3404 -0.4858
  493TMC3    C2 7379   4.051   0.965  10.736 -0.4574  0.0661 -0.3408
  493TMC3    C3 7380   4.041   1.040  10.620 -0.1094  0.3191  0.4048
  493TMC3    C4 7381   3.928   0.795  10.630  0.3660 -0.0747 -0.3201
  493TMC3    C5 7382   3.940   0.856  10.513  0.3249  0.3100 -0.5911
  493TMC3    C6 7383   3.991   0.985  10.507 -0.5082  0.4131  0.3657
  493TMC3     C 7384   3.959   0.779  10.871  0.1426  0.3480  0.0455
  493TMC3     O 7385   3.857   0.706  10.865 -0.0005 -0.1912 -0.2552
  493TMC3     H 7386   4.083   1.020  10.824 -1.4453  0.5588 -0.2942
  493TMC3    H1 7387   3.886   0.695  10.643  1.5423 -0.6184 -0.6878
  493TMC3    H2 7388   3.973   1.056  10.427 -2.1532  1.0340  1.2951
  493TMC3    C7 7389   3.843   0.816  10.420 -0.8056  0.1417  0.2125
  493TMC3    C8 7390   3.973   1.163  10.658 -0.7517 -0.0414  0.2511
  493TMC3    O1 7391   3.733   0.776  10.463  0.2199 -0.0458  1.0730
  493TMC3    O2 7392   3.879   1.164  10.736 -0.8703 -0.4048  0.5681
  494TMC3    C1 7393   3.854   2.147   0.821  0.7311  0.4408  0.6755
  494TMC3    C2 7394   3.824   2.018   0.791 -0.1893  0.5336  0.2360
  494TMC3    C3 7395   3.849   1.967   0.670 -0.6173 -0.3802  0.5779
  494TMC3    C4 7396   3.920   2.224   0.733  0.7246 -0.0353  0.4499
  494TMC3    C5 7397   3.956   2.172   0.615 -0.3919  0.7165 -0.4323
  494TMC3    C6 7398   3.926   2.042   0.578 -0.3352 -0.0705 -0.6436
  494TMC3     C 7399   3.861   2.175   0.966 -0.3054 -0.3134 -0.0779
  494TMC3     O 7400   3.810   2.092   1.040  0.0799 -0.2854 -0.4067
  494TMC3     H 7401   3.780   1.960   0.872 -1.2209  1.0960  0.0817
  494TMC3    H1 7402   3.919   2.327   0.765  0.9004 -0.4061  1.6541
  494TMC3    H2 7403   3.960   2.002   0.483  2.8462 -0.2032  0.5504
  494TMC3    C7 7404   3.974   2.269   0.504  0.3967 -0.1445 -0.1736
  494TMC3    C8 7405   3.859   1.827   0.665 -0.2044 -0.2581  0.4282
  494TMC3    O1 7406   3.942   2.225   0.392  0.7971 -0.1208  0.4987
  494TMC3    O2 7407   3.903   1.770   0.767 -0.2496  0.2453  0.0307
  495TMC3    C1 7408   3.054   4.529  14.674 -0.3476 -0.1520 -0.3591
  495TMC3    C2 7409   2.979   4.613  14.596 -0.0020  0.2085 -0.1074
  495TMC3    C3 7410   2.860   4.652  14.647 -0.4772  0.5442 -0.0575
  495TMC3    C4 7411   3.032   4.520  14.805  0.7012  0.0420 -0.6559
  495TMC3    C5 7412   2.919   4.584  14.859  0.1279  0.1132 -1.0234
  495TMC3    C6 7413   2.832   4.642  14.779 -0.0248  0.6428  0.5739
  495TMC3     C 7414   3.057   4.400  14.620  0.0882  0.3080 -0.7132
  495TMC3     O 7415   3.041   4.306  14.696  0.2566 -0.4195  0.0915
  495TMC3     H 7416   3.002   4.630  14.492  0.3366 -1.7250 -0.3375
  495TMC3    H1 7417   3.094   4.465  14.875 -0.3508 -0.4709 -0.1260
  495TMC3    H2 7418   2.747   4.697  14.817 -1.0692 -0.1470 -0.6492
  495TMC3    C7 7419   2.893   4.593  14.995 -0.6242 -0.7055  0.3314
  495TMC3    C8 7420   2.744   4.607  14.568  0.0675  0.1146 -0.5240
  495TMC3    O1 7421   2.988   4.608  15.068 -0.6869 -0.0904  0.1115
  495TMC3    O2 7422   2.634   4.630  14.612 -0.4208  0.0175 -0.2101
  496MPD2     C 7423   0.067   0.209  15.517  0.1121  0.0927  0.7633
  496MPD2    C1 7424   0.040   0.078  15.494  0.1224  0.5394 -0.1899
  496MPD2    C2 7425   4.672   0.016  15.563  0.2597 -0.3678 -0.4421
  496MPD2    C3 7426   4.601   0.084  15.659  0.1416  0.0281  0.0622
  496MPD2    C4 7427   4.628   0.216  15.687  0.4227 -0.2215  0.4563
  496MPD2    C5 7428   0.001   0.273  15.621 -0.1413  0.0239  0.4056
  496MPD2     H 7429   4.655   4.644  15.568 -0.3547 -0.2619 -0.2404
  496MPD2    H1 7430   4.577   0.275  15.763 -1.3407  1.9189 -2.3843
  496MPD2    H2 7431   0.149   0.257  15.465  0.3691 -1.0339  0.1231
  496MPD2    H3 7432   0.033   0.373  15.649 -0.3915  0.7248 -1.8090
  496MPD2     N 7433   4.512   0.012  15.739 -0.3966  0.9807 -0.7918
  496MPD2    H5 7434   4.477   4.656  15.709  2.0442 -0.5563  1.0432
  496MPD2    N1 7435   0.123   0.010  15.399  0.1561 -0.8046  0.3793
  496MPD2    H7 7436   0.199   0.061  15.355 -2.3638  1.8877 -0.8396
  497TMC3    C1 7437   4.394   4.661  15.928 -0.4973  0.3790  0.6229
  497TMC3    C2 7438   4.351   4.558  15.844 -0.1359 -0.2031  0.4314
  497TMC3    C3 7439   4.353   4.430  15.889 -0.9436 -0.5215  0.0292
  497TMC3    C4 7440   4.446   4.632  16.053  0.7544  0.3751 -0.2209
  497TMC3    C5 7441   4.459   4.500  16.090 -0.1645  0.3704 -0.4061
  497TMC3    C6 7442   4.407   4.399  16.014 -0.5243 -0.5409  0.5910
  497TMC3     C 7443   4.466   0.037  15.863 -0.6387 -0.4312  0.3643
  497TMC3     O 7444   4.493   0.134  15.934 -0.4480  0.1314  0.3058
  497TMC3     H 7445   4.308   4.595  15.751 -1.4544 -2.4359  0.1489
  497TMC3    H1 7446   4.497   4.708  16.111  0.7184  0.5025 -0.3553
  497TMC3    H2 7447   4.410   4.294  16.042  1.6806 -1.0735 -1.7027
  497TMC3    C7 7448   4.504   4.469  16.227  0.1169 -0.2957 -0.0244
  497TMC3    C8 7449   4.314   4.314  15.807 -0.3935 -0.4068  0.5950
  497TMC3    O1 7450   4.476   4.356  16.267  0.3014 -0.1026 -0.5185
  497TMC3    O2 7451   4.294   4.208  15.864  0.1202  0.0930  0.0036
  498MPD2     C 7452   0.916   1.203  10.192 -0.7694  0.3891 -0.4530
  498MPD2    C1 7453   1.010   1.122  10.134 -0.2808  0.1782  0.9640
  498MPD2    C2 7454   0.966   0.999  10.102 -0.5899 -0.2332 -0.3050
  498MPD2    C3 7455   0.836   0.962  10.113 -0.4462 -0.6406  0.3734
  498MPD2    C4 7456   0.741   1.048  10.164 -0.1068  0.4759  0.3508
  498MPD2    C5 7457   0.788   1.165  10.211  0.1704 -0.0778  0.5164
  498MPD2     H 7458   1.033   0.923  10.063  0.5105  1.6212 -1.9926
  498MPD2    H1 7459   0.640   1.018  10.191  0.4057 -2.1171 -0.5475
  498MPD2    H2 7460   0.947   1.300  10.228  0.4165 -0.7154  1.5251
  498MPD2    H3 7461   0.721   1.238  10.253  0.3835  0.2145  0.3453
  498MPD2     N 7462   0.803   0.835  10.056 -0.3033 -0.4528  0.0759
  498MPD2    H5 7463   0.876   0.767  10.040  0.0956 -0.0615  0.2322
  498MPD2    N1 7464   1.139   1.172  10.120  0.2357 -0.0019 -0.6631
  498MPD2    H7 7465   1.147   1.272  10.133  2.1142 -0.4328  1.4204
  499TMC3    C1 7466   1.376   1.185  10.085  0.1469 -0.0914 -0.2116
  499TMC3    C2 7467   1.495   1.118  10.094 -0.7559 -0.1828  0.0823
  499TMC3    C3 7468   1.603   1.186  10.050 -0.2943 -0.0375 -0.2766
  499TMC3    C4 7469   1.359   1.294  10.004  0.2280  0.3046 -0.6534
  499TMC3    C5 7470   1.476   1.345   9.957 -0.1921 -0.2058  0.1604
  499TMC3    C6 7471   1.600   1.303   9.985 -0.1496 -0.2757 -0.9960
  499TMC3     C 7472   1.253   1.101  10.114 -0.6086 -0.3849  0.3162
  499TMC3     O 7473   1.270   0.981  10.137 -0.0747 -0.1174  0.0636
  499TMC3     H 7474   1.508   1.036  10.163  3.3629  0.2553 -0.1711
  499TMC3    H1 7475   1.262   1.331   9.973  0.1322 -1.1470 -2.1083
  499TMC3    H2 7476   1.686   1.346   9.935 -0.1113  1.4516  0.5635
  499TMC3    C7 7477   1.480   1.479   9.894 -0.2967 -0.0736  0.4239
  499TMC3    C8 7478   1.709   1.091  10.039 -0.5951 -0.3334  0.1733
  499TMC3    O1 7479   1.559   1.484   9.796  0.0968 -0.6115 -0.3788
  499TMC3    O2 7480   1.676   0.972  10.039  0.5849  0.4445 -0.3289
  500MPD2     C 7481   2.873   1.905  10.784  0.4849  0.1046  0.3322
  500MPD2    C1 7482   2.911   1.964  10.669  0.7685  0.5568 -0.6492
  500MPD2    C2 7483   2.813   1.991  10.572  0.0983 -0.2851 -0.7409
  500MPD2    C3 7484   2.679   1.943  10.588  0.0578 -0.5033 -0.2837
  500MPD2    C4 7485   2.648   1.872  10.702 -0.0890 -0.0840 -0.1666
  500MPD2    C5 7486   2.748   1.856  10.799  0.0642 -0.3672 -0.5937
  500MPD2     H 7487   2.844   2.038  10.479  1.0367  1.3571  0.4023
  500MPD2    H1 7488   2.550   1.832  10.723 -0.7552  2.2423  1.2153
  500MPD2    H2 7489   2.932   1.892  10.874 -0.8616  0.8653  1.3300
  500MPD2    H3 7490   2.722   1.825  10.899  1.1082 -1.2047 -0.5774
  500MPD2     N 7491   2.578   1.965  10.492  0.0552 -0.6189  0.1680
  500MPD2    H5 7492   2.487   1.929  10.517 -0.0432 -0.7676 -0.4103
  500MPD2    N1 7493   3.041   2.008  10.638 -0.0386  0.2266  0.7169
  500MPD2    H7 7494   3.053   2.071  10.560 -1.3481 -1.2449 -0.6595
  501TMC3    C1 7495   3.269   2.028  10.670 -0.1897 -0.6739 -0.1184
  501TMC3    C2 7496   3.270   2.131  10.584  0.6109 -0.2545  0.4954
  501TMC3    C3 7497   3.389   2.180  10.548 -0.0465 -0.1006  0.1388
  501TMC3    C4 7498   3.386   1.966  10.716 -0.9636 -0.2478  0.1215
  501TMC3    C5 7499   3.501   2.024  10.681 -0.2070 -0.1920 -0.3180
  501TMC3    C6 7500   3.505   2.125  10.588  0.0608  0.5091  0.0106
  501TMC3     C 7501   3.148   1.968  10.716 -0.7576 -0.5666  0.8087
  501TMC3     O 7502   3.151   1.885  10.808 -0.0840 -0.4851 -0.1248
  501TMC3     H 7503   3.188   2.202  10.583  1.4801  0.7196 -0.8280
  501TMC3    H1 7504   3.394   1.886  10.790  1.2463 -1.6676 -1.6584
  501TMC3    H2 7505   3.600   2.162  10.551  0.8234  0.8799  2.3714
  501TMC3    C7 7506   3.624   1.966  10.732 -0.3329  0.2072 -0.1134
  501TMC3    C8 7507   3.413   2.313  10.485  0.4916  0.4862  0.2497
  501TMC3    O1 7508   3.610   1.847  10.767  0.0813  0.5632 -0.2638
  501TMC3    O2 7509   3.524   2.355  10.486 -0.1892 -0.9013 -0.3167
  502TMC3    C1 7510   2.546   0.527  15.036  0.0914 -0.2435 -0.5933
  502TMC3    C2 7511   2.513   0.659  14.997 -0.4801  0.6206  0.3449
  502TMC3    C3 7512   2.380   0.687  14.958  0.1894  0.5258 -0.3167
  502TMC3    C4 7513   2.448   0.430  15.051  0.7983 -0.4476 -1.6007
  502TMC3    C5 7514   2.324   0.460  15.002  0.4501  0.6347  0.1101
  502TMC3    C6 7515   2.289   0.588  14.957  0.9013 -0.2166  0.4219
  502TMC3     C 7516   2.650   0.538  15.132  0.3768 -0.5284 -0.6517
  502TMC3     O 7517   2.748   0.608  15.114  0.4985 -1.0211 -0.0673
  502TMC3     H 7518   2.583   0.740  15.014  0.8716 -0.3978 -0.3397
  502TMC3    H1 7519   2.469   0.334  15.097  0.1172  0.1720 -0.0026
  502TMC3    H2 7520   2.190   0.604  14.916 -0.2171  0.0547  3.2172
  502TMC3    C7 7521   2.230   0.363  15.039  0.2949  0.2304 -0.1041
  502TMC3    C8 7522   2.361   0.813  14.889 -0.1634 -0.5930 -0.6059
  502TMC3    O1 7523   2.261   0.244  15.056 -0.2439 -0.0827  0.5524
  502TMC3    O2 7524   2.465   0.875  14.859  0.5759 -0.3202  0.2779
  503MPD2     C 7525   4.207   1.263  16.833  0.0013  0.0886 -1.0425
  503MPD2    C1 7526   4.212   1.258  16.969 -0.3138  0.1331  0.1928
  503MPD2    C2 7527   4.261   1.143  17.021 -0.1824  0.2151  0.5071
  503MPD2    C3 7528   4.323   1.042  16.947 -0.4860  0.7800 -0.1950
  503MPD2    C4 7529   4.314   1.056  16.810  0.4425 -0.2452 -0.3234
  503MPD2    C5 7530   4.255   1.166  16.751  0.5435  0.3243  0.2329
  503MPD2     H 7531   4.259   1.127  17.129  1.2856  2.4515  0.8746
  503MPD2    H1 7532   4.352   0.979  16.743 -3.3922 -2.4172 -0.0337
  503MPD2    H2 7533   4.144   1.335  16.782 -0.9356  0.3756  0.5332
  503MPD2    H3 7534   4.229   1.169  16.646 -1.4294  0.8893  0.7378
  503MPD2     N 7535   4.376   0.932  17.017  0.0925 -0.0704 -0.4336
  503MPD2    H5 7536   4.362   0.933  17.117  0.1203 -3.4169 -0.3882
  503MPD2    N1 7537   4.156   1.353  17.055 -0.4051  0.0189 -0.2880
  503MPD2    H7 7538   4.160   1.335  17.155  1.3690 -0.3568 -0.4209
  504TMC3    C1 7539   4.558   0.782  17.065  0.0616 -0.6148 -0.0004
  504TMC3    C2 7540   4.501   0.732  17.181  0.1764 -0.2034  0.7054
  504TMC3    C3 7541   4.575   0.659  17.265 -0.3563  0.1307 -0.0005
  504TMC3    C4 7542   4.687   0.757  17.033  0.1663 -0.0519 -0.8445
  504TMC3    C5 7543   0.023   0.687  17.119  0.2933 -0.2427 -0.2520
  504TMC3    C6 7544   4.711   0.627  17.237 -0.8182 -0.3043  0.2137
  504TMC3     C 7545   4.480   0.858  16.966 -0.0486 -0.6729  0.2390
  504TMC3     O 7546   4.513   0.853  16.847 -0.6945 -0.5615  0.0188
  504TMC3     H 7547   4.395   0.748  17.197  0.6152  0.8414  2.6742
  504TMC3    H1 7548   4.732   0.817  16.955 -0.6021  2.3385  0.5283
  504TMC3    H2 7549   0.042   0.568  17.299  0.4481 -0.3996 -1.2460
  504TMC3    C7 7550   0.161   0.675  17.083  0.1855  0.5613  0.0382
  504TMC3    C8 7551   4.515   0.639  17.395 -0.4701  0.3522 -0.4435
  504TMC3    O1 7552   0.208   0.773  17.034 -0.2198 -0.1696  0.1970
  504TMC3    O2 7553   4.403   0.685  17.408 -0.3318 -1.0389 -0.5111
  505MPD2     C 7554   0.447   4.680  10.686  0.2285  0.0266 -0.0647
  505MPD2    C1 7555   0.456   4.581  10.594  0.5624  0.3620  0.0373
  505MPD2    C2 7556   0.578   4.516  10.578 -0.1285 -0.7952  0.0963
  505MPD2    C3 7557   0.684   4.540  10.667  0.1361  0.7745 -0.0860
  505MPD2    C4 7558   0.674   4.645  10.755  0.3008 -0.1935 -0.1232
  505MPD2    C5 7559   0.558   4.714  10.762  0.1533  0.3745 -0.6599
  505MPD2     H 7560   0.598   4.441  10.503 -1.3300 -1.1908  0.1667
  505MPD2    H1 7561   0.745   4.674  10.832 -0.5085  2.7319 -0.4821
  505MPD2    H2 7562   0.356   0.003  10.702 -1.7344 -2.8947 -0.6187
  505MPD2    H3 7563   0.545   0.064  10.829  2.4782 -1.4001  1.9927
  505MPD2     N 7564   0.801   4.475  10.627  0.3705  0.4038 -0.5099
  505MPD2    H5 7565   0.805   4.417  10.544  0.0628 -0.0215 -0.2287
  505MPD2    N1 7566   0.337   4.552  10.510 -0.6220 -0.1300 -0.1870
  505MPD2    H7 7567   0.258   4.611  10.533  0.6039  0.8574  1.4549
  506TMC3    C1 7568   0.206   4.410  10.362  0.8781  0.1042  0.5723
  506TMC3    C2 7569   0.137   4.504  10.285  0.1611  0.0369  0.5218
  506TMC3    C3 7570   0.085   4.461  10.168  0.6055 -0.3837  0.7076
  506TMC3    C4 7571   0.213   4.281  10.315  0.3373  0.0540  0.3356
  506TMC3    C5 7572   0.165   4.242  10.191  0.5759  0.0362  0.0776
  506TMC3    C6 7573   0.094   4.331  10.120  0.9911 -0.3548 -0.2154
  506TMC3     C 7574   0.337   4.449  10.415  0.1762  0.1102  0.6115
  506TMC3     O 7575   0.424   4.380  10.367  0.1392  0.8647 -0.2303
  506TMC3     H 7576   0.133   4.610  10.310  0.5709  0.6106 -1.8264
  506TMC3    H1 7577   0.241   4.198  10.380  1.7340  0.1013 -0.2077
  506TMC3    H2 7578   0.082   4.320  10.013  0.5991  0.5710 -0.2668
  506TMC3    C7 7579   0.267   4.172  10.119  0.1128  0.3153 -0.8753
  506TMC3    C8 7580   0.063   4.561  10.062  0.5502 -0.2047  0.7472
  506TMC3    O1 7581   0.228   4.124  10.013  0.0486  0.5484  0.2491
  506TMC3    O2 7582   4.728   4.526   9.964  0.0211  0.6149  0.1758
  507TMC3    C1 7583   1.112   0.775  14.753  0.6790  0.5844 -0.2555
  507TMC3    C2 7584   1.020   0.722  14.663  0.2716 -0.2295  0.0459
  507TMC3    C3 7585   0.973   0.813  14.568 -0.4504 -0.4714 -0.1864
  507TMC3    C4 7586   1.132   0.911  14.772 -0.1835  0.5938 -0.0603
  507TMC3    C5 7587   1.064   0.998  14.690  0.6488  0.3584  0.1172
  507TMC3    C6 7588   0.994   0.947  14.581  0.4237 -0.3289  0.2338
  507TMC3     C 7589   1.167   0.689  14.853  0.4959  0.0639 -0.4741
  507TMC3     O 7590   1.100   0.593  14.881 -0.3798  0.3317  0.1680
  507TMC3     H 7591   1.011   0.614  14.658 -0.3419 -0.1707 -0.1493
  507TMC3    H1 7592   1.183   0.961  14.854 -0.0513  2.1154 -1.0661
  507TMC3    H2 7593   0.952   1.013  14.506  1.2708 -0.3162 -0.2366
  507TMC3    C7 7594   0.995   1.104  14.758 -0.4031 -0.0201 -1.0990
  507TMC3    C8 7595   0.838   0.798  14.525 -0.4617 -0.2669 -0.0884
  507TMC3    O1 7596   1.028   1.134  14.873 -0.1496  0.4810  0.4638
  507TMC3    O2 7597   0.777   0.896  14.550 -0.2890  0.0731 -0.1089
  508MPD2     C 7598   2.032   2.781  16.179 -0.1824 -0.0498  0.9830
  508MPD2    C1 7599   1.984   2.909  16.218  0.2239 -0.6096 -0.2217
  508MPD2    C2 7600   1.920   2.994  16.125 -0.4543  0.1846 -0.0048
  508MPD2    C3 7601   1.923   2.962  15.991 -0.6785  0.7825 -0.1079
  508MPD2    C4 7602   1.975   2.840  15.949  0.1629 -0.5754 -0.0331
  508MPD2    C5 7603   2.019   2.749  16.044 -0.3812  0.1520 -0.7287
  508MPD2     H 7604   1.889   3.092  16.159 -0.9126  0.2500 -0.6083
  508MPD2    H1 7605   1.989   2.814  15.845  1.6216  3.0005 -0.7244
  508MPD2    H2 7606   2.088   2.716  16.245  1.2065 -0.3182 -0.4526
  508MPD2    H3 7607   2.054   2.652  16.010  0.3251  0.0156  0.3754
  508MPD2     N 7608   1.877   3.063  15.903  0.3269  0.5662 -0.6776
  508MPD2    H5 7609   1.840   3.149  15.942 -0.6038 -0.3908  0.5458
  508MPD2    N1 7610   2.019   2.949  16.348 -0.6162 -0.4530 -0.2878
  508MPD2    H7 7611   2.093   2.889  16.385 -1.7976 -0.2770  2.3648
  509TMC3    C1 7612   1.764   3.347  15.586 -0.0941  0.5459  0.5287
  509TMC3    C2 7613   1.860   3.439  15.615  0.3672 -0.0345 -0.1534
  509TMC3    C3 7614   1.958   3.410  15.707  0.1932  0.1707 -0.5185
  509TMC3    C4 7615   1.772   3.225  15.636 -0.5034 -0.0908  0.4249
  509TMC3    C5 7616   1.872   3.199  15.719 -0.4536  0.0398 -0.3141
  509TMC3    C6 7617   1.969   3.286  15.760  0.1660  0.2616  0.2579
  509TMC3     C 7618   1.665   3.375  15.481  0.0585 -0.2816  0.0738
  509TMC3     O 7619   1.649   3.286  15.397  0.3158  0.1829  0.2484
  509TMC3     H 7620   1.868   3.531  15.558 -0.4167 -1.4592 -2.5627
  509TMC3    H1 7621   1.708   3.146  15.598 -0.2440  0.7624 -1.8413
  509TMC3    H2 7622   2.049   3.263  15.830  2.6388 -3.0528 -3.6839
  509TMC3    C7 7623   1.886   3.063  15.769  1.0895 -0.7765  1.2569
  509TMC3    C8 7624   2.061   3.505  15.751  0.5971  0.1334  0.0312
  509TMC3    O1 7625   1.871   2.967  15.695 -0.8249  0.5893 -0.8560
  509TMC3    O2 7626   2.165   3.464  15.804 -0.0970  0.3068  0.2241
  510MPD2     C 7627   4.296   0.117  14.636 -0.2651  0.2442 -0.3885
  510MPD2    C1 7628   4.376   0.028  14.704  0.0623 -0.7357 -0.1306
  510MPD2    C2 7629   4.514   0.013  14.673 -0.1195  0.5608  0.1192
  510MPD2    C3 7630   4.568   0.083  14.568 -0.0350  0.1801  0.1101
  510MPD2    C4 7631   4.485   0.183  14.507 -0.2762  1.2839  0.2417
  510MPD2    C5 7632   4.349   0.197  14.536 -0.3727 -0.3279  0.1030
  510MPD2     H 7633   4.573   4.675  14.728  0.0242  1.5221  1.2478
  510MPD2    H1 7634   4.528   0.254  14.437  0.2470 -0.5677 -1.3149
  510MPD2    H2 7635   4.198   0.145  14.673 -0.8100 -0.8217 -1.0331
  510MPD2    H3 7636   4.294   0.282  14.499  1.8029  0.2899 -1.7079
  510MPD2     N 7637   4.697   0.055  14.529 -0.0129 -0.1958  0.1794
  510MPD2    H5 7638   0.011   4.729  14.593 -0.5543 -1.9479 -1.0770
  510MPD2    N1 7639   4.314   4.690  14.807  0.6313 -0.0799  0.4059
  510MPD2    H7 7640   4.213   4.692  14.804  0.7027 -0.0492 -2.0532
  511TMC3    C1 7641   4.264   4.515  14.946 -0.3403  0.7506  0.2004
  511TMC3    C2 7642   4.219   4.557  15.063  0.8376  0.5017  0.2052
  511TMC3    C3 7643   4.097   4.509  15.103 -0.5368  0.5178  0.3273
  511TMC3    C4 7644   4.188   4.427  14.868 -0.2744  0.0473  0.3938
  511TMC3    C5 7645   4.068   4.384  14.914  0.0220  0.3493  0.3222
  511TMC3    C6 7646   4.018   4.424  15.030 -0.5214 -0.4003  0.2265
  511TMC3     C 7647   4.368   4.596  14.886 -0.9809  0.4410  0.2625
  511TMC3     O 7648   4.488   4.572  14.909 -0.0483  0.2612 -0.1635
  511TMC3     H 7649   4.262   4.645  15.110 -0.0756 -0.0363  2.0606
  511TMC3    H1 7650   4.223   4.405  14.768 -0.7876 -2.8067  0.8501
  511TMC3    H2 7651   3.914   4.408  15.053 -0.2276 -1.7803  0.5682
  511TMC3    C7 7652   4.002   4.300  14.828  0.4385  0.4636  0.2663
  511TMC3    C8 7653   4.045   4.539  15.244 -0.1348 -0.1893  0.2904
  511TMC3    O1 7654   4.025   4.304  14.706  0.0416 -0.7959 -0.0435
  511TMC3    O2 7655   4.060   4.659  15.277 -0.2505  0.4601 -0.2116
  512TMC3    C1 7656   2.932   4.037  13.461  0.9513 -0.2542  0.0369
  512TMC3    C2 7657   3.062   4.018  13.505 -0.2583 -0.6375 -0.0410
  512TMC3    C3 7658   3.122   3.894  13.477 -0.1098  0.0267 -0.7655
  512TMC3    C4 7659   2.865   3.940  13.392  0.0182  0.2414  0.0099
  512TMC3    C5 7660   2.932   3.823  13.380 -0.1526 -0.2838  1.1280
  512TMC3    C6 7661   3.057   3.794  13.412  0.3939 -1.2096  0.8223
  512TMC3     C 7662   2.874   4.173  13.478 -0.5043 -0.8645  0.3785
  512TMC3     O 7663   2.957   4.260  13.464  0.1470 -0.1310  0.1105
  512TMC3     H 7664   3.111   4.097  13.561 -1.8165  0.0200  0.3883
  512TMC3    H1 7665   2.762   3.948  13.360 -0.2884 -2.8834  0.1942
  512TMC3    H2 7666   3.115   3.705  13.391  2.0707 -0.0401  0.4724
  512TMC3    C7 7667   2.855   3.714  13.326 -0.5004 -0.4303 -0.5332
  512TMC3    C8 7668   3.262   3.876  13.494  0.8239 -0.2085  0.1615
  512TMC3    O1 7669   2.749   3.732  13.275 -0.5996  0.2834  0.0379
  512TMC3    O2 7670   3.308   3.763  13.494 -0.1256  0.0748 -0.0825
  513MPD2     C 7671   0.852   0.468  12.788  0.0913  0.1265  0.4094
  513MPD2    C1 7672   0.799   0.347  12.745 -0.3412  0.0385  0.6879
  513MPD2    C2 7673   0.867   0.233  12.771 -0.6042 -0.3519  0.4487
  513MPD2    C3 7674   0.977   0.242  12.860  0.1672 -0.3459  0.0329
  513MPD2    C4 7675   1.023   0.354  12.908  0.4174  0.2847 -0.2505
  513MPD2    C5 7676   0.960   0.470  12.864 -0.0066 -0.6511 -0.0894
  513MPD2     H 7677   0.826   0.138  12.738  1.7446 -0.4257 -2.2228
  513MPD2    H1 7678   1.097   0.358  12.987  1.1750  1.4091 -1.0090
  513MPD2    H2 7679   0.810   0.561  12.752  0.3206 -0.4520 -1.3653
  513MPD2    H3 7680   1.000   0.566  12.897  1.2814 -1.4700  0.7063
  513MPD2     N 7681   1.030   0.119  12.890  0.1775  0.4871 -0.1168
  513MPD2    H5 7682   0.985   0.051  12.830 -0.9326  0.9642  0.1825
  513MPD2    N1 7683   0.679   0.350  12.667  0.8862  0.3737  0.0300
  513MPD2    H7 7684   0.641   0.443  12.652 -2.7739 -1.4817 -2.2415
  514TMC3    C1 7685   0.491   0.257  12.541  0.1004 -0.0215 -0.3675
  514TMC3    C2 7686   0.491   0.335  12.426 -0.4981 -0.1498  0.6983
  514TMC3    C3 7687   0.448   0.275  12.311  0.0782  0.3786  0.3464
  514TMC3    C4 7688   0.428   0.138  12.543  0.3561 -1.2391 -0.4299
  514TMC3    C5 7689   0.377   0.084  12.424 -0.0830  0.3587 -0.3142
  514TMC3    C6 7690   0.387   0.152  12.306 -0.1772  0.2535 -0.4028
  514TMC3     C 7691   0.610   0.241  12.627 -0.7395 -0.0038 -0.0825
  514TMC3     O 7692   0.634   0.121  12.649 -0.2615  0.0439 -0.4550
  514TMC3     H 7693   0.556   0.421  12.425  0.0745 -0.6074 -0.7701
  514TMC3    H1 7694   0.425   0.075  12.631 -0.5292 -1.5578 -0.6849
  514TMC3    H2 7695   0.342   0.101  12.222  1.7844  1.9454 -2.4822
  514TMC3    C7 7696   0.412   4.675  12.405 -0.0728 -0.4921 -0.1718
  514TMC3    C8 7697   0.514   0.324  12.193 -0.3116 -0.3876 -0.5711
  514TMC3    O1 7698   0.371   4.615  12.306  0.6501 -0.0594 -0.0803
  514TMC3    O2 7699   0.592   0.416  12.207  0.5233 -0.0108  0.0248
  515MPD2     C 7700   3.061   1.119  14.717 -0.0141 -0.4324  0.2245
  515MPD2    C1 7701   3.101   0.993  14.749 -0.0599 -0.0167 -0.4506
  515MPD2    C2 7702   3.139   0.961  14.873 -0.8951  0.1873  0.6421
  515MPD2    C3 7703   3.131   1.053  14.978  0.1495 -0.1059  0.6151
  515MPD2    C4 7704   3.080   1.177  14.954  0.5937 -0.7794  0.2840
  515MPD2    C5 7705   3.048   1.208  14.818  0.3503 -0.4389  0.0128
  515MPD2     H 7706   3.168   0.859  14.894 -0.8552 -0.4310 -2.4346
  515MPD2    H1 7707   3.074   1.259  15.024  0.6750 -1.3480  0.9631
  515MPD2    H2 7708   3.024   1.155  14.622 -1.6423  0.6697  1.2566
  515MPD2    H3 7709   3.020   1.313  14.808  0.8501 -0.3167 -0.1259
  515MPD2     N 7710   3.182   1.027  15.109 -0.0494 -0.0473 -0.1465
  515MPD2    H5 7711   3.194   1.106  15.172  1.8823  0.0261 -0.6017
  515MPD2    N1 7712   3.106   0.888  14.653  0.4877  0.3436  0.5390
  515MPD2    H7 7713   3.160   0.807  14.684  1.6566  0.4596 -1.2071
  516TMC3    C1 7714   3.066   0.767  14.449 -0.4927  0.1426 -1.1683
  516TMC3    C2 7715   2.999   0.781  14.326 -0.2227  0.0310 -0.6217
  516TMC3    C3 7716   2.902   0.696  14.279 -0.5286  0.0790 -0.3734
  516TMC3    C4 7717   3.028   0.657  14.526  0.4512 -0.5920  0.0785
  516TMC3    C5 7718   2.930   0.571  14.473 -0.5925 -0.4656  0.0771
  516TMC3    C6 7719   2.864   0.590  14.355 -0.2205  0.4428 -0.4133
  516TMC3     C 7720   3.055   0.888  14.529  0.0607  0.8794 -0.3611
  516TMC3     O 7721   2.992   0.973  14.465 -0.0320  0.4406  0.9545
  516TMC3     H 7722   3.042   0.858  14.264  1.5599  0.3461  0.9991
  516TMC3    H1 7723   3.050   0.637  14.630 -2.5029  1.1649  1.0364
  516TMC3    H2 7724   2.798   0.517  14.310  0.6952  0.4936 -1.8254
  516TMC3    C7 7725   2.887   0.457  14.562 -0.7525  0.1231  1.1258
  516TMC3    C8 7726   2.793   0.761  14.199  0.1057 -0.5849 -0.2482
  516TMC3    O1 7727   2.980   0.402  14.622  0.8354 -0.3934  0.3985
  516TMC3    O2 7728   2.712   0.676  14.160  0.4324 -0.2521  0.5218
  517MPD2     C 7729   2.139   2.110  17.474  0.3359  0.3805  0.9332
  517MPD2    C1 7730   2.276   2.108  17.444  0.6805 -0.0706 -0.5074
  517MPD2    C2 7731   2.343   2.219  17.475 -0.8984 -0.2576  0.7837
  517MPD2    C3 7732   2.285   2.332  17.540  0.8314 -0.0224  0.1401
  517MPD2    C4 7733   2.153   2.336  17.568 -0.2589 -0.1712  0.0075
  517MPD2    C5 7734   2.074   2.224  17.529 -0.8742 -0.0699 -0.5216
  517MPD2     H 7735   2.445   2.237  17.442 -1.8772  0.3331 -1.8932
  517MPD2    H1 7736   2.113   2.410  17.635 -0.8278 -0.5497  0.0864
  517MPD2    H2 7737   2.079   2.023  17.451  2.2572 -0.3289 -1.4250
  517MPD2    H3 7738   1.968   2.220  17.548 -0.8162 -4.7361 -1.3218
  517MPD2     N 7739   2.359   2.440  17.578  0.3944  0.6182  0.2786
  517MPD2    H5 7740   2.308   2.523  17.608 -0.1231  0.3242  0.2128
  517MPD2    N1 7741   2.338   2.012  17.359 -0.1411 -0.3776 -0.2873
  517MPD2    H7 7742   2.434   2.035  17.334 -0.4887  1.9683  0.5468
  518TMC3    C1 7743   2.358   1.840  17.203  0.1534 -0.0400 -0.3547
  518TMC3    C2 7744   2.370   1.702  17.239 -0.4660  0.4627 -0.1349
  518TMC3    C3 7745   2.482   1.637  17.183  0.3439 -0.6637  0.9069
  518TMC3    C4 7746   2.459   1.916  17.149 -0.1179  0.1239  0.2507
  518TMC3    C5 7747   2.568   1.847  17.112  0.2215 -0.0790 -0.5396
  518TMC3    C6 7748   2.589   1.708  17.138 -0.3577 -0.4302  0.3092
  518TMC3     C 7749   2.275   1.902  17.310 -0.0334 -0.1097  0.0067
  518TMC3     O 7750   2.176   1.839  17.345 -0.0909 -0.3935 -0.2194
  518TMC3     H 7751   2.293   1.647  17.291 -0.7758 -0.1955 -1.2925
  518TMC3    H1 7752   2.456   2.020  17.121  0.9566 -0.0287 -0.4529
  518TMC3    H2 7753   2.678   1.664  17.095 -0.2044  1.5844 -1.4701
  518TMC3    C7 7754   2.669   1.931  17.058 -0.5401 -0.0057 -0.0035
  518TMC3    C8 7755   2.492   1.493  17.159 -0.4244  0.2739  0.6125
  518TMC3    O1 7756   2.649   2.032  16.990 -0.9461  0.2258  0.6523
  518TMC3    O2 7757   2.602   1.441  17.172  0.0367 -0.2187  0.4411
  519MPD2     C 7758   4.389   0.837  14.617  0.0609  0.3264 -0.3234
  519MPD2    C1 7759   4.350   0.825  14.485 -0.5396 -0.6483  0.0826
  519MPD2    C2 7760   4.418   0.731  14.402  0.1329 -0.3971 -0.2815
  519MPD2    C3 7761   4.528   0.651  14.450 -0.0957  0.1319  0.1938
  519MPD2    C4 7762   4.566   0.673  14.578  0.6809 -0.5430  0.2108
  519MPD2    C5 7763   4.498   0.761  14.663 -0.4927  0.5178 -0.1503
  519MPD2     H 7764   4.403   0.726  14.295 -0.4488  4.8666 -0.4468
  519MPD2    H1 7765   4.653   0.626  14.622  0.0419 -2.1642 -0.2844
  519MPD2    H2 7766   4.329   0.886  14.692  2.6182  1.1753  1.1597
  519MPD2    H3 7767   4.528   0.769  14.767  1.1062 -1.6921 -0.4184
  519MPD2     N 7768   4.606   0.569  14.367  0.6866  0.2524  0.8848
  519MPD2    H5 7769   4.703   0.564  14.395  0.2960  0.6443  2.3172
  519MPD2    N1 7770   4.242   0.903  14.453 -0.1509 -0.0566 -0.4831
  519MPD2    H7 7771   4.190   0.956  14.522  0.1647  0.5493 -0.7151
  520TMC3    C1 7772   4.659   0.460  14.156  0.8745 -0.1690  0.0396
  520TMC3    C2 7773   4.624   0.443  14.025  1.2328 -0.0469 -0.1959
  520TMC3    C3 7774   4.726   0.402  13.946  0.7025 -0.8433  0.1228
  520TMC3    C4 7775   0.051   0.445  14.214  0.0899  0.0184 -0.4317
  520TMC3    C5 7776   0.145   0.396  14.127  0.1035 -0.0716  0.1019
  520TMC3    C6 7777   0.118   0.370  13.992  0.8424 -0.3627 -0.0798
  520TMC3     C 7778   4.559   0.516  14.245 -0.7408 -0.5650  0.3055
  520TMC3     O 7779   4.446   0.511  14.201 -0.1450 -0.0999 -0.0848
  520TMC3     H 7780   4.523   0.469  13.995  0.4337 -1.5637  1.1993
  520TMC3    H1 7781   0.081   0.482  14.312 -1.8631 -1.8418  0.8520
  520TMC3    H2 7782   0.194   0.321  13.932 -0.2866  0.0568 -1.8400
  520TMC3    C7 7783   0.271   0.361  14.183 -0.8790  0.3507  0.3524
  520TMC3    C8 7784   4.701   0.388  13.799  0.2685 -0.1665  0.1661
  520TMC3    O1 7785   0.277   0.326  14.302  0.3389  0.4032 -0.3476
  520TMC3    O2 7786   0.050   0.323  13.736 -1.0754 -0.2199 -0.3525
  521MPD2     C 7787   0.641   3.576  17.720  0.2114 -0.7576  0.3601
  521MPD2    C1 7788   0.580   3.499  17.619  0.1325  0.1371  0.1473
  521MPD2    C2 7789   0.648   3.478  17.508  0.1872  0.2358  0.0375
  521MPD2    C3 7790   0.777   3.519  17.490 -0.5081  0.6278 -1.0672
  521MPD2    C4 7791   0.828   3.603  17.581 -0.0029 -0.5816  0.7064
  521MPD2    C5 7792   0.763   3.637  17.699 -0.3474 -0.4105 -0.4094
  521MPD2     H 7793   0.609   3.406  17.437  0.0584  2.0567 -1.7321
  521MPD2    H1 7794   0.930   3.640  17.574  0.5722 -1.7234  3.0910
  521MPD2    H2 7795   0.588   3.589   0.075 -1.0270  1.3997 -0.6279
  521MPD2    H3 7796   0.806   3.706   0.033  0.2953  0.3669 -1.5130
  521MPD2     N 7797   0.858   3.462  17.382  0.3278 -0.5005 -0.6797
  521MPD2    H5 7798   0.814   3.409  17.308  0.7357 -1.2437 -0.3905
  521MPD2    N1 7799   0.452   3.444  17.651 -0.3765 -0.5968 -0.5593
  521MPD2    H7 7800   0.414   3.461   0.005 -0.5513  0.5749 -0.8433
  522TMC3    C1 7801   1.059   3.384  17.284  0.0658 -0.2848 -0.5325
  522TMC3    C2 7802   1.180   3.338  17.325 -0.5336 -0.9973 -0.4463
  522TMC3    C3 7803   1.270   3.302  17.234  0.2787 -0.1460 -0.6758
  522TMC3    C4 7804   1.033   3.406  17.152  0.0046 -0.6173 -0.1856
  522TMC3    C5 7805   1.129   3.362  17.064 -0.5520  1.1926  0.4088
  522TMC3    C6 7806   1.252   3.315  17.100 -0.6946  0.6342 -0.3974
  522TMC3     C 7807   0.992   3.455  17.393 -0.0485 -0.1480 -0.1782
  522TMC3     O 7808   1.063   3.479  17.487 -0.4699 -0.6354 -0.4296
  522TMC3     H 7809   1.193   3.312  17.429 -0.5804 -0.9726 -0.4347
  522TMC3    H1 7810   0.942   3.461  17.130  3.4207  4.4718 -1.4827
  522TMC3    H2 7811   1.327   3.299  17.024  1.5357  0.0568  1.9212
  522TMC3    C7 7812   1.116   3.401  16.926 -0.0555 -0.5901  0.3542
  522TMC3    C8 7813   1.408   3.297  17.296 -0.1866  0.2558  0.1066
  522TMC3    O1 7814   1.219   3.404  16.858  0.0760 -0.0433  0.4317
  522TMC3    O2 7815   1.426   3.322  17.413 -0.1567 -0.1984 -0.0214
  523MPD2     C 7816   3.953   4.378  10.033  0.8593  0.8368 -0.0430
  523MPD2    C1 7817   3.870   4.270  10.023  0.8413  0.3439  0.5511
  523MPD2    C2 7818   3.756   4.273   9.938  0.4488  0.1488  0.8544
  523MPD2    C3 7819   3.723   4.393   9.875  1.4171  0.1313 -0.0855
  523MPD2    C4 7820   3.810   4.493   9.880  0.2063  0.3144 -0.0713
  523MPD2    C5 7821   3.916   4.487   9.960  0.2197 -0.0117 -0.3137
  523MPD2     H 7822   3.694   4.185   9.924  0.0185  0.0167  3.5278
  523MPD2    H1 7823   3.800   4.582   9.819  0.2303 -2.3000 -3.8909
  523MPD2    H2 7824   4.037   4.389  10.100  0.0140  0.0475  1.1579
  523MPD2    H3 7825   3.987   4.569   9.963  1.9056 -1.6046  2.5656
  523MPD2     N 7826   3.608   4.410   9.795  0.2703 -0.4440 -0.4122
  523MPD2    H5 7827   3.592   4.497   9.744  3.3955 -0.0238 -0.6614
  523MPD2    N1 7828   3.901   4.149  10.096  0.0935 -0.1954  0.1833
  523MPD2    H7 7829   3.840   4.073  10.068 -1.2259  0.5330  1.0505
  524TMC3    C1 7830   3.397   4.348   9.689  0.6328 -0.3453 -0.4916
  524TMC3    C2 7831   3.307   4.252   9.645  0.4097 -0.2576 -0.5998
  524TMC3    C3 7832   3.189   4.297   9.594 -0.2210 -0.4813  0.0899
  524TMC3    C4 7833   3.378   4.481   9.668  0.5061 -0.5321  0.5821
  524TMC3    C5 7834   3.257   4.520   9.619  0.7198 -0.2436 -0.2177
  524TMC3    C6 7835   3.163   4.435   9.575  0.4569 -0.2166 -0.2392
  524TMC3     C 7836   3.514   4.311   9.774  0.4944 -0.9466 -0.9017
  524TMC3     O 7837   3.515   4.198   9.818  0.8456  0.7796  0.0823
  524TMC3     H 7838   3.306   4.157   9.696  0.2188 -0.6791 -1.3949
  524TMC3    H1 7839   3.431   4.559   9.722 -1.6203  1.0553  0.3447
  524TMC3    H2 7840   3.077   4.468   9.520  0.3598  0.8243  0.5422
  524TMC3    C7 7841   3.223   4.659   9.599  0.4878  0.3348 -0.4957
  524TMC3    C8 7842   3.094   4.204   9.545  0.3743  0.0667 -0.6804
  524TMC3    O1 7843   3.322   4.732   9.602 -0.6763 -0.1789 -0.4871
  524TMC3    O2 7844   2.990   4.252   9.503  0.1364  0.2691 -0.6432
  525MPD2     C 7845   1.387   0.224  14.621  0.2265 -0.0899  0.0374
  525MPD2    C1 7846   1.494   0.249  14.708  0.7214 -0.3343  0.3345
  525MPD2    C2 7847   1.596   0.331  14.671  0.2345  0.3761  0.3792
  525MPD2    C3 7848   1.584   0.411  14.564 -0.1678 -0.1865  0.3512
  525MPD2    C4 7849   1.483   0.383  14.470 -0.5842  1.1162  0.9044
  525MPD2    C5 7850   1.383   0.302  14.506  0.0607 -0.5727  0.0574
  525MPD2     H 7851   1.686   0.327  14.731  0.1370 -1.9949  0.3587
  525MPD2    H1 7852   1.471   0.443  14.381  0.7147  1.7842  1.1824
  525MPD2    H2 7853   1.311   0.151  14.645  0.7648 -0.5725  0.2666
  525MPD2    H3 7854   1.299   0.305  14.437  0.7930  0.9556 -0.7766
  525MPD2     N 7855   1.667   0.523  14.537 -0.2577 -0.0331  0.1261
  525MPD2    H5 7856   1.639   0.585  14.461 -0.3916  0.1131  0.2960
  525MPD2    N1 7857   1.501   0.180  14.831 -0.0638  0.1553  0.0644
  525MPD2    H7 7858   1.589   0.187  14.882 -0.2908  0.1005  0.4620
  526TMC3    C1 7859   1.408   0.076  15.026 -1.0023 -0.0315  0.0636
  526TMC3    C2 7860   1.294   0.048  15.099  0.2953 -0.6022  0.1088
  526TMC3    C3 7861   1.312   0.009  15.233 -0.6280 -0.2342  0.3659
  526TMC3    C4 7862   1.534   0.052  15.079  0.0859 -0.3251 -0.6573
  526TMC3    C5 7863   1.544   0.017  15.211  0.2101  0.2166  0.0349
  526TMC3    C6 7864   1.433   0.000  15.291 -1.5752 -0.5201  0.1405
  526TMC3     C 7865   1.386   0.126  14.896 -0.4343  0.7124  0.7615
  526TMC3     O 7866   1.267   0.142  14.871  0.1685  0.4415 -0.0719
  526TMC3     H 7867   1.192   0.075  15.072  1.0298 -0.5397 -2.6434
  526TMC3    H1 7868   1.628   0.072  15.028  0.5442  0.7068  0.6059
  526TMC3    H2 7869   1.434   4.716  15.398  1.0116  0.4063  0.2773
  526TMC3    C7 7870   1.662   4.685  15.252  0.1245  0.0035  0.0363
  526TMC3    C8 7871   1.203   0.045  15.324  0.4587 -0.0089  0.0624
  526TMC3    O1 7872   1.672   4.653  15.369 -0.1656 -0.0849 -0.3968
  526TMC3    O2 7873   1.203   0.158  15.364 -0.2547  0.1543  0.4893
  527MPD2     C 7874   3.761   2.489   1.678  0.1784  0.8666  0.1048
  527MPD2    C1 7875   3.771   2.489   1.539  0.2255  0.2285 -0.3023
  527MPD2    C2 7876   3.895   2.523   1.487 -0.1232 -0.0273 -0.1038
  527MPD2    C3 7877   4.006   2.549   1.565 -0.0738 -0.5392  1.0641
  527MPD2    C4 7878   3.992   2.533   1.701 -0.0057  0.2425  0.1771
  527MPD2    C5 7879   3.870   2.502   1.757  0.1152  0.1645  0.2580
  527MPD2     H 7880   3.918   2.526   1.381  0.9328  2.8891  0.2080
  527MPD2    H1 7881   4.070   2.566   1.769  1.8473  1.3192 -2.4682
  527MPD2    H2 7882   3.663   2.467   1.720 -0.6691  3.7269 -0.3659
  527MPD2    H3 7883   3.872   2.504   1.865  0.6172  1.9486  0.2089
  527MPD2     N 7884   4.128   2.585   1.500 -0.1613  0.3750 -0.5583
  527MPD2    H5 7885   4.118   2.607   1.401 -1.0216 -2.2269 -1.0561
  527MPD2    N1 7886   3.669   2.456   1.446 -0.2138 -0.8687 -0.2966
  527MPD2    H7 7887   3.692   2.451   1.347 -1.1004 -1.2046 -0.4798
  528TMC3    C1 7888   3.521   2.298   1.365  0.2279 -0.2638 -0.0293
  528TMC3    C2 7889   3.566   2.325   1.241  0.1387  0.3235  0.1455
  528TMC3    C3 7890   3.514   2.255   1.136 -0.6449 -0.4975  0.3679
  528TMC3    C4 7891   3.421   2.208   1.391  0.4268 -0.1662  0.4302
  528TMC3    C5 7892   3.384   2.132   1.286 -0.2020 -0.3411  0.0646
  528TMC3    C6 7893   3.421   2.152   1.157  0.4054  0.0299  0.0770
  528TMC3     C 7894   3.559   2.385   1.474 -0.2894 -0.0969  0.1858
  528TMC3     O 7895   3.507   2.378   1.583  0.0280  0.1479  0.0737
  528TMC3     H 7896   3.646   2.393   1.217  2.0630 -2.2675 -0.7232
  528TMC3    H1 7897   3.382   2.200   1.492  0.5674 -1.6182  0.3643
  528TMC3    H2 7898   3.379   2.098   1.073  0.5559 -1.1671  0.7647
  528TMC3    C7 7899   3.309   2.010   1.310 -0.0953 -1.0638 -0.2189
  528TMC3    C8 7900   3.552   2.310   1.000 -0.1384  0.5116 -0.0061
  528TMC3    O1 7901   3.242   1.971   1.222  0.3660  0.1247  0.7303
  528TMC3    O2 7902   3.644   2.393   0.997  0.1007  0.9680 -0.1476
  529MPD2     C 7903   1.829   1.856   1.073 -0.0643  0.2183 -0.2797
  529MPD2    C1 7904   1.721   1.777   1.039  0.3720  0.2105 -0.2361
  529MPD2    C2 7905   1.624   1.824   0.960 -0.1061 -0.5475 -0.0890
  529MPD2    C3 7906   1.637   1.948   0.903 -0.6467  0.7744  0.7077
  529MPD2    C4 7907   1.753   2.016   0.934 -0.4616 -0.7216 -0.0466
  529MPD2    C5 7908   1.852   1.969   1.017 -1.1358  0.0946 -0.3366
  529MPD2     H 7909   1.544   1.755   0.933  0.3796 -1.4271  0.7168
  529MPD2    H1 7910   1.786   2.109   0.888  1.1777 -1.4775 -0.4188
  529MPD2    H2 7911   1.909   1.824   1.139  0.2554  0.2426 -0.6529
  529MPD2    H3 7912   1.941   2.028   1.038 -0.0979 -1.0480 -1.5850
  529MPD2     N 7913   1.539   2.015   0.836  0.4351 -0.4038 -0.2457
  529MPD2    H5 7914   1.568   2.107   0.803  1.2912 -0.9188 -0.9178
  529MPD2    N1 7915   1.698   1.651   1.100  0.5329  0.3189  0.6502
  529MPD2    H7 7916   1.616   1.601   1.069  3.2220 -2.1150 -2.5511
  530TMC3    C1 7917   1.722   1.460   1.237 -0.7292 -0.3147 -0.1593
  530TMC3    C2 7918   1.760   1.412   1.358 -0.5246  0.0521 -0.4280
  530TMC3    C3 7919   1.763   1.283   1.385 -0.1789 -1.5068  0.4969
  530TMC3    C4 7920   1.674   1.370   1.144  0.0911  0.2882  0.4630
  530TMC3    C5 7921   1.670   1.234   1.177 -0.2809 -0.6133  0.0935
  530TMC3    C6 7922   1.725   1.184   1.294  0.3722 -0.2626  0.2613
  530TMC3     C 7923   1.770   1.592   1.199 -0.2446  0.2169  0.3741
  530TMC3     O 7924   1.854   1.651   1.271 -0.2529  0.0028  0.6737
  530TMC3     H 7925   1.809   1.486   1.422  0.0143 -0.0802 -0.6856
  530TMC3    H1 7926   1.629   1.405   1.052  0.8911 -0.5811 -0.2558
  530TMC3    H2 7927   1.740   1.078   1.307 -0.7831 -0.4997 -0.3508
  530TMC3    C7 7928   1.598   1.145   1.089 -0.6333 -0.3038  0.2474
  530TMC3    C8 7929   1.789   1.242   1.522  0.9592 -0.7041 -0.1868
  530TMC3    O1 7930   1.580   1.185   0.973 -0.3878 -0.2115 -0.0339
  530TMC3    O2 7931   1.777   1.332   1.606 -0.1473  0.0343 -0.2480
  531MPD2     C 7932   0.728   4.287  12.558 -0.6570 -0.1028 -0.9740
  531MPD2    C1 7933   0.771   4.407  12.612  0.1851  0.0611 -0.0940
  531MPD2    C2 7934   0.700   4.520  12.577  0.7844 -0.3400  0.6528
  531MPD2    C3 7935   0.587   4.513  12.497  0.1971 -0.2570  0.1456
  531MPD2    C4 7936   0.546   4.393  12.444 -0.7098  0.2376  0.3241
  531MPD2    C5 7937   0.614   4.282  12.483  0.6667  0.3878  0.4101
  531MPD2     H 7938   0.737   4.614  12.617 -2.0648  1.8375 -1.8333
  531MPD2    H1 7939   0.464   4.370  12.378 -1.5486  1.6782  0.8632
  531MPD2    H2 7940   0.783   4.198  12.585 -1.2505  0.4669  2.1767
  531MPD2    H3 7941   0.584   4.181  12.454 -0.7737  1.1664 -0.7866
  531MPD2     N 7942   0.518   4.639  12.484 -0.0671  0.7559 -0.2426
  531MPD2    H5 7943   0.540   4.715  12.549  1.8236 -0.2343  0.2824
  531MPD2    N1 7944   0.885   4.408  12.699  0.1768  0.4602 -0.1852
  531MPD2    H7 7945   0.946   4.328  12.709  1.2742  1.1637 -1.2222
  532TMC3    C1 7946   1.052   4.515  12.839  0.1769 -0.1439  0.0053
  532TMC3    C2 7947   1.124   4.628  12.836  0.4310 -0.4611  0.4339
  532TMC3    C3 7948   1.167   4.684  12.950 -0.1629  0.0342  0.1679
  532TMC3    C4 7949   1.022   4.453  12.950 -0.3275 -0.4664 -0.0053
  532TMC3    C5 7950   1.084   4.499  13.064 -0.7189 -0.1487  0.2524
  532TMC3    C6 7951   1.149   4.623  13.070 -0.3363 -0.6284 -0.0022
  532TMC3     C 7952   0.924   4.522  12.766 -0.4599  0.3023  0.2075
  532TMC3     O 7953   0.893   4.638  12.750 -0.2454  0.2380  0.3013
  532TMC3     H 7954   1.147   4.687  12.748  0.2889  0.2586  0.8841
  532TMC3    H1 7955   0.964   4.362  12.941  0.9322 -0.9654 -3.2877
  532TMC3    H2 7956   1.169   4.675  13.163  0.0700 -0.1530 -0.3571
  532TMC3    C7 7957   1.043   4.445  13.195 -0.3267  1.3628  0.3841
  532TMC3    C8 7958   1.143   0.090  12.964 -0.3446  0.3850 -0.0728
  532TMC3    O1 7959   1.088   4.503  13.295  0.4861  0.3379 -0.6170
  532TMC3    O2 7960   1.182   0.148  13.068 -0.0337  0.6613  0.2490
  533TMC3    C1 7961   1.846   0.674  14.550 -0.0473 -0.5115  0.6065
  533TMC3    C2 7962   1.979   0.688  14.538 -0.9054 -0.4528 -0.7160
  533TMC3    C3 7963   2.018   0.811  14.578 -0.5398  0.3489  0.8304
  533TMC3    C4 7964   1.770   0.766  14.603 -0.1887  0.0300 -0.0854
  533TMC3    C5 7965   1.810   0.890  14.638  0.1045  0.0041  0.8759
  533TMC3    C6 7966   1.941   0.914  14.620  0.3583 -0.0515  0.3080
  533TMC3     C 7967   1.789   0.544  14.587 -0.0457 -0.3574 -0.3929
  533TMC3     O 7968   1.854   0.470  14.664 -0.0480  0.0772 -0.4425
  533TMC3     H 7969   2.047   0.605  14.518  0.6182  1.0591 -1.8564
  533TMC3    H1 7970   1.667   0.734  14.615 -0.2260  0.1725 -0.0294
  533TMC3    H2 7971   1.979   1.013  14.644  0.6860 -0.6656  2.3743
  533TMC3    C7 7972   1.769   0.928  14.776  0.0166  0.3442  0.5130
  533TMC3    C8 7973   2.141   0.857  14.524  0.7382 -0.1247  0.2688
  533TMC3    O1 7974   1.830   0.877  14.869  0.0867 -0.0219  0.3503
  533TMC3    O2 7975   2.127   0.959  14.454 -0.2380 -0.0116  0.2730
  534MPD2     C 7976   4.289   0.848   1.373  0.1552  0.4605 -0.0590
  534MPD2    C1 7977   4.228   0.953   1.433  0.3574 -0.1626 -0.8990
  534MPD2    C2 7978   4.093   0.969   1.408  0.2253  0.1125 -0.1742
  534MPD2    C3 7979   4.017   0.882   1.335  0.0879 -0.0075  0.1091
  534MPD2    C4 7980   4.084   0.777   1.264 -0.5921  0.4722  0.3952
  534MPD2    C5 7981   4.213   0.765   1.286  0.2223  1.0291 -0.5782
  534MPD2     H 7982   4.038   1.055   1.442 -1.3250 -1.1669  0.5499
  534MPD2    H1 7983   4.030   0.708   1.200  0.0807  1.6528 -1.4399
  534MPD2    H2 7984   4.396   0.833   1.385 -0.0747 -0.3087  1.0679
  534MPD2    H3 7985   4.266   0.688   1.232  2.1587  2.4400 -0.6720
  534MPD2     N 7986   3.878   0.895   1.312 -0.2759 -0.0977  0.3020
  534MPD2    H5 7987   3.830   0.851   1.235 -0.4675  1.0297 -0.2274
  534MPD2    N1 7988   4.293   1.045   1.514  0.1333 -0.2122 -0.2506
  534MPD2    H7 7989   4.228   1.115   1.549  0.0428 -0.1778 -0.4924
  535TMC3    C1 7990   3.659   0.951   1.349 -0.8418 -0.4261 -0.0353
  535TMC3    C2 7991   3.568   0.933   1.450 -0.9062 -0.6461  0.5679
  535TMC3    C3 7992   3.454   1.018   1.449  0.0582 -0.5699  0.1109
  535TMC3    C4 7993   3.634   1.033   1.241 -0.8552 -0.4332 -0.5786
  535TMC3    C5 7994   3.514   1.109   1.235  0.1241  0.1918 -0.0210
  535TMC3    C6 7995   3.421   1.096   1.339  0.4708 -0.0307  0.2548
  535TMC3     C 7996   3.794   0.969   1.392 -0.3101  0.0265 -0.4533
  535TMC3     O 7997   3.819   1.032   1.491  0.0854  0.3807 -0.5946
  535TMC3     H 7998   3.600   0.895   1.546 -0.0553  2.3790  1.4749
  535TMC3    H1 7999   3.717   1.048   1.173  0.4111 -0.1874  1.0085
  535TMC3    H2 8000   3.337   1.163   1.354 -0.5016 -1.1933 -0.0028
  535TMC3    C7 8001   3.488   1.185   1.116  0.5069  0.1314  0.5698
  535TMC3    C8 8002   3.362   1.011   1.562 -0.0573 -0.1873  0.5903
  535TMC3    O1 8003   3.566   1.167   1.024 -0.2808 -0.4765  0.2187
  535TMC3    O2 8004   3.247   1.056   1.542 -0.2346  0.0222 -0.0899
  536MPD2     C 8005   2.987   0.139  16.448 -0.0187 -0.2206  0.4621
  536MPD2    C1 8006   2.857   0.095  16.432  0.3707 -0.4716  0.2512
  536MPD2    C2 8007   2.770   0.153  16.349  0.0582 -0.3119  0.3068
  536MPD2    C3 8008   2.801   0.270  16.277 -0.3857 -0.7129  0.2070
  536MPD2    C4 8009   2.925   0.322  16.302 -0.1260 -0.2592  0.2162
  536MPD2    C5 8010   3.018   0.256  16.385 -0.5698 -0.1020 -0.0185
  536MPD2     H 8011   2.681   0.103  16.316  0.4257 -1.3433  0.8710
  536MPD2    H1 8012   2.970   0.399  16.240 -3.8290  1.0870 -0.7751
  536MPD2    H2 8013   3.065   0.094  16.509 -1.1570 -1.2353  1.1933
  536MPD2    H3 8014   3.120   0.294  16.386 -0.8828  0.6503  3.1372
  536MPD2     N 8015   2.706   0.328  16.188  0.3896  0.0428  0.3707
  536MPD2    H5 8016   2.740   0.395  16.119 -2.6074  0.2407 -0.9357
  536MPD2    N1 8017   2.835   4.717  16.509  0.0160  0.0458 -0.3454
  536MPD2    H7 8018   2.905   4.658  16.553  0.1604  0.3314 -0.1947
  537TMC3    C1 8019   2.711   4.528  16.594 -0.5510  0.3862  0.4125
  537TMC3    C2 8020   2.762   4.525  16.722 -0.8595 -0.2029  0.5511
  537TMC3    C3 8021   2.709   4.442  16.819  0.5410  0.5650 -0.1458
  537TMC3    C4 8022   2.608   4.450  16.561  0.5947 -0.0782  0.4468
  537TMC3    C5 8023   2.548   4.374  16.660 -0.0277  0.0696 -0.4228
  537TMC3    C6 8024   2.594   4.369  16.791  0.0989  0.1442 -0.9531
  537TMC3     C 8025   2.711   4.661  16.525 -0.0300 -0.2338  0.3816
  537TMC3     O 8026   2.604   4.690  16.478  1.1729  0.2127 -0.4593
  537TMC3     H 8027   2.843   4.591  16.752 -1.8413  1.2227  0.0911
  537TMC3    H1 8028   2.567   4.454  16.461  0.7530 -0.5166  0.3675
  537TMC3    H2 8029   2.547   4.307  16.866 -1.2222  0.8637 -1.1857
  537TMC3    C7 8030   2.434   4.292  16.615  0.0341 -0.9093 -0.1539
  537TMC3    C8 8031   2.754   4.472  16.953  0.8458 -0.7013  0.3645
  537TMC3    O1 8032   2.400   4.300  16.496  0.5420  0.1786  0.1239
  537TMC3    O2 8033   2.851   4.546  16.961  0.0290 -0.6220 -0.4608
  538TMC3    C1 8034   4.151   3.639  11.251 -0.3306 -0.3642  0.7886
  538TMC3    C2 8035   4.272   3.573  11.271 -0.5138  0.3520  0.1421
  538TMC3    C3 8036   4.377   3.595  11.187  0.8878 -0.1799  0.0412
  538TMC3    C4 8037   4.124   3.722  11.143 -0.8837  0.1049  0.0484
  538TMC3    C5 8038   4.234   3.737  11.064 -0.8698  0.0344  0.3305
  538TMC3    C6 8039   4.357   3.678  11.080  0.1820 -0.4283 -0.0437
  538TMC3     C 8040   4.048   3.625  11.350 -0.2043 -0.0732 -0.4159
  538TMC3     O 8041   3.935   3.626  11.306  0.5241  0.2875  0.1375
  538TMC3     H 8042   4.292   3.503  11.351 -1.1107 -0.9089 -0.8291
  538TMC3    H1 8043   4.028   3.772  11.129 -1.0340  0.3975  2.0866
  538TMC3    H2 8044   4.436   3.699  11.009 -0.6957  1.8206 -0.3589
  538TMC3    C7 8045   4.239   3.837  10.962  0.1126  0.4038 -0.0158
  538TMC3    C8 8046   4.481   3.491  11.181  0.4959  0.0105 -0.6582
  538TMC3    O1 8047   4.342   3.889  10.928 -0.0524  0.0961 -0.1851
  538TMC3    O2 8048   4.476   3.383  11.244 -0.5192 -0.0949  0.2412
  539MPD2     C 8049   3.760   2.849  11.807  0.2340 -0.1297 -0.1698
  539MPD2    C1 8050   3.756   2.850  11.671  0.2273 -0.4927 -0.0226
  539MPD2    C2 8051   3.672   2.954  11.616  0.5142 -0.2475  0.5457
  539MPD2    C3 8052   3.592   3.032  11.692  0.1888  0.4944  0.2391
  539MPD2    C4 8053   3.583   3.014  11.824  1.1805 -0.1772 -0.4236
  539MPD2    C5 8054   3.670   2.922  11.876  0.2161 -0.0208 -0.2672
  539MPD2     H 8055   3.688   2.964  11.510  0.4831  0.5329  0.6147
  539MPD2    H1 8056   3.508   3.058  11.888  0.9013  1.6680 -1.9863
  539MPD2    H2 8057   3.822   2.784  11.868 -1.0218 -1.4939 -0.3697
  539MPD2    H3 8058   3.665   2.897  11.981 -3.2532 -1.2266 -0.7059
  539MPD2     N 8059   3.506   3.127  11.639 -0.3178  0.9299 -0.7325
  539MPD2    H5 8060   3.464   3.189  11.708  1.9415  0.1626  1.3153
  539MPD2    N1 8061   3.851   2.770  11.598  0.2538 -0.4855  0.0876
  539MPD2    H7 8062   3.926   2.731  11.655 -0.8531 -2.2082  0.3625
  540TMC3    C1 8063   3.459   3.320  11.515 -0.0327 -0.5245 -0.3247
  540TMC3    C2 8064   3.483   3.385  11.397 -0.2349 -0.4362  0.0870
  540TMC3    C3 8065   3.403   3.495  11.368  0.6291  0.4185 -0.3943
  540TMC3    C4 8066   3.355   3.355  11.603  0.2206 -0.1722  0.3218
  540TMC3    C5 8067   3.291   3.479  11.580 -0.1779 -0.6788  0.6976
  540TMC3    C6 8068   3.309   3.542  11.457 -0.4064 -0.5549 -0.2796
  540TMC3     C 8069   3.532   3.195  11.523  0.2095  0.5877  0.2828
  540TMC3     O 8070   3.614   3.170  11.432 -0.3558 -0.2549  0.4893
  540TMC3     H 8071   3.560   3.352  11.329  1.6316  0.7136  1.6323
  540TMC3    H1 8072   3.347   3.309  11.701 -0.2478 -0.2282  0.2551
  540TMC3    H2 8073   3.241   3.620  11.423  0.0583  0.1302  0.3590
  540TMC3    C7 8074   3.173   3.504  11.661  0.3765 -0.7172 -0.5061
  540TMC3    C8 8075   3.410   3.547  11.233 -0.6215  0.0793  0.1989
  540TMC3    O1 8076   3.140   3.427  11.747 -0.3750  0.5945 -0.0391
  540TMC3    O2 8077   3.380   3.664  11.226 -0.6214 -0.4421  0.3724
  541MPD2     C 8078   1.382   3.825  12.628  0.0515  0.1169  0.2291
  541MPD2    C1 8079   1.519   3.801  12.612 -0.3490  0.2115 -0.5511
  541MPD2    C2 8080   1.593   3.892  12.543  0.4627  0.6635 -1.1712
  541MPD2    C3 8081   1.526   3.994  12.478  0.7453  0.4583 -0.4205
  541MPD2    C4 8082   1.395   4.016  12.503  0.9379 -0.1005 -0.3111
  541MPD2    C5 8083   1.318   3.936  12.582  0.6997  0.0089 -0.2123
  541MPD2     H 8084   1.700   3.895  12.529  0.2206  1.7297 -2.8089
  541MPD2    H1 8085   1.350   4.103  12.458 -2.3907 -0.9433  1.3995
  541MPD2    H2 8086   1.313   3.758  12.678  1.7762 -2.4011 -0.7459
  541MPD2    H3 8087   1.221   3.971  12.614  0.3241  0.5197 -1.9091
  541MPD2     N 8088   1.584   4.092  12.387  0.3799  0.2392  0.2129
  541MPD2    H5 8089   1.521   4.171  12.371 -0.8176 -0.5472  1.0425
  541MPD2    N1 8090   1.573   3.702  12.690 -0.0491  0.1402 -0.3231
  541MPD2    H7 8091   1.509   3.679  12.766 -1.7048  1.1355 -1.3885
  542TMC3    C1 8092   1.744   4.223  12.292  0.1391 -0.2363 -0.1574
  542TMC3    C2 8093   1.858   4.217  12.214  0.1638 -0.7078  0.2293
  542TMC3    C3 8094   1.873   4.301  12.106  0.2441 -0.5343 -0.1578
  542TMC3    C4 8095   1.645   4.307  12.256  0.1238 -0.4182  0.8192
  542TMC3    C5 8096   1.657   4.390  12.145  0.1450  0.4602  0.2364
  542TMC3    C6 8097   1.767   4.380  12.066 -0.6137  0.4791 -0.4937
  542TMC3     C 8098   1.714   4.097  12.353 -0.6702 -0.3252  0.5689
  542TMC3     O 8099   1.798   4.006  12.357  0.0156  0.0609  0.0968
  542TMC3     H 8100   1.918   4.128  12.221  0.6337 -0.0927  3.7141
  542TMC3    H1 8101   1.556   4.324  12.316  0.0570  0.2906  0.5120
  542TMC3    H2 8102   1.777   4.449  11.983  0.2961 -2.4185 -2.8122
  542TMC3    C7 8103   1.535   4.456  12.090  0.8849  0.2240 -0.6296
  542TMC3    C8 8104   1.974   4.294  12.007 -0.4206 -0.1819 -0.2412
  542TMC3    O1 8105   1.448   4.468  12.178  0.2379  0.3038  0.7229
  542TMC3    O2 8106   1.949   4.332  11.890 -0.4743 -0.4535 -0.9163
  543TMC3    C1 8107   0.813   0.820  17.118 -0.4326  0.4880  0.2903
  543TMC3    C2 8108   0.827   0.687  17.138 -0.1126 -0.2626 -0.1570
  543TMC3    C3 8109   0.899   0.637  17.248 -0.0881 -0.0983 -0.6107
  543TMC3    C4 8110   0.834   0.909  17.222 -0.0261 -0.0112  0.7894
  543TMC3    C5 8111   0.895   0.854  17.337  0.0246 -0.1792 -0.2029
  543TMC3    C6 8112   0.939   0.721  17.344  0.5678  0.3292 -0.5043
  543TMC3     C 8113   0.885   0.843  16.997  0.0276 -0.0607  0.4267
  543TMC3     O 8114   0.956   0.750  16.967 -0.2053 -0.5298 -0.6483
  543TMC3     H 8115   0.788   0.621  17.061 -1.7253 -0.1267  0.5415
  543TMC3    H1 8116   0.810   1.014  17.227 -0.8337 -0.1660  0.1201
  543TMC3    H2 8117   1.017   0.689  17.412 -0.7755  0.8679  1.2883
  543TMC3    C7 8118   0.950   0.953  17.431  0.6227 -0.1045  0.0752
  543TMC3    C8 8119   0.985   0.524  17.226 -1.1311 -0.4787  0.3087
  543TMC3    O1 8120   0.959   1.073  17.399  0.8523  0.1919 -0.3241
  543TMC3    O2 8121   1.024   0.455  17.319  0.2366 -0.0603  0.4233
  544MPD2     C 8122   1.346   0.312  16.918 -0.5148 -0.3473 -0.1867
  544MPD2    C1 8123   1.302   0.267  17.045 -0.3756 -0.1476 -0.2507
  544MPD2    C2 8124   1.196   0.342  17.103 -0.0905 -0.2576 -0.4729
  544MPD2    C3 8125   1.132   0.450  17.041 -0.9476  0.1999 -0.6418
  544MPD2    C4 8126   1.188   0.486  16.920 -0.5224 -0.3972  0.4197
  544MPD2    C5 8127   1.281   0.416  16.856 -0.2667 -0.3287  0.3916
  544MPD2     H 8128   1.182   0.333  17.210 -0.3841  1.1956 -0.3832
  544MPD2    H1 8129   1.153   0.570  16.862 -0.9779  1.6451  3.6772
  544MPD2    H2 8130   1.417   0.253  16.860 -0.3213  1.6554 -1.9921
  544MPD2    H3 8131   1.311   0.451  16.759 -0.2692 -0.1756  0.4470
  544MPD2     N 8132   1.027   0.529  17.096 -0.0219  0.0433 -0.5347
  544MPD2    H5 8133   0.995   0.609  17.043 -0.3887  0.2160 -0.0567
  544MPD2    N1 8134   1.363   0.157  17.109 -0.4497  0.3163 -0.5258
  544MPD2    H7 8135   1.446   0.115  17.069  0.8856  1.6264  0.8953
  545TMC3    C1 8136   1.390   4.731  17.279 -0.4683  0.2066 -0.3068
  545TMC3    C2 8137   1.525   4.723  17.273 -0.5794 -0.0384  0.0676
  545TMC3    C3 8138   1.593   4.620  17.340 -0.3320  0.2206  0.2662
  545TMC3    C4 8139   1.321   4.634  17.334 -0.0053  0.1044 -0.3871
  545TMC3    C5 8140   1.383   4.525  17.390 -1.2455 -0.1893  0.4168
  545TMC3    C6 8141   1.521   4.520  17.399  0.3148 -0.2937  0.1608
  545TMC3     C 8142   1.312   0.110  17.230  0.0247  0.8832 -0.7857
  545TMC3     O 8143   1.199   0.127  17.276  0.6545  0.8941 -0.5005
  545TMC3     H 8144   1.585   0.077  17.256  0.2393 -0.5528  0.3122
  545TMC3    H1 8145   1.214   4.634  17.315 -0.0426  0.2915 -0.1858
  545TMC3    H2 8146   1.582   4.448  17.453 -1.4848 -0.4180  1.9882
  545TMC3    C7 8147   1.285   4.416  17.415 -0.1310 -0.0577  0.0758
  545TMC3    C8 8148   1.734   4.618  17.337 -0.7899 -0.1705 -0.7511
  545TMC3    O1 8149   1.177   4.421  17.361  0.1005  0.0688 -0.0995
  545TMC3    O2 8150   1.788   4.576  17.438 -0.5912 -0.0150 -0.3830
  546MPD2     C 8151   2.698   0.414  17.352  0.2473  0.3964  0.3308
  546MPD2    C1 8152   2.612   0.405  17.237 -0.9048 -0.0716 -0.1639
  546MPD2    C2 8153   2.657   0.450  17.120 -0.2311  0.6752  0.1588
  546MPD2    C3 8154   2.774   0.519  17.105  0.5510  0.8175  0.3168
  546MPD2    C4 8155   2.852   0.541  17.215 -0.3603  0.1295  0.0164
  546MPD2    C5 8156   2.816   0.487  17.336 -0.4511  0.3498  0.2230
  546MPD2     H 8157   2.596   0.439  17.031  0.2377 -0.2432 -0.0476
  546MPD2    H1 8158   2.944   0.597  17.209  0.2214 -0.7877  0.3285
  546MPD2    H2 8159   2.672   0.362  17.443 -2.0923 -1.0616 -1.1669
  546MPD2    H3 8160   2.887   0.491  17.418  0.8016  0.0268 -0.8458
  546MPD2     N 8161   2.815   0.598  16.990  0.2232  0.1791  0.4893
  546MPD2    H5 8162   2.875   0.677  17.012  0.6088 -0.0004  0.0901
  546MPD2    N1 8163   2.486   0.337  17.251  0.0591 -0.4560  0.0490
  546MPD2    H7 8164   2.460   0.305  17.344  0.7103  0.7685  0.6477
  547TMC3    C1 8165   2.259   0.278  17.205  0.2721  0.6640  0.4322
  547TMC3    C2 8166   2.154   0.317  17.135 -0.5814  0.4152 -0.6030
  547TMC3    C3 8167   2.026   0.290  17.191  0.1722 -0.8677 -0.1032
  547TMC3    C4 8168   2.258   0.211  17.322 -0.1351  0.4351  0.4871
  547TMC3    C5 8169   2.128   0.181  17.364 -0.3396  0.0836  0.6331
  547TMC3    C6 8170   2.011   0.231  17.313 -0.4511  0.5076  0.3392
  547TMC3     C 8171   2.390   0.324  17.155 -0.4535  0.5997 -0.0060
  547TMC3     O 8172   2.384   0.373  17.042  0.6748  0.4597 -0.5685
  547TMC3     H 8173   2.160   0.370  17.041  1.4527 -0.2958 -0.8615
  547TMC3    H1 8174   2.350   0.180  17.370 -0.5559  1.7057  2.1065
  547TMC3    H2 8175   1.911   0.210  17.348 -0.8458  1.8281 -0.0107
  547TMC3    C7 8176   2.105   0.109  17.486 -0.2370  0.0664  0.2782
  547TMC3    C8 8177   1.916   0.363  17.128 -0.1747 -0.1999  0.1428
  547TMC3    O1 8178   2.004   0.145  17.546  0.0869  0.1328  0.4084
  547TMC3    O2 8179   1.917   0.376  17.005 -0.1447  0.1370  0.3031
  548MPD2     C 8180   2.408   1.433  12.271  0.2359 -0.0341  0.2501
  548MPD2    C1 8181   2.410   1.322  12.352  0.3562 -0.0480  0.3076
  548MPD2    C2 8182   2.505   1.225  12.322 -0.7316  0.2923  0.0439
  548MPD2    C3 8183   2.591   1.239  12.217  0.1639  0.3118  0.2394
  548MPD2    C4 8184   2.586   1.350  12.136 -0.8176  0.1708 -0.7036
  548MPD2    C5 8185   2.492   1.449  12.166 -0.8531  0.3512  0.5613
  548MPD2     H 8186   2.523   1.137  12.383  1.1342  0.2910 -0.5227
  548MPD2    H1 8187   2.658   1.362  12.056 -2.9052  1.0416 -2.4377
  548MPD2    H2 8188   2.332   1.509  12.285  0.4918  0.0716  1.0559
  548MPD2    H3 8189   2.481   1.535  12.102  1.4458  1.2378  1.3538
  548MPD2     N 8190   2.696   1.143  12.195 -0.8627  0.1560 -0.2450
  548MPD2    H5 8191   2.777   1.184  12.148 -1.3427  1.3017 -0.0876
  548MPD2    N1 8192   2.331   1.322  12.467  0.3122  0.2768 -0.3079
  548MPD2    H7 8193   2.262   1.395  12.480 -1.4206 -1.1800 -1.4750
  549TMC3    C1 8194   2.255   1.245  12.676  0.3420 -0.2797 -0.3215
  549TMC3    C2 8195   2.229   1.379  12.709  0.6369 -0.6687 -0.3321
  549TMC3    C3 8196   2.127   1.414  12.782  0.1075 -0.2932  0.5336
  549TMC3    C4 8197   2.170   1.149  12.716  0.5163  0.2169  0.6023
  549TMC3    C5 8198   2.058   1.194  12.774 -0.2786  0.1715 -0.2277
  549TMC3    C6 8199   2.032   1.321  12.810  0.0981 -0.4128  0.1541
  549TMC3     C 8200   2.334   1.218  12.560 -0.7705 -0.6438 -0.3515
  549TMC3     O 8201   2.363   1.101  12.544 -0.1400  0.3163 -0.4141
  549TMC3     H 8202   2.297   1.455  12.672  0.5775  0.2206  1.4351
  549TMC3    H1 8203   2.186   1.043  12.700  0.7885  0.5080 -0.9801
  549TMC3    H2 8204   1.947   1.354  12.869 -0.2538 -0.8758 -0.0984
  549TMC3    C7 8205   1.936   1.113  12.753 -0.7236 -0.1693  0.4219
  549TMC3    C8 8206   2.064   1.539  12.746 -0.2074  0.4782 -0.1834
  549TMC3    O1 8207   1.835   1.181  12.743  0.1672  0.3610  0.6480
  549TMC3    O2 8208   2.132   1.639  12.759 -0.1480 -0.0527 -0.0681
  550TMC3    C1 8209   1.126   3.874  11.822 -0.7164 -0.4061  0.3203
  550TMC3    C2 8210   1.049   3.850  11.935  0.4270  0.6561 -0.2054
  550TMC3    C3 8211   0.915   3.876  11.921  1.0112 -0.3792 -0.3991
  550TMC3    C4 8212   1.076   3.902  11.701  0.9044 -0.0879  0.7421
  550TMC3    C5 8213   0.939   3.917  11.693  0.3054  0.0953 -0.6761
  550TMC3    C6 8214   0.858   3.909  11.800 -0.5246 -0.2032  0.2303
  550TMC3     C 8215   1.257   3.824  11.831  0.7748 -0.3972  1.1401
  550TMC3     O 8216   1.266   3.724  11.895  0.1765 -0.2912 -1.0966
  550TMC3     H 8217   1.100   3.835  12.029  2.3607 -1.3950 -1.5807
  550TMC3    H1 8218   1.141   3.921  11.617  0.4046 -1.2613  0.0990
  550TMC3    H2 8219   0.753   3.934  11.789 -1.0558 -2.0229  1.2606
  550TMC3    C7 8220   0.894   4.006  11.584  0.0185 -0.2111 -0.1070
  550TMC3    C8 8221   0.850   3.953  12.024  0.0754  0.2282 -0.1234
  550TMC3    O1 8222   0.770   4.020  11.572 -0.6598  0.1663 -0.3582
  550TMC3    O2 8223   0.922   4.013  12.099 -0.9576 -0.2003  0.0778
  551TMC3    C1 8224   3.498   1.900  13.393  0.1828 -0.1666  0.3650
  551TMC3    C2 8225   3.605   1.818  13.383  0.2659  0.4813  0.1942
  551TMC3    C3 8226   3.691   1.813  13.492  0.3679 -0.6076  0.0237
  551TMC3    C4 8227   3.465   1.979  13.504 -0.3328 -0.1588  0.8876
  551TMC3    C5 8228   3.569   1.989  13.593  0.0080 -0.1746 -0.2948
  551TMC3    C6 8229   3.669   1.896  13.597 -0.3136 -0.2972 -0.5655
  551TMC3     C 8230   3.413   1.900  13.275  0.5147 -0.0985  0.1994
  551TMC3     O 8231   3.420   1.795  13.213 -0.4051 -0.1780  0.0083
  551TMC3     H 8232   3.641   1.789  13.285 -2.8658 -1.1612 -0.4801
  551TMC3    H1 8233   3.380   2.046  13.500 -0.3474 -0.2090  0.3237
  551TMC3    H2 8234   3.752   1.907  13.666  0.0640  0.1789 -1.0889
  551TMC3    C7 8235   3.572   2.090  13.690  0.3864 -0.5876 -0.1282
  551TMC3    C8 8236   3.831   1.799  13.462 -0.3400 -0.1569 -0.2782
  551TMC3    O1 8237   3.662   2.070  13.766  0.5317 -0.0820  0.2131
  551TMC3    O2 8238   3.870   1.683  13.441 -0.5811 -0.3883  0.3666
  552MPD2     C 8239   0.737   3.547  14.108  0.5869 -0.0774 -0.1291
  552MPD2    C1 8240   0.697   3.469  14.218 -0.5535 -0.0519  0.9120
  552MPD2    C2 8241   0.780   3.460  14.330  0.0555  0.5219 -0.0251
  552MPD2    C3 8242   0.902   3.527  14.335  0.0741 -0.4545 -0.4805
  552MPD2    C4 8243   0.944   3.591  14.220 -0.5323 -0.1607  0.1132
  552MPD2    C5 8244   0.859   3.608  14.114  0.2881 -0.1136 -0.7391
  552MPD2     H 8245   0.747   3.396  14.411 -0.1258 -1.0424 -1.3415
  552MPD2    H1 8246   1.043   3.634  14.212 -0.5210 -0.3979 -0.9725
  552MPD2    H2 8247   0.685   3.545  14.013  2.0979  0.9000 -0.9721
  552MPD2    H3 8248   0.890   3.670  14.030  1.8992 -0.8206 -0.6673
  552MPD2     N 8249   0.991   3.532  14.439 -0.7999  0.4633  0.2730
  552MPD2    H5 8250   1.068   3.596  14.425 -0.4436 -0.2145 -0.8252
  552MPD2    N1 8251   0.567   3.407  14.214  0.2919  0.1972  0.8232
  552MPD2    H7 8252   0.548   3.342  14.290 -2.2848 -0.1487 -0.1122
  553TMC3    C1 8253   0.370   3.334  14.109  0.1188 -0.1634  0.6483
  553TMC3    C2 8254   0.251   3.379  14.064 -0.3794  0.4378 -0.4473
  553TMC3    C3 8255   0.205   3.315  13.948  0.5984  0.4071  0.5617
  553TMC3    C4 8256   0.437   3.227  14.050 -0.2622 -0.1481  0.5278
  553TMC3    C5 8257   0.370   3.153  13.956 -0.7513  0.2453  0.3717
  553TMC3    C6 8258   0.258   3.197  13.908 -0.0798  0.3808  0.1278
  553TMC3     C 8259   0.469   3.437  14.122  0.6556  0.2332  0.1678
  553TMC3     O 8260   0.448   3.539  14.059 -0.3633 -0.1429  0.2622
  553TMC3     H 8261   0.195   3.460  14.108 -0.7482 -0.6678  1.1039
  553TMC3    H1 8262   0.528   3.182  14.089 -0.1507  0.8379  1.4194
  553TMC3    H2 8263   0.223   3.146  13.818  0.4819 -1.3609  0.8845
  553TMC3    C7 8264   0.426   3.034  13.894 -0.2880  0.7075 -0.5922
  553TMC3    C8 8265   0.214   3.409  13.834 -0.7407 -0.1172 -0.0800
  553TMC3    O1 8266   0.348   2.952  13.854  0.3047  0.1315 -0.4576
  553TMC3    O2 8267   0.294   3.375  13.750 -0.1182  0.2623 -0.3284
  554TMC3    C1 8268   2.895   3.316  11.370  0.9760  0.4787  0.2391
  554TMC3    C2 8269   2.797   3.269  11.284 -0.1679 -0.1617  0.9361
  554TMC3    C3 8270   2.754   3.349  11.182 -0.0809  0.1604 -0.5515
  554TMC3    C4 8271   2.942   3.441  11.344  0.3486 -0.1662 -0.2173
  554TMC3    C5 8272   2.884   3.527  11.254 -0.3970 -0.6994 -0.0201
  554TMC3    C6 8273   2.789   3.478  11.170  0.1977 -0.0727 -0.0091
  554TMC3     C 8274   2.986   3.220  11.429 -0.1356  0.4108 -0.8494
  554TMC3     O 8275   3.102   3.262  11.425 -0.7143  0.6534 -0.0505
  554TMC3     H 8276   2.783   3.161  11.283 -1.1632 -0.0222 -2.0045
  554TMC3    H1 8277   3.028   3.479  11.398 -1.2397 -2.7729  4.0762
  554TMC3    H2 8278   2.776   3.543  11.084 -2.9983 -0.3618  0.2360
  554TMC3    C7 8279   2.981   3.605  11.180  0.4302 -0.4095  0.8551
  554TMC3    C8 8280   2.715   3.280  11.059  0.1232  0.2219 -0.3597
  554TMC3    O1 8281   3.073   3.543  11.132 -0.1161  0.2198  0.1745
  554TMC3    O2 8282   2.749   3.347  10.964  0.0339  0.4365  0.1944
  555TMC3    C1 8283   1.390   2.392  15.416  0.8593  0.0484 -0.3119
  555TMC3    C2 8284   1.315   2.484  15.488  0.0898 -0.1322  0.5208
  555TMC3    C3 8285   1.325   2.468  15.623 -0.1289 -0.1545  0.4714
  555TMC3    C4 8286   1.462   2.292  15.462  0.0779  0.6735 -0.4813
  555TMC3    C5 8287   1.461   2.285  15.603  1.3824  0.4942 -0.2185
  555TMC3    C6 8288   1.404   2.377  15.685  0.0966  0.2279 -0.0069
  555TMC3     C 8289   1.360   2.377  15.275 -0.6582  0.0996 -0.0816
  555TMC3     O 8290   1.375   2.268  15.219  0.3376 -0.0353 -0.3452
  555TMC3     H 8291   1.257   2.565  15.444 -0.1484 -0.7795 -0.3506
  555TMC3    H1 8292   1.490   2.217  15.389  1.1542  0.7245 -0.1218
  555TMC3    H2 8293   1.396   2.359  15.792 -1.3161  1.5160  0.1113
  555TMC3    C7 8294   1.504   2.165  15.663  0.2568 -0.0458  0.1074
  555TMC3    C8 8295   1.260   2.566  15.701 -0.5371 -0.5989  0.8440
  555TMC3    O1 8296   1.519   2.072  15.585 -0.6050  0.0565 -0.3853
  555TMC3    O2 8297   1.160   2.623  15.656 -0.5266  0.0852  0.0132
  556MPD2     C 8298   0.228   4.337  10.826 -0.2221  0.3099  0.0646
  556MPD2    C1 8299   0.106   4.262  10.828 -0.2184 -0.4041 -0.0903
  556MPD2    C2 8300   0.104   4.138  10.766 -0.5493 -0.7788 -0.7845
  556MPD2    C3 8301   0.221   4.092  10.703  0.6134 -0.1444 -0.5280
  556MPD2    C4 8302   0.335   4.173  10.689 -0.3779 -0.1497  0.0320
  556MPD2    C5 8303   0.339   4.294  10.757 -0.8662  0.6478  0.1224
  556MPD2     H 8304   0.011   4.091  10.738 -1.7418  1.1650 -0.0487
  556MPD2    H1 8305   0.421   4.145  10.630  0.2721 -0.4873  1.1471
  556MPD2    H2 8306   0.240   4.432  10.877 -1.3501  0.4756  0.0204
  556MPD2    H3 8307   0.433   4.346  10.769  0.9034 -2.2708 -1.1460
  556MPD2     N 8308   0.212   3.972  10.630  0.0551 -0.2435 -0.3655
  556MPD2    H5 8309   0.131   3.912  10.641 -1.7911  1.7868 -2.9277
  556MPD2    N1 8310   4.722   4.311  10.889 -0.4962 -0.7378  0.4894
  556MPD2    H7 8311   4.639   4.253  10.895 -0.3494 -0.9723  0.2289
  557TMC3    C1 8312   0.245   3.806  10.478 -0.1145 -0.0580  0.1625
  557TMC3    C2 8313   0.254   3.788  10.349  0.6359 -0.1476 -0.7781
  557TMC3    C3 8314   0.240   3.662  10.300  0.8818 -0.6686  0.0403
  557TMC3    C4 8315   0.224   3.713  10.572  0.4078  0.0498  0.5765
  557TMC3    C5 8316   0.207   3.584  10.518 -0.5381 -1.0302  0.3022
  557TMC3    C6 8317   0.199   3.559  10.382  0.1838  0.1912 -0.2386
  557TMC3     C 8318   0.294   3.927  10.528 -0.1401 -0.1405  0.0864
  557TMC3     O 8319   0.387   3.978  10.469  0.4303  0.0660  0.5048
  557TMC3     H 8320   0.273   3.875  10.288 -0.2068 -0.2054 -1.1086
  557TMC3    H1 8321   0.251   3.726  10.676  0.2671 -1.5134  0.8143
  557TMC3    H2 8322   0.160   3.465  10.344 -0.0848  0.3903 -0.4591
  557TMC3    C7 8323   0.180   3.479  10.612 -0.1030 -0.3885 -0.1185
  557TMC3    C8 8324   0.177   3.668  10.170 -0.0886 -0.4593  0.4456
  557TMC3    O1 8325   0.208   3.368  10.576  0.5113 -0.0743 -0.0379
  557TMC3    O2 8326   0.125   3.777  10.142  0.9699 -0.4775  0.0791
  558TMC3    C1 8327   2.470   2.030  10.287  0.0931  0.3360 -0.1931
  558TMC3    C2 8328   2.353   2.046  10.352  0.0285 -0.1984 -0.3389
  558TMC3    C3 8329   2.243   2.047  10.272  0.1807 -0.1169 -1.0383
  558TMC3    C4 8330   2.483   2.004  10.152 -0.1395 -0.2371 -0.3894
  558TMC3    C5 8331   2.372   1.991  10.085 -0.1323  0.5794 -0.1738
  558TMC3    C6 8332   2.251   2.015  10.140 -0.2941 -0.1637  0.3864
  558TMC3     C 8333   2.595   2.021  10.363  0.4098  0.5027  0.0845
  558TMC3     O 8334   2.695   2.043  10.294 -0.4774  0.2031  0.5157
  558TMC3     H 8335   2.357   2.090  10.451  0.4563  0.6132 -0.7241
  558TMC3    H1 8336   2.578   1.974  10.108  0.3759  1.4926 -0.4419
  558TMC3    H2 8337   2.155   2.012  10.089 -1.3353  1.4599  2.2646
  558TMC3    C7 8338   2.370   1.978   9.932 -0.0724 -0.3916  0.5494
  558TMC3    C8 8339   2.110   2.074  10.331 -0.2347 -0.3487 -0.1690
  558TMC3    O1 8340   2.482   1.983   9.882  0.1823 -0.5876 -0.0522
  558TMC3    O2 8341   2.016   2.084  10.255 -0.2057 -0.1549  0.2694
  559MPD2     C 8342   2.745   2.519  10.392  0.1162 -0.4301  0.2407
  559MPD2    C1 8343   2.661   2.456  10.479  0.2795  0.2772 -0.4405
  559MPD2    C2 8344   2.717   2.395  10.587 -0.8209 -0.2037  0.2633
  559MPD2    C3 8345   2.855   2.388  10.600 -0.6554 -0.3080 -0.1085
  559MPD2    C4 8346   2.938   2.437  10.502  0.6880 -0.1321 -0.3368
  559MPD2    C5 8347   2.881   2.504  10.402  0.9168 -0.1059  0.2389
  559MPD2     H 8348   2.653   2.350  10.663 -0.1133 -1.3998  0.1504
  559MPD2    H1 8349   3.046   2.443  10.515  0.7153 -0.6352 -0.3473
  559MPD2    H2 8350   2.697   2.575  10.312  1.4560 -0.4865 -0.5921
  559MPD2    H3 8351   2.948   2.551  10.330 -0.3274  3.0517  1.1263
  559MPD2     N 8352   2.895   2.348  10.727 -0.2427  0.0841 -0.7982
  559MPD2    H5 8353   2.822   2.330  10.795 -0.1574  3.5180  0.2178
  559MPD2    N1 8354   2.525   2.499  10.485  0.8512  0.6835  0.1988
  559MPD2    H7 8355   2.497   2.579  10.429  0.0991 -0.3356 -0.8749
  560TMC3    C1 8356   3.029   2.330  10.910 -0.7149 -0.2846  0.5018
  560TMC3    C2 8357   2.941   2.245  10.974 -0.1815  0.5912  0.7472
  560TMC3    C3 8358   2.928   2.247  11.113 -0.8824  0.2043  0.1752
  560TMC3    C4 8359   3.113   2.412  10.989 -1.1619 -0.1522 -0.1580
  560TMC3    C5 8360   3.093   2.406  11.122  0.1168  0.3505 -0.8475
  560TMC3    C6 8361   3.002   2.327  11.186  0.2329  0.8247  0.2708
  560TMC3     C 8362   3.029   2.351  10.772 -0.6302  0.3369 -0.5525
  560TMC3     O 8363   3.125   2.405  10.722 -0.5034  0.4061 -0.1305
  560TMC3     H 8364   2.873   2.190  10.910 -0.2585 -0.2304  1.5409
  560TMC3    H1 8365   3.176   2.490  10.949  0.3584 -0.8467  0.8933
  560TMC3    H2 8366   2.989   2.311  11.293 -0.1682 -1.6512 -0.1427
  560TMC3    C7 8367   3.131   2.530  11.199 -0.4826  0.2125  0.7624
  560TMC3    C8 8368   2.799   2.209  11.163  0.0934 -0.2602 -0.5739
  560TMC3    O1 8369   3.046   2.573  11.275 -0.5491  0.1794 -0.2894
  560TMC3    O2 8370   2.743   2.119  11.107 -0.3995 -0.0023  0.6472
  561TMC3    C1 8371   0.367   1.742  11.039  0.3106  0.2499  0.1771
  561TMC3    C2 8372   0.288   1.663  11.115  0.3818 -0.1285  0.3642
  561TMC3    C3 8373   0.227   1.717  11.225  0.2149  0.1870 -0.3855
  561TMC3    C4 8374   0.383   1.871  11.061  1.3035  0.2486  0.2362
  561TMC3    C5 8375   0.328   1.929  11.173  0.0590  0.1738 -0.7880
  561TMC3    C6 8376   0.251   1.846  11.259 -0.2840 -0.0862 -0.2333
  561TMC3     C 8377   0.446   1.684  10.944 -0.4793  0.0585  0.2987
  561TMC3     O 8378   0.489   1.729  10.839 -0.1838  0.3066  1.0952
  561TMC3     H 8379   0.253   1.569  11.072  1.0521  1.1010 -2.8456
  561TMC3    H1 8380   0.441   1.921  10.985 -0.5916  3.4342  0.8814
  561TMC3    H2 8381   0.203   1.888  11.346 -2.0554 -1.3892 -0.5713
  561TMC3    C7 8382   0.352   2.065  11.213  0.3617  0.4325  0.2356
  561TMC3    C8 8383   0.157   1.623  11.313  0.1717  0.3673  0.3109
  561TMC3    O1 8384   0.289   2.107  11.308 -0.3437  0.1389 -0.1349
  561TMC3    O2 8385   0.137   1.508  11.270 -0.0705 -0.0567  0.4160
  562TMC3    C1 8386   1.217   2.982  16.834  0.4741  0.7414  0.0975
  562TMC3    C2 8387   1.222   3.091  16.750  0.6123  0.5789 -0.3341
  562TMC3    C3 8388   1.146   3.086  16.635  0.5021 -0.0612  0.0286
  562TMC3    C4 8389   1.157   2.859  16.806  0.9073 -1.0443 -1.4118
  562TMC3    C5 8390   1.080   2.860  16.692  0.3607 -0.2865 -0.3306
  562TMC3    C6 8391   1.068   2.972  16.609 -0.7353  0.1208 -0.0040
  562TMC3     C 8392   1.287   2.998  16.959 -0.6295 -0.2306  0.4774
  562TMC3     O 8393   1.376   3.081  16.971  0.5733 -0.1097  0.1816
  562TMC3     H 8394   1.272   3.182  16.779  0.5648  0.1732  1.0138
  562TMC3    H1 8395   1.172   2.773  16.870 -1.5356  0.2009  0.8397
  562TMC3    H2 8396   1.015   2.952  16.516 -0.3276  0.7118 -0.3627
  562TMC3    C7 8397   1.067   2.727  16.626  0.1919 -0.2698  0.3945
  562TMC3    C8 8398   1.192   3.155  16.519  0.2906 -0.8587  0.7947
  562TMC3    O1 8399   1.012   2.728  16.516  0.0815 -0.6143 -0.2570
  562TMC3    O2 8400   1.299   3.207  16.539  0.5525  0.6592  0.3944
  563MPD2     C 8401   3.730   4.170  15.766  0.4647  0.2880 -0.0884
  563MPD2    C1 8402   3.790   4.157  15.891  0.4438  0.0712  0.0947
  563MPD2    C2 8403   3.905   4.080  15.901  0.0067 -0.2021  0.8716
  563MPD2    C3 8404   3.939   3.988  15.804  0.4742 -0.6991  1.0067
  563MPD2    C4 8405   3.866   3.994  15.688 -0.0974 -0.5434  0.4498
  563MPD2    C5 8406   3.774   4.093  15.673  0.4503  0.1746 -0.1078
  563MPD2     H 8407   3.960   4.068  15.994  0.9659 -0.1659  0.3121
  563MPD2    H1 8408   3.905   3.941  15.602 -1.7132  1.1678 -1.3019
  563MPD2    H2 8409   3.651   4.239  15.739 -0.2251 -0.0147  1.1445
  563MPD2    H3 8410   3.729   4.098  15.574  2.3289 -0.8247 -1.0126
  563MPD2     N 8411   4.048   3.904  15.830 -0.0408 -0.3227 -0.2948
  563MPD2    H5 8412   4.097   3.919  15.918 -1.0649  0.7342  0.0931
  563MPD2    N1 8413   3.730   4.235  15.991  0.4897 -0.1756  0.0503
  563MPD2    H7 8414   3.632   4.256  15.977  0.6184  1.7849  1.9465
  564TMC3    C1 8415   3.685   4.231  16.223 -0.8847  0.2026  0.0165
  564TMC3    C2 8416   3.609   4.117  16.206 -0.0433 -0.1509  0.2409
  564TMC3    C3 8417   3.564   4.040  16.316 -0.2301 -0.0921  0.8185
  564TMC3    C4 8418   3.731   4.260  16.347 -0.8438 -0.0823  0.3173
  564TMC3    C5 8419   3.689   4.174  16.452 -0.0905 -0.1984  0.3779
  564TMC3    C6 8420   3.600   4.068  16.443 -0.2464  0.5270  0.4205
  564TMC3     C 8421   3.780   4.254  16.113 -0.1121  0.2626  0.1048
  564TMC3     O 8422   3.900   4.258  16.141  0.1437  0.7173 -0.4139
  564TMC3     H 8423   3.588   4.082  16.105  1.0896  0.5948 -0.2614
  564TMC3    H1 8424   3.797   4.345  16.361  0.4260 -0.5722 -2.6650
  564TMC3    H2 8425   3.568   4.003  16.523 -1.2458  1.0918  0.4886
  564TMC3    C7 8426   3.785   4.179  16.562 -0.4129 -0.0528  0.2710
  564TMC3    C8 8427   3.566   3.892  16.301 -0.1727 -0.0263  0.1971
  564TMC3    O1 8428   3.771   4.270  16.644 -0.6891 -0.5943  0.4942
  564TMC3    O2 8429   3.504   3.833  16.390 -0.2677 -0.3506  0.2777
  565TMC3    C1 8430   4.303   0.366  10.198  0.2966 -0.0513  0.3078
  565TMC3    C2 8431   4.400   0.338  10.291  0.6339 -0.3818  0.4961
  565TMC3    C3 8432   4.367   0.237  10.381 -0.5434  0.2605  0.3741
  565TMC3    C4 8433   4.196   0.291  10.191  0.0349  0.5741 -0.0945
  565TMC3    C5 8434   4.175   0.182  10.273 -0.5553 -0.5062 -0.6212
  565TMC3    C6 8435   4.259   0.153  10.376 -0.0032 -0.2914  0.5619
  565TMC3     C 8436   4.326   0.488  10.118 -0.7248 -0.7258  0.3599
  565TMC3     O 8437   4.441   0.526  10.115  0.2144 -0.0758  0.1224
  565TMC3     H 8438   4.491   0.396  10.300 -0.3875  1.1459  0.9290
  565TMC3    H1 8439   4.115   0.339  10.137  1.1990  1.0874 -1.4042
  565TMC3    H2 8440   4.245   0.065  10.438  1.7267  0.3046  1.8093
  565TMC3    C7 8441   4.043   0.127  10.279 -0.0389 -0.3418  0.4483
  565TMC3    C8 8442   4.438   0.253  10.508  0.1362 -0.1357  0.6888
  565TMC3    O1 8443   4.007   0.062  10.373  0.7196 -0.1167  0.2054
  565TMC3    O2 8444   4.515   0.343  10.520 -0.4001  0.1117  0.5317
  566MPD2     C 8445   1.143   1.443  14.749  0.0380 -0.4203  0.2334
  566MPD2    C1 8446   1.239   1.420  14.651 -0.2772  0.0534  1.1944
  566MPD2    C2 8447   1.196   1.395  14.524  0.2144 -0.5651  0.0554
  566MPD2    C3 8448   1.056   1.407  14.493 -1.0092  0.3984 -0.0654
  566MPD2    C4 8449   0.958   1.429  14.598 -0.4031 -0.6090  0.3242
  566MPD2    C5 8450   1.007   1.447  14.724  0.4113 -0.1131 -0.3735
  566MPD2     H 8451   1.272   1.401  14.447  0.8200  0.1715  0.7023
  566MPD2    H1 8452   0.851   1.425  14.581 -0.2376 -2.5349 -0.2070
  566MPD2    H2 8453   1.171   1.464  14.852  0.4821  0.3589 -0.0474
  566MPD2    H3 8454   0.946   1.469  14.811 -0.4206 -2.3945 -0.3790
  566MPD2     N 8455   1.035   1.416  14.355 -0.3212 -0.0978 -0.2111
  566MPD2    H5 8456   1.112   1.427  14.290  0.3699 -0.5676  0.5300
  566MPD2    N1 8457   1.379   1.429  14.694  0.9204 -0.1335 -0.2054
  566MPD2    H7 8458   1.402   1.471  14.783 -1.8571 -0.8656  0.8485
  567TMC3    C1 8459   1.611   1.430  14.642 -0.2233 -0.2117  0.1283
  567TMC3    C2 8460   1.693   1.459  14.533  0.3487 -0.3819  0.6235
  567TMC3    C3 8461   1.820   1.500  14.550 -0.4369 -0.6550 -0.3136
  567TMC3    C4 8462   1.650   1.448  14.775  0.2965  0.0566 -0.0163
  567TMC3    C5 8463   1.783   1.490  14.787 -0.5561 -0.4541 -0.5158
  567TMC3    C6 8464   1.867   1.512  14.679 -0.2144  0.7337 -0.1015
  567TMC3     C 8465   1.479   1.381  14.613  1.4943 -0.1886  0.3699
  567TMC3     O 8466   1.480   1.307  14.513 -0.2342  0.4402  0.2738
  567TMC3     H 8467   1.649   1.458  14.434 -0.0515 -3.3286  0.8287
  567TMC3    H1 8468   1.592   1.406  14.856 -0.9951  3.0425  0.6318
  567TMC3    H2 8469   1.955   1.568  14.707 -0.0015 -0.1275  0.9392
  567TMC3    C7 8470   1.825   1.567  14.903 -0.7224 -0.7570 -0.7434
  567TMC3    C8 8471   1.876   1.586  14.446  0.5559 -0.5329 -0.1922
  567TMC3    O1 8472   1.940   1.563  14.944 -0.1942  0.6411 -0.2619
  567TMC3    O2 8473   1.806   1.594  14.350  0.4047  0.6178  0.2108
  568MPD2     C 8474   3.100   2.536  16.596  0.0858 -0.1090 -0.9920
  568MPD2    C1 8475   3.187   2.556  16.698  0.3060  0.4293 -0.0499
  568MPD2    C2 8476   3.293   2.647  16.691  0.3010  0.1334  0.4382
  568MPD2    C3 8477   3.316   2.705  16.570 -0.1895  0.0360  0.3049
  568MPD2    C4 8478   3.231   2.690  16.464  0.2933 -0.0067 -0.4375
  568MPD2    C5 8479   3.119   2.613  16.480 -0.7706 -0.0710 -0.2969
  568MPD2     H 8480   3.359   2.673  16.773  1.2731 -1.2826  0.1013
  568MPD2    H1 8481   3.229   2.749  16.373  2.7294  2.4679  1.1115
  568MPD2    H2 8482   3.009   2.478  16.605  0.4059 -0.3169  0.8955
  568MPD2    H3 8483   3.041   2.611  16.404  0.7772  0.9801 -1.8875
  568MPD2     N 8484   3.425   2.799  16.564 -0.6304 -0.1738 -0.0541
  568MPD2    H5 8485   3.478   2.816  16.649  1.1949  1.6437 -1.5665
  568MPD2    N1 8486   3.162   2.486  16.819 -0.9713 -0.3849  0.6755
  568MPD2    H7 8487   3.075   2.434  16.817 -1.7695  0.9510  1.2939
  569TMC3    C1 8488   3.515   2.994  16.479  0.9737  0.0455  0.4440
  569TMC3    C2 8489   3.487   3.060  16.599 -0.5552 -0.0490  0.1199
  569TMC3    C3 8490   3.555   3.176  16.625 -0.0669  0.1103 -0.3142
  569TMC3    C4 8491   3.588   3.056  16.382  0.3165 -0.3382 -0.2625
  569TMC3    C5 8492   3.655   3.169  16.410  0.1673 -0.2868 -0.9263
  569TMC3    C6 8493   3.636   3.230  16.526  0.1712  0.4953  0.0360
  569TMC3     C 8494   3.451   2.870  16.452  0.6321  0.4114 -0.2809
  569TMC3     O 8495   3.429   2.843  16.334 -0.3868  0.6630  0.0627
  569TMC3     H 8496   3.399   3.041  16.659  0.0351  0.1268  1.0550
  569TMC3    H1 8497   3.605   3.000  16.290 -0.7572 -0.8683 -0.1289
  569TMC3    H2 8498   3.688   3.324  16.546  0.3673  0.3053  0.4311
  569TMC3    C7 8499   3.696   3.249  16.294  0.3852 -0.5440 -0.2108
  569TMC3    C8 8500   3.482   3.280  16.685  0.4205  0.4352 -0.1604
  569TMC3    O1 8501   3.743   3.186  16.203 -0.2026  0.0730 -0.3193
  569TMC3    O2 8502   3.372   3.306  16.645 -0.5469 -0.0037 -0.3272
  570TMC3    C1 8503   2.284   2.017  15.949  0.0919  0.1612  0.4367
  570TMC3    C2 8504   2.366   2.002  15.844  0.2233 -0.5806 -0.1176
  570TMC3    C3 8505   2.484   2.063  15.848 -0.4543  0.2156  0.7117
  570TMC3    C4 8506   2.311   2.102  16.050  0.4696 -0.0171  0.6236
  570TMC3    C5 8507   2.431   2.164  16.055 -0.5616 -0.7160 -0.1998
  570TMC3    C6 8508   2.519   2.139  15.955 -0.2397  0.4446  0.8109
  570TMC3     C 8509   2.173   1.931  15.945  0.2609  0.0606 -0.5297
  570TMC3     O 8510   2.093   1.961  15.858 -0.6391  0.3452 -0.2606
  570TMC3     H 8511   2.311   1.951  15.766  0.5398 -2.5158  0.9428
  570TMC3    H1 8512   2.242   2.111  16.133  0.6924  1.4792  0.6409
  570TMC3    H2 8513   2.624   2.166  15.960  0.2694 -1.1447 -1.4772
  570TMC3    C7 8514   2.489   2.172  16.185 -0.4475 -0.4794 -0.5045
  570TMC3    C8 8515   2.599   2.014  15.776 -0.2922  0.6024  0.5921
  570TMC3    O1 8516   2.441   2.109  16.275  0.1225 -0.3251 -0.4069
  570TMC3    O2 8517   2.696   2.086  15.767  0.1963 -0.4282 -0.1266
  571MPD2     C 8518   0.549   3.117   0.083 -0.1125 -0.1505  0.2217
  571MPD2    C1 8519   0.536   3.115   0.217 -0.2043 -0.6435 -0.5891
  571MPD2    C2 8520   0.592   3.219   0.287  0.2898 -0.2942  0.2892
  571MPD2    C3 8521   0.685   3.299   0.221  0.0407  0.2229 -0.2856
  571MPD2    C4 8522   0.702   3.291   0.086  0.5565  0.8126  0.3794
  571MPD2    C5 8523   0.630   3.205   0.016 -0.7986  0.2195 -0.6022
  571MPD2     H 8524   0.581   3.216   0.395  0.2026  1.9027  0.3326
  571MPD2    H1 8525   0.771   3.356   0.034 -0.5841 -0.2536 -2.4189
  571MPD2    H2 8526   0.516   3.037   0.018 -0.2320  0.0211  0.0693
  571MPD2    H3 8527   0.625   3.204  17.646 -0.9872  2.3021 -0.6169
  571MPD2     N 8528   0.747   3.409   0.283  0.1200 -0.6246 -0.1070
  571MPD2    H5 8529   0.799   3.469   0.220 -1.2489  0.8450  0.1718
  571MPD2    N1 8530   0.473   3.002   0.280 -0.4182 -0.2642  0.1841
  571MPD2    H7 8531   0.437   2.936   0.211 -0.6322 -0.3480  0.3772
  572TMC3    C1 8532   0.838   3.527   0.469 -0.3098  1.0776  0.0014
  572TMC3    C2 8533   0.859   3.527   0.604 -0.3225 -0.4138 -0.0713
  572TMC3    C3 8534   0.923   3.637   0.656 -0.3129  0.5369 -0.7044
  572TMC3    C4 8535   0.859   3.640   0.392 -0.6184  0.3193 -0.3532
  572TMC3    C5 8536   0.917   3.745   0.448  0.1831  0.7879 -0.3879
  572TMC3    C6 8537   0.947   3.741   0.580 -0.5245 -0.2776  0.4944
  572TMC3     C 8538   0.758   3.419   0.421  0.0490  0.0609 -0.7796
  572TMC3     O 8539   0.705   3.352   0.512 -0.5162  0.6126 -0.1025
  572TMC3     H 8540   0.840   3.443   0.669  0.1873  0.0796  0.7221
  572TMC3    H1 8541   0.845   3.642   0.284  0.2851  0.0408 -0.4797
  572TMC3    H2 8542   1.000   3.824   0.626  0.5074 -1.4217  1.3599
  572TMC3    C7 8543   0.928   3.869   0.373  0.6857  0.8137  0.0137
  572TMC3    C8 8544   0.998   3.633   0.781 -0.5905 -0.0042  0.5463
  572TMC3    O1 8545   0.863   3.876   0.272 -0.7323  0.4040  0.3849
  572TMC3    O2 8546   1.078   3.729   0.792  0.1307  0.1234 -1.1772
  573MPD2     C 8547   1.489   4.395   0.756 -0.1918  0.1305 -0.5089
  573MPD2    C1 8548   1.474   4.279   0.824 -0.4585  0.2074  0.0924
  573MPD2    C2 8549   1.426   4.171   0.752  0.2853 -0.1594  0.4870
  573MPD2    C3 8550   1.414   4.169   0.612  0.8989 -0.0421 -0.2877
  573MPD2    C4 8551   1.442   4.284   0.545 -0.8779  0.0864  0.3385
  573MPD2    C5 8552   1.471   4.397   0.619  0.3349 -0.4578  0.4271
  573MPD2     H 8553   1.406   4.079   0.807  1.1994  0.4106  1.7642
  573MPD2    H1 8554   1.420   4.308   0.442 -2.0229  1.9184  1.0050
  573MPD2    H2 8555   1.511   4.482   0.816 -1.2968 -0.3508  0.5815
  573MPD2    H3 8556   1.483   4.492   0.568  0.3142 -1.3020 -1.1236
  573MPD2     N 8557   1.369   4.058   0.538 -0.3229  0.6168  0.6513
  573MPD2    H5 8558   1.354   4.070   0.438  2.5108 -2.2886 -0.1050
  573MPD2    N1 8559   1.502   4.286   0.962 -0.7588 -0.7294 -0.7076
  573MPD2    H7 8560   1.519   4.377   1.002  1.5062 -1.8923  0.9743
  574TMC3    C1 8561   1.331   3.833   0.472 -0.6257 -0.5458  0.0234
  574TMC3    C2 8562   1.294   3.883   0.350 -0.1390  0.2000  0.4556
  574TMC3    C3 8563   1.247   3.794   0.259  0.7846  0.3884  0.7186
  574TMC3    C4 8564   1.322   3.697   0.502  0.1924  0.0043 -0.7042
  574TMC3    C5 8565   1.291   3.613   0.403  0.5254 -0.0405  0.9118
  574TMC3    C6 8566   1.256   3.660   0.278 -0.1548 -0.2664  0.0065
  574TMC3     C 8567   1.362   3.928   0.582  0.1705 -0.6168 -0.1956
  574TMC3     O 8568   1.372   3.879   0.696  0.1119 -0.3036  0.4293
  574TMC3     H 8569   1.274   3.988   0.334 -3.5028 -0.6287 -0.7612
  574TMC3    H1 8570   1.350   3.673   0.604 -0.3187 -1.7855 -0.9852
  574TMC3    H2 8571   1.192   3.599   0.215  3.0308 -2.0150 -1.5002
  574TMC3    C7 8572   1.230   3.491   0.438  0.2464 -0.5065  0.1376
  574TMC3    C8 8573   1.230   3.841   0.118 -0.2024 -0.4536 -0.0340
  574TMC3    O1 8574   1.187   3.420   0.346  0.5287 -0.2705  0.4970
  574TMC3    O2 8575   1.186   3.751   0.047 -0.0564  0.4105  0.0100
  575TMC3    C1 8576   0.391   0.444  10.974  0.1404  0.3363 -0.3513
  575TMC3    C2 8577   0.367   0.556  11.051 -0.1114 -0.0371 -0.7393
  575TMC3    C3 8578   0.238   0.587  11.075  0.0648 -0.4398  0.0276
  575TMC3    C4 8579   0.291   0.359  10.937  0.0851  0.5508  0.5486
  575TMC3    C5 8580   0.163   0.388  10.989 -0.1845  0.5094  0.1540
  575TMC3    C6 8581   0.134   0.499  11.058 -0.9472 -0.8936 -0.7287
  575TMC3     C 8582   0.531   0.417  10.934  0.4699 -0.1081  0.5183
  575TMC3     O 8583   0.619   0.479  10.994 -0.0950 -1.0091  0.0062
  575TMC3     H 8584   0.445   0.628  11.073 -0.7832  0.2146  0.7585
  575TMC3    H1 8585   0.312   0.265  10.888  2.0337  1.6158 -0.6486
  575TMC3    H2 8586   0.033   0.533  11.079 -0.3445  0.1811  0.4207
  575TMC3    C7 8587   0.059   0.317  10.914 -0.4448 -0.0029 -0.3061
  575TMC3    C8 8588   0.202   0.722  11.099 -0.2097 -0.6783 -0.1615
  575TMC3    O1 8589   0.097   0.255  10.812 -0.1846 -0.1735 -0.2195
  575TMC3    O2 8590   0.102   0.748  11.168  0.8028  0.3551 -0.0101
  576MPD2     C 8591   4.046   1.676  12.520 -0.7701  0.0266 -0.1278
  576MPD2    C1 8592   4.061   1.784  12.440  0.6201  0.2225 -0.4430
  576MPD2    C2 8593   3.953   1.866  12.417 -0.2074 -0.1113  0.3634
  576MPD2    C3 8594   3.826   1.838  12.461 -0.3380  0.0506  0.1359
  576MPD2    C4 8595   3.814   1.735  12.552  0.1128 -0.5485  0.1381
  576MPD2    C5 8596   3.924   1.663  12.585  0.5016  0.0228  0.2224
  576MPD2     H 8597   3.958   1.944  12.342 -0.8237 -0.1107  0.3288
  576MPD2    H1 8598   3.718   1.706  12.593  0.1775  0.7261  1.2195
  576MPD2    H2 8599   4.121   1.602  12.541 -1.6663 -0.9067 -0.2247
  576MPD2    H3 8600   3.917   1.581  12.657 -1.7330 -0.1119 -0.1325
  576MPD2     N 8601   3.726   1.911  12.400 -0.4758 -0.0872  0.0237
  576MPD2    H5 8602   3.745   1.995  12.346 -0.4294  0.1678  0.4407
  576MPD2    N1 8603   4.176   1.810  12.362  0.4343  0.0602  0.2537
  576MPD2    H7 8604   4.182   1.888  12.297  1.0232  0.4953  0.8202
  577TMC3    C1 8605   4.384   1.759  12.253  0.7340  0.4882 -0.7635
  577TMC3    C2 8606   4.444   1.668  12.169  0.4211 -0.9486  0.1059
  577TMC3    C3 8607   4.503   1.718  12.053  0.1649 -0.5624 -0.3185
  577TMC3    C4 8608   4.386   1.889  12.210 -0.0340  0.5592 -0.2542
  577TMC3    C5 8609   4.431   1.933  12.091  0.5001  0.3115 -0.4101
  577TMC3    C6 8610   4.494   1.843  12.008 -0.5977 -0.2344  0.1750
  577TMC3     C 8611   4.283   1.717  12.348 -0.6159  0.4945  0.6544
  577TMC3     O 8612   4.299   1.601  12.385  0.0983  0.3083  0.2443
  577TMC3     H 8613   4.448   1.562  12.193  2.3468 -1.2071 -1.3539
  577TMC3    H1 8614   4.353   1.961  12.284 -1.8370 -0.0860 -0.4198
  577TMC3    H2 8615   4.526   1.880  11.912  0.4344 -0.4168  0.4513
  577TMC3    C7 8616   4.434   2.077  12.067 -1.0419  0.7162 -0.0985
  577TMC3    C8 8617   4.567   1.616  11.964 -0.3872  0.6170  0.2075
  577TMC3    O1 8618   4.440   2.151  12.165 -0.0087  0.4401  0.5969
  577TMC3    O2 8619   4.535   1.500  11.993 -0.2036  0.3571 -0.3956
  578MPD2     C 8620   2.942   1.841   2.041  0.3468 -0.1059 -0.3088
  578MPD2    C1 8621   2.891   1.774   1.927  0.3050  0.2310 -0.4780
  578MPD2    C2 8622   2.838   1.648   1.939 -0.0671 -0.5656  0.0545
  578MPD2    C3 8623   2.828   1.588   2.061 -0.0614 -0.3704  0.3567
  578MPD2    C4 8624   2.872   1.656   2.172 -0.3883  0.0176  0.4288
  578MPD2    C5 8625   2.922   1.784   2.168 -0.3149 -0.0146 -0.5516
  578MPD2     H 8626   2.796   1.579   1.866 -2.8012  0.9785  0.1508
  578MPD2    H1 8627   2.857   1.610   2.270  1.5792 -0.6471  0.4196
  578MPD2    H2 8628   2.981   1.941   2.036  0.9616 -0.4546 -2.4354
  578MPD2    H3 8629   2.949   1.833   2.260 -0.8621 -0.0925 -0.3474
  578MPD2     N 8630   2.764   1.469   2.059  0.0800  0.5840  0.2462
  578MPD2    H5 8631   2.731   1.434   1.970  0.4009 -0.0212  0.3658
  578MPD2    N1 8632   2.882   1.841   1.800 -0.0799 -0.3146  0.3765
  578MPD2    H7 8633   2.918   1.936   1.807 -0.4284 -0.1695  0.2155
  579TMC3    C1 8634   2.731   1.251   2.107  0.7417 -0.1252  0.7726
  579TMC3    C2 8635   2.819   1.151   2.144  0.6685 -0.6864  0.0027
  579TMC3    C3 8636   2.824   1.045   2.058  0.2920  0.4913  0.3049
  579TMC3    C4 8637   2.654   1.246   1.996 -0.6688 -0.2881 -0.0726
  579TMC3    C5 8638   2.673   1.133   1.917 -0.6001 -0.0862  0.7071
  579TMC3    C6 8639   2.761   1.029   1.938  0.2176 -0.5243 -0.9406
  579TMC3     C 8640   2.759   1.382   2.163  0.6926  0.7089 -0.0146
  579TMC3     O 8641   2.810   1.386   2.273 -0.1642  0.0739 -0.1948
  579TMC3     H 8642   2.885   1.158   2.230  0.3608 -1.9246  0.3436
  579TMC3    H1 8643   2.581   1.324   1.978  0.3745  1.1365  1.9270
  579TMC3    H2 8644   2.761   0.939   1.878 -1.9076 -0.0457 -1.6572
  579TMC3    C7 8645   2.585   1.107   1.805 -0.1397  0.3807 -0.5918
  579TMC3    C8 8646   2.953   0.977   2.074 -0.5161 -0.3807 -0.1482
  579TMC3    O1 8647   2.583   0.994   1.761 -0.2466 -0.0452 -0.1785
  579TMC3    O2 8648   3.014   0.986   2.177  0.6250  0.2846 -0.2172
  580TMC3    C1 8649   1.838   0.628  11.541 -0.1091  0.0488 -0.3113
  580TMC3    C2 8650   1.917   0.723  11.592 -0.1848  0.7148  0.1179
  580TMC3    C3 8651   1.900   0.753  11.725  0.2019 -0.2277  0.3547
  580TMC3    C4 8652   1.751   0.555  11.617  0.2487  0.1824 -0.2769
  580TMC3    C5 8653   1.733   0.585  11.751 -0.0056 -0.1546  0.4524
  580TMC3    C6 8654   1.801   0.701  11.800  0.4657 -0.0042 -0.1922
  580TMC3     C 8655   1.827   0.622  11.392 -0.6141 -0.2946  0.3467
  580TMC3     O 8656   1.920   0.674  11.333  0.2527  0.2429  0.1317
  580TMC3     H 8657   1.996   0.768  11.532 -0.4263 -0.4508 -1.0640
  580TMC3    H1 8658   1.712   0.467  11.567  3.3504 -0.7017 -1.1356
  580TMC3    H2 8659   1.803   0.736  11.903  0.5036 -1.4482  0.3101
  580TMC3    C7 8660   1.721   0.482  11.851 -0.6119  0.0501  0.1220
  580TMC3    C8 8661   1.985   0.855  11.781 -0.5153 -0.2214  0.5765
  580TMC3    O1 8662   1.699   0.520  11.970  0.0839  0.4817 -0.0261
  580TMC3    O2 8663   1.928   0.932  11.859  0.8210  0.6730  0.0213
  581MPD2     C 8664   4.597   0.407  14.895  0.2955  0.3243 -0.5065
  581MPD2    C1 8665   4.548   0.502  14.982 -0.2389 -0.1109 -0.0667
  581MPD2    C2 8666   4.419   0.552  14.976 -0.6562  0.9724  0.3791
  581MPD2    C3 8667   4.331   0.502  14.882  0.0842 -0.1799 -0.5267
  581MPD2    C4 8668   4.381   0.405  14.803  0.5137 -0.4437  0.7368
  581MPD2    C5 8669   4.506   0.350  14.808  0.4411 -0.0124 -0.1364
  581MPD2     H 8670   4.383   0.629  15.044 -1.2813  0.7966  0.2525
  581MPD2    H1 8671   4.311   0.354  14.737 -0.4538 -2.2016  3.1067
  581MPD2    H2 8672   4.695   0.364  14.912  0.1623  0.3543  0.3345
  581MPD2    H3 8673   4.544   0.269  14.747 -1.3094  0.5093 -1.9144
  581MPD2     N 8674   4.200   0.553  14.856  0.2149  0.2271  0.3471
  581MPD2    H5 8675   4.176   0.637  14.908  0.5900 -0.6606  1.9396
  581MPD2    N1 8676   4.648   0.554  15.069 -0.3716  0.4033  0.7026
  581MPD2    H7 8677   4.734   0.502  15.053 -2.4079 -2.6640 -0.1995
  582TMC3    C1 8678   0.042   0.705  15.191  0.5253 -0.5152  0.0628
  582TMC3    C2 8679   0.064   0.735  15.320  0.1399  0.6620  0.1169
  582TMC3    C3 8680   0.195   0.737  15.367 -0.2751  0.2784  0.4761
  582TMC3    C4 8681   0.143   0.647  15.116  0.1172 -0.3830 -0.8825
  582TMC3    C5 8682   0.257   0.622  15.180  0.7731  0.1156  0.5116
  582TMC3    C6 8683   0.292   0.676  15.298  1.0807  0.1136  0.3395
  582TMC3     C 8684   4.641   0.658  15.151 -0.3821  0.1637  0.9221
  582TMC3     O 8685   4.541   0.705  15.203 -0.0409  0.4514  0.2385
  582TMC3     H 8686   4.723   0.775  15.385 -0.0941  0.4197 -0.0065
  582TMC3    H1 8687   0.137   0.613  15.013  1.3074 -1.8079 -0.4832
  582TMC3    H2 8688   0.395   0.663  15.327  1.3375  0.8421 -0.2518
  582TMC3    C7 8689   0.277   0.479  15.197  0.7841 -0.0120  0.1733
  582TMC3    C8 8690   0.191   0.706  15.512 -0.4042  0.5195 -0.0388
  582TMC3    O1 8691   0.297   0.437  15.315 -0.6428 -0.3974  0.2490
  582TMC3    O2 8692   0.122   0.769  15.591 -0.3651 -0.0655 -0.5851
  583MPD2     C 8693   4.464   2.131  16.900  0.0130  0.0717 -0.1754
  583MPD2    C1 8694   4.435   2.263  16.880 -0.3477 -0.0141  0.2341
  583MPD2    C2 8695   4.381   2.332  16.987  0.3375  0.0550 -0.3519
  583MPD2    C3 8696   4.338   2.272  17.100  0.0707 -0.0029 -0.2179
  583MPD2    C4 8697   4.356   2.140  17.122  0.5296  0.1606  0.2616
  583MPD2    C5 8698   4.419   2.073  17.021  0.0515 -0.0137 -0.5841
  583MPD2     H 8699   4.357   2.438  16.981  0.1878 -0.0175 -1.0072
  583MPD2    H1 8700   4.299   2.084  17.195 -0.3299  0.6227 -0.0541
  583MPD2    H2 8701   4.496   2.056  16.828  1.4856 -0.3486  0.9011
  583MPD2    H3 8702   4.425   1.965  17.022  2.7098  0.1045 -1.5438
  583MPD2     N 8703   4.277   2.353  17.200 -0.4046 -0.0905 -0.3719
  583MPD2    H5 8704   4.254   2.447  17.170 -1.3659 -0.0689  0.4129
  583MPD2    N1 8705   4.455   2.327  16.756 -0.3508 -0.6082  0.7063
  583MPD2    H7 8706   4.414   2.419  16.747 -0.7010 -0.8980 -0.6162
  584TMC3    C1 8707   4.165   2.419  17.392  0.1812 -0.0091 -0.3317
  584TMC3    C2 8708   4.131   2.543  17.341  0.0938  0.2704 -0.1747
  584TMC3    C3 8709   4.115   2.651  17.427 -0.6164 -0.5140  0.9446
  584TMC3    C4 8710   4.155   2.402  17.527 -1.1719 -0.0779 -0.0591
  584TMC3    C5 8711   4.150   2.512  17.610  0.6853 -0.0607 -0.4937
  584TMC3    C6 8712   4.141   2.639  17.557  0.0005  0.3660 -0.2015
  584TMC3     C 8713   4.213   2.315  17.312  0.0295  0.1763  0.6979
  584TMC3     O 8714   4.226   2.206  17.365  0.2708  0.1684 -0.2319
  584TMC3     H 8715   4.125   2.558  17.234 -1.8698 -0.8566 -0.2306
  584TMC3    H1 8716   4.182   2.308  17.575 -0.8936  0.7375  1.3927
  584TMC3    H2 8717   4.112   2.717  17.627  0.5312 -2.3636  3.0393
  584TMC3    C7 8718   4.136   2.480   0.013 -0.6860 -0.7135 -0.4592
  584TMC3    C8 8719   4.142   2.783  17.365 -0.2722 -0.4577  0.3090
  584TMC3    O1 8720   4.126   2.360   0.037 -0.0549  0.0090  0.2240
  584TMC3    O2 8721   4.140   2.781  17.239  0.6696 -0.9439 -0.6009
  585MPD2     C 8722   3.633   1.116   0.410 -0.6412 -0.0992 -0.7998
  585MPD2    C1 8723   3.578   1.200   0.314 -0.5961  0.3331  0.5906
  585MPD2    C2 8724   3.611   1.177   0.178  0.0910  0.9593  0.3396
  585MPD2    C3 8725   3.699   1.074   0.143  0.0409  0.0284 -0.1706
  585MPD2    C4 8726   3.758   0.990   0.240  0.8006 -0.0206  0.1316
  585MPD2    C5 8727   3.721   1.014   0.377 -0.2526 -0.1697  0.2077
  585MPD2     H 8728   3.559   1.239   0.107 -0.6637 -0.2672 -0.1742
  585MPD2    H1 8729   3.825   0.910   0.211  1.5212 -0.1681  2.1905
  585MPD2    H2 8730   3.612   1.129   0.515  1.2422 -2.7138 -0.0808
  585MPD2    H3 8731   3.750   0.941   0.451  1.6275  0.8943  0.5272
  585MPD2     N 8732   3.736   1.041   0.012  0.0314  0.1608 -0.9333
  585MPD2    H5 8733   3.802   0.965   0.007 -0.6778 -0.5995  1.3128
  585MPD2    N1 8734   3.476   1.289   0.353  0.1002 -0.6240 -0.3522
  585MPD2    H7 8735   3.466   1.295   0.453 -1.6388 -1.7388 -0.4542
  586TMC3    C1 8736   3.669   0.974  17.532 -0.0975  0.4104 -0.7921
  586TMC3    C2 8737   3.794   0.942  17.485 -0.4448 -0.1604 -0.4042
  586TMC3    C3 8738   3.807   0.881  17.361  0.3564  0.4238  0.7070
  586TMC3    C4 8739   3.556   0.936  17.460  0.2496 -0.7606  0.6595
  586TMC3    C5 8740   3.573   0.865  17.343 -0.4249 -0.3834 -0.2758
  586TMC3    C6 8741   3.698   0.835  17.293 -0.3257 -0.1252 -0.8958
  586TMC3     C 8742   3.658   1.071  17.640 -0.0848  0.1517 -0.2180
  586TMC3     O 8743   3.562   1.145  17.627 -0.0580 -0.5217 -0.0084
  586TMC3     H 8744   3.880   0.962  17.547 -2.5949 -0.5477  2.7219
  586TMC3    H1 8745   3.453   0.952  17.492 -0.0462  1.0784 -1.2618
  586TMC3    H2 8746   3.715   0.760  17.217 -0.4257 -1.2912  0.2385
  586TMC3    C7 8747   3.479   0.762  17.336  0.2392  0.3574 -0.0133
  586TMC3    C8 8748   3.937   0.846  17.311  0.8682  0.3559  0.1034
  586TMC3    O1 8749   3.426   0.720  17.440 -0.0232 -0.1830  0.1282
  586TMC3    O2 8750   4.027   0.820  17.394  0.3807  0.4409 -0.1439
  587TMC3    C1 8751   1.485   0.087  16.374 -0.6510  0.3926 -0.0685
  587TMC3    C2 8752   1.452   0.200  16.303 -0.5861 -0.2338  0.4858
  587TMC3    C3 8753   1.552   0.260  16.226  0.3531  0.6982  0.3272
  587TMC3    C4 8754   1.605   0.022  16.361  0.4118  0.7830 -0.3267
  587TMC3    C5 8755   1.695   0.086  16.277 -0.3817 -0.4130  0.1688
  587TMC3    C6 8756   1.676   0.201  16.208 -0.3621 -0.5932 -0.0327
  587TMC3     C 8757   1.378   0.020  16.452 -0.5063 -0.2979 -0.2081
  587TMC3     O 8758   1.418   4.649  16.499  0.2141 -0.0555 -0.6009
  587TMC3     H 8759   1.358   0.253  16.313  0.1055  1.0272  0.4347
  587TMC3    H1 8760   1.637   4.671  16.418  0.0396 -0.4375 -1.9348
  587TMC3    H2 8761   1.749   0.251  16.146 -0.6564  0.8518  0.7951
  587TMC3    C7 8762   1.817   0.018  16.252 -0.3644  0.1100 -0.4936
  587TMC3    C8 8763   1.525   0.394  16.169 -0.6523 -0.1149  0.2073
  587TMC3    O1 8764   1.903   0.075  16.187 -0.2568  0.1221 -0.0448
  587TMC3    O2 8765   1.575   0.424  16.064 -0.2594 -0.6679 -0.2678
  588TMC3    C1 8766   4.227   3.135   9.830 -0.3335 -0.5998 -0.6947
  588TMC3    C2 8767   4.164   3.023   9.801  0.3117  0.1761  0.0782
  588TMC3    C3 8768   4.194   2.915   9.882 -0.1038 -0.5351  0.3364
  588TMC3    C4 8769   4.329   3.151   9.929  0.3886 -0.0558  0.1331
  588TMC3    C5 8770   4.354   3.042  10.005 -0.4744 -0.7211  0.0807
  588TMC3    C6 8771   4.295   2.919   9.983  0.2592  0.5938 -0.0887
  588TMC3     C 8772   4.167   3.258   9.788 -0.0372  0.4673  0.0668
  588TMC3     O 8773   4.128   3.256   9.675 -0.4845 -0.1915  0.2551
  588TMC3     H 8774   4.085   3.022   9.727 -0.1419  1.9352  0.5453
  588TMC3    H1 8775   4.369   3.251   9.948 -1.7170  0.4983  1.5735
  588TMC3    H2 8776   4.318   2.843  10.057 -1.2372  0.9868  0.7800
  588TMC3    C7 8777   4.439   3.048  10.125  0.0044  0.5272 -0.1072
  588TMC3    C8 8778   4.115   2.794   9.869  0.2723  0.0313 -0.1550
  588TMC3    O1 8779   4.438   2.965  10.212  0.3415 -0.2703 -0.0710
  588TMC3    O2 8780   4.046   2.792   9.769  0.2321  0.2754 -0.6886
  589TMC3    C1 8781   2.716   0.124   1.400 -0.6887 -0.2519 -0.0840
  589TMC3    C2 8782   2.824   0.121   1.486 -0.6136 -0.2860  0.1717
  589TMC3    C3 8783   2.940   0.063   1.442 -0.1081 -0.4811 -1.0678
  589TMC3    C4 8784   2.723   0.071   1.275  0.2754 -0.0805  0.1531
  589TMC3    C5 8785   2.840   0.014   1.235  0.1467  0.4471  0.0773
  589TMC3    C6 8786   2.953   0.008   1.313  0.3190  0.7996 -0.5531
  589TMC3     C 8787   2.590   0.184   1.443  0.2134 -0.2676 -0.1198
  589TMC3     O 8788   2.493   0.179   1.366 -0.1694 -0.6074  0.5303
  589TMC3     H 8789   2.824   0.149   1.590  0.1293  2.3035 -0.5242
  589TMC3    H1 8790   2.642   0.082   1.205  0.1575 -2.6364 -0.1086
  589TMC3    H2 8791   3.034   4.683   1.275  1.2212 -1.6226  5.1373
  589TMC3    C7 8792   2.839   4.671   1.110  0.0166 -0.0447  1.6389
  589TMC3    C8 8793   3.051   0.031   1.535  0.1017 -0.1203  0.6957
  589TMC3    O1 8794   2.727   4.645   1.069 -0.0938  0.2365  0.7297
  589TMC3    O2 8795   3.023   0.034   1.652 -0.6881 -0.2504 -0.4008
  590MPD2     C 8796   2.605   3.012  16.913 -0.0642  0.1005 -0.7292
  590MPD2    C1 8797   2.528   3.092  16.823 -0.7080  0.6113  0.4060
  590MPD2    C2 8798   2.593   3.192  16.766 -0.1362  0.2870 -0.6931
  590MPD2    C3 8799   2.734   3.202  16.770 -0.0395  0.5357  0.2859
  590MPD2    C4 8800   2.811   3.118  16.849  0.0223  0.1911 -0.7723
  590MPD2    C5 8801   2.742   3.026  16.922 -0.3447  0.1528 -0.0867
  590MPD2     H 8802   2.533   3.261  16.707  3.4594  1.5685 -2.9109
  590MPD2    H1 8803   2.911   3.141  16.880 -0.4722  0.2160  0.7770
  590MPD2    H2 8804   2.561   2.928  16.965 -0.5747  0.3895 -0.6955
  590MPD2    H3 8805   2.800   2.981  17.003 -3.7493  1.4220  3.0608
  590MPD2     N 8806   2.794   3.300  16.678 -0.2898  0.4210 -0.0196
  590MPD2    H5 8807   2.731   3.357  16.623 -0.0605  1.7787  1.1067
  590MPD2    N1 8808   2.389   3.057  16.804 -0.7371 -0.1667 -0.4561
  590MPD2    H7 8809   2.346   2.981  16.856  0.7812 -0.1074  0.9108
  591TMC3    C1 8810   2.955   3.397  16.534 -0.2284  0.3833 -0.0401
  591TMC3    C2 8811   3.079   3.369  16.474  0.7377  0.7997 -0.2600
  591TMC3    C3 8812   3.114   3.446  16.367  0.0146 -0.9802  0.2475
  591TMC3    C4 8813   2.867   3.494  16.488 -0.2511  0.6605 -0.7040
  591TMC3    C5 8814   2.905   3.558  16.369  0.8944 -0.1429 -0.2661
  591TMC3    C6 8815   3.025   3.531  16.307 -0.0695 -0.5742  0.6140
  591TMC3     C 8816   2.930   3.322  16.658  0.0803  0.4214  0.4646
  591TMC3     O 8817   3.026   3.262  16.705 -0.0566 -0.3941  0.7465
  591TMC3     H 8818   3.150   3.293  16.505  0.0647  1.2120  2.3369
  591TMC3    H1 8819   2.775   3.520  16.538 -0.4875  3.2447 -2.4714
  591TMC3    H2 8820   3.054   3.571  16.211  0.3513  1.2364  1.4914
  591TMC3    C7 8821   2.798   3.640  16.303  0.3625  0.1126 -0.0780
  591TMC3    C8 8822   3.198   3.373  16.271 -0.4254 -1.0082  0.4189
  591TMC3    O1 8823   2.683   3.620  16.344  0.2575 -0.2912  0.2139
  591TMC3    O2 8824   3.200   3.253  16.264  0.1290 -0.2567  0.3556
  592MPD2     C 8825   3.059   0.647  11.193  0.6884 -0.3785 -0.3871
  592MPD2    C1 8826   3.061   0.644  11.323  0.1374  0.5647  1.2849
  592MPD2    C2 8827   3.002   0.538  11.389  0.2586  0.6517 -0.1507
  592MPD2    C3 8828   2.947   0.433  11.316  0.3247  0.2125  0.0640
  592MPD2    C4 8829   2.941   0.443  11.181  0.6555  0.0942  0.1869
  592MPD2    C5 8830   2.993   0.553  11.122 -0.3192 -0.0785  0.4206
  592MPD2     H 8831   3.013   0.528  11.497  2.3626  0.6054 -0.3626
  592MPD2    H1 8832   2.898   0.368  11.115 -0.8286  0.2795  0.9499
  592MPD2    H2 8833   3.089   0.732  11.132  1.3094 -0.9124 -0.8299
  592MPD2    H3 8834   2.984   0.578  11.017  3.5166  1.8605  0.5459
  592MPD2     N 8835   2.886   0.322  11.390  0.5682 -0.4709  0.0835
  592MPD2    H5 8836   2.897   0.326  11.490 -0.2159 -0.3531  0.1622
  592MPD2    N1 8837   3.125   0.757  11.376 -0.0448 -0.2510 -0.1002
  592MPD2    H7 8838   3.177   0.813  11.310 -0.4401  0.8391  0.5105
  593TMC3    C1 8839   3.200   0.899  11.539  0.4139  0.3022 -0.2944
  593TMC3    C2 8840   3.153   0.978  11.651  0.1991 -0.0342 -0.3384
  593TMC3    C3 8841   3.259   1.041  11.718 -0.0682  0.2236  0.5506
  593TMC3    C4 8842   3.329   0.895  11.491  0.5921  0.3582 -0.7113
  593TMC3    C5 8843   3.417   0.969  11.558  0.0377  0.1578  0.4823
  593TMC3    C6 8844   3.391   1.028  11.674 -0.1874 -0.4220  0.1851
  593TMC3     C 8845   3.115   0.790  11.505 -0.4171 -0.1240 -0.6959
  593TMC3     O 8846   3.019   0.763  11.583 -0.4644  0.1772 -0.7393
  593TMC3     H 8847   3.050   0.976  11.684 -0.1259  0.6163 -1.2866
  593TMC3    H1 8848   3.352   0.834  11.404  1.1534 -0.9609  0.3736
  593TMC3    H2 8849   3.474   1.090  11.706  1.1098 -1.4965 -1.1041
  593TMC3    C7 8850   3.545   0.971  11.491 -0.0864  0.2570 -0.0977
  593TMC3    C8 8851   3.232   1.144  11.816  0.1681  0.8157  0.5191
  593TMC3    O1 8852   3.535   0.952  11.370 -0.2751 -0.3048  0.2459
  593TMC3    O2 8853   3.117   1.189  11.813  0.3192 -0.7000 -0.4727
  594MPD2     C 8854   1.470   3.817  14.363 -0.0738 -0.6623  0.0142
  594MPD2    C1 8855   1.487   3.789  14.501  0.0050  0.0112  0.2805
  594MPD2    C2 8856   1.602   3.830  14.568  0.4851 -0.3052 -0.2901
  594MPD2    C3 8857   1.702   3.901  14.499  0.4159  0.5343 -0.2237
  594MPD2    C4 8858   1.674   3.938  14.369  0.3102 -0.3447  0.4083
  594MPD2    C5 8859   1.557   3.902  14.303  0.2256  0.6571 -0.7901
  594MPD2     H 8860   1.612   3.820  14.676 -0.2043 -2.1266 -0.3845
  594MPD2    H1 8861   1.738   3.995  14.303  2.6483 -2.2901  0.9860
  594MPD2    H2 8862   1.383   3.787  14.306 -1.5660  0.4559  1.7056
  594MPD2    H3 8863   1.547   3.918  14.196 -0.5740 -0.2985 -0.8660
  594MPD2     N 8864   1.821   3.945  14.565  0.0947  0.1531 -0.3051
  594MPD2    H5 8865   1.826   3.917  14.662  0.2919 -2.0781 -0.9472
  594MPD2    N1 8866   1.379   3.716  14.565  0.2045 -0.1359  0.3552
  594MPD2    H7 8867   1.307   3.698  14.496  1.0656 -0.4130 -0.4732
  595TMC3    C1 8868   2.216   4.210  14.617 -0.4039 -0.0453  0.1368
  595TMC3    C2 8869   2.134   4.126  14.536 -0.1239  0.3191 -0.7995
  595TMC3    C3 8870   2.021   4.069  14.594  0.4047  0.3737  0.3792
  595TMC3    C4 8871   2.180   4.233  14.749 -1.1841  0.4571  0.2883
  595TMC3    C5 8872   2.059   4.190  14.793  0.4958 -0.4043  0.7902
  595TMC3    C6 8873   1.981   4.109  14.718 -0.5365 -0.0773 -0.5293
  595TMC3     C 8874   2.318   4.293  14.567  0.5903 -0.5124 -0.4269
  595TMC3     O 8875   2.367   4.371  14.642  0.3112  0.0495  0.0979
  595TMC3     H 8876   2.153   4.097  14.433 -3.9938  1.7410 -1.9103
  595TMC3    H1 8877   2.239   4.287  14.822  1.8734 -1.7884 -0.5168
  595TMC3    H2 8878   1.884   4.075  14.753 -0.6865  0.8171 -0.0872
  595TMC3    C7 8879   1.989   4.270  14.894  0.2559  0.4178  0.5865
  595TMC3    C8 8880   1.918   4.025  14.501  0.3228 -1.3265  0.2441
  595TMC3    O1 8881   1.867   4.254  14.900 -0.0921 -0.5890 -0.2041
  595TMC3    O2 8882   1.929   4.043  14.381 -0.1155  0.0914 -0.8080
  596MPD2     C 8883   0.618   2.001  16.825  0.1820 -0.1465 -0.0072
  596MPD2    C1 8884   0.574   2.130  16.786 -0.8460  0.9000 -0.6781
  596MPD2    C2 8885   0.560   2.160  16.651  0.2754 -0.0887 -0.2370
  596MPD2    C3 8886   0.582   2.062  16.553 -0.1246 -0.3396 -0.0809
  596MPD2    C4 8887   0.626   1.937  16.591 -0.0716  0.2396 -0.0947
  596MPD2    C5 8888   0.635   1.908  16.726  0.2362  0.3279 -0.3122
  596MPD2     H 8889   0.521   2.253  16.609  0.9510  0.0014 -0.6599
  596MPD2    H1 8890   0.656   1.857  16.524 -0.6838 -1.1763  1.3240
  596MPD2    H2 8891   0.634   1.965  16.926 -1.5788 -0.8288  0.0189
  596MPD2    H3 8892   0.675   1.811  16.753  0.0922  0.4466  0.3277
  596MPD2     N 8893   0.588   2.078  16.408  0.2593  0.1972  0.2689
  596MPD2    H5 8894   0.606   1.996  16.350 -1.6133  0.0817 -0.1511
  596MPD2    N1 8895   0.537   2.230  16.880  0.4087  0.1325 -0.2397
  596MPD2    H7 8896   0.532   2.327  16.851 -2.8073 -0.1254 -0.5701
  597TMC3    C1 8897   0.481   2.333  17.088  0.0190 -0.5436  0.6883
  597TMC3    C2 8898   0.539   2.448  17.042  0.0690  0.8221  0.0424
  597TMC3    C3 8899   0.498   2.562  17.101  0.0293 -1.0672  0.1739
  597TMC3    C4 8900   0.383   2.328  17.188  0.3680  0.0922 -0.3419
  597TMC3    C5 8901   0.343   2.448  17.240  0.2799  0.0806  0.1221
  597TMC3    C6 8902   0.401   2.565  17.201  0.5711 -0.1346  0.0668
  597TMC3     C 8903   0.509   2.210  17.015  0.1616 -0.1607  0.0589
  597TMC3     O 8904   0.486   2.107  17.076 -0.1996  0.1073  0.6598
  597TMC3     H 8905   0.624   2.445  16.975 -0.0873 -0.3103 -0.1040
  597TMC3    H1 8906   0.328   2.236  17.204 -1.6718  1.0238 -1.9369
  597TMC3    H2 8907   0.377   2.654  17.258  0.8529  0.9083 -1.4255
  597TMC3    C7 8908   0.246   2.439  17.344  0.2331 -0.0525  0.2478
  597TMC3    C8 8909   0.554   2.693  17.070 -0.8369 -0.0830  0.4122
  597TMC3    O1 8910   0.238   2.339  17.409 -0.1847 -0.2137  0.4378
  597TMC3    O2 8911   0.547   2.776  17.163  0.2581  0.2269 -0.4785
  598TMC3    C1 8912   3.414   3.686  15.321  0.1867  0.5613  0.6664
  598TMC3    C2 8913   3.339   3.572  15.301 -0.4455  0.3130  0.0882
  598TMC3    C3 8914   3.305   3.538  15.173 -0.1881  0.8695 -0.6771
  598TMC3    C4 8915   3.469   3.763  15.221 -0.3162  0.2556  0.1358
  598TMC3    C5 8916   3.442   3.713  15.092  0.9351  0.1320 -1.0590
  598TMC3    C6 8917   3.353   3.613  15.065 -0.1220  0.3136 -0.0781
  598TMC3     C 8918   3.445   3.715  15.457 -0.1472 -0.2627  0.3806
  598TMC3     O 8919   3.428   3.630  15.543  0.2281  0.5347  0.3588
  598TMC3     H 8920   3.301   3.510  15.381 -2.2534  0.3924 -0.7145
  598TMC3    H1 8921   3.530   3.852  15.233 -1.4483  0.9439  0.7941
  598TMC3    H2 8922   3.328   3.588  14.963  0.6489  0.3847 -0.2867
  598TMC3    C7 8923   3.476   3.793  14.975 -0.8767 -0.0741  0.1686
  598TMC3    C8 8924   3.178   3.475  15.161 -0.1470 -0.4117  0.1886
  598TMC3    O1 8925   3.404   3.777  14.878  0.5610 -0.4656 -0.3520
  598TMC3    O2 8926   3.149   3.387  15.240  0.3025  0.3569 -0.0019
  599MPD2     C 8927   3.865   0.997  15.835 -0.5641 -0.0156 -0.5689
  599MPD2    C1 8928   3.802   0.876  15.816  0.2769 -0.0797  0.1442
  599MPD2    C2 8929   3.691   0.851  15.891 -0.0370 -0.4257  0.1907
  599MPD2    C3 8930   3.621   0.957  15.956  0.0474 -0.3172  0.2100
  599MPD2    C4 8931   3.676   1.084  15.955  0.0000  0.7636  0.6342
  599MPD2    C5 8932   3.801   1.106  15.897  0.4682  0.6014  0.1612
  599MPD2     H 8933   3.655   0.749  15.893 -2.0308  0.2299 -1.6591
  599MPD2    H1 8934   3.631   1.168  16.006 -1.9046  0.3804 -0.4434
  599MPD2    H2 8935   3.960   1.022  15.789 -1.2093  2.1169 -0.7749
  599MPD2    H3 8936   3.851   1.201  15.905 -0.6069  1.2598 -0.8076
  599MPD2     N 8937   3.513   0.934  16.039  0.1157 -0.0082  0.1622
  599MPD2    H5 8938   3.477   1.021  16.076 -0.4257  0.1801 -0.8289
  599MPD2    N1 8939   3.875   0.777  15.750  0.0892  0.3492 -0.1892
  599MPD2    H7 8940   3.966   0.811  15.717 -0.4589  1.8459 -0.1799
  600TMC3    C1 8941   3.373   0.830  16.191 -0.3085 -0.4335  0.3345
  600TMC3    C2 8942   3.262   0.749  16.193  0.3051  0.3793 -0.1474
  600TMC3    C3 8943   3.163   0.790  16.276 -0.3462  0.7984  0.3452
  600TMC3    C4 8944   3.379   0.946  16.265 -0.2299  0.0698 -0.6784
  600TMC3    C5 8945   3.268   0.979  16.346 -0.2448  0.3825  0.0296
  600TMC3    C6 8946   3.161   0.900  16.359  0.4376  0.8131 -0.1142
  600TMC3     C 8947   3.468   0.809  16.078 -1.0232 -0.6899 -0.2231
  600TMC3     O 8948   3.485   0.693  16.037  0.0027 -0.1776 -0.1662
  600TMC3     H 8949   3.251   0.668  16.122 -1.1488  0.5554 -0.1198
  600TMC3    H1 8950   3.476   0.993  16.268 -0.5599  0.5730  2.0884
  600TMC3    H2 8951   3.075   0.918  16.423 -0.6237 -0.0867 -1.2678
  600TMC3    C7 8952   3.271   1.107  16.419 -0.7738 -0.4523  0.3104
  600TMC3    C8 8953   3.056   0.700  16.303 -0.2636 -0.5049 -0.2744
  600TMC3    O1 8954   3.161   1.135  16.472  0.7038  0.2192 -1.0179
  600TMC3    O2 8955   3.082   0.590  16.344 -0.1849 -0.0135 -0.0173
  601MPD2     C 8956   1.094   4.356   0.305  0.7435 -0.3439 -0.3557
  601MPD2    C1 8957   1.048   4.260   0.214 -0.2998 -0.2815 -0.9339
  601MPD2    C2 8958   1.019   4.134   0.253 -0.3468 -0.0540 -0.4491
  601MPD2    C3 8959   1.037   4.095   0.390  0.8964 -0.1929  0.1775
  601MPD2    C4 8960   1.080   4.193   0.474  0.3155 -0.5981 -0.4683
  601MPD2    C5 8961   1.112   4.317   0.434 -0.4487 -0.1590 -0.0725
  601MPD2     H 8962   0.987   4.054   0.185  0.4163 -2.0887  1.5882
  601MPD2    H1 8963   1.099   4.165   0.577  0.4788  0.4038 -0.2198
  601MPD2    H2 8964   1.107   4.463   0.293  0.1757  0.0480  2.4361
  601MPD2    H3 8965   1.145   4.386   0.510  1.9263 -0.6914 -0.5904
  601MPD2     N 8966   1.002   3.965   0.445  0.6194  0.9767  0.2926
  601MPD2    H5 8967   1.026   3.953   0.542 -1.6757 -0.0690  0.7374
  601MPD2    N1 8968   1.016   4.289   0.076 -0.2934  0.5771  0.6588
  601MPD2    H7 8969   0.975   4.215   0.020  2.5848 -0.3449 -0.2852
  602TMC3    C1 8970   0.971   4.423  17.623  0.2599  0.2715  0.1337
  602TMC3    C2 8971   0.968   4.548  17.570 -0.5519  0.7325  0.4730
  602TMC3    C3 8972   0.853   4.578  17.505  0.4651  0.0442  0.0637
  602TMC3    C4 8973   0.880   4.323  17.577  0.6983  0.6357 -0.2703
  602TMC3    C5 8974   0.779   4.357  17.495 -0.0206 -0.8093  0.2328
  602TMC3    C6 8975   0.757   4.490  17.461  0.0994  0.2524 -0.0459
  602TMC3     C 8976   1.032   4.414   0.018  0.5503  0.0744 -0.0451
  602TMC3     O 8977   1.088   4.510   0.064 -0.1893 -0.4942  0.4889
  602TMC3     H 8978   1.047   4.621  17.587 -0.9318  1.0639  0.8180
  602TMC3    H1 8979   0.857   4.238  17.640 -1.3295  0.9059 -0.6478
  602TMC3    H2 8980   0.688   4.526  17.385 -0.4950 -1.9736 -0.5725
  602TMC3    C7 8981   0.678   4.265  17.451  0.1907  0.1881 -0.2341
  602TMC3    C8 8982   0.814   4.720  17.478 -0.4138 -0.1932  0.2322
  602TMC3    O1 8983   0.708   4.161  17.396 -0.6176 -0.1509  0.4478
  602TMC3    O2 8984   0.896   0.078  17.482  0.3490 -0.8911  0.3643
  603TMC3    C1 8985   3.916   0.157  11.178  0.4282  0.3993  0.2038
  603TMC3    C2 8986   3.911   0.207  11.303 -0.8953 -0.1694  0.1601
  603TMC3    C3 8987   3.982   0.318  11.329  0.9263 -0.3118  0.6472
  603TMC3    C4 8988   3.974   0.225  11.074  0.9338 -0.1293 -0.3619
  603TMC3    C5 8989   4.039   0.343  11.097  0.7152 -0.3715 -0.4507
  603TMC3    C6 8990   4.060   0.377  11.230  0.0326 -0.4696  0.3543
  603TMC3     C 8991   3.871   0.028  11.145  1.0708 -0.4493  0.1542
  603TMC3     O 8992   3.883   4.727  11.030 -0.6540 -0.1234  0.3633
  603TMC3     H 8993   3.845   0.172  11.382  0.2410  2.3217  2.2278
  603TMC3    H1 8994   3.968   0.181  10.975  0.3219  0.4136 -0.5671
  603TMC3    H2 8995   4.098   0.477  11.247 -2.0868  0.2604  0.8548
  603TMC3    C7 8996   4.100   0.408  10.987  0.1356  0.2301 -0.6390
  603TMC3    C8 8997   4.029   0.330  11.462 -0.8816  0.0670 -0.5406
  603TMC3    O1 8998   4.202   0.472  11.014 -0.2138 -0.5461  0.4717
  603TMC3    O2 8999   3.958   0.279  11.549 -0.0975 -0.0760  0.2155
  604MPD2     C 9000   4.521   3.362  16.267 -0.2356 -0.8045 -0.5167
  604MPD2    C1 9001   4.415   3.274  16.249  0.1206 -0.1786  0.3809
  604MPD2    C2 9002   4.403   3.198  16.135 -0.0513 -0.3397  0.3098
  604MPD2    C3 9003   4.496   3.210  16.031  0.7183 -0.9531 -0.0682
  604MPD2    C4 9004   4.604   3.288  16.050  0.8500  0.3389 -0.1434
  604MPD2    C5 9005   4.618   3.362  16.170 -1.0646  0.5479  0.2703
  604MPD2     H 9006   4.323   3.125  16.122  0.0724 -0.8084  2.2785
  604MPD2    H1 9007   4.671   3.314  15.968  1.0506 -0.4273 -0.2229
  604MPD2    H2 9008   4.522   3.433  16.349 -0.6679  0.2000 -1.3863
  604MPD2    H3 9009   4.693   3.441  16.167 -1.5955  0.9979 -1.5395
  604MPD2     N 9010   4.489   3.116  15.936  0.0362  0.2550  1.0763
  604MPD2    H5 9011   4.401   3.067  15.937 -0.4181  1.0423  0.3521
  604MPD2    N1 9012   4.315   3.273  16.353  0.1286  0.3121  0.7439
  604MPD2    H7 9013   4.343   3.314  16.441  1.4407 -2.0396  1.4247
  605TMC3    C1 9014   4.117   3.227  16.462 -0.1626 -0.0352  0.5455
  605TMC3    C2 9015   4.191   3.201  16.576 -1.2039  0.3543 -0.5136
  605TMC3    C3 9016   4.192   3.269  16.692  0.3299  0.1152  0.1302
  605TMC3    C4 9017   4.048   3.338  16.473 -0.2009 -0.2015 -0.2502
  605TMC3    C5 9018   4.042   3.416  16.589 -0.5308 -0.3926 -0.6811
  605TMC3    C6 9019   4.099   3.371  16.704  0.6948 -0.1996 -0.4730
  605TMC3     C 9020   4.184   3.226  16.333 -0.0965  0.6778  0.6524
  605TMC3     O 9021   4.125   3.201  16.227  0.0663 -0.1344 -0.0818
  605TMC3     H 9022   4.256   3.115  16.566 -0.5029  0.8516 -0.2635
  605TMC3    H1 9023   4.018   3.379  16.377  1.8151  0.7756 -0.4668
  605TMC3    H2 9024   4.086   3.440  16.787  2.0030  0.0354 -0.4671
  605TMC3    C7 9025   3.990   3.554  16.590 -0.6989  0.9281  0.2123
  605TMC3    C8 9026   4.325   3.306  16.732 -0.6120  0.3304  0.0240
  605TMC3    O1 9027   3.975   3.610  16.695  0.5303 -0.3484  0.3468
  605TMC3    O2 9028   4.411   3.250  16.661 -0.0119 -0.3246  0.1949
  606TMC3    C1 9029   0.203   2.209   0.525 -0.5551  1.1400  0.4315
  606TMC3    C2 9030   0.271   2.258   0.634 -0.0838  0.5402 -0.1527
  606TMC3    C3 9031   0.338   2.176   0.718  0.2560 -0.2672  0.1104
  606TMC3    C4 9032   0.206   2.071   0.490  0.4210 -0.5264  0.4910
  606TMC3    C5 9033   0.267   1.989   0.579  0.2498  0.8194 -0.3553
  606TMC3    C6 9034   0.331   2.041   0.692  0.8063 -0.2750 -0.5793
  606TMC3     C 9035   0.149   2.300   0.430  0.1569 -0.3127  0.4422
  606TMC3     O 9036   0.133   2.262   0.314 -0.4125  0.1402  0.1504
  606TMC3     H 9037   0.291   2.365   0.635 -0.5578  0.6348 -1.5101
  606TMC3    H1 9038   0.156   2.037   0.400 -0.1358  0.7315  0.3312
  606TMC3    H2 9039   0.399   1.976   0.747  0.6987  0.1547  0.0680
  606TMC3    C7 9040   0.325   1.861   0.540 -0.0092 -0.1408 -0.8841
  606TMC3    C8 9041   0.446   2.228   0.798  0.2798 -0.4109  0.0132
  606TMC3    O1 9042   0.365   1.794   0.635  0.0649  0.1956 -0.0712
  606TMC3    O2 9043   0.510   2.322   0.752  0.4962 -0.1073 -0.2022
  607MPD2     C 9044   3.177   0.083  11.505 -0.0381  0.2384  0.3196
  607MPD2    C1 9045   3.210   0.175  11.595 -0.5068 -0.6408  0.2326
  607MPD2    C2 9046   3.179   0.156  11.730  0.4475  0.2053 -0.3922
  607MPD2    C3 9047   3.114   0.044  11.775 -0.0194 -0.0572  0.4967
  607MPD2    C4 9048   3.098   4.679  11.682  0.2093 -0.0148  0.5962
  607MPD2    C5 9049   3.134   4.695  11.547 -0.1390  0.0605  0.5350
  607MPD2     H 9050   3.187   0.239  11.800 -2.9650 -0.9918  1.4128
  607MPD2    H1 9051   3.060   4.582  11.710 -1.2192  0.3496 -0.1068
  607MPD2    H2 9052   3.195   0.092  11.399  0.0942  2.5957  0.5371
  607MPD2    H3 9053   3.121   4.612  11.478 -0.2016  1.4603 -1.1369
  607MPD2     N 9054   3.083   0.055  11.915 -0.4620 -0.0196  0.1748
  607MPD2    H5 9055   3.086   0.149  11.954  0.9809  0.2439 -0.5862
  607MPD2    N1 9056   3.269   0.297  11.563  0.4521 -0.0763 -0.2319
  607MPD2    H7 9057   3.284   0.357  11.643  1.9302 -0.4548 -0.2323
  608TMC3    C1 9058   3.355   0.478  11.451 -0.4611  0.4475 -0.2185
  608TMC3    C2 9059   3.374   0.536  11.573  0.5017 -0.3644 -0.0009
  608TMC3    C3 9060   3.486   0.607  11.599 -0.1925 -0.4266  0.2467
  608TMC3    C4 9061   3.447   0.502  11.352 -0.5520 -0.0001 -0.0109
  608TMC3    C5 9062   3.560   0.581  11.378  1.2721 -0.2753  0.0266
  608TMC3    C6 9063   3.586   0.627  11.505 -0.8636  0.7134 -0.0502
  608TMC3     C 9064   3.291   0.348  11.441  0.4580  0.0745  0.6915
  608TMC3     O 9065   3.287   0.294  11.331 -0.2475 -0.3398  0.3420
  608TMC3     H 9066   3.291   0.553  11.640 -1.2230 -1.3948 -1.8671
  608TMC3    H1 9067   3.430   0.466  11.251 -0.0699  0.5737 -0.2993
  608TMC3    H2 9068   3.671   0.681  11.545 -0.5169 -0.2074  0.4428
  608TMC3    C7 9069   3.679   0.581  11.285  0.4256  0.0617  0.1567
  608TMC3    C8 9070   3.514   0.655  11.728 -0.4707  0.6518  0.7227
  608TMC3    O1 9071   3.653   0.570  11.168  0.6181  0.2045 -0.0328
  608TMC3    O2 9072   3.574   0.764  11.741  0.0676 -0.1556 -0.5046
  609TMC3    C1 9073   1.977   3.919   9.294 -0.5650  0.3101  0.2276
  609TMC3    C2 9074   2.024   3.961   9.171  0.0538  0.2759 -0.1565
  609TMC3    C3 9075   2.157   3.946   9.144 -0.1296 -0.9774  0.5212
  609TMC3    C4 9076   2.066   3.897   9.397  0.0003 -1.2118 -0.2635
  609TMC3    C5 9077   2.202   3.896   9.364  0.1975 -0.2608  0.0874
  609TMC3    C6 9078   2.257   3.917   9.238 -1.4132  0.3895 -0.3336
  609TMC3     C 9079   1.842   3.955   9.342 -0.1305 -0.6233  0.1503
  609TMC3     O 9080   1.799   3.893   9.436  0.4975  0.6916 -0.7028
  609TMC3     H 9081   1.949   3.971   9.093 -0.2058  0.5411  0.1246
  609TMC3    H1 9082   2.015   3.890   9.492  1.0765 -2.1356  0.2520
  609TMC3    H2 9083   2.363   3.910   9.216 -1.0344 -2.2065  2.2060
  609TMC3    C7 9084   2.304   3.869   9.462  0.0120  0.1189 -0.0526
  609TMC3    C8 9085   2.197   3.959   9.006 -0.3726 -0.0900  0.1222
  609TMC3    O1 9086   2.423   3.881   9.435  0.1932  0.0386 -0.2178
  609TMC3    O2 9087   2.117   4.013   8.934 -0.3232  0.1593  0.0100
  610TMC3    C1 9088   3.561   0.114  12.597 -0.3289 -0.0258  0.0337
  610TMC3    C2 9089   3.646   0.206  12.541 -0.5609  0.6161  0.0009
  610TMC3    C3 9090   3.783   0.182  12.547 -0.3216 -0.3083 -0.7690
  610TMC3    C4 9091   3.610   0.010  12.675 -0.3137  0.4787  0.2059
  610TMC3    C5 9092   3.745   4.730  12.683  1.1382 -0.3201 -0.3669
  610TMC3    C6 9093   3.830   0.081  12.619 -0.4043 -0.4795 -1.2256
  610TMC3     C 9094   3.417   0.137  12.614 -0.1653  0.2005 -0.0592
  610TMC3     O 9095   3.340   0.038  12.630  0.2729  0.7238 -0.5348
  610TMC3     H 9096   3.601   0.295  12.497  1.6719  1.6751 -0.1727
  610TMC3    H1 9097   3.536   4.685  12.727 -0.0567 -0.5697 -0.6407
  610TMC3    H2 9098   3.936   0.059  12.609 -0.0875  0.8968 -0.8207
  610TMC3    C7 9099   3.798   4.625  12.758  0.9562 -0.7187  0.1923
  610TMC3    C8 9100   3.862   0.227  12.429  0.2668  0.2386 -0.6767
  610TMC3    O1 9101   3.913   4.600  12.760  0.5082 -0.0263  0.0002
  610TMC3    O2 9102   3.983   0.236  12.437 -0.1676 -0.2724 -0.0455
  611MPD2     C 9103   3.112   0.169  10.620 -0.0305 -0.1017  0.0580
  611MPD2    C1 9104   3.153   0.098  10.513  0.4591  0.3487  0.2977
  611MPD2    C2 9105   3.257   0.140  10.432 -0.1451 -0.5098 -0.2110
  611MPD2    C3 9106   3.333   0.245  10.477  0.1481  0.7061  0.0405
  611MPD2    C4 9107   3.314   0.291  10.603 -0.2797  0.9489  0.0074
  611MPD2    C5 9108   3.201   0.253  10.673 -0.1439  0.4874 -0.1756
  611MPD2     H 9109   3.280   0.098  10.335  0.1887 -1.1321  0.1437
  611MPD2    H1 9110   3.377   0.366  10.650  1.7949 -1.2518  0.7763
  611MPD2    H2 9111   3.029   0.138  10.682  0.2932 -1.1160 -0.0183
  611MPD2    H3 9112   3.173   0.299  10.767 -2.5045 -0.8793 -0.2264
  611MPD2     N 9113   3.432   0.299  10.399  0.2955 -0.0996 -0.7610
  611MPD2    H5 9114   3.500   0.356  10.448 -1.5805 -0.0568  1.7878
  611MPD2    N1 9115   3.065   0.005  10.464 -0.7115 -0.2350  0.3971
  611MPD2    H7 9116   2.974   4.729  10.510 -0.3355 -0.1209  1.1676
  612TMC3    C1 9117   3.561   0.357  10.207 -0.8978  0.6932  0.5429
  612TMC3    C2 9118   3.668   0.400  10.285 -0.0480 -0.6271  0.2318
  612TMC3    C3 9119   3.767   0.467  10.219  0.1017  0.5656 -0.1406
  612TMC3    C4 9120   3.555   0.371  10.070  0.3364 -0.9338 -0.0940
  612TMC3    C5 9121   3.653   0.448  10.013  0.5391  0.3757 -0.1534
  612TMC3    C6 9122   3.759   0.499  10.083  0.5721 -0.9316 -0.5971
  612TMC3     C 9123   3.445   0.290  10.266 -0.3792 -0.4483  0.0418
  612TMC3     O 9124   3.369   0.236  10.187 -0.3011  0.5942 -0.6856
  612TMC3     H 9125   3.680   0.367  10.388 -0.8186  1.3663  0.9543
  612TMC3    H1 9126   3.473   0.325  10.016  0.0016  0.8399 -1.0930
  612TMC3    H2 9127   3.850   0.538  10.039  1.1723 -0.8013  0.7569
  612TMC3    C7 9128   3.634   0.521   9.889 -0.2993 -0.1450 -0.2017
  612TMC3    C8 9129   3.899   0.494  10.280 -0.2653 -0.8164 -0.5376
  612TMC3    O1 9130   3.727   0.576   9.843  0.0009  0.4126  0.1739
  612TMC3    O2 9131   3.989   0.528  10.203 -0.5357 -0.2958  0.1497
  613MPD2     C 9132   1.691   2.790  17.116 -0.5311  0.4612 -0.1430
  613MPD2    C1 9133   1.616   2.732  17.013  0.6880 -0.1886  0.3607
  613MPD2    C2 9134   1.587   2.589  17.015 -0.2596 -0.1879  0.9505
  613MPD2    C3 9135   1.651   2.506  17.105 -0.1959 -0.3816  0.0639
  613MPD2    C4 9136   1.735   2.564  17.197  0.4653  0.0847 -0.0513
  613MPD2    C5 9137   1.752   2.703  17.201  0.0596 -0.4304  0.4035
  613MPD2     H 9138   1.542   2.539  16.930  2.2559 -2.4596  0.9410
  613MPD2    H1 9139   1.789   2.505  17.270 -0.1947 -1.2269 -0.6222
  613MPD2    H2 9140   1.702   2.898  17.113 -2.2118  0.6681  1.4383
  613MPD2    H3 9141   1.823   2.742  17.273 -1.0253 -0.3451  1.4140
  613MPD2     N 9142   1.638   2.364  17.097 -0.7561 -0.1592 -0.2806
  613MPD2    H5 9143   1.689   2.310  17.166 -0.2502 -0.0795 -0.5970
  613MPD2    N1 9144   1.589   2.825  16.907  0.0259  0.0239 -0.6928
  613MPD2    H7 9145   1.625   2.920  16.910  3.4649 -1.2098 -2.7497
  614TMC3    C1 9146   1.547   2.842  16.672 -0.0574  0.5043  0.6531
  614TMC3    C2 9147   1.679   2.836  16.635  0.4139 -0.4801  0.0408
  614TMC3    C3 9148   1.716   2.802  16.509 -0.2236  0.7628  0.8782
  614TMC3    C4 9149   1.450   2.834  16.574 -0.0518 -0.4707 -0.8434
  614TMC3    C5 9150   1.489   2.821  16.446 -0.5965  0.8547 -0.5906
  614TMC3    C6 9151   1.622   2.806  16.405  0.1704 -0.5324 -0.1067
  614TMC3     C 9152   1.514   2.780  16.797 -0.1474  0.0528 -0.5198
  614TMC3     O 9153   1.431   2.693  16.791  0.2719 -0.4877 -0.1645
  614TMC3     H 9154   1.749   2.833  16.718 -0.6616 -3.6879  0.8442
  614TMC3    H1 9155   1.348   2.818  16.606  0.0679  2.5987  1.1024
  614TMC3    H2 9156   1.650   2.811  16.301 -1.3889 -0.7438 -0.5401
  614TMC3    C7 9157   1.379   2.828  16.354  0.5450  0.6723  0.6325
  614TMC3    C8 9158   1.814   2.695  16.509  0.0509 -0.1073  0.2520
  614TMC3    O1 9159   1.270   2.861  16.392  0.6533  0.0909 -0.5285
  614TMC3    O2 9160   1.873   2.675  16.614  0.0593 -0.1806 -0.0744
  615MPD2     C 9161   1.522   3.263  15.854  0.7017 -0.8487  0.5353
  615MPD2    C1 9162   1.542   3.399  15.851  0.1991  0.7953  0.2257
  615MPD2    C2 9163   1.451   3.475  15.790  0.7784  0.3212 -0.2489
  615MPD2    C3 9164   1.336   3.416  15.728 -0.9022 -0.3797 -0.1449
  615MPD2    C4 9165   1.332   3.272  15.722  0.1009 -0.2839 -0.2701
  615MPD2    C5 9166   1.434   3.202  15.779  0.0749  0.3109  0.4422
  615MPD2     H 9167   1.458   3.582  15.779 -1.2952  0.7035  2.2941
  615MPD2    H1 9168   1.248   3.220  15.678 -0.6184 -0.4113  1.2457
  615MPD2    H2 9169   1.589   3.195  15.905 -0.0083 -0.3330  2.1443
  615MPD2    H3 9170   1.446   3.095  15.769  0.3291  0.1874  2.0140
  615MPD2     N 9171   1.237   3.497  15.664 -0.0402 -1.0059 -0.2870
  615MPD2    H5 9172   1.259   3.595  15.652 -1.4887 -0.6204  0.2186
  615MPD2    N1 9173   1.637   3.473  15.931  0.4130 -0.2783 -0.3943
  615MPD2    H7 9174   1.631   3.574  15.920  1.9946  0.1671  2.6834
  616TMC3    C1 9175   1.817   3.492  16.095  0.1453 -0.2302  0.5449
  616TMC3    C2 9176   1.835   3.619  16.043  0.2611  0.2611  0.3420
  616TMC3    C3 9177   1.970   3.660  16.037  0.5457  0.5695  0.5140
  616TMC3    C4 9178   1.926   3.419  16.144  0.3495  0.3689 -0.5753
  616TMC3    C5 9179   2.048   3.464  16.125  0.2775 -0.1577 -0.4985
  616TMC3    C6 9180   2.076   3.585  16.080 -0.4854  0.7733  0.3321
  616TMC3     C 9181   1.732   3.410  16.014  0.1941  0.6218 -0.0853
  616TMC3     O 9182   1.760   3.292  16.021  0.5351  0.2306  0.9014
  616TMC3     H 9183   1.755   3.692  16.031  0.9192  1.1193  1.1899
  616TMC3    H1 9184   1.921   3.313  16.164 -0.6405  0.0418 -2.5272
  616TMC3    H2 9185   2.176   3.625  16.070  0.2876 -1.0308  0.7942
  616TMC3    C7 9186   2.152   3.374  16.179  0.3201 -0.1434  0.6440
  616TMC3    C8 9187   1.984   3.813  16.041  0.3799  0.1239  1.0015
  616TMC3    O1 9188   2.124   3.321  16.287  0.3648 -0.0747  0.0925
  616TMC3    O2 9189   1.905   3.887  15.987  0.4919  0.1305 -0.4145
  617MPD2     C 9190   4.390   1.755  13.804 -0.6857  0.3110  0.5014
  617MPD2    C1 9191   4.377   1.657  13.901  0.4233  0.3578 -0.1031
  617MPD2    C2 9192   4.254   1.610  13.943  0.3372 -0.3381  0.3910
  617MPD2    C3 9193   4.134   1.658  13.885  0.5700  0.2740 -0.5532
  617MPD2    C4 9194   4.146   1.756  13.788  0.0245  0.7679  0.2080
  617MPD2    C5 9195   4.270   1.804  13.751  0.1957  0.0652  0.4500
  617MPD2     H 9196   4.255   1.523  14.007  0.7742 -0.9909 -0.5017
  617MPD2    H1 9197   4.058   1.794  13.737 -0.6519  1.1437  1.6515
  617MPD2    H2 9198   4.485   1.789  13.763 -0.6794 -0.0424  0.2270
  617MPD2    H3 9199   4.273   1.877  13.671  0.0592  1.5472  1.7913
  617MPD2     N 9200   4.010   1.613  13.935 -0.5601 -0.0630  0.3679
  617MPD2    H5 9201   3.924   1.633  13.885 -0.6535 -1.9060 -0.2172
  617MPD2    N1 9202   4.500   1.599  13.938 -0.0819  0.2140 -0.4677
  617MPD2    H7 9203   4.586   1.639  13.901  0.0684 -1.1374 -1.5617
  618TMC3    C1 9204   4.652   1.460  14.045  0.1287  1.1282 -0.3016
  618TMC3    C2 9205   4.677   1.341  14.108 -0.9937 -0.2107  0.1384
  618TMC3    C3 9206   0.070   1.297  14.128  0.3728  0.2699 -0.1263
  618TMC3    C4 9207   0.023   1.545  14.017  0.1462  0.2495 -0.3207
  618TMC3    C5 9208   0.149   1.493  14.018  0.0893 -0.3643 -0.3230
  618TMC3    C6 9209   0.171   1.376  14.085  0.1312  1.1466 -0.2772
  618TMC3     C 9210   4.515   1.504  14.035  0.2840  0.2761 -1.3956
  618TMC3     O 9211   4.431   1.433  14.093 -0.7718 -0.2970 -0.4559
  618TMC3     H 9212   4.591   1.276  14.124 -1.9943  1.3031  0.9120
  618TMC3    H1 9213   0.005   1.646  13.982 -2.6579 -0.4090 -0.7653
  618TMC3    H2 9214   0.271   1.354  14.121 -0.1526 -2.0425 -1.4187
  618TMC3    C7 9215   0.253   1.589  14.005 -0.5851  1.0415 -0.3494
  618TMC3    C8 9216   0.089   1.153  14.126 -0.1503 -0.0686  0.7811
  618TMC3    O1 9217   0.224   1.706  14.022  0.2976 -0.0903  0.1798
  618TMC3    O2 9218   4.717   1.096  14.110 -0.0635 -0.6138  0.0649
  619MPD2     C 9219   0.637   3.187  13.362  0.0430  0.6912  0.2710
  619MPD2    C1 9220   0.533   3.270  13.349 -0.0897 -0.3240  0.0482
  619MPD2    C2 9221   0.413   3.236  13.407 -0.1686  0.1764  0.0580
  619MPD2    C3 9222   0.404   3.116  13.481 -0.1799 -0.4301 -1.1426
  619MPD2    C4 9223   0.512   3.034  13.498  0.6873 -0.1375  0.2106
  619MPD2    C5 9224   0.626   3.082  13.449 -0.0521 -0.9047  0.4299
  619MPD2     H 9225   0.331   3.303  13.387  0.2834  0.2356 -1.6278
  619MPD2    H1 9226   0.519   2.958  13.575 -1.5583 -0.3048  0.2285
  619MPD2    H2 9227   0.732   3.216  13.319 -0.0117  0.9559  0.3281
  619MPD2    H3 9228   0.717   3.027  13.468  1.1906  0.8268 -0.6223
  619MPD2     N 9229   0.287   3.079  13.549 -0.3832 -0.8156 -0.1634
  619MPD2    H5 9230   0.295   3.004  13.617 -2.8426  0.8787  1.9843
  619MPD2    N1 9231   0.536   3.398  13.276  0.9291 -0.1650  0.0257
  619MPD2    H7 9232   0.449   3.451  13.283  0.0674 -1.2454 -2.4453
  620TMC3    C1 9233   0.585   3.581  13.159 -0.9825  0.1557  0.1436
  620TMC3    C2 9234   0.450   3.594  13.184 -0.0338 -0.0052 -0.6774
  620TMC3    C3 9235   0.403   3.706  13.241 -0.5690  0.5949 -0.4481
  620TMC3    C4 9236   0.674   3.689  13.161 -0.4881 -0.0643  0.2457
  620TMC3    C5 9237   0.619   3.800  13.214  0.2878  0.6633  0.1112
  620TMC3    C6 9238   0.492   3.813  13.257 -0.5060  0.0297 -0.4026
  620TMC3     C 9239   0.637   3.454  13.213  0.0132 -0.1818  0.8608
  620TMC3     O 9240   0.756   3.429  13.205 -0.1338  0.0961  0.0427
  620TMC3     H 9241   0.380   3.515  13.159  1.9895 -2.2556  0.8292
  620TMC3    H1 9242   0.780   3.678  13.143 -0.5543 -0.3173  0.0095
  620TMC3    H2 9243   0.456   3.902  13.308  1.7246  1.2983 -1.0104
  620TMC3    C7 9244   0.715   3.909  13.224  0.2127 -0.9881  0.1503
  620TMC3    C8 9245   0.329   3.669  13.364 -0.2405 -0.4425 -0.0034
  620TMC3    O1 9246   0.796   3.921  13.137  0.0916  0.0554  0.0262
  620TMC3    O2 9247   0.310   3.550  13.373  0.1421 -0.9621 -0.0846
  621MPD2     C 9248   1.233   3.177  10.208  0.3647 -0.0971  0.0565
  621MPD2    C1 9249   1.332   3.136  10.121  0.3219  0.3191 -0.5677
  621MPD2    C2 9250   1.388   3.237  10.038 -0.2308 -0.5066 -0.7765
  621MPD2    C3 9251   1.350   3.367  10.052  0.1552  0.4996  0.3837
  621MPD2    C4 9252   1.280   3.406  10.163 -0.3537 -0.0887  0.1986
  621MPD2    C5 9253   1.210   3.309  10.231  0.3432  0.4580 -0.5561
  621MPD2     H 9254   1.470   3.221   9.969  1.3211 -0.6855  1.1059
  621MPD2    H1 9255   1.267   3.510  10.191  1.7498  0.2198  0.0549
  621MPD2    H2 9256   1.170   3.111  10.267  1.0766 -0.2576  0.6349
  621MPD2    H3 9257   1.149   3.344  10.314  0.8996 -1.3716  0.6468
  621MPD2     N 9258   1.418   3.469   9.979 -0.6331  0.7707  0.1079
  621MPD2    H5 9259   1.492   3.430   9.922 -0.3232  0.7333  0.5365
  621MPD2    N1 9260   1.372   2.996  10.105 -0.6148  0.0927  0.1050
  621MPD2    H7 9261   1.439   2.967  10.035  0.8935 -0.4871  1.7877
  622TMC3    C1 9262   1.365   2.764  10.131 -0.1012 -0.0542 -0.2918
  622TMC3    C2 9263   1.338   2.669  10.234  0.2239 -0.0001  0.3123
  622TMC3    C3 9264   1.254   2.567  10.204 -0.9225 -0.4348 -0.0167
  622TMC3    C4 9265   1.342   2.726  10.005  0.9500  0.1055  0.5998
  622TMC3    C5 9266   1.297   2.599   9.977  0.1530 -0.7740 -0.3793
  622TMC3    C6 9267   1.254   2.519  10.079  0.5627  0.7012  0.1609
  622TMC3     C 9268   1.321   2.891  10.180 -0.6270 -0.4610  0.3263
  622TMC3     O 9269   1.240   2.892  10.269  0.0608  0.0680 -0.0607
  622TMC3     H 9270   1.353   2.686  10.340 -2.7249  0.7712  0.5959
  622TMC3    H1 9271   1.389   2.788   9.930  0.6474  1.0044  1.1565
  622TMC3    H2 9272   1.207   2.423  10.062  0.7458  0.6313  0.0576
  622TMC3    C7 9273   1.260   2.560   9.841  0.2829 -0.2438 -0.2025
  622TMC3    C8 9274   1.130   2.544  10.273  0.0190  0.0824  0.8691
  622TMC3    O1 9275   1.185   2.464   9.836  0.5816  0.5299 -0.0691
  622TMC3    O2 9276   1.075   2.436  10.273  0.4741  0.4745  0.0902
  623MPD2     C 9277   0.081   3.642  15.765 -0.4975 -0.3082 -0.8603
  623MPD2    C1 9278   4.726   3.649  15.865 -0.4136  0.2910  0.3832
  623MPD2    C2 9279   0.029   3.644  15.999 -0.0525  0.1687 -0.4106
  623MPD2    C3 9280   0.163   3.630  16.030 -0.6034 -0.1066  0.3267
  623MPD2    C4 9281   0.257   3.637  15.927  0.0164  0.6735  0.5414
  623MPD2    C5 9282   0.212   3.640  15.800  0.1981 -0.0308 -0.3115
  623MPD2     H 9283   4.690   3.654  16.077 -0.7369 -1.2319 -0.8867
  623MPD2    H1 9284   0.361   3.625  15.953  0.2001  0.5471 -0.2510
  623MPD2    H2 9285   0.047   3.640  15.662 -0.4342  0.9048 -0.9086
  623MPD2    H3 9286   0.282   3.632  15.717  0.7493  2.3666 -0.0595
  623MPD2     N 9287   0.192   3.616  16.167 -0.3902  0.0240  0.5905
  623MPD2    H5 9288   0.118   3.588  16.231 -1.8693 -1.6345 -1.8487
  623MPD2    N1 9289   4.590   3.646  15.858  0.2592 -0.0912 -0.1434
  623MPD2    H7 9290   4.536   3.652  15.943 -0.4229  0.9375 -0.6459
  624TMC3    C1 9291   0.412   3.605  16.573  0.1053 -0.0275  0.2549
  624TMC3    C2 9292   0.297   3.575  16.646  0.3702  0.4280  0.8757
  624TMC3    C3 9293   0.193   3.540  16.559 -0.7449  0.2099 -0.8277
  624TMC3    C4 9294   0.422   3.616  16.437 -0.1932 -0.3098  0.6693
  624TMC3    C5 9295   0.316   3.584  16.368 -0.4933 -0.0509 -0.5007
  624TMC3    C6 9296   0.204   3.526  16.423  0.4246  0.8370  0.4227
  624TMC3     C 9297   0.532   3.610  16.656 -0.0673  0.4924 -0.2790
  624TMC3     O 9298   0.528   3.611  16.775 -0.9112 -0.1756 -1.1526
  624TMC3     H 9299   0.298   3.553  16.752 -1.8321 -0.2701  0.7595
  624TMC3    H1 9300   0.502   3.674  16.392 -0.7122  0.3337  0.5743
  624TMC3    H2 9301   0.127   3.483  16.360 -0.3522  0.1062  1.8671
  624TMC3    C7 9302   0.319   3.611  16.225 -0.0853 -0.1383  0.4532
  624TMC3    C8 9303   0.064   3.508  16.626 -0.4545 -0.7913 -0.2330
  624TMC3    O1 9304   0.431   3.648  16.182 -0.1672 -0.0592 -0.0876
  624TMC3    O2 9305   4.731   3.415  16.587 -0.2262  0.0006  0.4230
  625MPD2     C 9306   0.558   0.367   0.729 -0.0837 -0.2304  0.4690
  625MPD2    C1 9307   0.446   0.430   0.680  0.4574  0.1162 -0.3303
  625MPD2    C2 9308   0.403   0.543   0.743 -0.5176  0.1413 -0.2363
  625MPD2    C3 9309   0.467   0.603   0.849 -0.5315  0.6243  0.6919
  625MPD2    C4 9310   0.580   0.541   0.894 -0.0135  0.1653  0.1423
  625MPD2    C5 9311   0.624   0.422   0.834 -0.3310  0.1411  0.5129
  625MPD2     H 9312   0.319   0.604   0.713 -0.5136  0.4355  0.3581
  625MPD2    H1 9313   0.620   0.575   0.989  2.8208  0.1516 -1.0765
  625MPD2    H2 9314   0.609   0.278   0.692  1.0789  0.1820  1.0667
  625MPD2    H3 9315   0.698   0.364   0.888  0.9966  1.0575 -0.3155
  625MPD2     N 9316   0.413   0.727   0.897 -0.0753 -0.7151  0.1650
  625MPD2    H5 9317   0.327   0.757   0.853 -0.2036 -0.8294  0.3377
  625MPD2    N1 9318   0.366   0.369   0.578  0.4322  0.1837  0.3429
  625MPD2    H7 9319   0.286   0.420   0.544 -1.3192 -1.2112  2.4049
  626TMC3    C1 9320   0.260   0.209   0.453 -0.3288 -1.3016  0.2162
  626TMC3    C2 9321   0.211   0.288   0.355 -0.3115 -0.5361 -0.2776
  626TMC3    C3 9322   0.100   0.243   0.289 -0.1197  0.3260  0.6487
  626TMC3    C4 9323   0.207   0.091   0.484 -0.4164  0.3561 -0.1967
  626TMC3    C5 9324   0.089   0.056   0.416 -1.1136 -0.4452  0.3484
  626TMC3    C6 9325   0.032   0.133   0.320 -0.1886 -0.6909  0.3881
  626TMC3     C 9326   0.376   0.241   0.534  0.1937  0.9142  0.1070
  626TMC3     O 9327   0.444   0.145   0.574  0.3696  0.3897 -0.3913
  626TMC3     H 9328   0.279   0.354   0.303  0.8000 -1.2246  0.2916
  626TMC3    H1 9329   0.244   0.037   0.570  1.2428  1.5548 -0.1681
  626TMC3    H2 9330   4.683   0.097   0.262 -0.1713  1.3214 -0.8794
  626TMC3    C7 9331   4.734   4.719   0.501 -0.1880 -0.0553 -0.5325
  626TMC3    C8 9332   0.038   0.341   0.207  0.0365  0.2572  0.1862
  626TMC3    O1 9333   0.033   4.626   0.574  0.4341 -0.1230 -1.0658
  626TMC3    O2 9334   0.101   0.442   0.182  0.4953  0.3700 -0.0005
  627MPD2     C 9335   3.446   0.326  14.463 -1.0358 -0.4824 -0.0501
  627MPD2    C1 9336   3.584   0.301  14.463  0.0088  0.1288 -0.1967
  627MPD2    C2 9337   3.633   0.202  14.377  0.2670  0.4642  0.2264
  627MPD2    C3 9338   3.547   0.136  14.290  0.5798 -0.5210  0.3670
  627MPD2    C4 9339   3.415   0.174  14.279  0.1053  0.9348  0.4423
  627MPD2    C5 9340   3.364   0.263  14.373 -0.1101 -0.3443 -0.1290
  627MPD2     H 9341   3.739   0.182  14.382 -0.3115 -2.9628 -1.7676
  627MPD2    H1 9342   3.360   0.140  14.193  0.8004  0.2714  0.2545
  627MPD2    H2 9343   3.411   0.403  14.531 -0.8067 -2.5331  2.3601
  627MPD2    H3 9344   3.262   0.300  14.371 -0.2302 -0.6058  1.8787
  627MPD2     N 9345   3.596   0.048  14.191 -0.5969 -0.7081  0.4340
  627MPD2    H5 9346   3.696   0.052  14.175 -0.5740 -2.0646  0.2445
  627MPD2    N1 9347   3.682   0.377  14.537  0.1733  0.0335  0.1899
  627MPD2    H7 9348   3.780   0.377  14.509 -0.7946 -1.0806 -3.2295
  628TMC3    C1 9349   3.762   0.550  14.689 -0.9782 -0.4556 -0.3196
  628TMC3    C2 9350   3.889   0.498  14.702 -0.3210  0.2720  0.2081
  628TMC3    C3 9351   3.979   0.571  14.769  0.6009 -0.6451  0.0385
  628TMC3    C4 9352   3.733   0.683  14.720 -0.1971 -0.0411 -0.7937
  628TMC3    C5 9353   3.839   0.759  14.767 -0.5017 -0.2310  0.4908
  628TMC3    C6 9354   3.957   0.700  14.805  0.5324 -0.3162 -0.3618
  628TMC3     C 9355   3.650   0.468  14.637  0.1113 -0.1479  0.0461
  628TMC3     O 9356   3.542   0.499  14.684  0.0743 -0.1058 -0.1986
  628TMC3     H 9357   3.901   0.391  14.685  1.1367  0.4494  0.1911
  628TMC3    H1 9358   3.634   0.721  14.702  0.1656  1.3987  0.2261
  628TMC3    H2 9359   4.035   0.769  14.832 -0.1055 -0.4481  1.8119
  628TMC3    C7 9360   3.824   0.900  14.801 -0.3244  0.6002 -0.5019
  628TMC3    C8 9361   4.113   0.514  14.753 -0.9539 -0.1185  0.2145
  628TMC3    O1 9362   3.909   0.946  14.877 -0.2606 -0.0272  0.0350
  628TMC3    O2 9363   4.125   0.443  14.655  0.0649  0.2046 -0.2990
  629MPD2     C 9364   2.301   4.195  16.129  0.2126 -0.2682  0.0545
  629MPD2    C1 9365   2.344   4.091  16.204  0.6011  0.9874 -0.1352
  629MPD2    C2 9366   2.256   3.982  16.218  0.1977 -0.4965 -0.4431
  629MPD2    C3 9367   2.141   3.975  16.138  0.2412 -1.0322  0.1135
  629MPD2    C4 9368   2.100   4.084  16.068  0.5050  0.1246  0.0207
  629MPD2    C5 9369   2.184   4.188  16.062  0.2067  0.3814  0.7931
  629MPD2     H 9370   2.276   3.900  16.285 -0.8817  0.9344  1.6283
  629MPD2    H1 9371   2.009   4.093  16.010 -0.1777 -1.2264  0.8866
  629MPD2    H2 9372   2.357   4.288  16.125 -1.7101  0.8745 -0.0613
  629MPD2    H3 9373   2.148   4.272  16.003  1.9273  1.0189  0.6731
  629MPD2     N 9374   2.083   3.846  16.125  0.4610 -0.2801  0.1926
  629MPD2    H5 9375   2.116   3.772  16.185 -0.9794 -1.3441 -0.3344
  629MPD2    N1 9376   2.464   4.097  16.280 -0.2157  0.2089 -0.2045
  629MPD2    H7 9377   2.514   4.185  16.272 -1.7788  1.1418  0.1463
  630TMC3    C1 9378   2.633   4.041  16.428 -0.3572  0.4882 -0.7445
  630TMC3    C2 9379   2.710   4.148  16.372 -0.2144 -0.0808 -0.4597
  630TMC3    C3 9380   2.817   4.196  16.449 -0.3500 -0.1072 -0.3449
  630TMC3    C4 9381   2.669   3.988  16.544 -0.5018 -0.5305 -0.3111
  630TMC3    C5 9382   2.759   4.055  16.623  0.3621  1.0843 -0.2980
  630TMC3    C6 9383   2.831   4.165  16.578 -0.1687  0.3102 -0.4142
  630TMC3     C 9384   2.511   3.997  16.365 -0.7021  0.4388  0.2027
  630TMC3     O 9385   2.468   3.883  16.388 -0.2435 -0.1650 -0.0443
  630TMC3     H 9386   2.706   4.174  16.267  5.2230 -1.5330 -1.0031
  630TMC3    H1 9387   2.597   3.921  16.587  0.9036 -2.3909 -0.8373
  630TMC3    H2 9388   2.914   4.199  16.639  1.3822 -1.7777 -1.3672
  630TMC3    C7 9389   2.746   4.011  16.763  0.1255 -0.2819 -0.2274
  630TMC3    C8 9390   2.906   4.309  16.402 -0.2755  0.1693  0.0909
  630TMC3    O1 9391   2.703   3.898  16.778 -0.0003  0.0916  0.1283
  630TMC3    O2 9392   3.000   4.353  16.468 -0.3577 -0.5605 -0.2569
  631MPD2     C 9393   0.304   4.030  15.589  0.3844  0.6426 -0.5834
  631MPD2    C1 9394   0.386   4.072  15.484  0.6923 -0.3568 -0.2827
  631MPD2    C2 9395   0.496   3.997  15.463  0.2192  0.2986 -0.0655
  631MPD2    C3 9396   0.533   3.892  15.541 -0.0286 -0.3251 -0.0443
  631MPD2    C4 9397   0.450   3.850  15.644  0.2266  0.3599 -0.3362
  631MPD2    C5 9398   0.337   3.919  15.666  1.1948  0.2203  0.6138
  631MPD2     H 9399   0.562   4.019  15.380  0.7492 -0.3013  0.2006
  631MPD2    H1 9400   0.464   3.767  15.713  1.3819  0.6464 -0.2163
  631MPD2    H2 9401   0.210   4.079  15.610  0.0606 -0.3051  0.1938
  631MPD2    H3 9402   0.274   3.897  15.751  2.1105 -2.3216  0.6381
  631MPD2     N 9403   0.657   3.833  15.510  0.3311 -0.1062  0.0344
  631MPD2    H5 9404   0.708   3.882  15.438  1.8952  0.5217  1.5694
  631MPD2    N1 9405   0.350   4.192  15.414 -0.0171 -0.1652  0.2036
  631MPD2    H7 9406   0.257   4.221  15.443  0.5917 -0.3940  2.3508
  632TMC3    C1 9407   0.366   4.369  15.260 -0.3388 -0.8980 -0.1143
  632TMC3    C2 9408   0.249   4.423  15.315  0.7478 -0.1758  0.4893
  632TMC3    C3 9409   0.216   4.553  15.281 -0.4067 -0.0404 -0.1372
  632TMC3    C4 9410   0.447   4.446  15.180 -0.2507  0.8310 -0.1707
  632TMC3    C5 9411   0.416   4.577  15.163 -0.3096 -0.2653 -0.4790
  632TMC3    C6 9412   0.302   4.631  15.210 -0.1048 -0.0964 -0.4704
  632TMC3     C 9413   0.419   4.250  15.312  0.2899  0.6750  0.2882
  632TMC3     O 9414   0.537   4.233  15.280 -0.1512  0.3300  0.0356
  632TMC3     H 9415   0.175   4.360  15.363  0.2767 -0.0474 -0.0571
  632TMC3    H1 9416   0.542   4.413  15.140 -0.0543  0.7456  0.3633
  632TMC3    H2 9417   0.289   0.003  15.200 -1.4651 -0.1890  0.2163
  632TMC3    C7 9418   0.498   4.638  15.071  0.0804 -0.1468 -0.1406
  632TMC3    C8 9419   0.100   4.617  15.353  0.4367 -0.0483  0.6428
  632TMC3    O1 9420   0.458   4.678  14.962 -0.8075 -0.3922 -0.0371
  632TMC3    O2 9421   0.012   4.539  15.372  0.3354  0.1039  0.5152
  633MPD2     C 9422   4.550   2.125  17.444 -0.4421  0.5307  0.3539
  633MPD2    C1 9423   4.625   2.060  17.352 -0.2128  0.2184  0.0320
  633MPD2    C2 9424   4.649   1.927  17.359 -0.4467 -0.0110 -1.0261
  633MPD2    C3 9425   4.621   1.853  17.470 -0.9950  0.0128 -0.4933
  633MPD2    C4 9426   4.543   1.915  17.567  0.0240 -0.4101  0.5526
  633MPD2    C5 9427   4.510   2.049  17.548 -0.0823  0.0905  0.8274
  633MPD2     H 9428   4.711   1.881  17.283 -0.0222  0.1786 -0.8004
  633MPD2    H1 9429   4.508   1.864  17.656  0.8143 -4.7914 -1.6603
  633MPD2    H2 9430   4.504   2.223  17.434  1.7041  1.5177  0.0859
  633MPD2    H3 9431   4.444   2.093  17.622  0.2288 -1.1870  1.8593
  633MPD2     N 9432   4.659   1.717  17.495 -0.1409 -0.4830 -0.1206
  633MPD2    H5 9433   4.633   1.676  17.584  1.0165  1.0727  0.9314
  633MPD2    N1 9434   4.672   2.121  17.237 -0.2387  0.6254 -0.6088
  633MPD2    H7 9435   4.724   2.062  17.174 -0.9537 -1.3669  0.6474
  634TMC3    C1 9436   0.027   2.304  17.102  0.8301  0.2724  0.3309
  634TMC3    C2 9437   0.108   2.214  17.041  0.3919  0.4096  0.3710
  634TMC3    C3 9438   0.151   2.244  16.911  0.0280  0.8414 -0.0474
  634TMC3    C4 9439   4.727   2.421  17.039 -0.6415 -0.3576  0.3092
  634TMC3    C5 9440   0.030   2.440  16.911  0.3598  0.3031 -0.3016
  634TMC3    C6 9441   0.115   2.356  16.844 -0.1187 -0.5482  0.1204
  634TMC3     C 9442   4.680   2.258  17.217  0.2225 -0.0382  0.2012
  634TMC3     O 9443   4.636   2.353  17.281 -0.7726  0.1929  0.4776
  634TMC3     H 9444   0.140   2.118  17.082  1.9045 -0.9102 -3.8220
  634TMC3    H1 9445   4.661   2.483  17.099  0.0987 -0.0035  0.7527
  634TMC3    H2 9446   0.146   2.391  16.746 -1.1323 -0.8716 -0.3136
  634TMC3    C7 9447   4.732   2.565  16.850 -0.4334  0.7890  0.6318
  634TMC3    C8 9448   0.204   2.130  16.839 -0.1368  0.4060 -0.4915
  634TMC3    O1 9449   0.038   2.583  16.739  0.2355 -0.1225  0.1225
  634TMC3    O2 9450   0.208   2.020  16.894 -1.0511  0.1713  0.0233
  635TMC3    C1 9451   0.420   2.851   0.460  0.0324 -1.5891 -0.3430
  635TMC3    C2 9452   0.449   2.732   0.390 -1.1512 -0.3100  0.1704
  635TMC3    C3 9453   0.454   2.614   0.460 -0.8370 -0.3699  0.1644
  635TMC3    C4 9454   0.382   2.843   0.591  0.2227 -0.1240  0.1978
  635TMC3    C5 9455   0.396   2.715   0.652 -0.3718 -0.6320 -0.1689
  635TMC3    C6 9456   0.431   2.600   0.590 -0.2087  0.7529 -0.4895
  635TMC3     C 9457   0.451   2.986   0.413 -0.9355  0.8714 -0.1693
  635TMC3     O 9458   0.461   3.066   0.505  0.3772  0.9043  0.1737
  635TMC3     H 9459   0.501   2.732   0.296 -1.5635  0.7881 -0.0615
  635TMC3    H1 9460   0.362   2.937   0.641  0.3430  0.3193 -0.5844
  635TMC3    H2 9461   0.417   2.502   0.636  0.8510  1.4406  1.2954
  635TMC3    C7 9462   0.399   2.722   0.795  0.1360  0.4314 -0.1122
  635TMC3    C8 9463   0.482   2.497   0.380  0.8023 -0.8713 -0.2971
  635TMC3    O1 9464   0.340   2.810   0.855  0.7659  0.1947  0.2430
  635TMC3    O2 9465   0.449   2.513   0.263  0.2152  0.1863 -0.0358
  636MPD2     C 9466   1.094   2.446  16.518  0.0308  0.0429  0.3603
  636MPD2    C1 9467   1.148   2.494  16.632  0.8203  0.1758 -0.7047
  636MPD2    C2 9468   1.229   2.406  16.711 -0.4611  0.5540  0.5383
  636MPD2    C3 9469   1.251   2.283  16.663 -0.3322 -0.0747 -0.2876
  636MPD2    C4 9470   1.189   2.233  16.545 -0.7855 -0.4295  0.5345
  636MPD2    C5 9471   1.111   2.317  16.468  0.2603 -0.3856 -0.1318
  636MPD2     H 9472   1.270   2.434  16.807 -0.2756  0.8199  0.3818
  636MPD2    H1 9473   1.203   2.132  16.508  0.7705  0.7496 -2.1312
  636MPD2    H2 9474   1.037   2.509  16.450  1.1487 -0.8348 -1.3775
  636MPD2    H3 9475   1.054   2.285  16.382  1.0352 -1.0443 -0.4089
  636MPD2     N 9476   1.340   2.206  16.742  0.1597  0.3341 -0.3388
  636MPD2    H5 9477   1.384   2.252  16.821 -0.9481  1.7164 -0.5447
  636MPD2    N1 9478   1.134   2.623  16.681  0.9652 -0.1334 -0.2245
  636MPD2    H7 9479   1.183   2.644  16.767  0.9371  0.7716 -0.4259
  637TMC3    C1 9480   1.509   2.053  16.789 -0.9011 -0.3357  0.1392
  637TMC3    C2 9481   1.490   2.103  16.914  0.3068 -0.7820  0.0352
  637TMC3    C3 9482   1.590   2.162  16.985 -1.0408  0.2069  0.6201
  637TMC3    C4 9483   1.630   2.050  16.724  0.4195 -0.7716 -0.1150
  637TMC3    C5 9484   1.724   2.119  16.794  0.6163 -0.0698  0.4453
  637TMC3    C6 9485   1.706   2.164  16.918 -0.1651 -0.4300 -0.1888
  637TMC3     C 9486   1.399   2.090  16.700  0.6450  0.1183 -0.6143
  637TMC3     O 9487   1.409   2.053  16.582 -0.4144  0.0648  0.0829
  637TMC3     H 9488   1.393   2.083  16.957  0.2708  0.7793  0.6847
  637TMC3    H1 9489   1.628   2.016  16.621 -0.0741 -1.1670  0.0275
  637TMC3    H2 9490   1.792   2.210  16.965  0.5629 -1.5113 -0.4699
  637TMC3    C7 9491   1.825   2.194  16.715  0.2705 -0.2823 -0.3441
  637TMC3    C8 9492   1.543   2.297  17.022 -0.6162  0.0573  0.1248
  637TMC3    O1 9493   1.871   2.287  16.768  0.1419  0.5348  0.3300
  637TMC3    O2 9494   1.441   2.343  16.962 -0.0157 -0.4197 -0.3256
  638MPD2     C 9495   1.453   1.105  14.843  0.0248 -0.4332 -0.3001
  638MPD2    C1 9496   1.567   1.032  14.873  0.0441 -0.2687  0.1232
  638MPD2    C2 9497   1.573   0.965  14.993 -0.2061  0.4097  0.0506
  638MPD2    C3 9498   1.476   0.980  15.093  0.6810  0.5699  0.0839
  638MPD2    C4 9499   1.366   1.060  15.060 -0.2295  0.4048 -0.2661
  638MPD2    C5 9500   1.360   1.120  14.937  0.0888  0.0070 -0.2983
  638MPD2     H 9501   1.653   0.896  15.017 -0.9556 -1.1416 -1.9139
  638MPD2    H1 9502   1.289   1.070  15.137 -1.3663 -0.0071 -1.3470
  638MPD2    H2 9503   1.444   1.158  14.749  0.3333 -0.2909 -0.2472
  638MPD2    H3 9504   1.275   1.183  14.915 -0.1293 -0.8310 -1.8065
  638MPD2     N 9505   1.477   0.898  15.204  0.3716 -0.4495  0.0769
  638MPD2    H5 9506   1.544   0.825  15.183  1.6274  1.2738 -1.7370
  638MPD2    N1 9507   1.653   1.004  14.767  0.1727 -0.6147 -0.2654
  638MPD2    H7 9508   1.615   1.018  14.673  0.5651 -0.1306 -0.3537
  639TMC3    C1 9509   1.384   0.754  15.363  0.0416  0.0709 -0.0200
  639TMC3    C2 9510   1.258   0.700  15.381 -0.3758 -0.6043 -0.3043
  639TMC3    C3 9511   1.245   0.566  15.390  0.6016  0.5130 -0.2174
  639TMC3    C4 9512   1.493   0.675  15.361 -0.1278 -0.4113 -0.3019
  639TMC3    C5 9513   1.470   0.538  15.377 -0.7196 -0.4323  0.0722
  639TMC3    C6 9514   1.347   0.480  15.401  0.9119 -0.5317 -0.6817
  639TMC3     C 9515   1.390   0.883  15.308 -0.0945 -0.6959 -0.0423
  639TMC3     O 9516   1.294   0.955  15.332  0.4840  0.3357  0.5240
  639TMC3     H 9517   1.170   0.763  15.387  0.2266  0.2084 -0.0877
  639TMC3    H1 9518   1.591   0.720  15.361 -1.0093  1.5070 -0.6097
  639TMC3    H2 9519   1.325   0.376  15.419 -0.7546  0.2173  1.5614
  639TMC3    C7 9520   1.572   0.444  15.353  0.0403 -0.2748  0.2514
  639TMC3    C8 9521   1.115   0.512  15.362 -0.2214  0.2436  0.7530
  639TMC3    O1 9522   1.526   0.331  15.367 -0.2275 -0.4953  0.1815
  639TMC3    O2 9523   1.019   0.583  15.387  0.7065 -0.4238  0.2474
  640MPD2     C 9524   2.181   0.095   9.911  0.7485 -0.3725  0.1996
  640MPD2    C1 9525   2.240   0.214   9.948 -0.0669  0.8519 -0.0507
  640MPD2    C2 9526   2.169   0.311  10.014 -0.0777  0.4299 -0.0699
  640MPD2    C3 9527   2.036   0.278  10.053  0.0921  0.2751  0.7402
  640MPD2    C4 9528   1.978   0.157  10.016  0.0278  0.1374 -0.0609
  640MPD2    C5 9529   2.049   0.069   9.944  1.1291 -0.2765 -0.1671
  640MPD2     H 9530   2.204   0.412  10.032 -2.1861  1.3917 -1.3553
  640MPD2    H1 9531   1.878   0.125  10.042  1.5320 -3.3457  1.5524
  640MPD2    H2 9532   2.234   0.013   9.864 -1.2498 -1.1588 -0.6730
  640MPD2    H3 9533   2.000   4.708   9.935 -0.0422  0.2364  0.7776
  640MPD2     N 9534   1.951   0.369  10.118 -0.2553  0.4170  0.3926
  640MPD2    H5 9535   1.858   0.339  10.143 -0.1086 -1.7439 -1.6515
  640MPD2    N1 9536   2.379   0.225   9.910  0.1190  0.6415  0.1532
  640MPD2    H7 9537   2.422   0.137   9.884 -1.0893 -0.6282  2.4990
  641TMC3    C1 9538   2.598   0.313   9.874  0.4807  0.0050 -0.2059
  641TMC3    C2 9539   2.648   0.184   9.879  0.1351  0.2537  0.5411
  641TMC3    C3 9540   2.783   0.172   9.861  0.6193 -0.3967 -0.4636
  641TMC3    C4 9541   2.679   0.418   9.856  0.4141  0.2547  0.7104
  641TMC3    C5 9542   2.817   0.398   9.849  0.0732 -0.0009  0.3750
  641TMC3    C6 9543   2.875   0.274   9.849 -0.1084  0.0390  0.4453
  641TMC3     C 9544   2.453   0.334   9.906  0.2336 -0.2505  0.7911
  641TMC3     O 9545   2.429   0.452   9.935 -0.2876 -0.4915  0.4038
  641TMC3     H 9546   2.595   0.092   9.901  1.8713 -0.8121  0.2649
  641TMC3    H1 9547   2.629   0.514   9.855  1.3876  0.7384 -1.5380
  641TMC3    H2 9548   2.980   0.251   9.833  0.0335  1.8876 -1.2621
  641TMC3    C7 9549   2.912   0.506   9.846 -0.9668  0.1746  0.1303
  641TMC3    C8 9550   2.834   0.031   9.879  0.4019 -0.5354 -0.0165
  641TMC3    O1 9551   3.031   0.477   9.827 -0.4506 -0.5414 -0.0175
  641TMC3    O2 9552   2.764   4.670   9.846  0.2810 -0.6491  0.0340
  642TMC3    C1 9553   2.837   0.957  12.219  0.2933 -0.1175  0.1717
  642TMC3    C2 9554   2.944   1.037  12.195 -0.1733  0.5055 -0.6905
  642TMC3    C3 9555   3.061   0.974  12.150  0.1977 -0.5244 -0.2074
  642TMC3    C4 9556   2.832   0.828  12.194  0.5924 -0.0380 -0.4855
  642TMC3    C5 9557   2.941   0.770  12.124 -0.4201  0.6618 -0.1201
  642TMC3    C6 9558   3.057   0.832  12.118 -1.2077  0.1343 -1.0449
  642TMC3     C 9559   2.712   1.021  12.256  0.8154 -0.4653 -0.2586
  642TMC3     O 9560   2.622   0.952  12.298 -0.5433 -0.1254  0.4505
  642TMC3     H 9561   2.943   1.126  12.257 -2.1991 -1.2657  1.7989
  642TMC3    H1 9562   2.739   0.772  12.199 -0.6332  1.8479 -2.4022
  642TMC3    H2 9563   3.149   0.788  12.080  0.5119  1.5604  1.4468
  642TMC3    C7 9564   2.939   0.633  12.079 -0.3795  0.7439  0.9377
  642TMC3    C8 9565   3.189   1.032  12.187  0.3245 -0.3659 -0.7350
  642TMC3    O1 9566   3.019   0.596  11.998  0.4816 -0.4826 -0.0031
  642TMC3    O2 9567   3.279   0.951  12.205 -0.3384  0.6612  0.3225
  643TMC3    C1 9568   1.802   4.677   0.563 -0.2416 -0.2130  0.1364
  643TMC3    C2 9569   1.671   4.699   0.543 -0.4039  0.0163  0.2351
  643TMC3    C3 9570   1.617   4.675   0.422  0.8132 -0.2243  0.1650
  643TMC3    C4 9571   1.885   4.662   0.453  0.1386  0.3408  0.2226
  643TMC3    C5 9572   1.820   4.635   0.332 -0.6686 -0.3613 -0.1451
  643TMC3    C6 9573   1.684   4.639   0.309 -0.4148  0.2233  0.0768
  643TMC3     C 9574   1.866   0.000   0.680  0.7976 -0.4084  0.0950
  643TMC3     O 9575   1.797   0.073   0.748  0.9745 -0.2255 -0.5391
  643TMC3     H 9576   1.617   4.728   0.632  0.8243  1.1867  0.5808
  643TMC3    H1 9577   1.989   4.693   0.446 -0.0527  1.2470  1.4141
  643TMC3    H2 9578   1.644   4.600   0.216  3.1258  1.1709 -1.8387
  643TMC3    C7 9579   1.892   4.646   0.205 -0.2656  0.3595 -0.3885
  643TMC3    C8 9580   1.500   0.013   0.397  0.4221  0.6127  0.3615
  643TMC3    O1 9581   1.829   4.702   0.116 -0.4209  0.1376 -0.0465
  643TMC3    O2 9582   1.408   0.011   0.478  0.4985  0.0294  0.2324
  644MPD2     C 9583   1.903   0.596   9.719 -0.0453  0.0426 -1.2235
  644MPD2    C1 9584   2.011   0.659   9.664 -0.8189 -0.0903  0.2806
  644MPD2    C2 9585   2.016   0.791   9.645 -0.1716 -0.4129 -0.1449
  644MPD2    C3 9586   1.912   0.868   9.675  0.1222 -0.2281 -0.0105
  644MPD2    C4 9587   1.802   0.806   9.733 -0.2991 -0.1301 -0.9503
  644MPD2    C5 9588   1.794   0.674   9.756  0.4676 -0.1828  1.2462
  644MPD2     H 9589   2.105   0.838   9.605 -0.2547  0.7037  0.9846
  644MPD2    H1 9590   1.714   0.860   9.768  0.7791  1.6628 -1.0315
  644MPD2    H2 9591   1.890   0.488   9.723  0.9616 -0.0690 -0.8553
  644MPD2    H3 9592   1.703   0.630   9.797  0.4429 -0.7870  0.5262
  644MPD2     N 9593   1.923   1.008   9.656  0.1013  0.0327  0.9052
  644MPD2    H5 9594   2.017   1.036   9.629 -0.4433  1.2406  0.2273
  644MPD2    N1 9595   2.113   0.571   9.642  0.2187 -0.2577  0.3347
  644MPD2    H7 9596   2.096   0.472   9.656  1.8642 -0.4536  1.0651
  645TMC3    C1 9597   1.897   1.247   9.673 -0.2101 -0.3370 -0.9845
  645TMC3    C2 9598   2.024   1.267   9.715 -0.7001 -0.0742 -0.8354
  645TMC3    C3 9599   2.087   1.382   9.719 -0.7270 -0.0280  0.4661
  645TMC3    C4 9600   1.823   1.349   9.635  0.6025  0.2576 -0.3085
  645TMC3    C5 9601   1.894   1.473   9.622  0.8519 -0.4482  0.8035
  645TMC3    C6 9602   2.019   1.494   9.672  0.0625 -0.9512 -0.1328
  645TMC3     C 9603   1.833   1.112   9.687  0.0530 -0.1325 -0.3077
  645TMC3     O 9604   1.714   1.101   9.720 -0.4572 -0.1111  0.5347
  645TMC3     H 9605   2.074   1.182   9.759 -0.8858  0.8733  1.1931
  645TMC3    H1 9606   1.723   1.317   9.608  0.2421  1.0711  0.0599
  645TMC3    H2 9607   2.066   1.591   9.663  0.1269 -1.0914 -1.3171
  645TMC3    C7 9608   1.835   1.579   9.549 -0.3776  0.5192 -0.5831
  645TMC3    C8 9609   2.225   1.391   9.772 -0.2007  0.4412  0.4924
  645TMC3    O1 9610   1.890   1.682   9.512  0.1156  0.6542  0.2464
  645TMC3    O2 9611   2.257   1.503   9.800  0.3237  0.5276 -0.5742
  646MPD2     C 9612   1.625   4.354  14.741  0.2624 -1.3298 -0.4257
  646MPD2    C1 9613   1.531   4.372  14.836 -0.4321  0.2883 -0.6655
  646MPD2    C2 9614   1.414   4.444  14.807 -0.3781  0.0729 -0.1276
  646MPD2    C3 9615   1.395   4.503  14.685 -0.0282  0.5785  0.4501
  646MPD2    C4 9616   1.483   4.479  14.591  0.1026  0.6442  0.4099
  646MPD2    C5 9617   1.601   4.409  14.620 -0.3781 -0.4903  0.1408
  646MPD2     H 9618   1.338   4.465  14.881 -0.0242  1.0541 -0.0424
  646MPD2    H1 9619   1.469   4.519  14.492  0.9473 -1.2281 -0.4741
  646MPD2    H2 9620   1.711   4.288  14.750 -0.0097 -1.4237  1.5474
  646MPD2    H3 9621   1.671   4.389  14.539 -0.1297  0.7152  0.0562
  646MPD2     N 9622   1.289   4.589  14.679  0.7671  0.3440  0.4047
  646MPD2    H5 9623   1.228   4.574  14.759 -0.8124  1.5082 -0.5781
  646MPD2    N1 9624   1.557   4.302  14.960  0.3022 -0.6672  0.0651
  646MPD2    H7 9625   1.653   4.273  14.976  0.6583  0.3890 -0.1539
  647TMC3    C1 9626   1.532   4.235  15.172 -0.4134  0.2106  0.2788
  647TMC3    C2 9627   1.453   4.170  15.264  0.4536 -0.2068  1.0999
  647TMC3    C3 9628   1.501   4.127  15.386 -0.1735 -0.1562  0.4330
  647TMC3    C4 9629   1.666   4.252  15.202  0.5055  0.2985 -0.4943
  647TMC3    C5 9630   1.709   4.218  15.333  0.2902 -0.7563  0.8599
  647TMC3    C6 9631   1.628   4.167  15.427 -0.4520 -0.7960  0.8788
  647TMC3     C 9632   1.464   4.291  15.057 -0.1491 -0.1523 -0.0529
  647TMC3     O 9633   1.342   4.302  15.042 -0.1604 -0.5073  0.7683
  647TMC3     H 9634   1.351   4.145  15.235  1.0439  0.1595 -1.3104
  647TMC3    H1 9635   1.744   4.293  15.140 -0.3117  0.2357 -1.5734
  647TMC3    H2 9636   1.656   4.135  15.527  2.1738 -3.0158 -0.5653
  647TMC3    C7 9637   1.849   4.180  15.351 -0.4936 -0.4894  0.0027
  647TMC3    C8 9638   1.481   3.992  15.426 -0.3758 -0.2828  0.7506
  647TMC3    O1 9639   1.895   4.185  15.464  0.5047  0.1588 -0.1587
  647TMC3    O2 9640   1.509   3.966  15.539  0.1733  0.5032  0.0488
  648TMC3    C1 9641   0.581   2.173  16.189 -0.6986 -0.1542  0.2681
  648TMC3    C2 9642   0.692   2.111  16.142  0.3092  0.1834 -0.0766
  648TMC3    C3 9643   0.724   2.127  16.008 -0.0188 -0.1176  0.2112
  648TMC3    C4 9644   0.502   2.246  16.110 -0.3361  0.3977 -0.1913
  648TMC3    C5 9645   0.524   2.252  15.980  0.2235  0.5580 -0.3338
  648TMC3    C6 9646   0.634   2.193  15.924 -0.2711 -0.1487 -0.1650
  648TMC3     C 9647   0.557   2.190  16.338 -1.1423  0.1846 -0.8547
  648TMC3     O 9648   0.497   2.289  16.380 -0.2191  0.3157  0.2230
  648TMC3     H 9649   0.758   2.055  16.207 -0.5047  0.3027  0.8535
  648TMC3    H1 9650   0.410   2.280  16.157 -0.7131 -0.9959  0.0733
  648TMC3    H2 9651   0.633   2.198  15.816 -1.8852  0.3703 -0.1220
  648TMC3    C7 9652   0.424   2.331  15.904  0.5910  0.3775 -0.3722
  648TMC3    C8 9653   0.813   2.025  15.954  0.3808  0.0190 -0.3170
  648TMC3    O1 9654   0.400   2.304  15.788  0.2036 -0.0957  0.6341
  648TMC3    O2 9655   0.874   1.956  16.038  0.9546 -0.5128 -0.3331
  649TMC3    C1 9656   4.316   3.373  12.903  0.1390 -0.1065 -0.0779
  649TMC3    C2 9657   4.445   3.330  12.898  0.4502  0.2553  0.0196
  649TMC3    C3 9658   4.486   3.228  12.987  0.2041  0.0581 -0.3834
  649TMC3    C4 9659   4.228   3.301  12.983  0.7884 -0.5934  0.0307
  649TMC3    C5 9660   4.271   3.196  13.056 -0.8258  0.3153  0.6587
  649TMC3    C6 9661   4.403   3.163  13.067  0.4934  0.5383  0.5313
  649TMC3     C 9662   4.254   3.444  12.798  0.3058 -0.5499  0.6790
  649TMC3     O 9663   4.135   3.470  12.812  0.5355  0.5692  0.0895
  649TMC3     H 9664   4.529   3.390  12.866 -2.2199  3.9699  0.0756
  649TMC3    H1 9665   4.124   3.326  13.000  0.6145  0.8526 -3.0502
  649TMC3    H2 9666   4.433   3.088  13.139 -1.6898 -0.0666  0.8189
  649TMC3    C7 9667   4.182   3.142  13.159  0.0421  0.1625  0.1957
  649TMC3    C8 9668   4.621   3.227  13.038 -0.5086  0.1447 -0.6376
  649TMC3    O1 9669   4.130   3.228  13.237 -0.5968  0.4739 -0.3306
  649TMC3    O2 9670   4.641   3.187  13.150  0.3787  0.2505 -0.1355
  650TMC3    C1 9671   2.112   0.162  12.624 -0.8680  0.5289 -0.7099
  650TMC3    C2 9672   2.074   0.293  12.638 -1.0252  0.1568  0.4626
  650TMC3    C3 9673   1.983   0.347  12.552  0.1550 -0.1997  0.0059
  650TMC3    C4 9674   2.066   0.079  12.518  0.3499  0.4605 -0.3725
  650TMC3    C5 9675   1.965   0.139  12.436  0.4435  0.3160  0.1431
  650TMC3    C6 9676   1.922   0.270  12.455  0.2538  0.4446 -0.5292
  650TMC3     C 9677   2.245   0.134  12.690  0.8565  0.2278 -0.4992
  650TMC3     O 9678   2.309   0.235  12.696  0.4654  0.2403 -0.3212
  650TMC3     H 9679   2.115   0.361  12.712  1.0169  0.5792 -1.0557
  650TMC3    H1 9680   2.086   4.709  12.503 -1.5161  0.2791 -1.5914
  650TMC3    H2 9681   1.851   0.318  12.388 -0.6551 -1.1782 -0.7369
  650TMC3    C7 9682   1.917   0.070  12.315 -0.1474  0.3373 -0.1881
  650TMC3    C8 9683   1.977   0.498  12.552  0.0465 -0.0918  0.8344
  650TMC3    O1 9684   1.934   4.683  12.315  0.2363  0.7483  0.6368
  650TMC3    O2 9685   2.085   0.550  12.570  0.0958 -0.3749  0.1430
  651MPD2     C 9686   1.434   2.417  10.464  0.1095  0.4151  0.4386
  651MPD2    C1 9687   1.452   2.481  10.589  0.3278  0.9727  0.9773
  651MPD2    C2 9688   1.586   2.524  10.620 -0.1906  0.8399 -0.2875
  651MPD2    C3 9689   1.691   2.501  10.535  0.0307 -0.3423 -0.0322
  651MPD2    C4 9690   1.668   2.444  10.416  0.6865  0.0667  0.0902
  651MPD2    C5 9691   1.543   2.407  10.382 -0.3279 -0.1126 -0.4283
  651MPD2     H 9692   1.614   2.570  10.714  0.6933 -0.8032  0.2584
  651MPD2    H1 9693   1.740   2.403  10.345 -0.4164 -0.0396 -0.9661
  651MPD2    H2 9694   1.339   2.390  10.418 -0.3177 -0.9025  2.0965
  651MPD2    H3 9695   1.541   2.353  10.288 -3.4182 -0.4674 -0.1481
  651MPD2     N 9696   1.826   2.521  10.576  0.1067  0.5080  0.4943
  651MPD2    H5 9697   1.840   2.558  10.670 -1.1912 -1.9003  1.6428
  651MPD2    N1 9698   1.351   2.510  10.685 -0.5524  0.8582 -0.0842
  651MPD2    H7 9699   1.366   2.567  10.767  3.3427  0.1431 -0.3362
  652TMC3    C1 9700   2.298   2.522  10.543  0.0679 -0.4969 -0.1001
  652TMC3    C2 9701   2.175   2.464  10.551  0.6491 -0.4784  0.2260
  652TMC3    C3 9702   2.060   2.542  10.579  0.5493  0.5039 -0.2425
  652TMC3    C4 9703   2.316   2.656  10.571 -0.5731  0.6384  0.6030
  652TMC3    C5 9704   2.206   2.724  10.608 -0.0799  0.6383 -0.2642
  652TMC3    C6 9705   2.074   2.674  10.601  0.3848  0.5155  1.2419
  652TMC3     C 9706   2.424   2.442  10.553  0.4968 -0.7543  0.4364
  652TMC3     O 9707   2.415   2.338  10.614  0.4301  0.0940 -0.1088
  652TMC3     H 9708   2.162   2.357  10.534 -1.8844  0.1762 -2.0108
  652TMC3    H1 9709   2.410   2.711  10.567  0.2830 -0.7557  1.7277
  652TMC3    H2 9710   1.983   2.731  10.610 -0.0657  0.2529 -1.6731
  652TMC3    C7 9711   2.221   2.868  10.586  0.8474 -0.5716 -0.4266
  652TMC3    C8 9712   1.941   2.497  10.507 -0.5365  0.3075 -0.1144
  652TMC3    O1 9713   2.172   2.934  10.677 -0.1906  0.7653 -0.2729
  652TMC3    O2 9714   1.967   2.437  10.404  0.4798  0.6863  0.1751
  653MPD2     C 9715   4.334   1.858   0.163 -0.0860 -0.2321  0.8527
  653MPD2    C1 9716   4.272   1.955   0.090  0.5015 -0.3600  0.2067
  653MPD2    C2 9717   4.224   1.914  17.707  0.0905 -0.1008  0.2371
  653MPD2    C3 9718   4.224   1.787  17.664 -0.5756  0.0060 -0.0220
  653MPD2    C4 9719   4.282   1.687   0.002  0.7080  0.0218 -0.2814
  653MPD2    C5 9720   4.336   1.728   0.119 -0.2599 -0.0949 -0.0470
  653MPD2     H 9721   4.207   1.996  17.639  0.5205  0.9255  1.3550
  653MPD2    H1 9722   4.300   1.582  17.721  0.5050  0.5152 -3.0727
  653MPD2    H2 9723   4.393   1.873   0.253  2.6969  0.9060 -1.1656
  653MPD2    H3 9724   4.389   1.653   0.176  0.3429 -0.5416 -1.2018
  653MPD2     N 9725   4.162   1.761  17.543  0.0272  0.7202  0.6484
  653MPD2    H5 9726   4.124   1.842  17.496 -1.5540  0.1947  1.0003
  653MPD2    N1 9727   4.280   2.087   0.137  0.6039  0.4458  0.3283
  653MPD2    H7 9728   4.254   2.165   0.077  1.0616  0.1452 -0.2670
  654TMC3    C1 9729   4.087   1.639  17.355  0.2531 -0.2918 -0.5418
  654TMC3    C2 9730   3.982   1.730  17.333  0.5367 -0.9058 -0.3914
  654TMC3    C3 9731   3.929   1.738  17.208  0.2124 -0.4691 -0.0507
  654TMC3    C4 9732   4.122   1.544  17.252  0.4105  0.0228  0.2583
  654TMC3    C5 9733   4.052   1.545  17.137 -0.1541  0.3891 -0.2398
  654TMC3    C6 9734   3.960   1.646  17.112  0.1379 -0.1084 -0.0460
  654TMC3     C 9735   4.159   1.637  17.484  0.3445  0.6110  0.0407
  654TMC3     O 9736   4.211   1.532  17.519  0.2921  0.0111  0.1167
  654TMC3     H 9737   3.935   1.779  17.418  1.8245  1.4450 -1.0385
  654TMC3    H1 9738   4.209   1.480  17.267  0.1951 -0.4667 -0.5653
  654TMC3    H2 9739   3.924   1.659  17.011 -1.1735 -2.3847  0.1415
  654TMC3    C7 9740   4.104   1.473  17.023  0.0371  0.0961 -0.0225
  654TMC3    C8 9741   3.800   1.807  17.203  0.2256  0.4366  0.4333
  654TMC3    O1 9742   4.100   1.529  16.913 -0.3058 -0.4343 -0.1941
  654TMC3    O2 9743   3.758   1.852  17.093 -0.2052  0.3105 -0.6530
  655MPD2     C 9744   1.131   2.202  15.902  0.2470 -0.6267  0.1350
  655MPD2    C1 9745   1.044   2.269  15.814  0.7100 -0.2491  0.3061
  655MPD2    C2 9746   1.034   2.216  15.685 -0.4337  0.2584 -0.7514
  655MPD2    C3 9747   1.106   2.108  15.641 -0.6117  0.1667  0.6911
  655MPD2    C4 9748   1.194   2.055  15.731  0.0830  0.0552 -0.0158
  655MPD2    C5 9749   1.209   2.100  15.864  0.3331  0.1449 -0.0765
  655MPD2     H 9750   0.970   2.268  15.615  1.3964  2.0877 -1.0535
  655MPD2    H1 9751   1.256   1.977  15.688  1.8901  0.8447  1.1456
  655MPD2    H2 9752   1.158   2.230  16.003  1.3675  1.3354 -0.7143
  655MPD2    H3 9753   1.279   2.063  15.938 -2.0658  0.4908  2.3396
  655MPD2     N 9754   1.110   2.062  15.511 -0.0074  0.6871  0.3222
  655MPD2    H5 9755   1.185   1.998  15.489  0.2431  0.6627  1.2611
  655MPD2    N1 9756   0.988   2.389  15.852 -0.1057  0.3271 -0.1651
  655MPD2    H7 9757   0.933   2.439  15.783 -1.9693 -0.3167  0.8782
  656TMC3    C1 9758   0.866   2.541  15.994  0.5553  0.6905  0.5715
  656TMC3    C2 9759   0.770   2.540  16.095 -0.0515 -0.2247 -0.6426
  656TMC3    C3 9760   0.682   2.642  16.102  0.5922 -0.1969 -0.0030
  656TMC3    C4 9761   0.865   2.630  15.886 -0.1386 -0.5372 -0.1685
  656TMC3    C5 9762   0.764   2.729  15.892 -0.3730  0.3528  0.0909
  656TMC3    C6 9763   0.676   2.733  15.999  0.4170  0.9499  0.0677
  656TMC3     C 9764   0.960   2.425  15.984 -0.2674  0.1783 -0.2725
  656TMC3     O 9765   0.982   2.365  16.086  0.6683  0.3411  0.4889
  656TMC3     H 9766   0.769   2.467  16.175 -0.8211 -1.0452 -1.4006
  656TMC3    H1 9767   0.933   2.632  15.802  0.3423 -2.5763  0.1659
  656TMC3    H2 9768   0.612   2.818  16.019 -0.0050  0.3025  1.4950
  656TMC3    C7 9769   0.717   2.763  15.758  0.2058  0.2841 -0.2564
  656TMC3    C8 9770   0.577   2.636  16.200 -0.5115  0.2004 -0.1941
  656TMC3    O1 9771   0.784   2.742  15.660 -0.2944  0.1049  0.9491
  656TMC3    O2 9772   0.524   2.527  16.212  0.5872  0.9149 -0.2674
  657TMC3    C1 9773   4.693   1.325  14.926  0.1435 -0.2073  1.0373
  657TMC3    C2 9774   4.727   1.355  15.057  0.4111 -0.2901  0.1226
  657TMC3    C3 9775   4.708   1.483  15.098 -1.0151  0.1994  0.1474
  657TMC3    C4 9776   4.635   1.413  14.850 -0.3970  0.4956  0.2574
  657TMC3    C5 9777   4.613   1.544  14.891 -0.4291 -0.1363  0.1529
  657TMC3    C6 9778   4.667   1.583  15.016  0.3578  0.4263 -0.3713
  657TMC3     C 9779   4.724   1.196  14.877  0.2465 -0.4093 -0.7770
  657TMC3     O 9780   4.652   1.162  14.785 -0.2888  0.2488 -0.5981
  657TMC3     H 9781   0.020   1.282  15.132  0.8738 -1.3514 -1.0808
  657TMC3    H1 9782   4.601   1.382  14.752  1.2517  0.0419 -0.1770
  657TMC3    H2 9783   4.648   1.684  15.050  1.1001  1.0942 -1.9559
  657TMC3    C7 9784   4.531   1.641  14.810 -0.5615 -0.6863  0.3032
  657TMC3    C8 9785   4.732   1.518  15.242  0.3126  0.7371  0.3852
  657TMC3    O1 9786   4.500   1.749  14.862  0.0026 -0.0972 -0.3613
  657TMC3    O2 9787   4.677   1.614  15.295 -0.0669 -0.2080 -0.1514
  658MPD2     C 9788   1.653   1.936  15.219 -0.4340 -0.3158 -0.1062
  658MPD2    C1 9789   1.555   1.904  15.129  0.4730  0.4901  0.1383
  658MPD2    C2 9790   1.583   1.809  15.032  0.5697  0.5557 -0.3327
  658MPD2    C3 9791   1.695   1.734  15.030 -0.6824  0.3434  0.3469
  658MPD2    C4 9792   1.797   1.771  15.117 -0.8480  0.6057  0.0752
  658MPD2    C5 9793   1.772   1.874  15.210  0.2258 -0.5424 -0.2110
  658MPD2     H 9794   1.511   1.778  14.958  0.2720 -1.1381  0.6682
  658MPD2    H1 9795   1.895   1.725  15.126 -1.4001 -0.0284  3.0738
  658MPD2    H2 9796   1.645   2.018  15.289  1.1968  0.7764 -1.2118
  658MPD2    H3 9797   1.859   1.902  15.268 -0.8127 -1.8715  1.9334
  658MPD2     N 9798   1.713   1.634  14.933 -0.2073  0.5407  0.1187
  658MPD2    H5 9799   1.638   1.607  14.871 -0.5414  0.2421  0.6549
  658MPD2    N1 9800   1.434   1.974  15.141  0.2095 -0.0585  0.5361
  658MPD2    H7 9801   1.424   2.037  15.220 -1.2498 -1.0333  1.1165
  659TMC3    C1 9802   1.207   2.019  15.107  0.0852 -0.1572  0.4548
  659TMC3    C2 9803   1.188   2.039  15.244 -0.4746 -0.1142  0.3119
  659TMC3    C3 9804   1.058   2.049  15.283 -0.8625  0.6038 -0.2810
  659TMC3    C4 9805   1.102   1.999  15.024 -0.6570  0.3443 -0.4670
  659TMC3    C5 9806   0.972   2.002  15.068  0.2466  0.2571 -0.3816
  659TMC3    C6 9807   0.952   2.023  15.205  0.3792  0.1121  0.4357
  659TMC3     C 9808   1.326   1.958  15.061 -0.4972 -0.2814 -0.6494
  659TMC3     O 9809   1.322   1.889  14.962 -0.1348  0.1667 -0.2925
  659TMC3     H 9810   1.275   2.064  15.305  0.8924 -1.1458 -1.2200
  659TMC3    H1 9811   1.119   1.975  14.919 -2.1086  0.0846 -0.6450
  659TMC3    H2 9812   0.852   2.010  15.245 -0.2173 -3.1267 -2.0830
  659TMC3    C7 9813   0.853   1.977  14.980 -0.3553 -0.2272  0.2811
  659TMC3    C8 9814   1.015   2.093  15.415 -0.1843 -0.3046 -0.0677
  659TMC3    O1 9815   0.746   2.024  15.021  0.2365 -0.2330 -0.2918
  659TMC3    O2 9816   0.912   2.158  15.409 -0.5394  0.2233  0.2003
  660MPD2     C 9817   4.229   1.164  12.423 -0.1749  0.1377 -0.2552
  660MPD2    C1 9818   4.100   1.206  12.418  0.0022  0.4777  0.5219
  660MPD2    C2 9819   4.015   1.157  12.513 -0.2254  0.0305 -0.2406
  660MPD2    C3 9820   4.055   1.069  12.611  1.1362 -0.3389 -0.4084
  660MPD2    C4 9821   4.190   1.027  12.611  0.5962 -0.5168  0.0911
  660MPD2    C5 9822   4.276   1.082  12.518  0.5901 -1.0418  0.4863
  660MPD2     H 9823   3.911   1.188  12.506 -1.2628 -3.0272  1.6580
  660MPD2    H1 9824   4.232   0.951  12.676  0.5826 -0.4098  0.2258
  660MPD2    H2 9825   4.296   1.203  12.348 -1.1381 -0.0413 -1.2116
  660MPD2    H3 9826   4.374   1.035  12.516  0.1838 -1.8057 -1.1342
  660MPD2     N 9827   3.972   1.008  12.706  0.2873 -0.1211  0.0769
  660MPD2    H5 9828   4.019   0.930  12.751 -0.6610  0.3853  1.9422
  660MPD2    N1 9829   4.073   1.312  12.324  0.4547 -0.2235  0.2662
  660MPD2    H7 9830   4.150   1.363  12.281 -0.8696  1.5103 -0.0538
  661TMC3    C1 9831   3.941   1.467  12.207  0.0923  0.3865  0.2334
  661TMC3    C2 9832   4.051   1.529  12.148  0.3063 -0.6978  0.2287
  661TMC3    C3 9833   4.030   1.645  12.076  0.7661 -0.4104 -0.5740
  661TMC3    C4 9834   3.819   1.526  12.206  0.2479 -0.2713  0.0219
  661TMC3    C5 9835   3.811   1.644  12.129  0.1859 -0.0114 -0.1043
  661TMC3    C6 9836   3.916   1.712  12.076 -0.0562  0.2022 -0.0983
  661TMC3     C 9837   3.948   1.349  12.287  0.0425 -0.2316 -0.2133
  661TMC3     O 9838   3.834   1.300  12.313 -0.7228  0.3890  0.0624
  661TMC3     H 9839   4.151   1.489  12.159  0.5629  0.2636  1.3630
  661TMC3    H1 9840   3.726   1.490  12.248  0.3851 -1.0601 -0.3473
  661TMC3    H2 9841   3.906   1.797  12.010 -0.0912 -0.6355 -1.1863
  661TMC3    C7 9842   3.694   1.661  12.055  0.1447 -0.2171  0.6651
  661TMC3    C8 9843   4.114   1.665  11.962  0.0603  0.1299 -0.6378
  661TMC3    O1 9844   3.658   1.766  12.009 -0.1378 -0.0611 -0.1741
  661TMC3    O2 9845   4.114   1.776  11.909  0.9612  0.4892 -0.1860
  662MPD2     C 9846   4.224   0.600  16.977  0.3765  0.2388 -0.5033
  662MPD2    C1 9847   4.199   0.583  17.110 -0.4425 -0.2645  0.6497
  662MPD2    C2 9848   4.105   0.653  17.176 -0.4443  0.0812  0.4251
  662MPD2    C3 9849   4.030   0.750  17.112 -0.5592  0.0885  0.2959
  662MPD2    C4 9850   4.042   0.765  16.971 -0.2228 -0.3029  0.1586
  662MPD2    C5 9851   4.149   0.696  16.904 -0.7132 -0.0160  0.0256
  662MPD2     H 9852   4.091   0.630  17.281 -0.8208 -0.2753  0.2953
  662MPD2    H1 9853   3.992   0.847  16.922  1.5944 -0.4385 -1.9559
  662MPD2    H2 9854   4.298   0.545  16.920 -0.4181 -0.4598 -0.8475
  662MPD2    H3 9855   4.170   0.714  16.799 -1.9285 -2.4578 -0.6405
  662MPD2     N 9856   3.937   0.827  17.179  0.2258 -0.2080  0.5937
  662MPD2    H5 9857   3.874   0.888  17.127  0.9812  0.6669  0.7005
  662MPD2    N1 9858   4.250   0.470  17.176 -0.4484  0.0218  0.3415
  662MPD2    H7 9859   4.204   0.444  17.263 -1.2214 -0.4566 -0.2041
  663TMC3    C1 9860   4.362   0.273  17.229 -0.5092 -0.5903 -0.1269
  663TMC3    C2 9861   4.328   0.299  17.357 -0.3966 -0.9434 -0.3159
  663TMC3    C3 9862   4.259   0.212  17.431  1.2046  0.3153  0.6001
  663TMC3    C4 9863   4.369   0.140  17.182 -0.2353  0.3748  0.3517
  663TMC3    C5 9864   4.305   0.045  17.264 -0.4503  0.3292 -0.2467
  663TMC3    C6 9865   4.252   0.085  17.381  0.7787 -0.8160  0.5903
  663TMC3     C 9866   4.338   0.373  17.129  0.2986  0.6248  0.4385
  663TMC3     O 9867   4.389   0.350  17.020  1.2973  0.2686  0.3074
  663TMC3     H 9868   4.306   0.400  17.389 -2.2497 -1.6901  0.7450
  663TMC3    H1 9869   4.401   0.100  17.087 -2.6103 -1.1169  0.1712
  663TMC3    H2 9870   4.186   0.020  17.438 -0.1908 -1.3062 -1.0951
  663TMC3    C7 9871   4.357   4.641  17.259 -0.0170  0.0001 -0.2862
  663TMC3    C8 9872   4.142   0.279  17.449 -0.7951 -0.3475  0.2613
  663TMC3    O1 9873   4.464   4.621  17.191 -0.2067 -0.6168 -0.0335
  663TMC3    O2 9874   4.082   0.309  17.346 -0.1882 -0.0002 -0.3069
  664MPD2     C 9875   1.735   3.877  17.537  0.4638  1.1512  0.0402
  664MPD2    C1 9876   1.863   3.912  17.574 -0.0176  0.0964 -0.7413
  664MPD2    C2 9877   1.887   3.940  17.705 -0.4937  0.4590 -0.6223
  664MPD2    C3 9878   1.785   3.930   0.059 -0.2975 -0.5921  0.5786
  664MPD2    C4 9879   1.662   3.885   0.024 -0.2087 -0.2216  0.4435
  664MPD2    C5 9880   1.634   3.863  17.628  0.5947 -0.2554 -0.1420
  664MPD2     H 9881   1.982   3.973   0.006 -0.8048  0.3337  0.2390
  664MPD2    H1 9882   1.579   3.879   0.093 -3.2112  0.7750 -3.1224
  664MPD2    H2 9883   1.711   3.857  17.433  0.5083  0.1799  0.2199
  664MPD2    H3 9884   1.535   3.834  17.596  1.2434 -3.7643  1.0550
  664MPD2     N 9885   1.825   3.950   0.197  0.6954 -0.6316 -0.1301
  664MPD2    H5 9886   1.924   3.963   0.217  0.7283 -0.8192 -0.1657
  664MPD2    N1 9887   1.976   3.899  17.480  0.6657  0.3268 -0.7184
  664MPD2    H7 9888   2.071   3.901  17.517  0.5524 -0.7012 -0.3720
  665TMC3    C1 9889   1.819   3.961   0.435  0.8787  0.1624  0.1941
  665TMC3    C2 9890   1.748   3.945   0.549  0.3027 -0.9047  0.5203
  665TMC3    C3 9891   1.792   3.977   0.675  0.9053  0.1162  0.2103
  665TMC3    C4 9892   1.941   4.017   0.441 -1.1362 -0.3905 -0.8239
  665TMC3    C5 9893   1.986   4.054   0.562 -0.2651 -0.2251  0.3775
  665TMC3    C6 9894   1.918   4.033   0.687  0.4887  0.2714 -0.3945
  665TMC3     C 9895   1.752   3.925   0.309  0.1854  0.2374  0.5621
  665TMC3     O 9896   1.637   3.883   0.316  0.3018 -0.2446  0.4844
  665TMC3     H 9897   1.644   3.914   0.550  0.4005 -1.2227  0.9246
  665TMC3    H1 9898   2.014   4.024   0.361 -1.6616  0.1831 -1.2593
  665TMC3    H2 9899   1.967   4.035   0.783  0.9373  0.6119 -0.6295
  665TMC3    C7 9900   2.099   4.134   0.568  0.2651  0.1061 -0.7693
  665TMC3    C8 9901   1.736   3.907   0.789 -0.1730  0.2580  0.0439
  665TMC3    O1 9902   2.186   4.114   0.485 -0.0221  0.3581  0.2032
  665TMC3    O2 9903   1.680   3.801   0.766 -0.2735  0.2296  0.5027
  666TMC3    C1 9904   1.463   3.661   9.860  0.2899 -0.0450 -0.2489
  666TMC3    C2 9905   1.564   3.591   9.795  0.2861  0.4597 -0.1421
  666TMC3    C3 9906   1.661   3.659   9.723  1.0593 -0.2853 -0.6464
  666TMC3    C4 9907   1.467   3.795   9.854 -0.2497 -0.0451 -0.2922
  666TMC3    C5 9908   1.559   3.861   9.785  0.0541  0.2025 -0.4122
  666TMC3    C6 9909   1.656   3.799   9.711  0.0187  0.2931  0.1500
  666TMC3     C 9910   1.373   3.595   9.958  0.2692 -0.2781 -0.9098
  666TMC3     O 9911   1.276   3.655  10.002  0.5040 -0.4826 -0.0967
  666TMC3     H 9912   1.583   3.484   9.795  0.1807  0.4488  1.3127
  666TMC3    H1 9913   1.401   3.844   9.925 -0.6965  1.7394 -1.9360
  666TMC3    H2 9914   1.749   3.850   9.688 -1.3063  2.1389 -1.1010
  666TMC3    C7 9915   1.565   4.005   9.813  0.2363 -0.3237  0.7093
  666TMC3    C8 9916   1.765   3.571   9.674 -0.1593 -0.4781 -0.3491
  666TMC3    O1 9917   1.500   4.043   9.905  0.3025 -0.2827  0.3633
  666TMC3    O2 9918   1.784   3.467   9.730 -0.1378  0.5220 -0.4884
  667MPD2     C 9919   3.162   3.693  14.426 -0.3151 -0.1965  0.0436
  667MPD2    C1 9920   3.136   3.680  14.557  0.2075 -0.4983 -0.4102
  667MPD2    C2 9921   3.083   3.559  14.610 -0.2411  0.7319  0.6782
  667MPD2    C3 9922   3.048   3.459  14.523 -0.3389  0.1368 -0.2629
  667MPD2    C4 9923   3.079   3.468  14.387  0.5625  0.4756 -0.0716
  667MPD2    C5 9924   3.134   3.589  14.343 -0.0136  0.0636 -0.0165
  667MPD2     H 9925   3.065   3.553  14.717 -3.1415 -0.5294  0.0942
  667MPD2    H1 9926   3.054   3.389  14.317  1.4380  0.1710 -0.0395
  667MPD2    H2 9927   3.192   3.786  14.379 -2.5092  0.0854 -0.8509
  667MPD2    H3 9928   3.146   3.611  14.237  0.0426  0.8512  0.1570
  667MPD2     N 9929   2.979   3.344  14.566  0.2842 -0.0979 -0.2747
  667MPD2    H5 9930   2.937   3.290  14.491  1.3188  1.2811 -1.8341
  667MPD2    N1 9931   3.162   3.798  14.638 -0.0964  0.6439 -0.2151
  667MPD2    H7 9932   3.115   3.813  14.727 -0.8036 -0.2709 -0.4364
  668TMC3    C1 9933   3.231   4.011  14.709  0.5523  0.6545  0.6776
  668TMC3    C2 9934   3.296   4.128  14.693 -0.8926  0.9191  0.0343
  668TMC3    C3 9935   3.317   4.221  14.790 -0.4333 -0.9143  0.4722
  668TMC3    C4 9936   3.188   3.975  14.836  0.4626 -0.9500  0.1378
  668TMC3    C5 9937   3.217   4.068  14.933  0.0958 -0.1325  0.1088
  668TMC3    C6 9938   3.282   4.185  14.911 -0.7464  0.1157  0.2140
  668TMC3     C 9939   3.235   3.911  14.601 -0.3774 -0.4768  0.4304
  668TMC3     O 9940   3.309   3.936  14.507  0.3934  0.5324  0.0494
  668TMC3     H 9941   3.309   4.153  14.589 -0.3860 -0.6637 -0.2905
  668TMC3    H1 9942   3.128   3.887  14.856 -0.6153 -0.3529 -0.4331
  668TMC3    H2 9943   3.304   4.252  14.994  2.2860  0.5469 -0.9502
  668TMC3    C7 9944   3.205   4.031  15.074 -0.3847  0.2912  0.6021
  668TMC3    C8 9945   3.414   4.329  14.748 -0.1075  0.7263  0.4837
  668TMC3    O1 9946   3.283   4.091  15.148 -0.1243 -0.4130  1.2817
  668TMC3    O2 9947   3.444   4.343  14.632  0.9895  0.4939 -0.3814
  669TMC3    C1 9948   1.107   3.513  14.892  0.6635  0.5177 -0.3445
  669TMC3    C2 9949   1.027   3.467  14.790 -0.4744 -0.3049  1.3458
  669TMC3    C3 9950   1.066   3.492  14.664  0.6422 -0.6790  0.4073
  669TMC3    C4 9951   1.216   3.589  14.866 -0.0945  0.1334  0.3915
  669TMC3    C5 9952   1.247   3.613  14.735 -0.5078 -0.5409  0.6510
  669TMC3    C6 9953   1.176   3.558  14.629 -0.2560  0.1900 -0.1391
  669TMC3     C 9954   1.080   3.450  15.023 -0.1975  0.6489 -0.6206
  669TMC3     O 9955   0.973   3.393  15.034 -0.2363  0.0816 -0.3186
  669TMC3     H 9956   0.935   3.418  14.818 -0.3855 -1.0989  0.2466
  669TMC3    H1 9957   1.275   3.625  14.949 -0.3611 -1.9135  1.4626
  669TMC3    H2 9958   1.212   3.560  14.527 -0.6326 -0.3161 -0.2847
  669TMC3    C7 9959   1.374   3.676  14.696 -0.5775 -0.2744  0.5948
  669TMC3    C8 9960   0.971   3.465  14.559  0.0303 -0.0775  0.5621
  669TMC3    O1 9961   1.453   3.696  14.790  0.0733 -1.1383  0.0582
  669TMC3    O2 9962   0.877   3.391  14.596 -0.2576 -0.1949 -0.6604
  670MPD2     C 9963   4.195   0.927  13.580  0.0158  0.0595  0.2326
  670MPD2    C1 9964   4.288   0.961  13.678  0.3934  0.5056 -0.1305
  670MPD2    C2 9965   4.242   1.009  13.801  0.5079 -0.1202 -0.7454
  670MPD2    C3 9966   4.103   1.018  13.823 -0.3419  0.3832 -0.2050
  670MPD2    C4 9967   4.016   0.985  13.724 -1.1804 -0.3520  0.3805
  670MPD2    C5 9968   4.060   0.938  13.608 -0.0469  0.1729  0.1018
  670MPD2     H 9969   4.314   1.020  13.880 -1.2433  2.0952  0.5501
  670MPD2    H1 9970   3.909   0.975  13.737 -1.4476  0.2924 -1.3004
  670MPD2    H2 9971   4.217   0.890  13.480  1.0057 -1.3384  0.9737
  670MPD2    H3 9972   3.984   0.895  13.545  0.4358  3.4909 -2.7526
  670MPD2     N 9973   4.063   1.046  13.953 -0.2054 -0.2230 -0.0292
  670MPD2    H5 9974   4.132   1.098  14.006 -1.8781  2.0274 -0.0779
  670MPD2    N1 9975   4.427   0.954  13.657 -0.4453 -0.1200  0.5294
  670MPD2    H7 9976   4.486   0.980  13.735 -1.3621  2.4044  0.3800
  671TMC3    C1 9977   3.942   1.055  14.146 -0.2631  0.6543 -1.2288
  671TMC3    C2 9978   4.055   1.069  14.216  0.5065  0.1362  0.6686
  671TMC3    C3 9979   4.071   1.000  14.334  0.4811  0.0532  0.3939
  671TMC3    C4 9980   3.834   0.997  14.203 -0.5228 -0.3535  0.7867
  671TMC3    C5 9981   3.842   0.937  14.328  0.2895 -0.7033 -0.9332
  671TMC3    C6 9982   3.962   0.936  14.396 -0.0908 -1.2615  0.4894
  671TMC3     C 9983   3.943   1.030  13.999  0.3651  0.7666 -0.3802
  671TMC3     O 9984   3.848   0.972  13.957 -0.1233  0.0690  0.2682
  671TMC3     H 9985   4.151   1.092  14.171  1.0611 -0.4645  1.5513
  671TMC3    H1 9986   3.738   1.021  14.159  0.1000 -0.7868 -0.8142
  671TMC3    H2 9987   3.975   0.884  14.491  2.4738  1.0632  1.4164
  671TMC3    C7 9988   3.781   0.804  14.329  0.7403  0.2167 -0.9969
  671TMC3    C8 9989   4.192   0.917  14.328  0.0444  0.5938  0.3860
  671TMC3    O1 9990   3.788   0.733  14.425 -0.2485  0.3212 -0.6465
  671TMC3    O2 9991   4.224   0.848  14.231  0.3279 -0.4215  0.0586
  672MPD2     C 9992   4.107   1.378   1.307  0.3994 -0.4065 -0.8732
  672MPD2    C1 9993   4.210   1.317   1.248  0.6859  0.4398 -0.2019
  672MPD2    C2 9994   4.336   1.362   1.279  0.9112 -0.0048 -0.0504
  672MPD2    C3 9995   4.362   1.476   1.353  0.0562 -0.4572  0.1222
  672MPD2    C4 9996   4.248   1.539   1.410  0.1416 -0.6944  0.2810
  672MPD2    C5 9997   4.123   1.489   1.392 -0.3002  0.3748  0.0575
  672MPD2     H 9998   4.421   1.312   1.232  1.7815  1.0452  0.4210
  672MPD2    H1 9999   4.258   1.617   1.485 -0.0499 -1.0774  0.7010
  672MPD2    H210000   4.006   1.339   1.298  0.9200 -2.2552  1.5083
  672MPD2    H310001   4.032   1.520   1.442 -1.2781 -0.4621 -1.1963
  672MPD2     N10002   4.488   1.526   1.387 -0.2436  0.2109  0.7891
  672MPD2    H510003   4.480   1.613   1.439  0.4758  0.7782 -0.0506
  672MPD2    N110004   4.198   1.203   1.165  0.3784  0.0414 -0.3631
  672MPD2    H710005   4.276   1.149   1.128  0.4475  0.5639 -0.9849
  673TMC3    C110006   4.101   1.098   0.981 -0.3100 -0.3341  0.3335
  673TMC3    C210007   4.192   0.996   0.980  0.7227 -0.7054  0.0852
  673TMC3    C310008   4.235   0.960   0.853  0.3078 -0.3877 -0.1905
  673TMC3    C410009   4.047   1.154   0.877 -0.7804 -0.8001  0.3613
  673TMC3    C510010   4.093   1.121   0.753  0.4402 -0.0872 -0.0970
  673TMC3    C610011   4.189   1.021   0.739  0.4122 -0.7189 -0.3765
  673TMC3     C10012   4.077   1.172   1.107 -0.8337 -0.1139 -0.4991
  673TMC3     O10013   3.962   1.213   1.112  0.2797 -0.0074 -0.5813
  673TMC3     H10014   4.227   0.945   1.069 -0.8077  0.5408  1.3942
  673TMC3    H110015   3.962   1.222   0.885  0.2076  0.3084  1.4269
  673TMC3    H210016   4.228   1.002   0.639  0.0710  1.5980 -0.9376
  673TMC3    C710017   4.035   1.188   0.642 -0.7137  0.0516  0.3945
  673TMC3    C810018   4.333   0.856   0.823  0.6807 -0.0813  0.1537
  673TMC3    O110019   4.049   1.133   0.535 -0.3325 -0.2793 -0.1637
  673TMC3    O210020   4.334   0.814   0.706 -0.2297 -0.4099 -0.3490
  674MPD2     C10021   3.879   1.833   0.008  0.0628  0.4317  0.1835
  674MPD2    C110022   3.851   1.699   0.024 -0.0101  0.6542 -0.1626
  674MPD2    C210023   3.723   1.653   0.057  0.3746  0.4259 -0.0325
  674MPD2    C310024   3.623   1.746   0.076  0.4859 -0.1023 -0.0536
  674MPD2    C410025   3.648   1.876   0.045 -0.9538  0.7677  0.7455
  674MPD2    C510026   3.774   1.923   0.013  0.3121  0.2165  0.1544
  674MPD2     H10027   3.709   1.547   0.076  1.9408  0.1710 -0.2240
  674MPD2    H110028   3.568   1.948   0.032 -0.9401  0.5751 -0.4334
  674MPD2    H210029   3.977   1.877  17.731  0.1664  0.1254 -0.0300
  674MPD2    H310030   3.785   2.031   0.002 -0.4744  0.2323 -0.4541
  674MPD2     N10031   3.509   1.700   0.149  0.0666 -0.2058  0.2515
  674MPD2    H510032   3.497   1.601   0.167 -0.3643 -0.1771  0.1255
  674MPD2    N110033   3.956   1.609   0.029 -0.3149  0.6018  0.5376
  674MPD2    H710034   4.050   1.648   0.032 -1.9098  4.0302  4.9158
  675TMC3    C110035   4.061   1.400   0.074  0.0014 -0.4124 -0.4421
  675TMC3    C210036   4.049   1.263   0.056  0.4882 -0.0737  0.1124
  675TMC3    C310037   4.090   1.181   0.160 -0.5654 -0.1284 -0.2447
  675TMC3    C410038   4.116   1.455   0.190 -0.2480 -0.5061 -0.1008
  675TMC3    C510039   4.168   1.371   0.284 -0.4850 -0.5196  0.0843
  675TMC3    C610040   4.159   1.237   0.265 -0.6700 -0.2255  0.0908
  675TMC3     C10041   3.952   1.469   0.011 -0.4914 -0.4220  0.3209
  675TMC3     O10042   3.859   1.399  17.712 -0.6655  0.2262  0.2557
  675TMC3     H10043   3.992   1.218  17.714  0.7213  1.8744 -1.1495
  675TMC3    H110044   4.131   1.559   0.215  0.6996 -0.8615  0.7801
  675TMC3    H210045   4.193   1.181   0.351  0.1013  1.0486  0.6135
  675TMC3    C710046   4.262   1.427   0.379 -0.1624  0.4238 -0.0552
  675TMC3    C810047   4.058   1.039   0.162  0.0006  0.0828 -0.3049
  675TMC3    O110048   4.355   1.365   0.425 -0.0344 -0.5046 -0.1160
  675TMC3    O210049   4.018   0.993   0.055 -0.0911  0.2187 -0.1985
  676MPD2     C10050   2.598   4.547  10.648  0.7030 -0.2286 -0.1769
  676MPD2    C110051   2.498   4.506  10.734  0.1603 -0.7895 -0.4572
  676MPD2    C210052   2.448   4.380  10.724  0.2252 -0.4196 -0.1959
  676MPD2    C310053   2.514   4.280  10.650 -0.5560  1.0136  0.5570
  676MPD2    C410054   2.617   4.323  10.565 -0.2267  0.5171 -0.3349
  676MPD2    C510055   2.659   4.457  10.569  0.3713  0.5826 -0.7078
  676MPD2     H10056   2.379   4.356  10.804  1.2934  0.7546  1.0969
  676MPD2    H110057   2.665   4.254  10.497 -1.6820 -0.0268 -0.8149
  676MPD2    H210058   2.648   4.643  10.648  0.6366 -0.1952 -0.6934
  676MPD2    H310059   2.740   4.494  10.508 -0.1519  2.1427 -0.4711
  676MPD2     N10060   2.485   4.145  10.658 -0.5547 -0.4418  0.3429
  676MPD2    H510061   2.534   4.094  10.585 -0.0264  1.4955 -0.6646
  676MPD2    N110062   2.438   4.585  10.827 -0.2167  0.3715  0.6519
  676MPD2    H710063   2.398   4.531  10.903  1.5849 -0.8612  0.7319
  677TMC3    C110064   2.370   0.019  10.960  0.4763  0.0176  0.0857
  677TMC3    C210065   2.243   4.704  10.943 -0.0006 -0.0502  0.7957
  677TMC3    C310066   2.152   0.014  11.032 -0.3095 -0.2003  0.1151
  677TMC3    C410067   2.406   0.127  11.045  0.7315  0.0096  0.4877
  677TMC3    C510068   2.302   0.185  11.112  0.0364 -0.0580 -0.3900
  677TMC3    C610069   2.180   0.121  11.113 -0.7569  0.4970 -0.0034
  677TMC3     C10070   2.467   4.714  10.860  0.7529 -0.1405  0.3245
  677TMC3     O10071   2.545   0.062  10.817 -0.8439  0.2607  0.8644
  677TMC3     H10072   2.209   4.620  10.884  1.4663 -0.0614 -0.0175
  677TMC3    H110073   2.506   0.169  11.044  0.0204  1.6661 -2.5690
  677TMC3    H210074   2.092   0.163  11.160 -0.0497  0.3398  1.4930
  677TMC3    C710075   2.316   0.251  11.236 -0.2669 -0.0685  0.1644
  677TMC3    C810076   2.027   4.666  11.034  1.2559  0.3465  1.0222
  677TMC3    O110077   2.223   0.242  11.317  0.8543  0.0147  0.0182
  677TMC3    O210078   1.979   4.638  10.924  0.1497 -0.0577  0.8019
  678MPD2     C10079   3.469   4.510   1.650  0.1618 -0.2465  0.1176
  678MPD2    C110080   3.482   4.562   1.521  0.0502 -0.4905  0.1801
  678MPD2    C210081   3.385   4.645   1.460  0.8060  0.3405  0.1573
  678MPD2    C310082   3.263   4.657   1.528  0.2580  0.9917 -0.3669
  678MPD2    C410083   3.243   4.588   1.643 -0.0145  0.7551 -0.4137
  678MPD2    C510084   3.343   4.520   1.699  0.0258 -0.4092  0.4004
  678MPD2     H10085   3.413   4.701   1.372  1.0109 -0.1468 -0.0874
  678MPD2    H110086   3.147   4.586   1.693  1.8568 -1.7000  3.0530
  678MPD2    H210087   3.546   4.459   1.706  0.2509  0.9776  1.1329
  678MPD2    H310088   3.317   4.472   1.793 -2.1006  0.4876  0.2682
  678MPD2     N10089   3.166   0.009   1.474  0.4923 -0.4336  0.8622
  678MPD2    H510090   3.188   0.058   1.388 -1.0165  0.7861  1.1544
  678MPD2    N110091   3.607   4.553   1.460  0.0603 -0.5404 -0.1469
  678MPD2    H710092   3.620   4.584   1.364 -0.4782  1.3572  0.4025
  679TMC3    C110093   4.043   4.392   1.351  0.3205 -0.0509 -0.6869
  679TMC3    C210094   3.927   4.386   1.425  0.3004  0.1634  0.1795
  679TMC3    C310095   3.836   4.489   1.421 -0.1131 -0.2892  1.0889
  679TMC3    C410096   4.068   4.499   1.277  0.4628  0.0963  0.0051
  679TMC3    C510097   3.979   4.606   1.286  0.2743  0.3314 -0.3068
  679TMC3    C610098   3.865   4.607   1.359 -0.4351 -0.4814  0.1045
  679TMC3     C10099   4.081   4.276   1.278  0.2681  0.1057 -0.0521
  679TMC3     O10100   4.092   4.300   1.158 -0.0459  0.4465 -0.2901
  679TMC3     H10101   3.913   4.293   1.479  0.8588 -1.1875 -1.9766
  679TMC3    H110102   4.169   4.501   1.238  1.6490 -0.6708  3.0624
  679TMC3    H210103   3.803   4.695   1.368 -0.8961 -0.8826  0.8903
  679TMC3    C710104   3.965   4.673   1.158 -0.7880  0.9698 -0.6056
  679TMC3    C810105   3.719   4.490   1.503 -0.0994 -0.7051 -0.5109
  679TMC3    O110106   3.878   0.024   1.148  0.2751  0.2003 -0.2868
  679TMC3    O210107   3.728   4.422   1.603  0.1945  0.1162 -0.0555
  680MPD2     C10108   3.698   3.567  13.844 -0.1312 -0.1469 -0.3181
  680MPD2    C110109   3.762   3.475  13.932  0.2586 -0.0544  0.3084
  680MPD2    C210110   3.856   3.530  14.026  0.2131  0.4945  0.1592
  680MPD2    C310111   3.875   3.668  14.032  0.0343 -0.3798  0.1608
  680MPD2    C410112   3.807   3.750  13.948  0.2298 -0.9371 -0.1477
  680MPD2    C510113   3.718   3.703  13.855 -0.3487  0.2266  0.7400
  680MPD2     H10114   3.921   3.465  14.084 -1.1569  0.1625  1.3139
  680MPD2    H110115   3.826   3.856  13.953 -1.1199 -0.6579 -0.8532
  680MPD2    H210116   3.630   3.541  13.763 -1.8976  1.4600  0.6369
  680MPD2    H310117   3.665   3.775  13.794  0.8405  1.0537  0.6929
  680MPD2     N10118   3.970   3.735  14.115  0.1263 -0.3633 -0.0121
  680MPD2    H510119   3.971   3.835  14.101 -0.5466 -0.2402  0.8494
  680MPD2    N110120   3.745   3.338  13.926 -0.8556 -0.5345  0.2110
  680MPD2    H710121   3.783   3.290  14.007  0.5213  1.3271  0.6856
  681TMC3    C110122   3.731   3.124  13.834  0.6233  0.0934  0.3939
  681TMC3    C210123   3.709   3.070  13.957 -0.2873  0.6420 -0.7882
  681TMC3    C310124   3.721   2.931  13.965 -0.0413  0.4724  0.3749
  681TMC3    C410125   3.765   3.054  13.722 -0.1608 -0.0362  0.3164
  681TMC3    C510126   3.774   2.916  13.741 -0.0224  0.4839  0.5093
  681TMC3    C610127   3.741   2.856  13.853 -0.6138  0.6020  0.3641
  681TMC3     C10128   3.701   3.266  13.818 -0.2637 -0.1790  0.2797
  681TMC3     O10129   3.655   3.310  13.712  0.1675 -0.8805 -0.5191
  681TMC3     H10130   3.648   3.115  14.034 -1.3919 -0.5551 -0.9663
  681TMC3    H110131   3.783   3.113  13.632  1.5778 -1.7148 -0.4296
  681TMC3    H210132   3.740   2.748  13.857  0.8035  0.5841  0.1933
  681TMC3    C710133   3.833   2.833  13.635 -0.1278 -0.2206 -0.3908
  681TMC3    C810134   3.692   2.865  14.089 -0.3602 -0.3465 -0.6671
  681TMC3    O110135   3.818   2.710  13.641 -0.0880 -0.7116  0.0360
  681TMC3    O210136   3.662   2.748  14.082  0.3691 -0.2298  0.9201
  682MPD2     C10137   1.773   0.380  10.543 -0.5909  0.3440  0.2510
  682MPD2    C110138   1.645   0.337  10.538  0.0169 -0.2478 -0.1381
  682MPD2    C210139   1.564   0.364  10.646  0.6032 -0.3025 -0.5573
  682MPD2    C310140   1.611   0.425  10.760 -0.9803  0.5607  1.1547
  682MPD2    C410141   1.745   0.446  10.766 -0.5891  0.2606  0.4556
  682MPD2    C510142   1.823   0.437  10.652  0.1197 -0.1691 -0.1282
  682MPD2     H10143   1.463   0.328  10.632  0.0635  1.2834 -0.7171
  682MPD2    H110144   1.795   0.483  10.855 -2.9471  0.0002  1.8724
  682MPD2    H210145   1.851   0.347  10.476 -1.2148 -0.3628 -0.1210
  682MPD2    H310146   1.928   0.462  10.667  0.0809  0.8215 -1.5428
  682MPD2     N10147   1.545   0.429  10.881  0.7191 -0.3334  0.1199
  682MPD2    H510148   1.602   0.462  10.958 -0.3818 -1.6255  1.4900
  682MPD2    N110149   1.581   0.278  10.429  0.3172  0.6860  0.7472
  682MPD2    H710150   1.481   0.265  10.440  0.3647 -2.3068 -2.5375
  683TMC3    C110151   1.413   0.312  11.244 -0.0270 -0.6837  1.3177
  683TMC3    C210152   1.326   0.206  11.234  0.2690 -0.0634  0.5007
  683TMC3    C310153   1.250   0.194  11.123  0.0711  0.3944 -0.1292
  683TMC3    C410154   1.438   0.395  11.141 -0.6962 -0.0081 -0.4528
  683TMC3    C510155   1.366   0.370  11.026 -0.6397  0.8466 -0.0562
  683TMC3    C610156   1.274   0.269  11.017 -0.2443 -1.2545 -0.1584
  683TMC3     C10157   1.460   0.354  11.376 -0.1187 -0.2203  0.2499
  683TMC3     O10158   1.494   0.471  11.390 -0.0695 -0.4501 -0.4418
  683TMC3     H10159   1.300   0.141  11.316 -3.8404 -0.6204 -1.2574
  683TMC3    H110160   1.516   0.470  11.144 -0.2307 -0.4217 -2.0626
  683TMC3    H210161   1.200   0.249  10.941 -0.7636 -0.9277  0.2656
  683TMC3    C710162   1.417   0.402  10.894 -0.3580  0.3403 -0.2463
  683TMC3    C810163   1.196   0.065  11.093  0.8877  0.2493 -0.1427
  683TMC3    O110164   1.338   0.373  10.810  0.1490 -0.5708  0.2090
  683TMC3    O210165   1.103   0.063  11.013 -0.0900  0.2717 -0.2319
  684MPD2     C10166   4.309   3.641  16.416 -0.4041  0.1681 -0.5637
  684MPD2    C110167   4.334   3.718  16.305  0.0546 -0.2820  0.4466
  684MPD2    C210168   4.344   3.852  16.316 -0.1574 -0.5362 -0.4546
  684MPD2    C310169   4.328   3.911  16.439  0.7286  0.1473 -0.1134
  684MPD2    C410170   4.309   3.836  16.549 -0.1687 -0.1914 -0.1927
  684MPD2    C510171   4.295   3.703  16.534 -0.5000  0.8431  0.1572
  684MPD2     H10172   4.348   3.911  16.225  1.2553  0.0442 -0.0176
  684MPD2    H110173   4.284   3.884  16.643  0.6774 -0.0287 -0.0500
  684MPD2    H210174   4.310   3.533  16.408 -0.0284  0.1688 -0.5475
  684MPD2    H310175   4.267   3.645  16.620 -0.3582  1.4450  0.6109
  684MPD2     N10176   4.289   4.052  16.456  0.0097  0.1406  0.5869
  684MPD2    H510177   4.273   4.080  16.552 -0.5705 -3.9072  1.6892
  684MPD2    N110178   4.343   3.666  16.174  0.0501 -0.2972  1.1277
  684MPD2    H710179   4.375   3.732  16.104  1.5285 -0.2254  1.8735
  685TMC3    C110180   4.252   3.578  15.993 -0.2198 -0.3380  0.2743
  685TMC3    C210181   4.164   3.674  15.944 -0.0180 -0.4294  0.1426
  685TMC3    C310182   4.188   3.722  15.815  0.1932 -0.0666 -0.5751
  685TMC3    C410183   4.371   3.559  15.925  0.4253 -0.2366  0.6599
  685TMC3    C510184   4.379   3.601  15.792 -0.1185 -0.3869  0.3129
  685TMC3    C610185   4.297   3.689  15.734 -0.2828 -0.0406 -0.0597
  685TMC3     C10186   4.259   3.565  16.136 -0.0347 -0.5729 -0.4460
  685TMC3     O10187   4.160   3.515  16.191  0.5855  0.2430  0.3754
  685TMC3     H10188   4.071   3.685  15.998 -0.0657 -0.6177  0.0998
  685TMC3    H110189   4.434   3.491  15.982 -2.2837 -1.1469  2.5766
  685TMC3    H210190   4.304   3.736  15.637 -1.3129 -2.4519 -1.3005
  685TMC3    C710191   4.512   3.628  15.750 -0.3745  0.1028 -0.5069
  685TMC3    C810192   4.092   3.802  15.749  0.3492 -0.7486 -0.6990
  685TMC3    O110193   4.543   3.638  15.632 -0.6843  0.4102 -0.7305
  685TMC3    O210194   4.071   3.782  15.631 -0.3174  0.5663  0.0268
  686MPD2     C10195   1.063   4.176  15.610 -0.1679  0.1576 -0.4216
  686MPD2    C110196   1.060   4.043  15.632  0.1140  0.1562  0.0787
  686MPD2    C210197   1.093   3.953  15.533 -0.0797 -0.3305 -0.2310
  686MPD2    C310198   1.103   3.996  15.408 -0.3713 -0.9563 -0.1939
  686MPD2    C410199   1.124   4.129  15.387  0.2650 -0.7174  0.0908
  686MPD2    C510200   1.123   4.218  15.494  1.0455 -0.0791  0.4484
  686MPD2     H10201   1.095   3.848  15.561  2.4699 -0.1446  0.3421
  686MPD2    H110202   1.162   4.174  15.296 -0.7756  1.3533  0.6769
  686MPD2    H210203   1.040   4.250  15.686 -2.1459 -0.8624 -0.0239
  686MPD2    H310204   1.141   4.324  15.487  3.2623 -0.4215  0.9988
  686MPD2     N10205   1.113   3.913  15.290  0.3431 -0.2988  0.3461
  686MPD2    H510206   1.141   3.961  15.205  0.3257 -1.2059 -0.1754
  686MPD2    N110207   1.004   4.005  15.759 -0.0777  0.0817  0.0641
  686MPD2    H710208   0.954   4.080  15.806 -2.4481 -0.9481 -0.8071
  687TMC3    C110209   1.017   3.693  15.364 -0.2128 -0.4081 -0.5354
  687TMC3    C210210   0.892   3.733  15.406  0.5083  0.1953 -0.2971
  687TMC3    C310211   0.838   3.672  15.515 -0.3507  0.7339  0.3335
  687TMC3    C410212   1.091   3.598  15.430  0.4322 -0.2962  0.0650
  687TMC3    C510213   1.037   3.551  15.543 -0.5012 -0.0109  0.8878
  687TMC3    C610214   0.907   3.575  15.580  0.4695 -0.4320  0.4284
  687TMC3     C10215   1.081   3.777  15.259  0.1025 -0.2129  0.2385
  687TMC3     O10216   1.090   3.727  15.147 -1.1047  0.1340 -0.0131
  687TMC3     H10217   0.843   3.811  15.348 -1.5553 -0.3470  0.7147
  687TMC3    H110218   1.194   3.573  15.406  0.2944 -0.3412 -0.4720
  687TMC3    H210219   0.857   3.514  15.655  0.3236 -1.4483 -0.4861
  687TMC3    C710220   1.111   3.459  15.634  0.0462 -0.7554  0.1694
  687TMC3    C810221   0.705   3.718  15.563 -0.3140  0.4409 -0.1456
  687TMC3    O110222   1.049   3.381  15.701 -0.0618  0.0061 -0.3433
  687TMC3    O210223   0.667   3.656  15.663 -0.3195  0.2812 -0.6561
  688MPD2     C10224   4.576   2.658  17.581 -0.1157 -0.2573  0.5838
  688MPD2    C110225   4.636   2.538  17.610 -0.0001 -0.4579  0.1197
  688MPD2    C210226   0.013   2.504  17.528 -0.0200 -0.7672  0.8668
  688MPD2    C310227   0.065   2.586  17.430  0.2152 -0.1073 -0.0919
  688MPD2    C410228   0.001   2.705  17.409  0.4922 -0.1802 -0.4613
  688MPD2    C510229   4.630   2.740  17.489  0.8510  0.2034 -0.0547
  688MPD2     H10230   0.059   2.407  17.535  0.8749 -0.3755  0.4560
  688MPD2    H110231   0.030   2.775  17.331 -1.6302  1.0180 -0.1781
  688MPD2    H210232   4.488   2.696  17.632 -0.7008  0.0512 -0.6580
  688MPD2    H310233   4.586   2.838  17.475  1.9640  0.9188  1.4107
  688MPD2     N10234   0.170   2.551  17.337 -0.0750  0.3421  0.1648
  688MPD2    H510235   0.191   2.613  17.260 -1.3642  1.2540  0.5450
  688MPD2    N110236   4.605   2.456  17.723 -0.0505 -0.6013 -0.2513
  688MPD2    H710237   4.660   2.372  17.731  0.4477 -0.2722 -0.1823
  689TMC3    C110238   4.519   2.411   0.201  0.3168  0.5476 -0.3289
  689TMC3    C210239   4.519   2.476   0.316  0.1042  0.1152 -0.7026
  689TMC3    C310240   4.451   2.414   0.420  0.3425 -1.1280  0.0274
  689TMC3    C410241   4.447   2.300   0.175  0.5546  0.4050 -0.0985
  689TMC3    C510242   4.372   2.247   0.281  0.5367  0.1126 -0.2464
  689TMC3    C610243   4.386   2.302   0.412  0.2514 -0.5953  0.5610
  689TMC3     C10244   4.518   2.493   0.086 -0.8422 -0.2116 -0.5687
  689TMC3     O10245   4.478   2.609   0.108 -0.0676  0.3255  0.3422
  689TMC3     H10246   4.583   2.562   0.331  0.4152 -0.4799  1.3229
  689TMC3    H110247   4.440   2.254   0.077 -0.6651 -1.9078  1.0700
  689TMC3    H210248   4.313   2.274   0.487  0.8914 -0.0515  1.3859
  689TMC3    C710249   4.309   2.119   0.265  0.5025  0.4135  0.5932
  689TMC3    C810250   4.450   2.479   0.555  0.5534  0.0857 -0.2053
  689TMC3    O110251   4.282   2.043   0.359  0.2448  0.1134 -0.5404
  689TMC3    O210252   4.415   2.405   0.645 -0.2684 -1.1173 -0.2436
  690MPD2     C10253   2.457   0.014  15.935 -0.0695 -0.1056  1.1129
  690MPD2    C110254   2.413   0.007  15.807  0.1025 -0.6687  0.1668
  690MPD2    C210255   2.490   0.039  15.698  0.3798 -0.2893 -0.0572
  690MPD2    C310256   2.618   0.096  15.710 -0.7402 -0.7270  0.1615
  690MPD2    C410257   2.654   0.113  15.843 -0.3088  0.4312 -0.0589
  690MPD2    C510258   2.583   0.060  15.952 -0.3978 -0.2901  0.6916
  690MPD2     H10259   2.450   0.021  15.599 -2.1077 -2.2259  1.3179
  690MPD2    H110260   2.748   0.159  15.870 -0.1783  0.2056 -0.1274
  690MPD2    H210261   2.396   4.714  16.018 -2.3501  0.4128 -0.3407
  690MPD2    H310262   2.617   0.051  16.055  0.7888  0.3460  0.3546
  690MPD2     N10263   2.690   0.124  15.595 -0.1586  0.0882 -0.0992
  690MPD2    H510264   2.638   0.116  15.508  1.0371  0.6693 -0.8530
  690MPD2    N110265   2.293   4.680  15.771 -0.7117  0.1941 -0.5968
  690MPD2    H710266   2.287   4.664  15.671  1.5369  0.1815 -0.7178
  691TMC3    C110267   2.101   4.552  15.791  0.1934 -0.1999 -0.3583
  691TMC3    C210268   1.983   4.538  15.855 -0.1240 -0.1356  0.6095
  691TMC3    C310269   1.908   4.424  15.833 -0.1006  0.3362 -0.4887
  691TMC3    C410270   2.152   4.454  15.706 -0.5402 -0.0285 -0.2636
  691TMC3    C510271   2.083   4.338  15.687 -0.2831 -0.0331 -0.4295
  691TMC3    C610272   1.962   4.323  15.751 -0.2825 -0.0244  0.3747
  691TMC3     C10273   2.197   4.635  15.860  0.4017  0.1041  0.2372
  691TMC3     O10274   2.190   4.633  15.983  0.4426  0.5020 -0.4706
  691TMC3     H10275   1.967   4.619  15.926 -1.0284  1.5241 -1.5207
  691TMC3    H110276   2.242   4.474  15.648  0.1408 -1.7573  0.2011
  691TMC3    H210277   1.897   4.238  15.731 -0.3674 -0.1132  1.0322
  691TMC3    C710278   2.172   4.221  15.685 -0.1047 -0.3101  0.1237
  691TMC3    C810279   1.798   4.393  15.911  0.4200  0.5007  0.5025
  691TMC3    O110280   2.291   4.237  15.676  0.4194 -0.8446  0.6285
  691TMC3    O210281   1.778   4.279  15.950 -0.3462 -0.1212  0.3739
  692TMC3    C110282   3.934   0.568  15.659 -0.8694  0.2374 -0.0960
  692TMC3    C210283   4.061   0.616  15.683  0.3035 -0.2331 -0.6043
  692TMC3    C310284   4.167   0.528  15.705  0.3065  0.2575  0.4420
  692TMC3    C410285   3.909   0.432  15.660 -0.1366  0.7936 -0.2027
  692TMC3    C510286   4.009   0.349  15.693 -0.1067  0.5229 -0.0082
  692TMC3    C610287   4.137   0.395  15.721  0.6057  0.2700 -0.1895
  692TMC3     C10288   3.828   0.650  15.714 -0.4594  1.6853 -0.1689
  692TMC3     O10289   3.722   0.597  15.731  0.6451  0.4528 -0.2173
  692TMC3     H10290   4.083   0.719  15.657 -0.4208 -0.4377 -2.0085
  692TMC3    H110291   3.808   0.398  15.643  0.5333 -1.1855 -0.1371
  692TMC3    H210292   4.215   0.320  15.725 -1.2164 -1.7735 -2.8921
  692TMC3    C710293   3.990   0.202  15.681 -0.3727  0.0737 -0.1216
  692TMC3    C810294   4.258   0.572  15.811 -0.0955  0.2179  0.6185
  692TMC3    O110295   3.910   0.170  15.590  0.1698  0.0021  0.1817
  692TMC3    O210296   4.341   0.485  15.838 -0.6763  0.1368  0.3253
  693MPD2     C10297   3.989   4.125  10.617 -0.3274  0.0597 -0.1682
  693MPD2    C110298   3.910   4.013  10.637  0.4723  0.1477 -0.1880
  693MPD2    C210299   3.958   3.928  10.737 -0.2497  0.1414 -1.1198
  693MPD2    C310300   4.082   3.941  10.801  0.0264  0.4694  0.4827
  693MPD2    C410301   4.166   4.051  10.757 -0.3753 -0.1607 -0.4642
  693MPD2    C510302   4.113   4.142  10.671  0.8802  0.6430  0.5075
  693MPD2     H10303   3.896   3.842  10.758 -0.3367  0.7793  1.2459
  693MPD2    H110304   4.261   4.071  10.804 -0.9540  0.7762  0.3001
  693MPD2    H210305   3.970   4.193  10.535  0.6485  0.9593  0.3386
  693MPD2    H310306   4.170   4.230  10.642  1.0749  0.2272 -0.3857
  693MPD2     N10307   4.111   3.850  10.903  0.0684 -0.1500  0.4726
  693MPD2    H510308   4.037   3.784  10.923 -1.2841  1.4460  0.7571
  693MPD2    N110309   3.776   4.013  10.585  0.1702  0.4347 -0.5106
  693MPD2    H710310   3.752   4.099  10.538  3.6276  0.7411 -1.7074
  694TMC3    C110311   3.581   3.901  10.518  0.4121  0.0471 -0.9730
  694TMC3    C210312   3.545   3.775  10.473  0.0553  0.0728 -0.0072
  694TMC3    C310313   3.419   3.733  10.513 -0.2909  0.3565  0.7365
  694TMC3    C410314   3.496   3.972  10.600 -0.7306  0.6774 -0.0041
  694TMC3    C510315   3.374   3.925  10.633 -0.0340  0.3045 -0.7673
  694TMC3    C610316   3.332   3.806  10.590  0.2777 -0.9292 -0.4579
  694TMC3     C10317   3.713   3.893  10.570  0.7635 -0.1152  0.6483
  694TMC3     O10318   3.756   3.782  10.590  0.2092  0.3682 -0.5330
  694TMC3     H10319   3.614   3.710  10.420 -2.4630 -0.0893 -3.0649
  694TMC3    H110320   3.530   4.069  10.635 -0.8000  1.3547 -1.8342
  694TMC3    H210321   3.234   3.762  10.606 -0.7475  1.7189  0.5810
  694TMC3    C710322   3.298   3.990  10.736  0.1029 -0.4618  0.6000
  694TMC3    C810323   3.357   3.625  10.443 -0.1561 -0.0999  0.7104
  694TMC3    O110324   3.323   4.110  10.755 -0.1424 -0.3701 -0.7968
  694TMC3    O210325   3.241   3.597  10.476 -0.1478 -0.0577 -0.2197
  695MPD2     C10326   4.599   0.415  13.522 -0.0729 -0.1667  0.1663
  695MPD2    C110327   4.529   0.449  13.632 -0.3795 -0.4394  0.1828
  695MPD2    C210328   4.399   0.491  13.622 -0.2686 -0.1332  0.1265
  695MPD2    C310329   4.334   0.499  13.499 -0.4995 -0.3148  1.3694
  695MPD2    C410330   4.399   0.461  13.385  0.0825 -0.4054  1.0550
  695MPD2    C510331   4.529   0.421  13.401  0.1150  0.5420 -1.1062
  695MPD2     H10332   4.333   0.525  13.701 -0.4156  3.2749 -1.4833
  695MPD2    H110333   4.354   0.443  13.288 -0.2011 -0.0473  1.1209
  695MPD2    H210334   4.699   0.375  13.531 -0.7855 -2.2897 -1.3728
  695MPD2    H310335   4.580   0.378  13.316  0.2597  0.4067 -0.9521
  695MPD2     N10336   4.202   0.549  13.505 -0.5617  0.6841  0.1236
  695MPD2    H510337   4.174   0.578  13.598 -1.6092 -0.9257  0.2989
  695MPD2    N110338   4.583   0.442  13.761 -0.4813 -0.1662 -0.1055
  695MPD2    H710339   4.537   0.497  13.833  0.6535  0.1166  0.4066
  696TMC3    C110340   3.982   0.601  13.422  0.4075 -0.0993 -0.3519
  696TMC3    C210341   3.918   0.563  13.541 -0.8936  0.0504 -0.4692
  696TMC3    C310342   3.793   0.606  13.561  0.1998  0.1955  0.5189
  696TMC3    C410343   3.918   0.676  13.324  0.2940 -0.1150  0.0219
  696TMC3    C510344   3.791   0.717  13.360 -0.4095 -0.0371 -0.0708
  696TMC3    C610345   3.726   0.681  13.467 -0.0835  0.4317  0.3450
  696TMC3     C10346   4.120   0.566  13.399 -0.3782  0.4946 -0.8892
  696TMC3     O10347   4.149   0.569  13.280 -0.1595  0.1372  0.4097
  696TMC3     H10348   3.957   0.472  13.586 -3.6177 -1.1093 -0.4080
  696TMC3    H110349   3.970   0.718  13.239 -3.3786 -1.0703 -2.6758
  696TMC3    H210350   3.626   0.718  13.484 -0.9461 -1.7995  0.0722
  696TMC3    C710351   3.786   0.860  13.332 -0.0360  0.4072 -0.0949
  696TMC3    C810352   3.745   0.632  13.697 -0.2741 -0.2862 -0.5892
  696TMC3    O110353   3.851   0.896  13.236  0.0100 -0.1446 -0.2290
  696TMC3    O210354   3.677   0.732  13.712 -0.0723  0.1288 -0.1383
  697MPD2     C10355   3.574   2.365  15.865  0.0097  0.0763 -1.0917
  697MPD2    C110356   3.555   2.321  15.730  0.5106  0.2790  0.2475
  697MPD2    C210357   3.580   2.416  15.636 -0.0583 -0.0168 -0.5076
  697MPD2    C310358   3.642   2.537  15.654 -0.3960  0.7071  0.7821
  697MPD2    C410359   3.669   2.576  15.784 -0.2267 -0.2105 -0.0705
  697MPD2    C510360   3.630   2.492  15.891  0.5121  0.1474  0.3010
  697MPD2     H10361   3.556   2.382  15.535 -1.0561  0.5909 -0.4726
  697MPD2    H110362   3.701   2.677  15.809 -0.6538 -0.5787  1.9494
  697MPD2    H210363   3.537   2.306  15.948 -0.4987 -0.3966 -1.6564
  697MPD2    H310364   3.629   2.534  15.991 -1.1874  1.3102 -0.1995
  697MPD2     N10365   3.679   2.615  15.537  0.7695  0.5503  0.0688
  697MPD2    H510366   3.648   2.577  15.449 -0.1861  0.2215  0.5446
  697MPD2    N110367   3.511   2.194  15.687  0.4258  0.0112  1.1348
  697MPD2    H710368   3.514   2.176  15.588  1.9503  0.8788  1.0339
  698TMC3    C110369   3.774   2.796  15.410 -0.3110 -0.2459 -0.9974
  698TMC3    C210370   3.766   2.934  15.407  0.4071  0.0401 -0.2046
  698TMC3    C310371   3.707   2.982  15.297  0.2627  0.0366 -0.5709
  698TMC3    C410372   3.752   2.708  15.302  0.1982  0.6308 -0.8156
  698TMC3    C510373   3.719   2.771  15.181  0.8332  0.1273  0.2857
  698TMC3    C610374   3.701   2.915  15.181  0.1575  0.9193  0.1855
  698TMC3     C10375   3.740   2.740  15.540 -0.2490  0.0595 -0.4591
  698TMC3     O10376   3.781   2.805  15.632  0.0796  0.4888  0.4140
  698TMC3     H10377   3.771   2.989  15.501 -1.2209  0.8558 -0.5858
  698TMC3    H110378   3.763   2.601  15.309 -0.9521  0.4742 -1.2576
  698TMC3    H210379   3.674   2.971  15.092  3.6592  0.9158 -0.8672
  698TMC3    C710380   3.661   2.684  15.076 -0.2510 -1.1732  0.2793
  698TMC3    C810381   3.719   3.121  15.272  0.0053 -0.0934 -0.6166
  698TMC3    O110382   3.565   2.731  15.015 -0.2275  0.6475  0.4370
  698TMC3    O210383   3.627   3.172  15.210  0.2191  0.5599 -0.7195
  699TMC3    C110384   3.779   0.963  12.840  0.5195  0.3833 -0.4986
  699TMC3    C210385   3.809   0.831  12.854 -0.3972 -0.1955  0.5455
  699TMC3    C310386   3.732   0.759  12.945 -0.0695  0.0695  0.4757
  699TMC3    C410387   3.669   1.030  12.907  0.4995 -0.6062 -0.1122
  699TMC3    C510388   3.610   0.955  13.006 -0.6247 -0.3826 -0.6795
  699TMC3    C610389   3.646   0.824  13.022 -0.0779 -0.4465 -1.0827
  699TMC3     C10390   3.844   1.049  12.745 -0.5838  0.3531 -0.7277
  699TMC3     O10391   3.781   1.147  12.704  0.1222 -0.8394 -0.0324
  699TMC3     H10392   3.881   0.780  12.791 -1.5443 -1.0425 -0.0734
  699TMC3    H110393   3.635   1.128  12.878 -0.9175 -1.5977 -1.7783
  699TMC3    H210394   3.599   0.774  13.106 -1.2346  0.0129 -1.4551
  699TMC3    C710395   3.497   1.007  13.079 -0.7663  0.2309 -0.1209
  699TMC3    C810396   3.749   0.621  12.983 -0.6386 -0.2478 -0.4986
  699TMC3    O110397   3.476   0.945  13.184 -0.0396 -0.3497 -0.2986
  699TMC3    O210398   3.681   0.571  13.074  0.2496  0.1489 -0.2188
  700TMC3    C110399   2.272   3.211  17.216 -0.1376  0.5904 -0.1259
  700TMC3    C210400   2.340   3.093  17.202 -0.7397 -0.4438 -0.0886
  700TMC3    C310401   2.453   3.072  17.282 -0.3732 -0.6813  0.4083
  700TMC3    C410402   2.312   3.306  17.303 -0.2796 -0.6006  0.2738
  700TMC3    C510403   2.428   3.281  17.377  0.4196  1.0934  0.6411
  700TMC3    C610404   2.504   3.168  17.361  1.1325 -0.0892 -0.6800
  700TMC3     C10405   2.262   3.276  17.089 -0.1328  0.2017  0.4515
  700TMC3     O10406   2.175   3.250  17.011 -0.2411 -0.0151 -0.4134
  700TMC3     H10407   2.317   3.030  17.118 -0.3870  0.2027 -0.6735
  700TMC3    H110408   2.262   3.402  17.310  1.3368  0.1773  1.1514
  700TMC3    H210409   2.593   3.145  17.419  1.2954  1.4661 -0.3004
  700TMC3    C710410   2.491   3.399  17.424  0.9165  0.2554 -0.9255
  700TMC3    C810411   2.528   2.954  17.277 -0.3206  0.2137  0.2319
  700TMC3    O110412   2.615   3.415  17.406 -0.1828  0.3527 -0.3138
  700TMC3    O210413   2.649   2.958  17.291 -0.1264  0.5563  0.0264
  701TMC3    C110414   2.731   2.011  15.333  0.2616 -0.4602 -1.4434
  701TMC3    C210415   2.807   1.958  15.230  0.3798  0.4784 -0.3817
  701TMC3    C310416   2.945   1.946  15.237 -0.0423 -0.3042  0.2110
  701TMC3    C410417   2.809   2.052  15.443  0.4531 -0.2287 -0.3962
  701TMC3    C510418   2.943   2.026  15.456 -0.4548  0.3231 -0.0844
  701TMC3    C610419   3.016   1.968  15.352 -0.0625 -0.3652 -0.0987
  701TMC3     C10420   2.590   2.039  15.337  0.0237 -0.3552 -0.3433
  701TMC3     O10421   2.560   2.128  15.416  0.2011 -0.8100 -0.2640
  701TMC3     H10422   2.758   1.948  15.133 -0.4347  1.1522 -0.0423
  701TMC3    H110423   2.753   2.112  15.515 -2.8377 -0.5618 -2.6998
  701TMC3    H210424   3.114   1.928  15.372  1.0801  1.5438 -1.9109
  701TMC3    C710425   3.026   2.104  15.539 -0.2848  0.1440 -0.1048
  701TMC3    C810426   3.019   1.923  15.117 -0.8557  0.5641 -0.2282
  701TMC3    O110427   3.145   2.118  15.506  0.5483  0.1858  0.4033
  701TMC3    O210428   3.133   1.964  15.115 -0.4509 -0.3146 -0.7072
  702MPD2     C10429   2.466   3.922  10.131  0.7249 -0.1347 -0.3260
  702MPD2    C110430   2.570   3.938  10.221 -0.8884  0.1101 -0.1035
  702MPD2    C210431   2.642   4.050  10.221 -0.1921  0.1531  0.0826
  702MPD2    C310432   2.621   4.156  10.131 -0.0667 -0.7136 -0.3223
  702MPD2    C410433   2.513   4.141  10.041  1.2777 -0.4325  0.0760
  702MPD2    C510434   2.442   4.026  10.041 -0.6217  1.0327  0.0490
  702MPD2     H10435   2.710   4.070  10.302 -0.7843  0.5167  0.4953
  702MPD2    H110436   2.487   4.224   9.976 -0.4647 -0.4953  0.6999
  702MPD2    H210437   2.401   3.834  10.130  1.2151 -0.4595 -2.3290
  702MPD2    H310438   2.372   4.004   9.962 -1.3420 -1.2540  1.3435
  702MPD2     N10439   2.684   4.281  10.145  0.4119  0.2764  0.1285
  702MPD2    H510440   2.647   4.359  10.092 -1.0103 -0.4105  0.1312
  702MPD2    N110441   2.583   3.851  10.337  0.0912 -0.1498  0.4772
  702MPD2    H710442   2.649   3.882  10.407 -0.1334 -1.5028  1.2783
  703TMC3    C110443   2.826   4.450  10.245  0.1371 -0.7843 -0.0943
  703TMC3    C210444   2.726   4.547  10.240 -0.1662  0.2096  0.4069
  703TMC3    C310445   2.763   4.679  10.253 -0.1760 -0.4852  0.5554
  703TMC3    C410446   2.956   4.483  10.275 -0.9772 -0.3825 -0.4747
  703TMC3    C510447   2.984   4.613  10.293 -0.0308 -0.2218 -0.3812
  703TMC3    C610448   2.889   4.708  10.284  0.2171  0.2493  0.5832
  703TMC3     C10449   2.794   4.307  10.225  0.4137  0.2099 -0.0519
  703TMC3     O10450   2.867   4.230  10.291 -0.1488 -0.4527 -0.3245
  703TMC3     H10451   2.624   4.526  10.210 -0.4001 -0.1738  1.4891
  703TMC3    H110452   3.040   4.414  10.273 -0.5013  0.1589  0.4683
  703TMC3    H210453   2.909   0.079  10.293 -0.4169  0.5790 -2.0940
  703TMC3    C710454   3.097   4.651  10.368  0.2970 -0.6174 -0.1518
  703TMC3    C810455   2.666   0.048  10.222  0.4446 -0.3362 -0.7914
  703TMC3    O110456   3.198   4.584  10.356  0.1597  0.3257 -0.0770
  703TMC3    O210457   2.715   0.160  10.195 -0.0224 -0.8876  0.3562
  704TMC3    C110458   0.562   2.417  12.845 -0.6405 -0.2433 -0.0019
  704TMC3    C210459   0.615   2.403  12.715 -0.2653  0.1829  0.3315
  704TMC3    C310460   0.704   2.300  12.693 -0.6047 -0.3985 -0.3426
  704TMC3    C410461   0.591   2.332  12.949  0.1565  0.3744 -0.2720
  704TMC3    C510462   0.678   2.226  12.928 -0.3486  0.8532 -0.1160
  704TMC3    C610463   0.731   2.211  12.793  0.1303  0.0755 -0.5491
  704TMC3     C10464   0.441   2.492  12.859  0.2318 -0.1064  1.0614
  704TMC3     O10465   0.393   2.482  12.971 -0.0937  0.1338 -0.0761
  704TMC3     H10466   0.621   2.491  12.652 -0.5330  0.0680  0.1435
  704TMC3    H110467   0.545   2.341  13.047  0.6997  2.3462 -0.2154
  704TMC3    H210468   0.808   2.137  12.773 -0.0150  0.3454 -2.0728
  704TMC3    C710469   0.620   2.103  12.960  0.6264 -0.8930  0.1419
  704TMC3    C810470   0.714   2.258  12.554  0.2412  0.7203  1.0998
  704TMC3    O110471   0.623   2.017  12.872 -0.0863 -0.4290 -0.0933
  704TMC3    O210472   0.636   2.301  12.471 -0.2935  0.1431  0.0255
  705MPD2     C10473   4.468   0.314  16.306  0.0339  0.2594  0.2303
  705MPD2    C110474   4.456   0.418  16.398 -0.1042 -0.5473  0.2062
  705MPD2    C210475   4.332   0.441  16.459  0.2223 -0.1948 -0.0976
  705MPD2    C310476   4.228   0.356  16.434 -0.3800 -0.4641  0.4178
  705MPD2    C410477   4.243   0.244  16.352  1.0220  0.8907 -0.1533
  705MPD2    C510478   4.363   0.224  16.285 -0.6549 -0.9421 -0.5065
  705MPD2     H10479   4.313   0.524  16.526 -0.8140 -1.3566  1.0573
  705MPD2    H110480   4.161   0.176  16.333  0.8019  1.1025  0.0337
  705MPD2    H210481   4.555   0.304  16.242 -0.3784 -0.8054 -0.1555
  705MPD2    H310482   4.364   0.149  16.207 -0.7962 -0.4871 -0.9536
  705MPD2     N10483   4.099   0.381  16.497 -0.2122  0.1511 -0.5616
  705MPD2    H510484   4.033   0.305  16.507  1.6241 -1.2973  0.5071
  705MPD2    N110485   4.565   0.498  16.436  1.2583 -0.0821 -0.1821
  705MPD2    H710486   4.553   0.565  16.511 -2.5786 -1.4819  0.4292
  706TMC3    C110487   0.229   0.654  16.251  0.0263 -0.0265 -0.3454
  706TMC3    C210488   0.174   0.777  16.228 -0.6636 -0.4314 -0.1791
  706TMC3    C310489   0.070   0.810  16.311  0.2568 -0.9345 -0.2081
  706TMC3    C410490   0.170   0.567  16.333  0.3927  0.1254  0.0533
  706TMC3    C510491   0.056   0.596  16.402  0.3076  0.9527  0.3175
  706TMC3    C610492   0.010   0.725  16.395 -0.3175  0.1108  0.3371
  706TMC3     C10493   0.316   0.593  16.148  0.0667 -0.4698  0.2598
  706TMC3     O10494   0.392   0.505  16.186  0.0358 -0.0715  0.6130
  706TMC3     H10495   0.208   0.854  16.160 -0.6299  0.5018  0.8891
  706TMC3    H110496   0.223   0.476  16.356  0.6509 -0.2245 -1.9111
  706TMC3    H210497   4.652   0.742  16.450 -0.8148 -1.2627 -0.0709
  706TMC3    C710498   4.700   0.479  16.396  0.2736  0.5565 -0.2104
  706TMC3    C810499   0.002   0.935  16.278  0.6132  0.1367 -0.5445
  706TMC3    O110500   0.020   0.378  16.357  0.4314 -0.3701  0.2792
  706TMC3    O210501   0.010   0.964  16.160  0.0898  0.0445 -0.1971
  707TMC3    C110502   1.024   3.716   1.881 -0.9407  0.2300  0.6019
  707TMC3    C210503   1.008   3.602   1.803  0.0136 -0.2471  0.2908
  707TMC3    C310504   0.921   3.502   1.845  0.4221  0.3213 -0.4581
  707TMC3    C410505   0.954   3.734   1.997 -0.1282 -0.9175 -0.0490
  707TMC3    C510506   0.878   3.627   2.039  0.4199 -0.1763  0.8017
  707TMC3    C610507   0.863   3.510   1.970  0.2855 -0.1470  0.1953
  707TMC3     C10508   1.141   3.802   1.840 -0.6931 -0.6282 -0.4418
  707TMC3     O10509   1.179   3.781   1.727  0.0293  0.1544 -0.5051
  707TMC3     H10510   1.057   3.598   1.707  1.8234 -1.2701  1.2543
  707TMC3    H110511   0.957   3.826   2.055 -1.7350 -0.1485 -1.1900
  707TMC3    H210512   0.822   3.423   2.020  1.1073 -1.6016 -1.6699
  707TMC3    C710513   0.830   3.639   2.167  0.4859 -0.5253  0.3774
  707TMC3    C810514   0.925   3.372   1.781  0.7752  0.2297  0.0745
  707TMC3    O110515   0.887   3.719   2.246  0.0010 -0.6342 -0.5486
  707TMC3    O210516   0.845   3.285   1.807 -0.2253  0.1506  0.6892
  708MPD2     C10517   2.393   3.163  14.007 -0.1159 -0.4747  0.0889
  708MPD2    C110518   2.386   3.297  13.994 -0.2947 -0.2388  0.6096
  708MPD2    C210519   2.476   3.378  14.061  0.4462 -0.0965 -0.0461
  708MPD2    C310520   2.581   3.316  14.134  0.0156  0.0615 -0.3939
  708MPD2    C410521   2.584   3.179  14.127  0.3645 -0.0693  0.3666
  708MPD2    C510522   2.489   3.096  14.070  0.3674  0.7546  0.1847
  708MPD2     H10523   2.474   3.485  14.047 -0.7392  0.3957  3.8223
  708MPD2    H110524   2.664   3.144  14.191 -0.4798 -1.4981  0.6425
  708MPD2    H210525   2.319   3.102  13.957 -3.1806  1.7563  1.9138
  708MPD2    H310526   2.479   2.990  14.087 -1.5653  0.6215 -1.8080
  708MPD2     N10527   2.684   3.386  14.198  0.0837  0.0492 -0.1697
  708MPD2    H510528   2.744   3.330  14.258  0.0638 -0.9962 -1.1037
  708MPD2    N110529   2.280   3.350  13.923  0.1487 -0.1357 -0.2700
  708MPD2    H710530   2.206   3.289  13.888  1.5284 -1.2563 -1.2346
  709TMC3    C110531   2.124   3.515  13.864 -0.0904 -0.5203  0.1994
  709TMC3    C210532   2.118   3.634  13.799 -0.5107  0.4115  0.0043
  709TMC3    C310533   2.026   3.732  13.827  0.1966  0.4714  0.0415
  709TMC3    C410534   2.047   3.488  13.971  0.0429 -0.6443 -0.4383
  709TMC3    C510535   1.952   3.586  14.004  0.5934 -0.0979 -0.2674
  709TMC3    C610536   1.935   3.701  13.925 -0.1416 -0.1252  1.0771
  709TMC3     C10537   2.263   3.484  13.887  0.1219 -0.1581  0.7475
  709TMC3     O10538   2.335   3.582  13.903 -0.7807 -0.0353  0.0395
  709TMC3     H10539   2.189   3.658  13.720 -1.1708 -0.1305 -0.7492
  709TMC3    H110540   2.048   3.399  14.031  0.5469 -0.9614 -0.9144
  709TMC3    H210541   1.860   3.770  13.962 -1.2649 -0.8995  0.2481
  709TMC3    C710542   1.954   3.615  14.145 -0.0198  0.5709 -0.4876
  709TMC3    C810543   2.016   3.860  13.758 -0.9025  0.4338  0.2424
  709TMC3    O110544   1.864   3.684  14.198 -0.1080  0.3612 -0.3613
  709TMC3    O210545   1.911   3.920  13.770 -0.0227  0.1563  0.0966
  710TMC3    C110546   3.707   0.530   0.550 -0.1855 -1.1921  0.1236
  710TMC3    C210547   3.709   0.501   0.416 -0.8135  0.1264 -0.4257
  710TMC3    C310548   3.736   0.367   0.386  0.1664 -0.5534  0.3271
  710TMC3    C410549   3.727   0.432   0.642 -0.3346  0.3749  0.4885
  710TMC3    C510550   3.764   0.306   0.606  0.4037  0.6051  0.3653
  710TMC3    C610551   3.768   0.270   0.480  0.3178 -0.1932  0.3719
  710TMC3     C10552   3.640   0.656   0.586 -0.9845  0.3183  0.0183
  710TMC3     O10553   3.598   0.720   0.488  0.3118  0.0763  0.3204
  710TMC3     H10554   3.689   0.568   0.334 -0.6264 -1.4105 -1.7367
  710TMC3    H110555   3.728   0.451   0.749  0.2769  1.3438  0.3077
  710TMC3    H210556   3.753   0.164   0.459  3.5242 -0.8929  1.6037
  710TMC3    C710557   3.816   0.222   0.711 -0.4142 -0.3055 -0.0800
  710TMC3    C810558   3.800   0.339   0.256  0.2051 -0.4541  0.1030
  710TMC3    O110559   3.751   0.222   0.814  0.6470  0.4139 -0.2333
  710TMC3    O210560   3.882   0.250   0.263 -0.0982 -0.2077  0.1187
  711TMC3    C110561   3.316   0.904  15.269 -0.2660  0.0338  0.4688
  711TMC3    C210562   3.346   1.023  15.339  0.1779  0.3848 -0.2263
  711TMC3    C310563   3.430   1.021  15.447 -0.1185 -1.0056  0.6433
  711TMC3    C410564   3.378   0.787  15.302  0.7669  0.5487  0.0525
  711TMC3    C510565   3.467   0.793  15.404  0.3494  0.3408  0.1835
  711TMC3    C610566   3.494   0.906  15.478  0.3298 -0.2145  0.3236
  711TMC3     C10567   3.243   0.905  15.138  0.4928  0.0315 -0.1328
  711TMC3     O10568   3.256   0.803  15.071 -0.5147 -0.1249 -0.5283
  711TMC3     H10569   3.302   1.119  15.311 -2.1600 -0.1904  1.4549
  711TMC3    H110570   3.353   0.697  15.247  0.9934  1.4673 -1.5567
  711TMC3    H210571   3.556   0.899  15.566  1.1935 -0.8031 -0.3323
  711TMC3    C710572   3.571   0.691  15.397  1.4981 -0.8140 -0.2567
  711TMC3    C810573   3.444   1.137  15.529  0.1788 -0.2649  0.7694
  711TMC3    O110574   3.674   0.735  15.444  0.0297  0.6946  0.3321
  711TMC3    O210575   3.336   1.186  15.561 -0.3442  0.3534  0.2853
  712MPD2     C10576   0.305   2.371  13.963 -0.5975 -0.0113 -0.6093
  712MPD2    C110577   0.175   2.380  13.920  0.1782  0.9469  0.3021
  712MPD2    C210578   0.123   2.507  13.894 -0.2382  0.9158 -0.0881
  712MPD2    C310579   0.198   2.623  13.899  0.0072  0.6711 -0.0927
  712MPD2    C410580   0.326   2.605  13.940  0.0564 -0.7598 -0.5261
  712MPD2    C510581   0.379   2.483  13.974  0.0761  0.3363  0.3445
  712MPD2     H10582   0.016   2.510  13.876  0.0426  0.7269 -1.7812
  712MPD2    H110583   0.387   2.694  13.949 -0.9343 -0.2724  1.5408
  712MPD2    H210584   0.354   2.274  13.968 -0.5275  0.1973  2.6118
  712MPD2    H310585   0.478   2.481  14.017 -0.6327 -0.2751  1.9549
  712MPD2     N10586   0.157   2.754  13.869 -0.5124 -0.0727 -0.1885
  712MPD2    H510587   0.232   2.823  13.867 -0.5511 -0.0151  0.5170
  712MPD2    N110588   0.086   2.272  13.916 -0.6498 -0.2526  0.7273
  712MPD2    H710589   4.720   2.288  13.918 -1.0378 -1.6097 -6.1565
  713TMC3    C110590   0.021   2.930  13.786  0.4926  0.4987  0.2086
  713TMC3    C210591   0.091   2.970  13.678 -0.4352 -0.3048  0.0759
  713TMC3    C310592   0.059   3.076  13.611  0.3031  0.5183 -0.1265
  713TMC3    C410593   4.639   2.986  13.809  0.4775  0.3084 -0.4242
  713TMC3    C510594   4.604   3.097  13.742 -0.2627 -0.3001 -0.3061
  713TMC3    C610595   4.681   3.144  13.637 -0.3616 -0.0565 -1.1644
  713TMC3     C10596   0.034   2.787  13.816 -0.3049  0.1084  0.5018
  713TMC3     O10597   4.669   2.719  13.795  0.7051 -0.7373  0.4232
  713TMC3     H10598   0.177   2.906  13.668 -1.9522 -2.2858 -0.3011
  713TMC3    H110599   4.563   2.947  13.877  0.7690 -0.8214 -0.7641
  713TMC3    H210600   4.664   3.240  13.589 -3.2101  0.2427  0.4798
  713TMC3    C710601   4.493   3.181  13.789 -0.3899 -0.2492 -0.2863
  713TMC3    C810602   0.161   3.131  13.527 -0.0774  0.1610 -0.3316
  713TMC3    O110603   4.457   3.149  13.901 -0.0392 -0.3998 -0.2462
  713TMC3    O210604   0.130   3.233  13.468  0.0887 -0.4298 -0.7122
  714MPD2     C10605   2.021   0.926   1.836 -0.1157 -0.9407  0.2479
  714MPD2    C110606   2.071   0.903   1.712  0.0241 -0.4438  0.6332
  714MPD2    C210607   2.011   0.969   1.599  0.2186 -0.3085 -0.2311
  714MPD2    C310608   1.922   1.075   1.628  0.7691 -1.0868 -0.0160
  714MPD2    C410609   1.875   1.096   1.754  0.3821 -0.5997  0.7149
  714MPD2    C510610   1.927   1.029   1.856 -0.3214  0.0183  0.3289
  714MPD2     H10611   2.041   0.947   1.497 -1.2964 -0.3276 -0.6710
  714MPD2    H110612   1.799   1.165   1.789  0.2269 -0.9568  1.0865
  714MPD2    H210613   2.071   0.875   1.918 -0.8416 -0.7244  0.8307
  714MPD2    H310614   1.886   1.055   1.953  0.0641  0.7558  0.2888
  714MPD2     N10615   1.858   1.130   1.515 -0.2601 -0.4735 -0.2414
  714MPD2    H510616   1.886   1.102   1.422 -1.5136 -0.1714 -0.7145
  714MPD2    N110617   2.183   0.820   1.703  0.3353 -0.0026 -0.0054
  714MPD2    H710618   2.226   0.782   1.786 -0.5720 -0.1948  0.3749
  715TMC3    C110619   2.389   0.745   1.603 -0.0993  0.5323 -0.1463
  715TMC3    C210620   2.452   0.698   1.487  0.1756 -0.2012  0.4794
  715TMC3    C310621   2.583   0.656   1.502 -0.3276  0.0769  0.1557
  715TMC3    C410622   2.456   0.752   1.722 -0.4612 -0.6524  1.2255
  715TMC3    C510623   2.580   0.691   1.731 -0.6307  0.1985 -0.8108
  715TMC3    C610624   2.652   0.649   1.627 -0.0093 -0.1181 -0.5856
  715TMC3     C10625   2.251   0.795   1.582  0.1355  0.0170 -0.4240
  715TMC3     O10626   2.213   0.798   1.465 -0.0118 -0.2213 -0.1330
  715TMC3     H10627   2.394   0.692   1.395  0.0907  1.0343  0.4453
  715TMC3    H110628   2.407   0.790   1.811 -2.9532 -0.1599 -0.3565
  715TMC3    H210629   2.750   0.603   1.630 -0.4523 -0.8767  2.3275
  715TMC3    C710630   2.652   0.691   1.856 -0.5970 -0.1464  0.2999
  715TMC3    C810631   2.636   0.582   1.389 -0.0002 -0.0786  0.0012
  715TMC3    O110632   2.753   0.623   1.868  0.3578 -0.4997  0.1283
  715TMC3    O210633   2.559   0.546   1.299 -0.6208 -0.5045 -0.1782
  716MPD2     C10634   3.183   4.656   9.956 -0.1752 -0.4067 -0.1377
  716MPD2    C110635   3.046   4.642   9.921  0.1019  0.0478 -0.1629
  716MPD2    C210636   2.996   4.511   9.907 -1.1546 -0.1960 -0.3973
  716MPD2    C310637   3.074   4.405   9.941  0.6568 -0.5844 -0.0433
  716MPD2    C410638   3.210   4.426   9.972  0.1909 -0.1166 -0.0240
  716MPD2    C510639   3.268   4.550   9.987 -0.7528  0.2842 -0.8740
  716MPD2     H10640   2.892   4.493   9.883 -1.4135  0.5316  0.1660
  716MPD2    H110641   3.281   4.346   9.988  0.0684 -0.2942 -0.3664
  716MPD2    H210642   3.227   0.020   9.966 -0.8276  0.0263 -1.5955
  716MPD2    H310643   3.374   4.563  10.005 -1.6200  2.4224  2.5354
  716MPD2     N10644   3.022   4.278   9.938 -0.1569  0.5156 -0.1678
  716MPD2    H510645   2.925   4.265   9.911 -0.1017  1.2591 -0.7178
  716MPD2    N110646   2.969   0.023   9.912 -0.0588  0.0690 -0.0645
  716MPD2    H710647   3.020   0.106   9.940  0.2451  0.1923 -1.0154
  717TMC3    C110648   3.032   4.033   9.929  0.3369 -0.0269  0.7683
  717TMC3    C210649   2.897   4.015   9.924  0.0535 -0.3126  0.1395
  717TMC3    C310650   2.847   3.892   9.896 -0.1146 -0.1315 -1.2295
  717TMC3    C410651   3.121   3.933   9.903 -0.5138  0.5247 -0.0106
  717TMC3    C510652   3.066   3.806   9.868  0.1436 -0.7765  0.1441
  717TMC3    C610653   2.932   3.786   9.866 -0.4391  0.2791  0.2647
  717TMC3     C10654   3.088   4.160   9.961  0.6245 -0.2948 -0.5641
  717TMC3     O10655   3.204   4.152  10.004 -0.8322 -0.2251 -0.0028
  717TMC3     H10656   2.836   4.104   9.918  0.7318  0.1042 -0.5504
  717TMC3    H110657   3.228   3.945   9.903 -0.2708 -1.6672 -2.7228
  717TMC3    H210658   2.888   3.690   9.841  1.1708  0.0923 -1.8321
  717TMC3    C710659   3.162   3.717   9.805 -0.5451 -0.6559 -1.0494
  717TMC3    C810660   2.712   3.895   9.842  0.4802 -0.0908 -0.4500
  717TMC3    O110661   3.277   3.729   9.846 -0.3944  0.2640  1.1221
  717TMC3    O210662   2.681   3.984   9.765  0.0660  0.2868 -0.4227
  718MPD2     C10663   1.990   2.543  12.855 -0.6584  0.5617  0.1068
  718MPD2    C110664   1.859   2.576  12.815  0.6323  1.1294  0.2544
  718MPD2    C210665   1.756   2.502  12.868 -0.0618 -0.2722 -0.6085
  718MPD2    C310666   1.787   2.392  12.946 -0.4769 -0.2875  0.0221
  718MPD2    C410667   1.912   2.361  12.985  0.3726  0.2021 -1.2928
  718MPD2    C510668   2.015   2.442  12.946 -0.1250 -0.0251  0.3258
  718MPD2     H10669   1.654   2.505  12.831 -0.0857 -0.1266 -0.5297
  718MPD2    H110670   1.929   2.272  13.045  0.7315  1.3143  0.2362
  718MPD2    H210671   2.073   2.600  12.815 -0.3087  0.9618  1.4006
  718MPD2    H310672   2.117   2.414  12.970  1.0743  4.0545  0.0050
  718MPD2     N10673   1.674   2.309  12.972 -0.2907  0.5822  0.4419
  718MPD2    H510674   1.588   2.349  12.936  0.9509  2.1253 -0.7993
  718MPD2    N110675   1.839   2.686  12.722  0.1243 -0.1924 -0.1907
  718MPD2    H710676   1.922   2.720  12.675  1.0470 -1.0330  0.8328
  719TMC3    C110677   1.712   2.795  12.542  0.6392  0.2291  0.4131
  719TMC3    C210678   1.601   2.752  12.472 -0.0448  0.3125 -0.1649
  719TMC3    C310679   1.621   2.711  12.346 -0.6970  0.0241 -0.3206
  719TMC3    C410680   1.827   2.825  12.482 -0.4598 -0.2377 -0.5963
  719TMC3    C510681   1.839   2.785  12.352 -0.1815 -0.3872 -0.3261
  719TMC3    C610682   1.739   2.724  12.279 -0.8546 -0.4537 -0.7553
  719TMC3     C10683   1.714   2.720  12.670 -0.0498  0.0372  0.5450
  719TMC3     O10684   1.602   2.694  12.713  0.1404 -0.2707 -0.2197
  719TMC3     H10685   1.510   2.727  12.525 -0.9553 -1.1273 -2.3740
  719TMC3    H110686   1.907   2.871  12.539 -0.9558 -0.3102  0.1577
  719TMC3    H210687   1.757   2.677  12.183  1.1124  1.2058 -1.2144
  719TMC3    C710688   1.959   2.818  12.276 -0.0253 -0.3499  0.7268
  719TMC3    C810689   1.561   2.580  12.334  0.1962  0.6065 -0.7639
  719TMC3    O110690   1.947   2.815  12.153  0.0759  0.3233  0.6215
  719TMC3    O210691   1.639   2.484  12.349 -0.1490 -0.6123 -0.4439
  720MPD2     C10692   0.217   4.146  14.025  0.3359 -0.4947 -0.4279
  720MPD2    C110693   0.302   4.235  13.966  0.1335 -0.3492 -1.1486
  720MPD2    C210694   0.415   4.266  14.032 -0.1327  0.4776 -0.1102
  720MPD2    C310695   0.431   4.224  14.167 -0.0490 -0.0211  0.0601
  720MPD2    C410696   0.342   4.132  14.230 -0.2227 -0.3316  0.0096
  720MPD2    C510697   0.232   4.096  14.153 -0.0458 -1.0072  0.0450
  720MPD2     H10698   0.493   4.325  13.987 -0.4961 -0.9518 -2.5929
  720MPD2    H110699   0.353   4.099  14.332  0.2126  0.5136  0.2409
  720MPD2    H210700   0.118   4.128  13.982 -0.1692 -0.7200  0.8446
  720MPD2    H310701   0.152   4.043  14.203  0.9827 -1.3191  1.3635
  720MPD2     N10702   0.553   4.272  14.230 -0.4401  0.1280  0.2351
  720MPD2    H510703   0.613   4.329  14.171  0.2703 -1.7071 -0.8149
  720MPD2    N110704   0.273   4.294  13.845 -0.4503 -0.3904  0.4483
  720MPD2    H710705   0.339   4.364  13.813 -2.0928  1.3222  0.8002
  721TMC3    C110706   0.724   4.272  14.383 -0.0189 -0.4348  0.3067
  721TMC3    C210707   0.758   4.325  14.504  0.3403  0.1191 -0.6374
  721TMC3    C310708   0.886   4.377  14.517 -0.1525 -0.1815  0.9374
  721TMC3    C410709   0.814   4.261  14.284 -0.7469  0.1690  0.8267
  721TMC3    C510710   0.937   4.311  14.302  0.2830 -0.3237  0.2456
  721TMC3    C610711   0.975   4.366  14.423  0.0928  0.1098  0.0740
  721TMC3     C10712   0.585   4.245  14.360  0.1888  0.7381 -0.3325
  721TMC3     O10713   0.522   4.199  14.455  0.1847  0.1730 -0.2123
  721TMC3     H10714   0.684   4.336  14.583 -0.6110  0.2081 -1.5347
  721TMC3    H110715   0.789   4.224  14.186 -2.3220 -1.2040  1.7357
  721TMC3    H210716   1.079   4.381  14.451 -1.4492  3.3055  4.0933
  721TMC3    C710717   1.044   4.268  14.222  0.1366  0.0935  0.1551
  721TMC3    C810718   0.923   4.415  14.653 -0.1065  0.7968 -0.2966
  721TMC3    O110719   1.135   4.350  14.208 -1.5741  0.6111 -0.2375
  721TMC3    O210720   1.040   4.403  14.675 -0.6144 -0.4305  0.2678
  722MPD2     C10721   3.819   3.130  13.185 -0.7614 -0.0199 -0.2932
  722MPD2    C110722   3.738   3.218  13.258  0.2046  0.3139 -0.0809
  722MPD2    C210723   3.634   3.162  13.334  0.3411 -0.7915 -0.2242
  722MPD2    C310724   3.606   3.028  13.331  0.3012  0.7366 -0.1226
  722MPD2    C410725   3.676   2.945  13.247  0.4760  0.0167 -1.0517
  722MPD2    C510726   3.784   2.993  13.180 -0.0018 -0.5398  0.0667
  722MPD2     H10727   3.563   3.224  13.387  2.2054  0.5708  0.6583
  722MPD2    H110728   3.649   2.841  13.227 -0.1506 -0.1713  0.7362
  722MPD2    H210729   3.900   3.165  13.123 -1.3236  1.7740 -0.0051
  722MPD2    H310730   3.844   2.919  13.129  0.6058  0.4132 -0.6091
  722MPD2     N10731   3.490   2.986  13.397 -0.5780 -0.2726 -0.4701
  722MPD2    H510732   3.432   3.065  13.422  0.3907  0.2586  0.0964
  722MPD2    N110733   3.782   3.350  13.283  0.5216  0.0582  0.1450
  722MPD2    H710734   3.729   3.406  13.349  0.7939  1.5419 -0.9106
  723TMC3    C110735   3.309   2.848  13.469  0.7074 -0.2975  0.2709
  723TMC3    C210736   3.280   2.722  13.479 -0.6143  0.0954 -0.6155
  723TMC3    C310737   3.162   2.673  13.437 -0.5420  0.3003 -0.4250
  723TMC3    C410738   3.218   2.944  13.410 -0.4579  0.6223  0.4692
  723TMC3    C510739   3.093   2.893  13.373  0.5292 -0.0186 -0.6090
  723TMC3    C610740   3.064   2.760  13.389 -0.1045  0.1573 -0.0536
  723TMC3     C10741   3.441   2.859  13.406  0.3231 -0.7943  0.1260
  723TMC3     O10742   3.495   2.752  13.380  0.2464  0.0771 -0.0269
  723TMC3     H10743   3.359   2.659  13.519 -0.3583  1.0238  0.3705
  723TMC3    H110744   3.239   3.050  13.403  1.1168  0.0826 -2.6799
  723TMC3    H210745   2.969   2.723  13.352 -0.2699  0.3306  0.1960
  723TMC3    C710746   2.988   2.984  13.329  0.2483  0.5542  0.5386
  723TMC3    C810747   3.139   2.533  13.457  0.0768 -0.2338  0.3113
  723TMC3    O110748   2.891   2.937  13.269 -0.0370 -0.6723  0.1947
  723TMC3    O210749   3.222   2.467  13.513 -0.0523  0.2894 -0.6766
  724TMC3    C110750   4.601   1.402  10.443 -0.0742  0.3365 -0.2028
  724TMC3    C210751   4.497   1.486  10.422  0.7114  0.1493 -0.3856
  724TMC3    C310752   4.523   1.596  10.340  0.2405  0.2388  0.3646
  724TMC3    C410753   4.719   1.409  10.381  0.1259 -0.5612 -0.3109
  724TMC3    C510754   0.005   1.521  10.313  0.2888 -0.7478 -0.1184
  724TMC3    C610755   4.644   1.617  10.287  0.0024  0.8207  0.7463
  724TMC3     C10756   4.553   1.272  10.502 -0.5953 -0.8388  0.5449
  724TMC3     O10757   4.472   1.279  10.591  0.1109 -0.2359  0.3071
  724TMC3     H10758   4.411   1.495  10.488  0.4728  0.0006 -0.6741
  724TMC3    H110759   0.061   1.336  10.404  0.7739  0.2890  0.2054
  724TMC3    H210760   4.670   1.687  10.209  0.5999  0.3864  0.5512
  724TMC3    C710761   0.139   1.539  10.258  0.2347  0.2916  0.0659
  724TMC3    C810762   4.410   1.687  10.308 -0.6020  0.1943 -0.4291
  724TMC3    O110763   0.198   1.437  10.224 -0.5169  0.0210 -0.1773
  724TMC3    O210764   4.302   1.668  10.362 -0.0286  0.2980  0.4563
  725TMC3    C110765   0.980   0.027  12.203  0.0589  0.0615  0.4261
  725TMC3    C210766   0.956   0.095  12.088  0.1289 -0.8009  0.0134
  725TMC3    C310767   0.859   0.043  12.005 -0.0526  0.4486 -0.7225
  725TMC3    C410768   0.905   4.648  12.234 -0.3080 -0.4652 -0.3890
  725TMC3    C510769   0.805   4.609  12.152 -0.3147 -0.4793 -0.2107
  725TMC3    C610770   0.774   4.678  12.038  0.5873 -0.3049 -0.0873
  725TMC3     C10771   1.095   0.067  12.284 -0.0428 -0.2727  0.7572
  725TMC3     O10772   1.137   0.179  12.272 -0.1492  0.2711  0.8656
  725TMC3     H10773   1.021   0.176  12.057  0.6877 -1.8530 -1.5250
  725TMC3    H110774   0.902   4.615  12.337 -0.0963  0.7432  0.0065
  725TMC3    H210775   0.703   4.632  11.969 -1.3031 -0.0463  1.6930
  725TMC3    C710776   0.779   4.464  12.159 -0.7522 -0.2272  0.9244
  725TMC3    C810777   0.875   0.061  11.861  0.6860 -0.1357 -0.4297
  725TMC3    O110778   0.860   4.387  12.213  0.2870  0.0161  0.5575
  725TMC3    O210779   0.846   4.691  11.812  0.1883  0.2105 -0.6959
  726MPD2     C10780   3.603   1.895  10.326 -0.2278 -0.2422  0.1687
  726MPD2    C110781   3.489   1.969  10.291  0.2780 -0.0326  0.7093
  726MPD2    C210782   3.362   1.919  10.330  0.3823 -0.3663  0.0665
  726MPD2    C310783   3.350   1.797  10.397 -0.1127 -0.5252  0.0414
  726MPD2    C410784   3.461   1.723  10.424 -0.0748 -0.4179 -1.2616
  726MPD2    C510785   3.587   1.775  10.392  0.0875 -0.8011 -0.3570
  726MPD2     H10786   3.278   1.981  10.302  0.6785  0.2722  0.5936
  726MPD2    H110787   3.459   1.633  10.484  0.4772  0.8961  0.7186
  726MPD2    H210788   3.706   1.922  10.303 -0.3081 -1.0829 -1.1596
  726MPD2    H310789   3.680   1.721  10.406  0.1919 -0.5235  0.0237
  726MPD2     N10790   3.226   1.745  10.438 -0.4571  0.9397  0.3158
  726MPD2    H510791   3.219   1.664  10.498 -1.3373  0.0851 -0.9415
  726MPD2    N110792   3.489   2.091  10.224 -0.1168  0.7629 -0.4113
  726MPD2    H710793   3.400   2.134  10.200 -0.9626  0.8947  2.9931
  727TMC3    C110794   3.585   2.302  10.168  0.2974 -1.0266  0.1865
  727TMC3    C210795   3.674   2.398  10.211 -0.4443  0.6541  0.1699
  727TMC3    C310796   3.667   2.521  10.162 -0.7183  0.0770 -0.5831
  727TMC3    C410797   3.494   2.325  10.071 -0.2411  0.7909  0.4681
  727TMC3    C510798   3.484   2.453  10.023  0.3890 -0.2187  0.2582
  727TMC3    C610799   3.564   2.555  10.073  0.0680 -0.5655 -0.5351
  727TMC3     C10800   3.606   2.166  10.215  0.1991 -0.5337 -0.3577
  727TMC3     O10801   3.714   2.148  10.270  0.1926 -0.5099  0.5170
  727TMC3     H10802   3.747   2.381  10.290  0.2845  1.0888 -0.4076
  727TMC3    H110803   3.437   2.247  10.022 -0.8204  1.4451  0.0928
  727TMC3    H210804   3.557   2.650  10.022 -3.6440 -0.3251  0.4571
  727TMC3    C710805   3.357   2.483   9.949 -0.0808  0.6137 -0.1391
  727TMC3    C810806   3.753   2.617  10.224  0.5936 -0.2406  0.4285
  727TMC3    O110807   3.261   2.409   9.966  0.3037  0.4125  0.2662
  727TMC3    O210808   3.781   2.582  10.340 -0.4665  0.4811  0.6112
  728TMC3    C110809   2.869   0.163  15.439  0.4054  0.8311 -0.1385
  728TMC3    C210810   3.001   0.147  15.419 -0.1675  0.7387  0.4131
  728TMC3    C310811   3.038   0.133  15.282  0.1925  0.2494 -0.3354
  728TMC3    C410812   2.766   0.166  15.343  0.0509 -0.4813  0.1023
  728TMC3    C510813   2.807   0.156  15.216 -0.4680  0.4387 -0.7137
  728TMC3    C610814   2.938   0.136  15.183  0.4085 -0.1124 -0.6342
  728TMC3     C10815   2.822   0.150  15.584  0.3574 -0.3659 -0.2942
  728TMC3     O10816   2.903   0.127  15.669  0.4798 -0.3066 -0.3341
  728TMC3     H10817   3.075   0.162  15.497 -1.4062  1.2827  1.4768
  728TMC3    H110818   2.661   0.191  15.358  0.4402  1.0950  0.1408
  728TMC3    H210819   2.974   0.138  15.080  2.0556  3.2365  0.0028
  728TMC3    C710820   2.712   0.175  15.112 -0.6722  0.4514 -0.0332
  728TMC3    C810821   3.174   0.144  15.239  0.7392 -0.3970  0.5511
  728TMC3    O110822   2.595   0.137  15.129 -0.1728  0.3821 -0.4898
  728TMC3    O210823   3.254   0.190  15.321  0.2294  0.0702  0.0070
  729MPD2     C10824   0.064   1.183  16.770  0.1526  0.2665  0.5339
  729MPD2    C110825   0.195   1.201  16.814 -0.4717  0.0391 -0.0853
  729MPD2    C210826   0.212   1.205  16.951 -0.2977  0.3886 -0.3566
  729MPD2    C310827   0.112   1.184  17.043 -0.2077 -0.7310  0.5629
  729MPD2    C410828   4.722   1.146  16.997 -0.1957  0.1821 -0.4036
  729MPD2    C510829   4.700   1.154  16.863  0.0447 -0.5045  0.7604
  729MPD2     H10830   0.309   1.241  16.983 -0.8008 -1.2873  3.0351
  729MPD2    H110831   4.632   1.133  17.055 -0.3040 -2.1830 -1.1026
  729MPD2    H210832   0.038   1.182  16.665 -0.3256 -1.3277  0.6539
  729MPD2    H310833   4.600   1.133  16.826  0.2978 -0.5222  0.0838
  729MPD2     N10834   0.122   1.206  17.179 -0.1579  0.5634 -0.6206
  729MPD2    H510835   0.040   1.181  17.232  1.5591  0.3933  1.9728
  729MPD2    N110836   0.295   1.236  16.726 -0.0499  0.3254 -0.1477
  729MPD2    H710837   0.275   1.240  16.627  1.4365 -0.7050 -0.4991
  730TMC3    C110838   0.161   1.326  17.370 -0.1595  0.0828  0.2564
  730TMC3    C210839   0.246   1.342  17.478 -0.2384  0.2110  0.1155
  730TMC3    C310840   0.223   1.439  17.566 -0.2500 -0.3641 -0.7400
  730TMC3    C410841   0.058   1.415  17.352  0.2107  0.2591 -0.3445
  730TMC3    C510842   0.039   1.507  17.449  0.0589 -0.4865  0.6839
  730TMC3    C610843   0.121   1.524  17.556 -0.0637 -0.1175 -0.1053
  730TMC3     C10844   0.218   1.278  17.240 -0.4033  0.5834 -0.4342
  730TMC3     O10845   0.322   1.320  17.200 -0.2432  0.4370 -0.4375
  730TMC3     H10846   0.327   1.270  17.489 -1.9111 -1.5488  0.9158
  730TMC3    H110847   4.732   1.416  17.262  0.4748 -0.0223 -0.5261
  730TMC3    H210848   0.106   1.603  17.628 -0.6188 -0.4616  0.1587
  730TMC3    C710849   4.707   1.628  17.397 -0.9114 -0.8463  0.7146
  730TMC3    C810850   0.292   1.425  17.693  0.1738 -0.2931  0.3394
  730TMC3    O110851   4.726   1.650  17.276  0.3882 -0.1038 -0.1524
  730TMC3    O210852   0.355   1.323  17.719 -0.7426 -0.7968  0.5320
  731MPD2     C10853   0.635   0.314  11.698  0.6271 -0.2133 -0.4295
  731MPD2    C110854   0.534   0.220  11.717  0.6172  0.5187 -0.0200
  731MPD2    C210855   0.497   0.200  11.852 -0.1153  0.1279 -0.6269
  731MPD2    C310856   0.552   0.267  11.955  0.4978 -0.0139 -0.3223
  731MPD2    C410857   0.652   0.364  11.921 -0.1089  0.4867 -0.7472
  731MPD2    C510858   0.696   0.380  11.797  0.4704  0.2663 -0.3728
  731MPD2     H10859   0.425   0.121  11.872 -2.1064  1.9366 -0.6283
  731MPD2    H110860   0.703   0.419  11.999 -1.5012  0.2625  0.3204
  731MPD2    H210861   0.672   0.343  11.600  0.1340 -0.9837 -0.8503
  731MPD2    H310862   0.783   0.441  11.775  1.1998 -0.9265 -0.7636
  731MPD2     N10863   0.484   0.256  12.082 -0.6141  0.0675  0.4254
  731MPD2    H510864   0.402   0.196  12.087  0.3254 -1.3839 -1.7361
  731MPD2    N110865   0.485   0.137  11.613  0.2313 -0.0453 -0.6466
  731MPD2    H710866   0.532   0.166  11.528  0.3506  0.8828 -0.2644
  732TMC3    C110867   0.393   4.693  11.497 -0.0754  0.0746 -0.1926
  732TMC3    C210868   0.286   4.611  11.464  0.0164 -0.0106  0.2155
  732TMC3    C310869   0.309   4.509  11.372  0.5755 -0.3127 -0.7977
  732TMC3    C410870   0.511   4.684  11.424 -0.4663 -0.8634  0.1099
  732TMC3    C510871   0.522   4.588  11.327  0.4219  0.1835  0.0213
  732TMC3    C610872   0.430   4.488  11.309  0.0579 -0.1426  0.2236
  732TMC3     C10873   0.379   0.045  11.610 -0.0358 -0.5369 -0.2900
  732TMC3     O10874   0.297   0.020  11.696  0.2357 -0.1617 -0.1418
  732TMC3     H10875   0.194   4.620  11.521 -1.7666  3.2084 -3.1883
  732TMC3    H110876   0.597   0.014  11.432 -1.4744  0.1636  2.5173
  732TMC3    H210877   0.449   4.406  11.240  0.3739  1.0795 -1.1478
  732TMC3    C710878   0.659   4.545  11.294 -0.2579 -0.0242  0.3677
  732TMC3    C810879   0.225   4.392  11.373 -0.0562 -0.3496 -0.4273
  732TMC3    O110880   0.728   4.629  11.243  0.2566 -1.0460  0.4306
  732TMC3    O210881   0.239   4.314  11.279 -0.0997  0.3205 -0.0240
  733TMC3    C110882   1.365   1.992  13.063  0.0385  0.7427  0.6283
  733TMC3    C210883   1.489   2.043  13.090 -0.6072 -0.5874 -0.6656
  733TMC3    C310884   1.557   2.108  12.989  0.3280  0.0807 -0.3091
  733TMC3    C410885   1.309   2.014  12.940  0.9252 -0.4917 -0.0848
  733TMC3    C510886   1.377   2.078  12.835 -0.8912  0.2769  0.3564
  733TMC3    C610887   1.505   2.120  12.864 -0.4662  0.0427 -0.3245
  733TMC3     C10888   1.269   1.997  13.174  0.1811  0.0438 -1.0624
  733TMC3     O10889   1.159   2.031  13.135  0.4777  0.2731  0.7026
  733TMC3     H10890   1.531   2.044  13.190 -2.1477  1.1478 -0.0138
  733TMC3    H110891   1.210   1.972  12.924  1.9024 -2.9663  0.2550
  733TMC3    H210892   1.562   2.165  12.784  0.0566  3.1546  1.7930
  733TMC3    C710893   1.290   2.157  12.743  0.2854 -0.4109 -0.3409
  733TMC3    C810894   1.679   2.181  13.020  0.0217  0.0744 -0.2064
  733TMC3    O110895   1.169   2.161  12.757  0.8117 -0.4460  0.3154
  733TMC3    O210896   1.773   2.124  13.071 -0.1520  0.3955 -0.4437
  734MPD2     C10897   3.401   0.634  12.227  0.3601  0.1976  1.2069
  734MPD2    C110898   3.351   0.516  12.165 -0.8584  0.5638 -0.1233
  734MPD2    C210899   3.385   0.497  12.031 -1.1273 -0.3600  0.5563
  734MPD2    C310900   3.446   0.597  11.955  0.1806  0.1885 -0.3757
  734MPD2    C410901   3.491   0.706  12.020  0.2927  0.6440  0.3684
  734MPD2    C510902   3.476   0.724  12.156 -0.1725 -0.4019  0.5758
  734MPD2     H10903   3.361   0.401  11.987  0.5476 -0.4877 -0.0782
  734MPD2    H110904   3.551   0.781  11.969  0.0573  1.2638  0.9901
  734MPD2    H210905   3.393   0.661  12.332 -1.0895 -2.6400  1.8174
  734MPD2    H310906   3.518   0.815  12.198 -0.6188 -0.3162  0.8397
  734MPD2     N10907   3.479   0.559  11.826  0.0835  0.1060 -0.7145
  734MPD2    H510908   3.454   0.462  11.807  0.9306 -0.4025  0.7548
  734MPD2    N110909   3.268   0.423  12.228 -0.0851 -0.4902  0.5332
  734MPD2    H710910   3.263   0.436  12.328 -0.5642  1.5228  0.2376
  735TMC3    C110911   3.158   0.215  12.228 -1.0805  0.4577  0.2008
  735TMC3    C210912   3.074   0.132  12.158 -0.4310 -0.0382  0.1793
  735TMC3    C310913   3.107   0.006  12.134  0.6656 -0.6334 -0.8415
  735TMC3    C410914   3.272   0.159  12.285  0.2858  0.5324 -0.7092
  735TMC3    C510915   3.298   0.025  12.279 -0.4416 -0.3914  0.1877
  735TMC3    C610916   3.212   4.685  12.202  0.2520  0.1690  1.2192
  735TMC3     C10917   3.189   0.335  12.157  0.0265  0.1339 -0.3275
  735TMC3     O10918   3.155   0.330  12.041 -0.0450  0.1240  0.2971
  735TMC3     H10919   2.977   0.168  12.123 -0.4725 -1.1294 -0.8252
  735TMC3    H110920   3.342   0.226  12.335  0.3246 -1.8043  2.3905
  735TMC3    H210921   3.239   4.581  12.183  0.6546  0.3245  0.9601
  735TMC3    C710922   3.434   4.721  12.303  0.1615  0.0784 -0.1608
  735TMC3    C810923   3.088   4.684  11.998  0.3677  0.6466 -0.0199
  735TMC3    O110924   3.517   0.070  12.278  0.1216  0.0476 -0.1649
  735TMC3    O210925   3.117   4.567  11.981 -0.5764  0.3202  0.2631
  736MPD2     C10926   3.574   4.413  12.452 -0.4686 -1.1151  0.2426
  736MPD2    C110927   3.574   4.528  12.375  0.3948 -0.2968 -0.0197
  736MPD2    C210928   3.699   4.574  12.329 -0.3452  0.2691  0.5886
  736MPD2    C310929   3.811   4.514  12.373 -0.2867 -0.8234 -0.1216
  736MPD2    C410930   3.808   4.399  12.452  0.4484  0.8584 -0.2115
  736MPD2    C510931   3.687   4.344  12.488 -0.2118 -0.7207 -0.2283
  736MPD2     H10932   3.703   4.658  12.261  1.6233 -0.6195 -0.4207
  736MPD2    H110933   3.904   4.358  12.483  0.6936  0.7549 -1.1212
  736MPD2    H210934   3.482   4.370  12.487 -0.7938 -0.8064 -0.2376
  736MPD2    H310935   3.674   4.249  12.537 -1.3107  0.2075  1.2778
  736MPD2     N10936   3.937   4.556  12.324  0.0627  0.1604 -0.4103
  736MPD2    H510937   4.022   4.503  12.345 -0.7069 -0.6595  0.6424
  736MPD2    N110938   3.450   4.592  12.343  0.1788 -0.6468  0.4855
  736MPD2    H710939   3.369   4.541  12.378  1.4117 -2.9186  0.0588
  737TMC3    C110940   4.101   4.638  12.177  0.1916  0.3329  0.2055
  737TMC3    C210941   4.151   0.018  12.124  0.5526 -0.8854  0.4491
  737TMC3    C310942   4.276   0.018  12.085 -0.2176  0.1243 -0.0142
  737TMC3    C410943   4.174   4.522  12.180 -0.0755  0.0527  0.3340
  737TMC3    C510944   4.303   4.530  12.131  0.5141 -0.3943 -1.0791
  737TMC3    C610945   4.362   4.640  12.086  0.5077  0.2202 -0.4307
  737TMC3     C10946   3.962   4.646  12.228  0.0155  0.1526 -0.4451
  737TMC3     O10947   3.892   4.725  12.165 -0.2632 -0.0660 -0.6998
  737TMC3     H10948   4.096   0.112  12.131  1.3943 -0.4345  1.0370
  737TMC3    H110949   4.143   4.424  12.212 -1.6556 -0.0277 -1.5103
  737TMC3    H210950   4.466   4.657  12.059  0.7302  0.0295  0.3287
  737TMC3    C710951   4.337   4.414  12.052 -0.7071  0.4207  0.0646
  737TMC3    C810952   4.325   0.131  12.009  0.2074 -0.0304 -0.5218
  737TMC3    O110953   4.278   4.306  12.074 -0.8027  0.4816 -0.1517
  737TMC3    O210954   4.444   0.165  12.029  0.0656  0.3796 -0.5338
  738MPD2     C10955   3.799   3.400  15.265 -0.0900 -0.4537 -0.3300
  738MPD2    C110956   3.884   3.292  15.274 -0.1074  0.0955 -0.8948
  738MPD2    C210957   4.017   3.312  15.252  0.0173  0.1530  0.4434
  738MPD2    C310958   4.063   3.434  15.200  0.3152  0.3905 -0.5299
  738MPD2    C410959   3.973   3.540  15.190  0.1227  0.4875 -0.4186
  738MPD2    C510960   3.845   3.520  15.237  0.6702 -0.1911 -0.2273
  738MPD2     H10961   4.078   3.223  15.258  0.7197  0.7220  1.6653
  738MPD2    H110962   3.997   3.642  15.164  0.8642  0.6707  1.0215
  738MPD2    H210963   3.695   3.390  15.295  0.4209 -2.6415  0.6716
  738MPD2    H310964   3.765   3.592  15.248  0.5942 -0.3344  0.1813
  738MPD2     N10965   4.199   3.456  15.161 -0.6074 -0.2182  0.2338
  738MPD2    H510966   4.214   3.547  15.118 -3.2913  0.1212 -0.0348
  738MPD2    N110967   3.844   3.162  15.304 -1.1850  0.0447 -0.0881
  738MPD2    H710968   3.905   3.092  15.342 -0.2205  0.0790 -1.5763
  739TMC3    C110969   4.421   3.410  15.112  0.2057  0.4404  0.0817
  739TMC3    C210970   4.460   3.538  15.113 -0.6226 -0.4646 -0.8695
  739TMC3    C310971   4.589   3.583  15.084 -0.8692  0.2902 -0.4518
  739TMC3    C410972   4.518   3.314  15.099  0.3647 -0.7258 -0.0277
  739TMC3    C510973   4.643   3.356  15.073  0.2920 -0.1223  0.0716
  739TMC3    C610974   4.682   3.490  15.077  0.2767  0.4953 -0.1863
  739TMC3     C10975   4.305   3.373  15.189  0.8288 -0.5755  0.1059
  739TMC3     O10976   4.311   3.257  15.226 -0.4515  0.3530 -0.0945
  739TMC3     H10977   4.384   3.615  15.124 -3.0485 -2.9204 -0.4895
  739TMC3    H110978   4.500   3.207  15.092 -2.0571 -0.2121 -1.5248
  739TMC3    H210979   0.050   3.518  15.061  1.1740 -1.4156  2.2707
  739TMC3    C710980   0.001   3.254  15.047 -0.1329 -0.6245 -0.8554
  739TMC3    C810981   4.579   3.668  14.966 -0.1587 -0.2275  0.3463
  739TMC3    O110982   4.701   3.160  14.973 -0.1418  0.5879  0.4132
  739TMC3    O210983   4.464   3.700  14.939 -0.5226 -0.1634  0.5439
  740TMC3    C110984   0.141   4.714  14.380  0.0273  0.1341 -1.1226
  740TMC3    C210985   0.188   4.634  14.475  0.3322  0.0246 -0.1971
  740TMC3    C310986   0.300   4.558  14.443  0.5442  0.4755 -0.3165
  740TMC3    C410987   0.202   4.718  14.252  0.3099  0.5236  0.1213
  740TMC3    C510988   0.319   4.645  14.230  0.1368 -0.1059  0.0237
  740TMC3    C610989   0.370   4.561  14.324  0.3580 -0.2549 -0.5117
  740TMC3     C10990   0.004   0.045  14.395 -0.1989 -0.4242  0.3002
  740TMC3     O10991   4.681   0.090  14.296 -0.2269 -0.2473  0.1042
  740TMC3     H10992   0.138   4.614  14.569  0.3069 -0.1383 -0.2446
  740TMC3    H110993   0.148   0.053  14.189 -1.4182 -1.8163 -1.0002
  740TMC3    H210994   0.469   4.518  14.316 -0.4210 -1.9606 -1.0082
  740TMC3    C710995   0.371   4.632  14.096 -0.0232 -0.8103 -0.4725
  740TMC3    C810996   0.371   4.493  14.553 -0.4395 -0.5752  0.5822
  740TMC3    O110997   0.478   4.575  14.092 -0.3774 -0.7044 -0.4281
  740TMC3    O210998   0.490   4.523  14.567 -0.5116 -0.1965 -0.0392
  741TMC3    C110999   4.325   4.082  14.536  0.4183 -0.1113 -0.2100
  741TMC3    C211000   4.195   4.041  14.520 -0.4770  0.8389 -0.3593
  741TMC3    C311001   4.138   3.994  14.634  0.2608  0.8426 -0.5460
  741TMC3    C411002   4.387   4.092  14.658 -0.1039  0.4472  0.4130
  741TMC3    C511003   4.316   4.060  14.773  0.2567 -0.1763  0.5141
  741TMC3    C611004   4.192   4.002  14.761  1.1864  0.1135 -0.7871
  741TMC3     C11005   4.406   4.110  14.414  0.6673  0.3378 -0.5886
  741TMC3     O11006   4.527   4.122  14.435 -0.5906  0.0770 -0.1878
  741TMC3     H11007   4.154   4.005  14.426 -3.1856  2.5358  0.1872
  741TMC3    H111008   4.494   4.109  14.662  0.1306 -0.4573 -2.0751
  741TMC3    H211009   4.134   3.982  14.851 -0.0660  0.0976 -1.6036
  741TMC3    C711010   4.366   4.064  14.912  0.2874 -0.2347  0.1318
  741TMC3    C811011   4.015   3.920  14.615  0.1743  0.2626  0.3976
  741TMC3    O111012   4.311   3.987  14.991  0.8773 -0.4179  0.0982
  741TMC3    O211013   3.962   3.926  14.503  0.1304  0.4220 -0.1455
  742TMC3    C111014   4.607   2.841  15.104 -0.1256  0.0279 -0.1739
  742TMC3    C211015   4.517   2.838  15.006 -0.0314 -0.6462 -0.5297
  742TMC3    C311016   4.462   2.722  14.973  0.3746  0.3762 -0.0642
  742TMC3    C411017   4.661   2.729  15.154 -0.1983 -0.0139 -0.1161
  742TMC3    C511018   4.607   2.610  15.119  0.0656  1.2186  0.3868
  742TMC3    C611019   4.511   2.601  15.024 -0.0099 -0.1299  0.1466
  742TMC3     C11020   4.581   2.933  15.209 -0.3708  0.1396  0.3382
  742TMC3     O11021   4.463   2.958  15.224  0.4764 -0.2784 -0.8114
  742TMC3     H11022   4.462   2.929  14.985  1.2660  0.0204 -1.0873
  742TMC3    H111023   4.728   2.734  15.238  0.0813  1.3879 -0.4257
  742TMC3    H211024   4.455   2.509  15.008  0.4265 -0.5525  1.0726
  742TMC3    C711025   4.670   2.484  15.149  0.2448  0.1190 -0.5724
  742TMC3    C811026   4.373   2.705  14.862 -0.7155 -0.1998  0.4634
  742TMC3    O111027   4.615   2.389  15.104  0.3969 -0.0018 -0.1013
  742TMC3    O211028   4.311   2.602  14.850  0.5440  0.1116  0.1950
  743MPD2     C11029   1.432   3.054   0.632  0.5759 -0.6592 -0.7091
  743MPD2    C111030   1.506   3.158   0.686  0.0227 -0.1974  0.1770
  743MPD2    C211031   1.564   3.250   0.597  0.3788  0.4461  0.7704
  743MPD2    C311032   1.551   3.240   0.462 -0.3555 -0.2186 -0.1664
  743MPD2    C411033   1.469   3.133   0.411  0.0445  0.4792 -0.4401
  743MPD2    C511034   1.415   3.044   0.498  0.5071 -0.0452 -0.2015
  743MPD2     H11035   1.620   3.339   0.623  1.5995  0.6987 -2.7772
  743MPD2    H111036   1.451   3.121   0.305  1.2109 -0.5790 -0.5222
  743MPD2    H211037   1.380   2.987   0.699  0.1004  0.1775 -0.2281
  743MPD2    H311038   1.354   2.960   0.465 -0.8758  0.7433  0.3048
  743MPD2     N11039   1.615   3.333   0.381 -0.2536 -0.2771  0.4627
  743MPD2    H511040   1.670   3.397   0.437  0.1691  1.1278 -1.5585
  743MPD2    N111041   1.530   3.153   0.827  0.3975 -0.7319 -0.0009
  743MPD2    H711042   1.483   3.083   0.883  1.3242 -2.4439 -1.3425
  744TMC3    C111043   1.626   3.213   1.025  0.0709 -0.0528 -0.4604
  744TMC3    C211044   1.532   3.145   1.093  0.0367  0.2570 -0.3598
  744TMC3    C311045   1.503   3.178   1.218 -0.4933 -0.3860 -0.0754
  744TMC3    C411046   1.711   3.303   1.091 -0.6958  0.3904 -0.7565
  744TMC3    C511047   1.697   3.314   1.229  0.2791  0.3265  0.5192
  744TMC3    C611048   1.584   3.255   1.295 -0.1504  0.0661  0.4459
  744TMC3     C11049   1.620   3.237   0.880  0.0200  0.8669 -0.6248
  744TMC3     O11050   1.685   3.335   0.845 -0.3068  0.1474  0.0704
  744TMC3     H11051   1.488   3.062   1.038  0.8737  0.2255 -0.9844
  744TMC3    H111052   1.800   3.343   1.044 -0.1233 -0.3881 -0.3147
  744TMC3    H211053   1.580   3.261   1.403 -0.8695 -1.4647  0.4983
  744TMC3    C711054   1.719   3.446   1.266  0.0150 -0.3089  0.2106
  744TMC3    C811055   1.387   3.113   1.283 -0.1176  0.2737 -0.5219
  744TMC3    O111056   1.695   3.474   1.382 -0.4704  0.2012  0.2512
  744TMC3    O211057   1.337   3.020   1.219  0.4507  0.8271  0.1969
  745TMC3    C111058   4.735   2.065  13.905 -0.2462  0.1906 -0.0408
  745TMC3    C211059   4.636   2.131  13.974 -0.0830  0.8536  0.6284
  745TMC3    C311060   4.529   2.170  13.902 -0.3578 -0.9524 -0.4892
  745TMC3    C411061   4.720   2.029  13.775 -0.1777  1.2191 -0.5029
  745TMC3    C511062   4.616   2.085  13.713  0.3876  0.1749 -0.6100
  745TMC3    C611063   4.509   2.144  13.777  0.6306 -0.4964  0.0247
  745TMC3     C11064   0.120   2.143  13.910 -0.1540 -0.8530 -0.5192
  745TMC3     O11065   0.224   2.094  13.875  0.2579 -0.5568  0.2821
  745TMC3     H11066   4.655   2.153  14.078 -2.0022 -0.0138  1.1613
  745TMC3    H111067   0.071   1.991  13.722  1.0166  1.1921  1.4385
  745TMC3    H211068   4.433   2.183  13.711  0.6781 -1.1273 -0.4123
  745TMC3    C711069   4.642   2.142  13.582 -0.4065 -0.0975  0.7121
  745TMC3    C811070   4.460   2.296  13.940 -0.1871  0.9520 -0.1889
  745TMC3    O111071   4.542   2.181  13.524 -0.1195 -0.4155  0.3856
  745TMC3    O211072   4.354   2.326  13.886 -0.4569 -0.0248  0.3644
  746TMC3    C111073   2.420   3.931  10.712  0.1481 -0.4075  1.0482
  746TMC3    C211074   2.491   3.885  10.605 -0.5926  0.3251 -0.0193
  746TMC3    C311075   2.457   3.770  10.532 -0.2214  0.0953  0.4852
  746TMC3    C411076   2.306   3.862  10.742 -0.0572 -0.1407 -0.6709
  746TMC3    C511077   2.280   3.739  10.676 -0.8145 -0.5139  0.5318
  746TMC3    C611078   2.347   3.698  10.558  0.9237 -1.0555  0.0796
  746TMC3     C11079   2.417   4.072  10.751  0.3150 -0.4342  0.7342
  746TMC3     O11080   2.348   4.112  10.843  0.1384  0.0153 -0.1090
  746TMC3     H11081   2.590   3.929  10.593 -1.4019  2.4633  1.1585
  746TMC3    H111082   2.260   3.892  10.836 -0.3328  0.4310 -0.9854
  746TMC3    H211083   2.311   3.612  10.502 -1.3901 -0.8608  1.2637
  746TMC3    C711084   2.150   3.677  10.678  0.5090 -0.4905 -0.1617
  746TMC3    C811085   2.462   3.794  10.389 -0.3654 -0.2574  0.4331
  746TMC3    O111086   2.105   3.639  10.570 -0.6898  0.0457  0.2708
  746TMC3    O211087   2.364   3.754  10.330 -0.3972 -0.0332  0.1848
  747TMC3    C111088   4.602   4.464  11.018 -0.2372  0.1042  0.6645
  747TMC3    C211089   4.568   4.373  11.117  0.0577  0.2425 -0.9011
  747TMC3    C311090   4.545   4.424  11.241  0.2013  0.7840 -0.3539
  747TMC3    C411091   4.603   4.596  11.042  0.1490 -0.1153 -0.0972
  747TMC3    C511092   4.566   4.642  11.164  0.1452  0.3502 -0.0037
  747TMC3    C611093   4.532   4.558  11.261  0.6190  0.2711  0.7944
  747TMC3     C11094   4.717   4.439  10.935  0.0264 -0.3865 -0.0712
  747TMC3     O11095   0.051   4.537  10.909 -0.0760 -0.2912 -0.2926
  747TMC3     H11096   4.578   4.266  11.104 -1.6181 -0.3894  2.8802
  747TMC3    H111097   4.618   4.665  10.959  0.0684  0.5755  0.4561
  747TMC3    H211098   4.511   4.600  11.359 -0.1801  1.1068  0.2633
  747TMC3    C711099   4.658   0.003  11.218  0.4506 -0.0853 -0.3844
  747TMC3    C811100   4.516   4.334  11.352  0.1299 -0.1317 -0.6685
  747TMC3    O111101   4.630   0.052  11.329  0.1103  0.3539  0.4852
  747TMC3    O211102   4.502   4.213  11.322  0.7442  1.0905 -0.0084
  748MPD2     C11103   1.380   0.565   0.539  0.0911 -0.3023  0.8007
  748MPD2    C111104   1.420   0.504   0.650  0.5738 -0.0653 -0.8707
  748MPD2    C211105   1.518   0.560   0.732 -0.3707  0.1204 -0.5294
  748MPD2    C311106   1.564   0.691   0.696 -0.1704  0.0465  0.5180
  748MPD2    C411107   1.524   0.744   0.576 -0.4707  0.4017  0.4980
  748MPD2    C511108   1.435   0.676   0.499 -0.3801 -0.2433  0.2076
  748MPD2     H11109   1.532   0.518   0.831  3.3006 -0.6169 -1.3674
  748MPD2    H111110   1.550   0.842   0.538  0.9092  0.2631  1.0766
  748MPD2    H211111   1.310   0.519   0.471 -1.5738 -0.8977  2.9370
  748MPD2    H311112   1.403   0.718   0.405 -2.4503 -2.7626 -0.2073
  748MPD2     N11113   1.649   0.763   0.777 -0.6478 -0.2477  0.4370
  748MPD2    H511114   1.703   0.713   0.847  0.2106  0.6958  0.4649
  748MPD2    N111115   1.361   0.379   0.668  0.0764 -0.5169  0.2001
  748MPD2    H711116   1.268   0.366   0.631  0.0480 -1.0726  0.4602
  749TMC3    C111117   1.786   0.925   0.854 -0.2790 -0.2082 -0.3228
  749TMC3    C211118   1.809   0.845   0.965  0.0673  0.5211 -0.5682
  749TMC3    C311119   1.901   0.885   1.055  0.4044 -0.4832 -0.4923
  749TMC3    C411120   1.854   1.044   0.838  0.2483 -0.5388  0.3706
  749TMC3    C511121   1.939   1.085   0.945  0.1321  0.1202  0.1247
  749TMC3    C611122   1.958   1.010   1.054 -0.4746 -0.0460  0.3417
  749TMC3     C11123   1.678   0.894   0.768 -0.1010  0.4485  1.1401
  749TMC3     O11124   1.629   0.980   0.699 -0.8400  0.8753  0.5001
  749TMC3     H11125   1.737   0.771   0.999 -2.1605  2.7628 -0.4445
  749TMC3    H111126   1.838   1.105   0.750  1.1526 -0.7028  0.0935
  749TMC3    H211127   2.027   1.039   1.132 -0.9461  0.3584  0.6049
  749TMC3    C711128   1.997   1.216   0.937  0.5608 -0.0206  0.3701
  749TMC3    C811129   1.881   0.830   1.192 -0.0767  0.4629 -0.7415
  749TMC3    O111130   2.083   1.237   1.021 -0.4447  0.5098 -0.1728
  749TMC3    O211131   1.912   0.908   1.283 -0.5844 -0.2557  0.4129
  750MPD2     C11132   2.381   1.257  11.385 -0.0738  0.3373  0.0546
  750MPD2    C111133   2.271   1.174  11.402 -0.2922 -0.0137  0.1060
  750MPD2    C211134   2.278   1.041  11.359  0.1139 -0.0259  0.1266
  750MPD2    C311135   2.388   1.003  11.277 -0.2448 -0.7174 -0.3519
  750MPD2    C411136   2.489   1.099  11.250  0.1807  0.3941 -0.1221
  750MPD2    C511137   2.486   1.224  11.301 -0.2177 -0.3567 -0.3241
  750MPD2     H11138   2.199   0.970  11.378  0.3211 -1.2526 -3.5036
  750MPD2    H111139   2.568   1.081  11.178 -0.5578 -0.7313 -0.6572
  750MPD2    H211140   2.387   1.357  11.427  1.8039  0.4181 -0.4051
  750MPD2    H311141   2.569   1.293  11.288 -0.5294 -0.1899 -1.3612
  750MPD2     N11142   2.399   0.880  11.210  0.3540 -0.3071  0.1475
  750MPD2    H511143   2.446   0.879  11.121  0.5194 -1.9326  0.2558
  750MPD2    N111144   2.163   1.236  11.470  0.2114 -0.1212  0.7202
  750MPD2    H711145   2.182   1.323  11.518 -0.6522 -0.6109  1.9900
  751TMC3    C111146   2.346   0.666  11.139  0.0367 -0.2705  0.3312
  751TMC3    C211147   2.234   0.582  11.118 -0.1440 -0.1698 -0.2280
  751TMC3    C311148   2.214   0.526  10.996  0.3868  0.7350 -1.0970
  751TMC3    C411149   2.436   0.687  11.035 -0.8119 -0.2035 -0.7537
  751TMC3    C511150   2.416   0.618  10.926  0.3463  0.2568  0.0149
  751TMC3    C611151   2.305   0.538  10.898 -0.0419  0.3771 -0.0041
  751TMC3     C11152   2.342   0.763  11.246 -0.2071  0.1830 -0.2617
  751TMC3     O11153   2.275   0.739  11.341  0.1617 -0.0210 -0.4472
  751TMC3     H11154   2.155   0.589  11.191  1.3751  1.1335  1.3174
  751TMC3    H111155   2.533   0.733  11.049 -0.4840 -0.9490 -0.5601
  751TMC3    H211156   2.287   0.505  10.797 -0.1494  3.0512 -0.8527
  751TMC3    C711157   2.529   0.589  10.841 -0.0720 -0.3646 -0.2294
  751TMC3    C811158   2.093   0.449  10.956 -0.3120  0.1619 -0.4186
  751TMC3    O111159   2.626   0.660  10.848  0.0885  0.4488  0.4222
  751TMC3    O211160   2.102   0.414  10.838  0.0790  0.7278  0.8083
  752TMC3    C111161   0.913   1.457  17.559  0.9900  0.5980  0.6007
  752TMC3    C211162   0.823   1.357  17.528 -0.5098  0.3927  0.6788
  752TMC3    C311163   0.751   1.301  17.635  0.2310  0.0588 -1.0741
  752TMC3    C411164   0.921   1.513  17.678 -0.6091 -0.2236  1.2706
  752TMC3    C511165   0.862   1.455   0.042 -0.3934  0.1323  0.1013
  752TMC3    C611166   0.783   1.343   0.023  0.4460 -0.7126  0.0811
  752TMC3     C11167   0.987   1.514  17.452  0.1128 -0.3798  0.0305
  752TMC3     O11168   1.072   1.602  17.474 -0.6334  0.2735 -0.5101
  752TMC3     H11169   0.826   1.314  17.428 -0.8290  0.9619  0.4284
  752TMC3    H111170   0.997   1.590  17.689  1.3098 -1.9962  0.5844
  752TMC3    H211171   0.729   1.306   0.110  0.9871 -1.0341  0.2817
  752TMC3    C711172   0.871   1.512   0.178  0.3721 -0.4050  0.2524
  752TMC3    C811173   0.699   1.165  17.616  0.3451  0.1036  0.1128
  752TMC3    O111174   0.839   1.440   0.270 -0.0274 -0.1938 -0.1861
  752TMC3    O211175   0.708   1.082  17.707 -0.6406  0.0294  0.2205
  753TMC3    C111176   2.782   2.006  13.664 -0.2508  0.2315 -0.4353
  753TMC3    C211177   2.834   1.929  13.760 -0.1124  0.5384  0.7554
  753TMC3    C311178   2.881   1.808  13.732  0.5402 -0.1591  0.0089
  753TMC3    C411179   2.775   1.972  13.534  0.4354  0.6678 -0.0183
  753TMC3    C511180   2.821   1.846  13.511 -0.0411  0.1197 -0.0422
  753TMC3    C611181   2.881   1.761  13.604 -0.1336 -0.4215  0.8117
  753TMC3     C11182   2.811   2.151  13.689  0.1457  0.0964  0.0427
  753TMC3     O11183   2.889   2.175  13.783  0.2677  0.0335  0.3806
  753TMC3     H11184   2.809   1.968  13.858  2.5794 -0.1471  1.6985
  753TMC3    H111185   2.747   2.044  13.458 -1.5857  0.4256  0.5034
  753TMC3    H211186   2.911   1.660  13.578  2.1665  0.3448  0.4714
  753TMC3    C711187   2.812   1.808  13.370 -0.2172 -0.5771  0.1620
  753TMC3    C811188   2.997   1.775  13.806  0.6361  0.5455  0.4163
  753TMC3    O111189   2.742   1.867  13.293  0.5090  0.1755 -0.1022
  753TMC3    O211190   3.061   1.675  13.770 -0.1470 -0.1326 -0.4180
  754MPD2     C11191   2.184   0.578  13.139 -0.3844  0.3825 -0.1543
  754MPD2    C111192   2.143   0.448  13.115  0.3526 -0.0038  0.0318
  754MPD2    C211193   2.030   0.441  13.046 -0.2317 -0.3467 -0.3933
  754MPD2    C311194   1.945   0.554  13.024 -0.0542 -0.1088 -0.0210
  754MPD2    C411195   1.985   0.682  13.055 -0.4557 -0.0246  0.3774
  754MPD2    C511196   2.103   0.691  13.120 -0.2594 -0.0943  0.4439
  754MPD2     H11197   1.987   0.341  13.036 -0.6989 -0.0705 -1.1612
  754MPD2    H111198   1.932   0.776  13.041  1.4505  0.8843 -0.7116
  754MPD2    H211199   2.285   0.597  13.172  0.7893 -1.9381 -2.3351
  754MPD2    H311200   2.139   0.787  13.153 -0.5071  0.2415 -0.2646
  754MPD2     N11201   1.807   0.543  12.984  0.0866 -0.2532  0.3559
  754MPD2    H511202   1.753   0.628  12.993  2.2714  1.1628 -0.1211
  754MPD2    N111203   2.223   0.338  13.160 -0.5506 -0.1162 -0.0718
  754MPD2    H711204   2.311   0.364  13.203 -1.1396  0.1953  0.9558
  755MPD2     C11205   1.215   0.980  13.413 -0.0759 -0.3508 -0.3044
  755MPD2    C111206   1.155   0.858  13.381 -0.0240  0.6482  0.1718
  755MPD2    C211207   1.217   0.778  13.288  0.1383 -0.1298  0.8118
  755MPD2    C311208   1.325   0.818  13.219 -0.8235  0.7071 -1.3423
  755MPD2    C411209   1.383   0.937  13.246 -0.6423  0.1744  0.2722
  755MPD2    C511210   1.330   1.014  13.346 -0.6240 -0.3640 -0.1511
  755MPD2     H11211   1.177   0.679  13.272 -0.0060 -0.3616  2.6316
  755MPD2    H111212   1.473   0.964  13.192 -0.2598 -1.2548  0.2007
  755MPD2    H211213   1.177   1.049  13.487 -2.8304 -0.5086 -1.5886
  755MPD2    H311214   1.373   1.112  13.360 -0.0763 -0.7129  0.6491
  755MPD2     N11215   1.382   0.732  13.116 -0.0978 -0.1499 -0.2680
  755MPD2    H511216   1.476   0.750  13.082 -0.2137 -0.8359 -0.9294
  755MPD2    N111217   1.041   0.807  13.449 -0.4968  0.7109  0.1724
  755MPD2    H711218   1.025   0.710  13.422  0.7028  0.5196  0.1699
  756MPD2     C11219   2.313   2.048   9.658  1.0710 -0.1408  0.3768
  756MPD2    C111220   2.215   2.009   9.744  0.2357 -0.6067 -0.2024
  756MPD2    C211221   2.086   2.004   9.694  0.2005 -0.2520  0.0756
  756MPD2    C311222   2.050   2.059   9.574  0.2616  0.5356  0.4459
  756MPD2    C411223   2.152   2.099   9.489 -0.0147  0.1882 -0.0831
  756MPD2    C511224   2.285   2.090   9.529  0.0209 -0.3439  0.2906
  756MPD2     H11225   2.007   1.970   9.759  0.5245 -0.5972  0.2954
  756MPD2    H111226   2.126   2.145   9.395 -0.7403  0.8281  0.4254
  756MPD2    H211227   2.417   2.063   9.683  0.8895  1.8263 -0.0164
  756MPD2    H311228   2.360   2.135   9.466  1.2290  1.1232  2.7642
  756MPD2     N11229   1.914   2.063   9.524  0.4117 -0.1660  0.3059
  756MPD2    H511230   1.842   2.015   9.577  0.6874 -2.5176 -1.3825
  756MPD2    N111231   2.240   1.970   9.876  0.0586 -0.0648 -0.3320
  756MPD2    H711232   2.162   1.948   9.937 -0.4635  0.5895 -0.7629
  757MPD2     C11233   1.208   1.710   9.915 -0.5530  0.4321  0.5600
  757MPD2    C111234   1.339   1.676   9.885  0.4753  0.2624 -0.4135
  757MPD2    C211235   1.417   1.751   9.791  0.2447  0.1651  0.5691
  757MPD2    C311236   1.371   1.874   9.747  0.6089  0.3581 -0.0843
  757MPD2    C411237   1.248   1.911   9.792 -0.1723  0.5059  0.5712
  757MPD2    C511238   1.170   1.833   9.871 -0.3466  0.0644 -0.2497
  757MPD2     H11239   1.515   1.714   9.764 -0.1634 -0.5060  0.0126
  757MPD2    H111240   1.210   2.009   9.768 -0.7856 -0.2329 -1.5537
  757MPD2    H211241   1.154   1.655   9.991  1.4219 -1.6505  0.4692
  757MPD2    H311242   1.069   1.863   9.899 -0.1528  2.3664 -2.0334
  757MPD2     N11243   1.451   1.948   9.663 -0.0943  0.2014  0.1040
  757MPD2    H511244   1.537   1.902   9.636 -1.2250  0.9831 -4.7725
  757MPD2    N111245   1.380   1.558   9.939  0.4413 -0.0930 -0.4179
  757MPD2    H711246   1.343   1.533  10.030  2.1002 -0.0221  0.2866
  758MPD2     C11247   1.929   0.752  15.906 -0.1612 -0.6645  0.0247
  758MPD2    C111248   1.970   0.679  16.017  0.2660  0.5110 -0.3369
  758MPD2    C211249   1.880   0.686  16.130 -0.1655  0.6738 -0.3387
  758MPD2    C311250   1.763   0.758  16.126  0.1399  0.1952 -0.0530
  758MPD2    C411251   1.726   0.825  16.013  0.5601  0.2114 -0.4359
  758MPD2    C511252   1.812   0.820  15.906 -0.6050 -0.4016 -0.1102
  758MPD2     H11253   1.904   0.649  16.229 -1.9625  0.1068 -0.1050
  758MPD2    H111254   1.631   0.876  16.007 -0.4914 -1.4451  1.9186
  758MPD2    H211255   1.988   0.758  15.815  0.6351  2.5771  0.7638
  758MPD2    H311256   1.781   0.873  15.817  0.6913  0.6055  0.0519
  758MPD2     N11257   1.675   0.770  16.247 -0.1730  0.3388  0.0955
  758MPD2    H511258   1.600   0.839  16.239 -1.0070 -0.6899 -0.9962
  758MPD2    N111259   2.093   0.613  16.008 -0.4548 -0.2005  0.5619
  758MPD2    H711260   2.130   0.603  15.914  0.2619  1.8024  0.6358
  759MPD2     C11261   1.083   3.863  10.552  0.0241  0.2401 -0.2562
  759MPD2    C111262   1.059   3.755  10.472  0.2326  0.2455 -0.7101
  759MPD2    C211263   1.064   3.769  10.330  0.2988  0.2502  0.1036
  759MPD2    C311264   1.095   3.886  10.266  0.1080 -0.8792 -0.0540
  759MPD2    C411265   1.118   3.994  10.346  0.7516  0.1615  0.2716
  759MPD2    C511266   1.111   3.977  10.480 -0.0608 -0.2396 -0.3494
  759MPD2     H11267   1.048   3.679  10.271  3.7139 -1.0415  1.1257
  759MPD2    H111268   1.151   4.092  10.311 -0.9688  0.8673  0.6410
  759MPD2    H211269   1.093   3.873  10.660 -0.0515 -1.1675 -0.1124
  759MPD2    H311270   1.137   4.066  10.537  0.8020 -1.7278  1.5750
  759MPD2     N11271   1.126   3.895  10.127  0.7145  0.4380  0.2111
  759MPD2    H511272   1.126   3.805  10.080 -0.1101 -0.7031  2.3823
  759MPD2    N111273   1.026   3.618  10.514  0.3358 -0.2807  0.7782
  759MPD2    H711274   1.009   3.551  10.439 -0.6852  2.1742 -1.2104
  760MPD2     C11275   0.365   0.977  11.405 -0.2405  0.6805  0.2680
  760MPD2    C111276   0.468   1.069  11.438 -0.2039  0.2933  0.3790
  760MPD2    C211277   0.598   1.042  11.417 -0.2764  0.2866 -0.0860
  760MPD2    C311278   0.640   0.925  11.360  0.1668  0.1826 -0.6242
  760MPD2    C411279   0.539   0.838  11.316 -0.3492  0.7965  0.1906
  760MPD2    C511280   0.409   0.865  11.345  0.1954  0.2710  0.2022
  760MPD2     H11281   0.668   1.121  11.441 -0.3225 -0.5195  2.6667
  760MPD2    H111282   0.562   0.744  11.266 -0.1991  0.5799  0.6665
  760MPD2    H211283   0.259   0.991  11.417 -0.2680  1.0791 -0.4527
  760MPD2    H311284   0.342   0.793  11.300  0.7184  0.2311 -0.5098
  760MPD2     N11285   0.776   0.888  11.330 -0.5137 -0.0186 -0.7773
  760MPD2    H511286   0.783   0.797  11.286 -2.1028 -0.7502  0.4655
  760MPD2    N111287   0.446   1.197  11.490 -0.2151  0.2059 -0.3834
  760MPD2    H711288   0.526   1.259  11.496  0.7919 -1.2693  1.6472
  761MPD2     C11289   1.687   0.148  11.048 -1.1631 -0.0545  0.1318
  761MPD2    C111290   1.768   0.163  10.934  0.2507  0.1878  0.2301
  761MPD2    C211291   1.877   0.246  10.950 -0.2710 -0.1944 -0.7298
  761MPD2    C311292   1.909   0.317  11.061 -0.1708  0.0756  0.0413
  761MPD2    C411293   1.827   0.301  11.173 -0.7441 -0.2451  0.1412
  761MPD2    C511294   1.724   0.216  11.169  0.0902 -0.1262 -0.3062
  761MPD2     H11295   1.941   0.255  10.863  0.0021  0.0236 -0.5066
  761MPD2    H111296   1.833   0.353  11.268 -0.6217  2.2614 -1.2375
  761MPD2    H211297   1.614   0.070  11.031  2.2554 -3.0848 -0.6414
  761MPD2    H311298   1.661   0.199  11.256  0.1358  2.2134  0.1832
  761MPD2     N11299   2.010   0.415  11.064  0.6497 -0.4751  0.4183
  761MPD2    H511300   2.027   0.453  11.156 -0.1665  1.5515 -0.2730
  761MPD2    N111301   1.747   0.083  10.818  0.1121 -0.3601  0.3400
  761MPD2    H711302   1.660   0.030  10.814 -0.4499  0.5888 -0.1611
  762MPD2     C11303   2.219   0.286  10.368 -0.7532  0.4611 -0.0378
  762MPD2    C111304   2.198   0.150  10.332  0.2111  0.6695 -0.1839
  762MPD2    C211305   2.305   0.067  10.296 -0.0449 -0.6085 -0.4095
  762MPD2    C311306   2.432   0.113  10.287 -0.2312 -0.1352  0.0815
  762MPD2    C411307   2.447   0.251  10.304 -0.1261 -0.3449 -0.0171
  762MPD2    C511308   2.350   0.333  10.356  0.0035  0.3485  0.5278
  762MPD2     H11309   2.287   4.695  10.288 -2.7189 -0.3346  1.9822
  762MPD2    H111310   2.544   0.299  10.298 -0.5126  0.2255 -1.5491
  762MPD2    H211311   2.139   0.352  10.400 -0.0753  0.5534  1.4782
  762MPD2    H311312   2.380   0.432  10.389 -0.5394  0.3635  0.9732
  762MPD2     N11313   2.533   0.016  10.264 -0.0783 -0.4132 -0.3763
  762MPD2    H511314   2.502   4.660  10.296 -2.1796  0.4962  0.1258
  762MPD2    N111315   2.068   0.105  10.366 -0.5815  0.3238 -0.4843
  762MPD2    H711316   2.006   0.177  10.403 -0.2970  0.1406  0.3423
  763MPD2     C11317   3.987   0.439  16.100 -0.8883 -0.0351  0.0320
  763MPD2    C111318   3.860   0.502  16.100  0.6792  0.6527  0.3791
  763MPD2    C211319   3.835   0.622  16.166 -0.1377 -0.0170 -0.9656
  763MPD2    C311320   3.943   0.693  16.224  0.6335  0.1301  0.0009
  763MPD2    C411321   4.068   0.636  16.219  0.4169  0.5644 -0.5684
  763MPD2    C511322   4.090   0.506  16.167  0.7468  0.3140 -0.0512
  763MPD2     H11323   3.742   0.670  16.140 -2.0256 -1.9763  2.2539
  763MPD2    H111324   4.153   0.690  16.259  0.4304 -0.6486  1.0077
  763MPD2    H211325   4.017   0.346  16.053  0.6738  0.8283 -0.6434
  763MPD2    H311326   4.191   0.465  16.164  0.7347  0.1888  1.1740
  763MPD2     N11327   3.933   0.827  16.258  0.3860 -0.3555  0.1528
  763MPD2    H511328   4.018   0.883  16.267 -0.2950  0.8667 -1.0848
  763MPD2    N111329   3.747   0.453  16.027  0.4002  0.4324  0.1989
  763MPD2    H711330   3.666   0.512  16.045 -0.9924 -0.6846 -2.3748
  764MPD2     C11331   1.306   2.461  17.709  0.0072 -0.1676  0.4963
  764MPD2    C111332   1.207   2.368  17.729 -0.6909 -0.4579 -0.2160
  764MPD2    C211333   1.189   2.313   0.119  0.0052  0.6493  0.1492
  764MPD2    C311334   1.287   2.337   0.212  0.0730 -0.4091 -0.5626
  764MPD2    C411335   1.395   2.415   0.178 -0.2587 -0.3151  0.3149
  764MPD2    C511336   1.404   2.490   0.064 -0.4682  0.3636 -0.6337
  764MPD2     H11337   1.112   2.239   0.137  0.5803  0.0168 -0.0064
  764MPD2    H111338   1.476   2.436   0.247  2.0264 -0.2612 -2.4203
  764MPD2    H211339   1.315   2.510  17.612  0.9372 -1.7311 -0.1984
  764MPD2    H311340   1.493   2.549   0.045 -0.6942  0.7249 -0.5629
  764MPD2     N11341   1.270   2.275   0.335 -0.2278  0.6025 -0.5068
  764MPD2    H511342   1.177   2.238   0.347  0.4356 -0.1255  2.4823
  764MPD2    N111343   1.124   2.327  17.626 -0.0251 -0.5039 -0.0855
  764MPD2    H711344   1.058   2.253  17.649  1.3020 -1.2742  1.2348
  765MPD2     C11345   1.363   4.585  16.112  0.5517  0.0200  0.6087
  765MPD2    C111346   1.425   4.679  16.033 -0.4794  0.6208 -0.0745
  765MPD2    C211347   1.541   4.654  15.967  0.3059 -0.0242  0.2627
  765MPD2    C311348   1.608   4.536  15.995  0.1543 -0.0763 -0.5556
  765MPD2    C411349   1.554   4.440  16.081 -0.3805 -0.2439  0.0851
  765MPD2    C511350   1.433   4.468  16.134  0.1146 -0.5725  0.6288
  765MPD2     H11351   1.598   4.719  15.902 -0.1128  0.6388  0.5668
  765MPD2    H111352   1.596   4.344  16.106 -0.5295 -0.8389 -1.9181
  765MPD2    H211353   1.262   4.590  16.151  1.2351  0.7210  2.2608
  765MPD2    H311354   1.386   4.396  16.200 -0.0778  2.0327  3.3675
  765MPD2     N11355   1.729   4.510  15.925  0.9951 -0.6082 -0.2358
  765MPD2    H511356   1.768   4.577  15.860 -0.9442 -0.6577 -1.4229
  765MPD2    N111357   1.350   0.060  16.005 -0.6154 -0.7641  0.1657
  765MPD2    H711358   1.258   0.062  16.047 -0.2995 -0.8824  0.8553
  766MPD2     C11359   0.914   4.643  15.732  0.2188  0.5321 -0.4814
  766MPD2    C111360   0.962   0.032  15.687 -0.3339  0.4049 -0.4070
  766MPD2    C211361   1.034   0.039  15.572  0.2212  0.3834  0.3317
  766MPD2    C311362   1.044   4.666  15.480 -0.7839  0.5304 -0.1101
  766MPD2    C411363   0.982   4.549  15.516 -0.3274  0.3928 -0.6866
  766MPD2    C511364   0.918   4.538  15.643 -0.4315 -0.4834  0.0453
  766MPD2     H11365   1.078   0.138  15.562 -1.4455  1.1750  0.8056
  766MPD2    H111366   0.974   4.471  15.442  2.9707  0.2975 -0.9281
  766MPD2    H211367   0.856   4.622  15.820 -0.9357  0.6986 -1.2013
  766MPD2    H311368   0.875   4.444  15.675  0.5392 -0.5837  1.0385
  766MPD2     N11369   1.127   4.668  15.360 -0.3811 -0.2269  0.2090
  766MPD2    H511370   1.155   4.586  15.307  2.8254  0.5328  0.7228
  766MPD2    N111371   0.948   0.139  15.778 -0.3338  0.2590 -0.0512
  766MPD2    H711372   0.932   0.108  15.874 -0.2570 -2.0640 -0.7899
  767MPD2     C11373   0.898   0.360  15.259 -0.2716  0.2617  0.5248
  767MPD2    C111374   1.021   0.365  15.199  0.2744  0.3342 -1.0357
  767MPD2    C211375   1.045   0.304  15.079 -0.2429 -0.7178 -0.2891
  767MPD2    C311376   0.942   0.240  15.014  0.2941  0.2403  0.2373
  767MPD2    C411377   0.807   0.241  15.066  0.0191  0.4127  0.3349
  767MPD2    C511378   0.793   0.293  15.191 -0.1788 -0.3503  0.4271
  767MPD2     H11379   1.144   0.295  15.036 -0.2374 -1.0570 -0.2073
  767MPD2    H111380   0.732   0.180  15.017  1.5977 -0.0635 -1.4692
  767MPD2    H211381   0.877   0.400  15.358  1.6941  0.8912  0.7055
  767MPD2    H311382   0.696   0.281  15.237 -0.1755  1.2539  0.8557
  767MPD2     N11383   0.973   0.180  14.887  0.2724 -0.1379  0.2735
  767MPD2    H511384   1.070   0.177  14.858  0.6956  1.1973  1.5469
  767MPD2    N111385   1.129   0.428  15.253 -0.7637 -0.3407 -0.6362
  767MPD2    H711386   1.224   0.414  15.220  0.0772  1.7897  0.8839
  768MPD2     C11387   1.952   3.445  10.150  0.3246  0.1561  0.4614
  768MPD2    C111388   1.882   3.432  10.268 -0.1754 -0.3436  0.0412
  768MPD2    C211389   1.941   3.377  10.381 -0.5402  0.1968  0.0556
  768MPD2    C311390   2.075   3.356  10.388 -0.4745  0.5528  0.4569
  768MPD2    C411391   2.143   3.356  10.271  0.3688  0.0484 -1.0025
  768MPD2    C511392   2.085   3.400  10.148  0.4338  0.3640  0.4154
  768MPD2     H11393   1.881   3.369  10.470 -1.2382  1.9489 -0.2427
  768MPD2    H111394   2.248   3.334  10.256  0.2436 -1.2335  0.0220
  768MPD2    H211395   1.912   3.466  10.052  0.6833  0.6754  0.4305
  768MPD2    H311396   2.145   3.401  10.059  1.2919  0.0859  0.9920
  768MPD2     N11397   2.153   3.328  10.502 -0.2687 -0.1254 -0.1654
  768MPD2    H511398   2.254   3.324  10.504 -0.2357  0.3048 -1.0008
  768MPD2    N111399   1.753   3.476  10.284 -0.3022  0.1915  0.0892
  768MPD2    H711400   1.718   3.450  10.376  2.1793  0.2947  1.0728
  769MPD2     C11401   3.029   1.718  14.645  0.5815  0.0610 -0.2194
  769MPD2    C111402   2.903   1.699  14.694  0.0670  0.8910 -0.3268
  769MPD2    C211403   2.874   1.756  14.817 -0.5003  0.9535 -0.8743
  769MPD2    C311404   2.972   1.819  14.893  0.1571  0.0322 -0.4205
  769MPD2    C411405   3.100   1.826  14.844 -0.0328  0.8024 -0.0343
  769MPD2    C511406   3.126   1.775  14.720  0.3183  0.4032  0.7462
  769MPD2     H11407   2.777   1.751  14.864 -0.6466 -0.7622 -1.3916
  769MPD2    H111408   3.184   1.872  14.895  0.1792  0.7825 -0.3580
  769MPD2    H211409   3.050   1.657  14.558  1.2930 -0.4266  0.2994
  769MPD2    H311410   3.227   1.760  14.683 -0.4822 -2.4453 -0.2168
  769MPD2     N11411   2.938   1.863  15.023  0.1048  0.4181  0.2087
  769MPD2    H511412   2.847   1.831  15.054  0.1312 -0.5621 -0.7112
  769MPD2    N111413   2.817   1.625  14.615  0.3295  0.8132  0.2851
  769MPD2    H711414   2.858   1.563  14.545 -0.8372  0.9571 -0.5189
  770MPD2     C11415   2.069   1.044  14.912  0.2287  0.1405 -0.2984
  770MPD2    C111416   2.192   0.993  14.871 -0.6224 -0.1129 -0.0286
  770MPD2    C211417   2.263   1.078  14.776  0.7669 -0.4124 -0.2876
  770MPD2    C311418   2.231   1.205  14.747 -0.5651  0.3891 -0.2543
  770MPD2    C411419   2.126   1.256  14.817  0.0766  0.5291  0.1154
  770MPD2    C511420   2.045   1.179  14.892 -0.1569 -0.6326  0.3836
  770MPD2     H11421   2.358   1.045  14.738  0.2495 -1.6197 -0.5308
  770MPD2    H111422   2.097   1.360  14.816  0.8948  0.7445 -1.6434
  770MPD2    H211423   2.003   0.980  14.968 -0.2146  1.4278  0.6404
  770MPD2    H311424   1.954   1.221  14.934  0.5874  1.6494 -0.2925
  770MPD2     N11425   2.304   1.277  14.649  0.1971  0.0893 -0.9073
  770MPD2    H511426   2.380   1.226  14.605  0.7155 -2.0408  2.3925
  770MPD2    N111427   2.237   0.859  14.904 -0.0114  0.1025  0.1106
  770MPD2    H711428   2.181   0.808  14.972 -1.5223  5.3849  2.8255
  771MPD2     C11429   3.733   4.077  13.543 -0.4783  0.0219  0.3028
  771MPD2    C111430   3.650   4.178  13.500 -0.5292  0.0650  0.0805
  771MPD2    C211431   3.518   4.148  13.489 -0.3204 -0.2349 -0.2738
  771MPD2    C311432   3.472   4.025  13.518 -0.2402 -0.3551  0.3583
  771MPD2    C411433   3.556   3.926  13.570 -0.7692  0.0770  0.0689
  771MPD2    C511434   3.684   3.957  13.588  0.5382  0.5360  0.9536
  771MPD2     H11435   3.444   4.222  13.460 -0.7216 -0.9771 -1.1838
  771MPD2    H111436   3.514   3.828  13.591 -0.1562 -0.4539 -1.1229
  771MPD2    H211437   3.841   4.078  13.555 -0.2927 -2.5617 -1.2350
  771MPD2    H311438   3.756   3.882  13.618 -0.6356 -0.6961  0.6594
  771MPD2     N11439   3.331   3.997  13.491 -0.3654  0.4695  0.4116
  771MPD2    H511440   3.283   4.082  13.465 -2.1662 -0.7796 -0.3574
  771MPD2    N111441   3.673   4.306  13.464  0.4500 -0.5002 -0.2872
  771MPD2    H711442   3.586   4.355  13.445 -0.0993 -1.0511  0.8032
  772MPD2     C11443   3.446   0.136  13.776  0.9135 -0.4681  1.4364
  772MPD2    C111444   3.411   0.020  13.707  0.0262  0.2198  0.4991
  772MPD2    C211445   3.307   4.681  13.751  0.0077 -0.4296 -0.5178
  772MPD2    C311446   3.224   4.719  13.854 -0.2060 -0.7321  0.1616
  772MPD2    C411447   3.257   0.096  13.929  0.8435  0.5741 -0.0367
  772MPD2    C511448   3.370   0.170  13.886 -0.2712  0.0482 -0.2398
  772MPD2     H11449   3.293   4.590  13.693 -0.6683 -0.3427 -0.4900
  772MPD2    H111450   3.205   0.135  14.015 -0.5294 -0.2175 -0.5061
  772MPD2    H211451   3.535   0.193  13.751  0.0616  0.0446 -0.4137
  772MPD2    H311452   3.403   0.259  13.940 -0.7055  0.9540 -1.4550
  772MPD2     N11453   3.106   4.650  13.881 -0.2057 -0.1519  0.4739
  772MPD2    H511454   3.041   4.698  13.943  1.7411  0.6440  1.8757
  772MPD2    N111455   3.480   4.715  13.594 -0.2386 -0.5044  0.1150
  772MPD2    H711456   3.464   4.621  13.561 -0.0361 -0.1129 -1.0987
  773MPD2     C11457   1.991   0.837  17.722 -0.9994 -0.0163  0.6014
  773MPD2    C111458   1.904   0.736   0.014 -0.4472  0.2204  0.0644
  773MPD2    C211459   1.937   0.656   0.119  0.3066  0.4681  0.2401
  773MPD2    C311460   2.054   0.670   0.191  0.2108  0.2174 -0.0090
  773MPD2    C411461   2.139   0.768   0.151  0.4640  1.0071 -0.3771
  773MPD2    C511462   2.105   0.856   0.049 -0.4183 -0.1349  0.2501
  773MPD2     H11463   1.865   0.581   0.152 -0.0272 -0.2720 -2.1960
  773MPD2    H111464   2.232   0.781   0.204  0.1424 -0.8947  0.6697
  773MPD2    H211465   1.974   0.907  17.641 -1.4264  1.1069  1.6626
  773MPD2    H311466   2.160   0.945   0.019 -0.8125 -0.0214 -0.1281
  773MPD2     N11467   2.076   0.578   0.300 -0.3078 -0.1837 -0.0870
  773MPD2    H511468   2.007   0.504   0.307  0.0384 -0.2471  2.4077
  773MPD2    N111469   1.780   0.723  17.688 -0.1466 -0.0697  0.4065
  773MPD2    H711470   1.717   0.647  17.715 -2.2445  1.9099  1.0329
  774MPD2     C11471   1.634   4.380  13.400  0.0560  0.1534  0.1694
  774MPD2    C111472   1.693   4.453  13.504  0.1529  0.3526 -0.1482
  774MPD2    C211473   1.802   4.522  13.479  0.2253 -0.2743 -0.5371
  774MPD2    C311474   1.872   4.512  13.364 -0.2951  0.7911  1.1594
  774MPD2    C411475   1.817   4.436  13.264 -1.0646  0.4118  1.3325
  774MPD2    C511476   1.693   4.375  13.282 -0.6802 -0.0257 -0.5948
  774MPD2     H11477   1.851   4.584  13.553 -1.5889 -1.5664  1.7266
  774MPD2    H111478   1.866   4.426  13.167 -1.0170 -0.1469  1.4142
  774MPD2    H211479   1.550   4.312  13.412 -0.4860  1.2687  2.6918
  774MPD2    H311480   1.657   4.307  13.206 -0.0715 -0.5123 -0.4407
  774MPD2     N11481   2.001   4.572  13.364 -0.3609  0.7678  0.4752
  774MPD2    H511482   2.024   4.629  13.445 -0.8907  0.0349  1.1307
  774MPD2    N111483   1.634   4.436  13.636  0.5902  0.4766  0.5444
  774MPD2    H711484   1.564   4.363  13.644  0.3308  0.6067 -0.5887
  775MPD2     C11485   2.612   1.728  15.553  0.6304  0.6346  0.2602
  775MPD2    C111486   2.660   1.823  15.644 -0.0542 -0.0750 -0.6240
  775MPD2    C211487   2.792   1.829  15.671  0.4129  0.2682 -0.8534
  775MPD2    C311488   2.887   1.748  15.603 -0.5581 -0.8876 -0.0971
  775MPD2    C411489   2.841   1.651  15.519 -0.0976  0.4028  0.0382
  775MPD2    C511490   2.703   1.642  15.490 -0.3118 -0.4473  0.4526
  775MPD2     H11491   2.832   1.890  15.751 -0.5199 -1.0391  0.6290
  775MPD2    H111492   2.919   1.587  15.479 -1.6164 -0.6756 -1.1894
  775MPD2    H211493   2.511   1.731  15.516  1.1040  0.6581 -1.0230
  775MPD2    H311494   2.665   1.574  15.414  0.1047 -0.0934 -0.0792
  775MPD2     N11495   3.024   1.752  15.617  0.3900  0.1008 -0.6972
  775MPD2    H511496   3.085   1.696  15.559  0.1149  0.0764 -0.9602
  775MPD2    N111497   2.569   1.897  15.722 -0.0909  0.0288 -0.2014
  775MPD2    H711498   2.471   1.871  15.713  0.3161 -2.0431  1.4708
  776MPD2     C11499   2.158   1.844  11.587 -0.4155  0.5413 -1.3236
  776MPD2    C111500   2.030   1.816  11.551 -0.2843  0.7489  0.0374
  776MPD2    C211501   1.929   1.915  11.549 -0.2484  0.5153  0.9211
  776MPD2    C311502   1.971   2.044  11.567  0.1784  0.6170 -0.4895
  776MPD2    C411503   2.105   2.072  11.605 -0.4043 -0.1197  0.3517
  776MPD2    C511504   2.194   1.970  11.617  0.3662  0.1938 -0.4012
  776MPD2     H11505   1.825   1.895  11.526  0.7588 -0.0701 -2.9586
  776MPD2    H111506   2.136   2.170  11.639  0.9400 -0.1039 -0.9199
  776MPD2    H211507   2.231   1.765  11.601 -0.1576  0.9683 -0.2528
  776MPD2    H311508   2.294   1.986  11.655  0.1904  1.4352 -0.4488
  776MPD2     N11509   1.891   2.156  11.555  0.1970  0.0291  0.8477
  776MPD2    H511510   1.931   2.240  11.595  0.0172  0.9334 -0.9147
  776MPD2    N111511   2.004   1.682  11.525  0.3681 -0.1676 -0.9403
  776MPD2    H711512   2.077   1.612  11.538 -0.0993 -0.5103 -0.1494
  777MPD2     C11513   2.380   4.430   0.862  0.3339  0.0311  0.1674
  777MPD2    C111514   2.253   4.441   0.905 -0.5798  0.0362  0.5030
  777MPD2    C211515   2.156   4.382   0.829  0.7255 -0.4837  0.1018
  777MPD2    C311516   2.183   4.312   0.721 -0.1362  0.3729  0.0009
  777MPD2    C411517   2.308   4.313   0.669  0.5144  0.4449 -0.7410
  777MPD2    C511518   2.411   4.369   0.741  0.1284 -0.1757  0.2627
  777MPD2     H11519   2.054   4.398   0.861  0.8006 -0.2245  0.2178
  777MPD2    H111520   2.336   4.259   0.578  2.1987  1.9712 -1.1293
  777MPD2    H211521   2.463   4.483   0.909 -0.1051  0.1968  0.7567
  777MPD2    H311522   2.513   4.367   0.707 -0.7671 -2.8411 -2.2173
  777MPD2     N11523   2.084   4.222   0.676  0.5947  0.6056  0.3339
  777MPD2    H511524   1.998   4.218   0.730  0.2728 -1.9659 -0.3719
  777MPD2    N111525   2.223   4.507   1.028  0.2453 -0.2105 -0.4224
  777MPD2    H711526   2.303   4.533   1.085  0.7927  1.6709 -2.0477
  778MPD2     C11527   3.604   4.529  14.998  0.7693  0.3358 -0.2650
  778MPD2    C111528   3.567   4.482  14.874  0.2964  0.1245 -0.2134
  778MPD2    C211529   3.654   4.522  14.765  1.1021  0.6081 -0.2722
  778MPD2    C311530   3.765   4.595  14.780  0.4594  0.1771 -0.0839
  778MPD2    C411531   3.800   4.631  14.907  0.2435 -0.1316 -0.4263
  778MPD2    C511532   3.721   4.605  15.014 -0.4765 -0.3357 -0.1518
  778MPD2     H11533   3.635   4.488  14.663  0.0585  1.8194 -0.4855
  778MPD2    H111534   3.888   4.692  14.921  0.4699 -0.5459 -0.0511
  778MPD2    H211535   3.542   4.501  15.082 -0.3134  0.3299 -1.0587
  778MPD2    H311536   3.752   4.657  15.104  2.2628 -0.8612 -0.8033
  778MPD2     N11537   3.836   4.633  14.661  0.2993  0.0262 -0.0447
  778MPD2    H511538   3.796   4.612  14.570  0.1992  0.7155 -0.1589
  778MPD2    N111539   3.452   4.397  14.867 -0.1615  0.4049 -0.2893
  778MPD2    H711540   3.420   4.358  14.955  3.0101  0.9847  1.1067
  779MPD2     C11541   3.153   2.919  14.555 -0.0250  0.1084  0.2739
  779MPD2    C111542   3.210   2.904  14.425 -0.7955 -0.5844  0.6735
  779MPD2    C211543   3.267   3.011  14.358 -0.0610 -0.8092  0.5643
  779MPD2    C311544   3.282   3.128  14.421  0.3713  0.1901  0.4364
  779MPD2    C411545   3.227   3.145  14.552  0.0359 -0.1176  0.2118
  779MPD2    C511546   3.164   3.037  14.614  0.0673 -0.8673  0.0260
  779MPD2     H11547   3.287   2.996  14.252  0.9180  1.6579  0.4118
  779MPD2    H111548   3.249   3.233  14.613  0.2788 -0.1913  0.2307
  779MPD2    H211549   3.102   2.846  14.617  1.2048 -1.1973 -0.2622
  779MPD2    H311550   3.133   3.051  14.717  1.3481  0.3371  0.2563
  779MPD2     N11551   3.349   3.241  14.368  0.4981  0.3174  0.2449
  779MPD2    H511552   3.350   3.322  14.429 -1.8582 -0.7044  1.6352
  779MPD2    N111553   3.222   2.778  14.358  0.1019  0.3285  0.3802
  779MPD2    H711554   3.287   2.774  14.280 -0.8589  1.0457 -0.4711
  780MPD2     C11555   3.317   2.721   0.109 -0.2660 -0.3416 -0.3039
  780MPD2    C111556   3.222   2.623   0.154  0.2448 -0.1246  0.0658
  780MPD2    C211557   3.108   2.598   0.080 -0.8694  0.0605 -0.1662
  780MPD2    C311558   3.070   2.675  17.714  0.6092 -0.2292 -0.3108
  780MPD2    C411559   3.159   2.774  17.673 -0.5964  0.0727 -0.4216
  780MPD2    C511560   3.280   2.789  17.733 -0.0742  0.2152  0.4634
  780MPD2     H11561   3.036   2.525   0.114  0.2551 -1.3436 -0.8150
  780MPD2    H111562   3.137   2.844  17.592 -1.7421  0.2165  0.0121
  780MPD2    H211563   3.406   2.751   0.163 -0.0665 -1.7971  0.1826
  780MPD2    H311564   3.345   2.865  17.690  3.4494 -1.8485  2.1382
  780MPD2     N11565   2.941   2.651  17.662 -1.0316 -0.1477  0.3918
  780MPD2    H511566   2.885   2.583  17.712 -0.3561 -0.1018  1.2024
  780MPD2    N111567   3.246   2.538   0.262  0.1980  0.3211 -0.5617
  780MPD2    H711568   3.169   2.473   0.275  0.9951 -0.7704 -1.3011
  781MPD2     C11569   4.401   0.631  12.025  0.7273 -0.2331 -0.2574
  781MPD2    C111570   4.511   0.545  12.050 -1.2315 -0.3451  0.4090
  781MPD2    C211571   4.626   0.550  11.978  0.5372 -0.3354 -0.8260
  781MPD2    C311572   4.645   0.652  11.890  0.1410  0.1898  0.6122
  781MPD2    C411573   4.539   0.740  11.874 -0.5775  0.0053  0.7351
  781MPD2    C511574   4.417   0.736  11.939 -0.2059 -0.7246  0.0697
  781MPD2     H11575   4.706   0.485  12.013 -1.6287 -2.5623 -0.0307
  781MPD2    H111576   4.544   0.814  11.794  0.3228 -0.6196  0.2099
  781MPD2    H211577   4.309   0.620  12.081  0.7978  1.4053  0.1615
  781MPD2    H311578   4.340   0.809  11.918 -0.3754 -0.6401  1.0059
  781MPD2     N11579   0.022   0.656  11.797  0.5622 -0.2750 -0.0605
  781MPD2    H511580   0.034   0.737  11.736 -0.5108  1.0452  1.4635
  781MPD2    N111581   4.513   0.452  12.155  0.1681  0.2901 -0.0638
  781MPD2    H711582   4.600   0.403  12.176 -1.0512 -1.9991 -0.2857
  782MPD2     C11583   2.655   1.050  10.184  0.1509  0.2163 -0.0633
  782MPD2    C111584   2.776   1.052  10.246 -0.2400  0.1766  0.4610
  782MPD2    C211585   2.822   1.176  10.289  0.6142  0.6037  0.2076
  782MPD2    C311586   2.742   1.293  10.277  0.6742 -0.0710  0.2158
  782MPD2    C411587   2.611   1.283  10.231  0.0198  0.5878  0.0696
  782MPD2    C511588   2.570   1.161  10.179 -0.1850 -0.6849  0.2935
  782MPD2     H11589   2.921   1.198  10.327  0.8481 -0.1988  0.0575
  782MPD2    H111590   2.542   1.366  10.223  0.9032  1.1050 -2.0481
  782MPD2    H211591   2.625   0.955  10.139 -2.1863  0.5541  0.7737
  782MPD2    H311592   2.470   1.151  10.137 -0.5201 -1.2113  1.2179
  782MPD2     N11593   2.788   1.416  10.338  0.1982 -0.3172  0.6624
  782MPD2    H511594   2.882   1.415  10.378  0.8024  1.1734 -0.7122
  782MPD2    N111595   2.855   0.937  10.255 -0.7412  0.0543 -0.0743
  782MPD2    H711596   2.818   0.845  10.235  3.7790 -1.6801 -0.4713
  783MPD2     C11597   2.610   0.291  10.653 -0.0602 -0.4110 -0.4025
  783MPD2    C111598   2.623   0.423  10.685  0.2869  0.1003 -0.2698
  783MPD2    C211599   2.732   0.490  10.632  0.4021  0.1885  0.5936
  783MPD2    C311600   2.815   0.432  10.537 -0.1536  0.2416  0.2979
  783MPD2    C411601   2.788   0.307  10.498 -0.3250 -0.5435  0.4609
  783MPD2    C511602   2.692   0.232  10.559 -0.4123 -0.7737  0.3423
  783MPD2     H11603   2.760   0.593  10.654  1.4820 -0.1714  0.9045
  783MPD2    H111604   2.843   0.255  10.420  0.4500  2.0164 -0.6971
  783MPD2    H211605   2.523   0.232  10.681 -1.0041  1.5861  0.8303
  783MPD2    H311606   2.657   0.132  10.532  0.1693 -1.0912  0.7703
  783MPD2     N11607   2.916   0.503  10.469 -0.6754  0.3800 -0.3270
  783MPD2    H511608   2.934   0.591  10.515  1.5956  0.0976 -0.6634
  783MPD2    N111609   2.525   0.469  10.774  0.0851 -0.2951  0.5189
  783MPD2    H711610   2.448   0.405  10.793 -1.8569  0.9364 -3.3006
  784MPD2     C11611   4.657   0.481   0.950  0.1531  0.0551  0.0545
  784MPD2    C111612   4.678   0.593   1.039 -0.4245 -0.0621 -0.5891
  784MPD2    C211613   4.592   0.699   1.043  0.9676  0.5252  0.0221
  784MPD2    C311614   4.493   0.707   0.941 -0.2619 -0.2650 -0.7901
  784MPD2    C411615   4.477   0.601   0.849  0.2142  0.1168  0.1990
  784MPD2    C511616   4.548   0.486   0.862 -0.0422 -0.1505  0.0250
  784MPD2     H11617   4.618   0.790   1.096 -2.1386  0.3524  1.8348
  784MPD2    H111618   4.412   0.613   0.763 -0.6081  2.2954  1.1207
  784MPD2    H211619   4.715   0.390   0.954 -1.6901 -1.0917  0.2703
  784MPD2    H311620   4.551   0.412   0.783 -2.7603 -1.6710  1.3217
  784MPD2     N11621   4.412   0.826   0.936  0.0130 -0.3919  0.3623
  784MPD2    H511622   4.419   0.887   1.017 -1.7236  1.0754 -0.5916
  784MPD2    N111623   0.060   0.602   1.122  0.7647  0.4609 -0.1411
  784MPD2    H711624   0.059   0.668   1.199 -3.5568 -0.7432  0.8001
  785MPD2     C11625   0.780   4.085  10.045 -0.0995  0.3127 -0.4377
  785MPD2    C111626   0.761   4.169  10.158  0.0654  0.1000  0.3270
  785MPD2    C211627   0.635   4.204  10.195  0.2350 -0.2898 -0.0310
  785MPD2    C311628   0.522   4.151  10.124  0.3780  0.3305  0.4124
  785MPD2    C411629   0.545   4.083  10.004 -0.4168 -0.6887 -0.3297
  785MPD2    C511630   0.673   4.039   9.969  0.0309 -0.5357 -0.0791
  785MPD2     H11631   0.619   4.287  10.263 -1.2748  0.1077 -0.8609
  785MPD2    H111632   0.463   4.061   9.937 -0.4580 -2.3276  0.2700
  785MPD2    H211633   0.876   4.052  10.008  0.2014 -0.4942  1.0697
  785MPD2    H311634   0.674   3.982   9.877 -2.5466 -0.1282 -0.3719
  785MPD2     N11635   0.394   4.197  10.170 -0.2263 -0.2789 -0.3354
  785MPD2    H511636   0.400   4.256  10.253 -4.4778  0.4883 -0.5789
  785MPD2    N111637   0.881   4.214  10.225  0.0909  0.5671  0.0034
  785MPD2    H711638   0.969   4.193  10.179  0.3916 -1.5292  1.5319
  786MPD2     C11639   4.202   2.867  14.398  0.1917 -0.0763 -0.1887
  786MPD2    C111640   4.158   2.774  14.487  0.2649 -0.2975 -0.0536
  786MPD2    C211641   4.221   2.752  14.609  0.0919  0.0857  0.5304
  786MPD2    C311642   4.325   2.831  14.653  0.1564 -0.2714 -0.0262
  786MPD2    C411643   4.378   2.918  14.556  0.4566  0.3938 -0.4481
  786MPD2    C511644   4.314   2.944  14.439 -0.2909 -0.2165  0.7207
  786MPD2     H11645   4.180   2.680  14.679 -0.9625  1.2481  1.1059
  786MPD2    H111646   4.460   2.983  14.584  0.5107  0.4861 -0.8139
  786MPD2    H211647   4.148   2.876  14.305  0.7293  1.7109 -0.3218
  786MPD2    H311648   4.353   3.028  14.382 -0.5762 -0.5618  0.0242
  786MPD2     N11649   4.387   2.807  14.773 -0.4851 -0.1555 -0.3326
  786MPD2    H511650   4.462   2.874  14.787 -1.2424  0.3140  1.5353
  786MPD2    N111651   4.058   2.682  14.458  0.8107  0.4374 -0.2986
  786MPD2    H711652   4.033   2.620  14.534 -2.0822 -0.3515 -1.9013
  787MPD2     C11653   4.066   2.294  14.845  0.4239  0.5349 -0.5925
  787MPD2    C111654   4.045   2.204  14.739  0.8524 -0.4648 -0.9656
  787MPD2    C211655   4.043   2.062  14.761 -0.7874 -0.0702  0.3275
  787MPD2    C311656   4.075   2.015  14.885  0.4860  0.4613 -0.1892
  787MPD2    C411657   4.115   2.107  14.983 -0.1051 -0.0889  0.5143
  787MPD2    C511658   4.104   2.245  14.960  0.0154  0.1822 -0.0434
  787MPD2     H11659   3.983   1.999  14.696 -0.0729 -0.1194 -0.2879
  787MPD2    H111660   4.149   2.073  15.080  0.1961 -1.3385 -0.0266
  787MPD2    H211661   4.043   2.400  14.844 -0.3065  0.3791 -0.8115
  787MPD2    H311662   4.126   2.306  15.047 -0.1967 -1.4589  1.1588
  787MPD2     N11663   4.066   1.878  14.917 -0.4042  0.0908  0.4167
  787MPD2    H511664   4.059   1.813  14.839 -0.3092  1.4719 -0.7516
  787MPD2    N111665   3.986   2.272  14.631 -0.2045 -0.2173 -0.0843
  787MPD2    H711666   3.985   2.373  14.638  0.6515 -0.2152  0.0310
  788MPD2     C11667   4.571   1.174   0.900  0.0401  0.5575 -0.8642
  788MPD2    C111668   4.666   1.104   0.825 -0.0808 -0.0483  0.1414
  788MPD2    C211669   4.652   1.104   0.683  0.1351 -0.6018 -0.2063
  788MPD2    C311670   4.556   1.187   0.632 -0.1470 -0.1589  0.5314
  788MPD2    C411671   4.465   1.259   0.707 -0.3007 -0.8770  0.2949
  788MPD2    C511672   4.468   1.238   0.841 -0.2342  0.0267 -0.0246
  788MPD2     H11673   4.723   1.050   0.621  1.2355 -0.0343  0.5554
  788MPD2    H111674   4.380   1.307   0.661  1.0269  1.2740  0.0996
  788MPD2    H211675   4.565   1.169   1.008  0.7755 -0.8360 -0.8885
  788MPD2    H311676   4.393   1.278   0.909  1.1718  0.1060  1.4629
  788MPD2     N11677   4.559   1.205   0.495  0.3142 -0.1527 -0.5187
  788MPD2    H511678   4.498   1.278   0.458  0.9997  0.3227 -0.7102
  788MPD2    N111679   0.033   1.045   0.894 -0.2520 -0.7990 -0.3155
  788MPD2    H711680   0.104   0.995   0.841  0.2027 -0.2256 -0.2441
  789MPD2     C11681   1.397   0.658  16.107  0.4684  0.4994 -0.0190
  789MPD2    C111682   1.397   0.591  16.229  0.2674 -0.0656 -0.2169
  789MPD2    C211683   1.309   0.636  16.330  0.3180 -0.0977 -0.2797
  789MPD2    C311684   1.218   0.739  16.312 -0.7255 -0.2152  0.4641
  789MPD2    C411685   1.222   0.810  16.191  0.0079 -0.1630  0.1583
  789MPD2    C511686   1.318   0.775  16.100  0.3623  0.3088  0.9013
  789MPD2     H11687   1.312   0.583  16.425  1.3160  2.0162  0.8786
  789MPD2    H111688   1.154   0.891  16.166 -0.1636  0.2273  1.8714
  789MPD2    H211689   1.469   0.631  16.032 -1.1329 -1.6789 -0.7592
  789MPD2    H311690   1.319   0.832  16.008  0.4718 -1.8736 -0.4608
  789MPD2     N11691   1.114   0.780  16.402  0.4087 -0.2833 -0.7113
  789MPD2    H511692   1.080   0.874  16.386  1.0751  0.2704  1.1770
  789MPD2    N111693   1.454   0.471  16.257  0.0378  0.2681  0.1429
  789MPD2    H711694   1.450   0.430  16.349  0.6094 -0.1789 -0.0317
  790MPD2     C11695   2.674   1.542  13.867 -0.0813  0.2242 -0.0654
  790MPD2    C111696   2.738   1.487  13.758 -1.0867 -0.2151 -0.7125
  790MPD2    C211697   2.681   1.503  13.636 -0.0057  0.8424  0.7202
  790MPD2    C311698   2.554   1.559  13.621  0.0783  0.5418 -0.2672
  790MPD2    C411699   2.491   1.613  13.735 -0.6187 -0.2981  0.2518
  790MPD2    C511700   2.554   1.607  13.859 -0.8359  0.3030 -0.2708
  790MPD2     H11701   2.735   1.471  13.548 -1.2649 -1.3551  0.7590
  790MPD2    H111702   2.390   1.651  13.729 -1.2242 -1.4270  3.5994
  790MPD2    H211703   2.720   1.541  13.965  0.1578 -0.2524 -0.1847
  790MPD2    H311704   2.513   1.660  13.944  0.2952 -1.5223  1.4247
  790MPD2     N11705   2.491   1.552  13.496 -0.2363 -0.4844 -0.2165
  790MPD2    H511706   2.538   1.503  13.421  0.0464  2.2521 -1.8569
  790MPD2    N111707   2.871   1.438  13.775 -0.1985  0.2004  0.0743
  790MPD2    H711708   2.899   1.430  13.873  2.5911  0.2703 -0.7046
  791MPD2     C11709   1.832   1.734  13.057  0.3557 -0.8578 -0.1626
  791MPD2    C111710   1.846   1.601  13.074  0.1289 -0.0802  0.5278
  791MPD2    C211711   1.750   1.514  13.026 -0.6678 -0.1100 -0.1464
  791MPD2    C311712   1.641   1.562  12.951  0.0902 -0.3277 -0.2110
  791MPD2    C411713   1.626   1.695  12.935  0.0339 -0.0694 -0.6508
  791MPD2    C511714   1.721   1.776  12.991 -0.0679 -0.2295  0.1889
  791MPD2     H11715   1.763   1.409  13.050 -0.2647 -0.5227 -2.1566
  791MPD2    H111716   1.551   1.741  12.871 -0.1222 -0.1880 -0.5517
  791MPD2    H211717   1.910   1.803  13.089  1.8299 -2.0786 -1.1219
  791MPD2    H311718   1.707   1.882  12.971  0.6244 -0.2867 -0.5726
  791MPD2     N11719   1.543   1.469  12.902 -0.3393  0.9839  0.1637
  791MPD2    H511720   1.566   1.372  12.918  0.3352  1.4009  1.6545
  791MPD2    N111721   1.962   1.573  13.152 -0.2504  0.1588 -0.3550
  791MPD2    H711722   2.013   1.652  13.188 -0.7636 -0.0764  0.8890
  792MPD2     C11723   2.582   2.402  11.392  0.1285 -0.5468 -0.3329
  792MPD2    C111724   2.621   2.294  11.313 -0.3071 -0.9460 -0.5085
  792MPD2    C211725   2.525   2.191  11.297 -0.2184 -0.3261 -0.0059
  792MPD2    C311726   2.392   2.213  11.334  0.1782  0.0758 -0.5732
  792MPD2    C411727   2.351   2.328  11.389  0.5973  0.0278  0.4238
  792MPD2    C511728   2.449   2.419  11.424 -0.7490 -0.2229 -0.2115
  792MPD2     H11729   2.555   2.100  11.247 -0.9091  0.4045 -1.7304
  792MPD2    H111730   2.249   2.351  11.419  0.8999  0.6044  1.0131
  792MPD2    H211731   2.648   2.480  11.429  1.4214 -1.1263 -1.4272
  792MPD2    H311732   2.417   2.508  11.478 -1.5097 -2.0480  2.3180
  792MPD2     N11733   2.283   2.125  11.321 -0.1982  0.4164  0.3131
  792MPD2    H511734   2.192   2.157  11.354 -1.3936 -1.3607 -1.2596
  792MPD2    N111735   2.749   2.296  11.261 -0.2588 -0.1005 -0.7111
  792MPD2    H711736   2.814   2.373  11.271 -0.9077  0.3102  0.3043
  793MPD2     C11737   1.895   2.142  10.523 -0.1523 -0.2760 -0.8046
  793MPD2    C111738   2.013   2.076  10.557  0.0707  0.7432 -0.0669
  793MPD2    C211739   2.029   2.042  10.690 -0.0587  0.7353  1.0382
  793MPD2    C311740   1.945   2.079  10.792 -0.4299  0.0206  0.1264
  793MPD2    C411741   1.832   2.151  10.760 -0.3345  0.7078 -0.5750
  793MPD2    C511742   1.808   2.180  10.624  0.3076  0.8511 -0.1056
  793MPD2     H11743   2.113   1.980  10.721 -0.3983 -0.4540 -0.4191
  793MPD2    H111744   1.761   2.173  10.839  0.8999 -4.0519  1.8643
  793MPD2    H211745   1.870   2.172  10.422  0.6444  0.8848 -0.6590
  793MPD2    H311746   1.719   2.226  10.583 -0.1279 -0.1265 -0.2714
  793MPD2     N11747   1.966   2.031  10.925  0.0196 -0.4298 -0.3748
  793MPD2    H511748   2.037   1.959  10.935  1.0140  0.4907 -0.8308
  793MPD2    N111749   2.119   2.058  10.465  0.2726  0.3972  0.1077
  793MPD2    H711750   2.208   2.017  10.492  0.1682 -0.2224 -0.5003
  794MPD2     C11751   1.227   1.088  17.181 -0.4683  0.3855  0.3481
  794MPD2    C111752   1.360   1.050  17.158 -0.0644  0.4902 -0.6011
  794MPD2    C211753   1.429   1.132  17.069  0.5862 -0.0758 -0.5404
  794MPD2    C311754   1.378   1.246  17.017 -0.4147 -0.0228  0.3445
  794MPD2    C411755   1.248   1.284  17.043  0.7797  0.4259 -0.2904
  794MPD2    C511756   1.170   1.199  17.117 -0.4602 -1.1210 -0.3390
  794MPD2     H11757   1.530   1.099  17.048  0.3316 -0.7954 -0.6380
  794MPD2    H111758   1.200   1.374  17.007  0.0888  0.2370  0.1588
  794MPD2    H211759   1.169   1.024  17.247 -1.5563 -1.2032 -2.1658
  794MPD2    H311760   1.070   1.225  17.149 -0.4610  0.4017 -1.5895
  794MPD2     N11761   1.442   1.332  16.930  0.1569 -0.4148  0.9002
  794MPD2    H511762   1.381   1.402  16.889  3.2141  1.1359 -1.0086
  794MPD2    N111763   1.421   0.951  17.239 -0.0573  0.3918 -0.3815
  794MPD2    H711764   1.521   0.939  17.226 -0.5811 -0.7672 -3.4694
  795MPD2     C11765   4.159   3.564  13.770 -0.1907  0.0551  0.0688
  795MPD2    C111766   4.210   3.545  13.642 -0.1466 -0.5598  0.1623
  795MPD2    C211767   4.326   3.472  13.629 -0.0563  0.1937  0.3214
  795MPD2    C311768   4.369   3.389  13.733  0.3038  0.0913  0.5374
  795MPD2    C411769   4.309   3.397  13.853  0.4470 -0.4016 -0.4892
  795MPD2    C511770   4.211   3.488  13.875  0.3619  0.4526 -0.4690
  795MPD2     H11771   4.374   3.477  13.532 -1.4759 -0.9232 -0.4305
  795MPD2    H111772   4.336   3.330  13.934 -1.9917 -0.7127  0.0671
  795MPD2    H211773   4.069   3.623  13.784  0.3088  0.1600  2.8232
  795MPD2    H311774   4.166   3.500  13.973 -1.4819  2.1565 -1.5198
  795MPD2     N11775   4.457   3.279  13.699 -0.3156 -1.1981  0.1218
  795MPD2    H511776   4.504   3.274  13.609  0.2122  0.0167  0.3287
  795MPD2    N111777   4.139   3.597  13.525  0.3035 -0.3071  0.3785
  795MPD2    H711778   4.161   3.568  13.430  0.1318  0.5535  0.0742
  796MPD2     C11779   3.997   4.462  15.884 -0.2448 -0.3586 -0.3539
  796MPD2    C111780   4.029   4.556  15.979  1.0890 -0.2045 -0.3959
  796MPD2    C211781   4.050   4.689  15.950 -0.0206 -0.0479 -0.1428
  796MPD2    C311782   4.036   4.730  15.817  0.6356 -0.7109 -0.7320
  796MPD2    C411783   3.997   4.636  15.720  0.1079 -1.0339  0.1925
  796MPD2    C511784   3.983   4.507  15.757  1.0779  0.9794  0.8479
  796MPD2     H11785   4.085   0.030  16.019 -1.4851 -0.2349  0.8146
  796MPD2    H111786   3.986   4.670  15.618 -0.4340 -3.5275 -0.5818
  796MPD2    H211787   3.985   4.357  15.907  0.6627 -0.8139 -1.9288
  796MPD2    H311788   3.950   4.434  15.683 -2.4424  0.9723  2.4363
  796MPD2     N11789   4.057   0.130  15.782  0.3095 -0.3652 -0.0451
  796MPD2    H511790   4.102   0.192  15.849 -0.7248 -1.5604  1.7417
  796MPD2    N111791   4.058   4.502  16.110 -0.1859  0.8904  0.0311
  796MPD2    H711792   4.036   4.403  16.117 -0.7479  1.0132 -0.0096
  797MPD2     C11793   0.414   4.179  17.311 -0.4318  0.2263  0.0729
  797MPD2    C111794   0.438   4.299  17.382  0.0764  0.9305 -0.1394
  797MPD2    C211795   0.342   4.395  17.391  0.5189 -0.1349  0.1858
  797MPD2    C311796   0.221   4.379  17.328 -0.4278  0.9427  0.0904
  797MPD2    C411797   0.201   4.262  17.255  0.0804  0.2288  1.0407
  797MPD2    C511798   0.293   4.161  17.255  0.1037  0.8263 -0.0702
  797MPD2     H11799   0.365   4.487  17.443 -1.6265 -1.1532  2.9346
  797MPD2    H111800   0.105   4.262  17.205  0.2296  0.6953  0.7461
  797MPD2    H211801   0.498   4.112  17.296 -0.1615  0.6022 -0.1222
  797MPD2    H311802   0.261   4.074  17.199  0.9637 -0.0276  0.7704
  797MPD2     N11803   0.121   4.475  17.330  0.6881 -0.4864 -0.4432
  797MPD2    H511804   0.042   4.466  17.266 -0.7056 -0.5562  1.2835
  797MPD2    N111805   0.560   4.330  17.451 -0.2261 -0.0328  0.4787
  797MPD2    H711806   0.563   4.415  17.507  0.8926  0.2937 -0.0819
  798MPD2     C11807   0.430   0.327  17.419  0.1520 -0.5162  0.3812
  798MPD2    C111808   0.374   0.213  17.465  0.1408 -0.0420 -0.0330
  798MPD2    C211809   0.456   0.106  17.491  0.2330 -0.0149 -0.0575
  798MPD2    C311810   0.594   0.116  17.476  0.0024  0.0550  0.3336
  798MPD2    C411811   0.645   0.233  17.437  0.4240  0.1985 -1.1966
  798MPD2    C511812   0.565   0.337  17.408 -0.1920  0.2917  0.4215
  798MPD2     H11813   0.409   0.013  17.521  0.0171  0.6200  1.5564
  798MPD2    H111814   0.751   0.251  17.419  1.1133 -0.8668  1.7398
  798MPD2    H211815   0.377   0.417  17.390  0.5193 -1.0621 -1.9534
  798MPD2    H311816   0.607   0.430  17.373  1.4573 -0.1170  1.3540
  798MPD2     N11817   0.675   4.733  17.489  1.1113 -0.6927  0.0213
  798MPD2    H511818   0.622   4.652  17.522  1.3180 -0.3629  1.1404
  798MPD2    N111819   0.238   0.195  17.471 -0.1473  0.0464 -0.1051
  798MPD2    H711820   0.204   0.110  17.514 -2.3325  1.7753  1.5876
  799MPD2     C11821   3.774   1.197  14.789  0.6070 -0.1148 -0.0413
  799MPD2    C111822   3.741   1.102  14.688 -0.4408 -0.2937  0.6251
  799MPD2    C211823   3.709   1.155  14.566  0.2090 -0.1805  0.1884
  799MPD2    C311824   3.728   1.293  14.540 -0.6683 -0.5332 -0.0455
  799MPD2    C411825   3.752   1.384  14.641  0.3929 -0.0824  0.6896
  799MPD2    C511826   3.780   1.331  14.768  0.2050 -0.8731  0.9094
  799MPD2     H11827   3.681   1.090  14.484  1.0923  0.6886 -0.8066
  799MPD2    H111828   3.792   1.481  14.615 -1.9827  0.3725 -1.2640
  799MPD2    H211829   3.789   1.167  14.892 -1.0176 -1.3484 -0.1629
  799MPD2    H311830   3.814   1.392  14.851  2.5531  0.4333 -1.0033
  799MPD2     N11831   3.711   1.351  14.415  0.7703 -0.1358  0.0682
  799MPD2    H511832   3.730   1.450  14.409 -1.9552  0.2940 -1.2351
  799MPD2    N111833   3.735   0.964  14.717  0.3232 -0.0223  0.5735
  799MPD2    H711834   3.704   0.905  14.641 -1.6068  1.3548  0.2836
  800MPD2     C11835   4.459   2.799  14.095 -0.1822  0.7851  0.1772
  800MPD2    C111836   4.574   2.733  14.133 -0.2217  0.0344  0.2334
  800MPD2    C211837   4.591   2.593  14.113 -0.0337 -0.4730 -0.7259
  800MPD2    C311838   4.501   2.525  14.033  0.2721  0.2311 -0.7255
  800MPD2    C411839   4.398   2.593  13.980  0.2539 -0.4557  0.0362
  800MPD2    C511840   4.369   2.729  14.019  0.7294  0.0165  0.4865
  800MPD2     H11841   4.676   2.535  14.148 -1.2639 -0.9056  1.5682
  800MPD2    H111842   4.325   2.554  13.910 -0.6553  0.9633  0.1870
  800MPD2    H211843   4.438   2.904  14.110 -1.7214  0.5229 -0.1297
  800MPD2    H311844   4.284   2.784  13.980 -0.1892 -0.6077  1.6008
  800MPD2     N11845   4.534   2.383  14.019  0.1471 -0.2500 -0.0127
  800MPD2    H511846   4.614   2.345  14.067  1.2486 -0.8045 -2.2973
  800MPD2    N111847   4.664   2.819  14.204 -0.2292  0.0649  0.4258
  800MPD2    H711848   4.638   2.917  14.200 -0.4637  0.0259  0.9693
  801MPD2     C11849   4.495   3.382  14.395 -0.6932  0.0488  0.3420
  801MPD2    C111850   4.551   3.301  14.492 -0.2564  0.3144 -0.4717
  801MPD2    C211851   4.471   3.257  14.596 -0.1492  0.0842  0.4530
  801MPD2    C311852   4.332   3.287  14.610 -0.3966  0.1369 -0.5180
  801MPD2    C411853   4.287   3.378  14.516 -0.7196  0.0749  0.1695
  801MPD2    C511854   4.362   3.426  14.412 -0.2449  0.6583  0.6879
  801MPD2     H11855   4.524   3.201  14.672  0.1852 -1.2605 -0.7733
  801MPD2    H111856   4.185   3.415  14.524 -0.7832 -0.1000  0.1740
  801MPD2    H211857   4.551   3.416  14.308 -1.8591 -0.1387 -0.4752
  801MPD2    H311858   4.317   3.491  14.338 -0.1749  1.6319  1.4939
  801MPD2     N11859   4.241   3.239  14.707 -0.0834  0.4913  0.0009
  801MPD2    H511860   4.144   3.267  14.695 -0.1522  0.5853  0.7471
  801MPD2    N111861   4.673   3.237  14.483  0.0527  0.4179 -0.5826
  801MPD2    H711862   4.688   3.157  14.544 -0.0861  2.3176  1.9252
  802MPD2     C11863   3.492   3.404   0.393  0.0974 -0.3337  0.1579
  802MPD2    C111864   3.448   3.416   0.263 -0.0248 -0.2260  0.1759
  802MPD2    C211865   3.523   3.362   0.159  0.0017 -0.1839  0.3035
  802MPD2    C311866   3.648   3.315   0.184  0.1295  0.1992  0.3078
  802MPD2    C411867   3.700   3.318   0.310  0.1355  0.3330 -0.1405
  802MPD2    C511868   3.621   3.359   0.416  0.3872 -0.2163  0.3220
  802MPD2     H11869   3.491   3.372   0.055 -3.5116  0.6245  1.4600
  802MPD2    H111870   3.804   3.293   0.326 -0.3256 -0.4882  1.5114
  802MPD2    H211871   3.445   3.450   0.479  0.5200  1.1395 -0.4029
  802MPD2    H311872   3.667   3.367   0.514 -0.3502  2.3240  0.4396
  802MPD2     N11873   3.717   3.276   0.069 -0.5465  0.1784  0.0850
  802MPD2    H511874   3.656   3.274  17.727 -0.2556  2.2936 -0.1998
  802MPD2    N111875   3.318   3.467   0.226 -0.7528  0.0813  0.4130
  802MPD2    H711876   3.292   3.456   0.129  0.9207  1.3226 -0.1936
  803MPD2     C11877   0.001   1.906  12.283 -0.0341 -0.1341  0.3890
  803MPD2    C111878   0.111   1.825  12.274  1.0621  0.3111  0.6456
  803MPD2    C211879   0.148   1.744  12.372  0.4010  0.3963  0.4243
  803MPD2    C311880   0.060   1.736  12.479  0.7334  0.1839  0.2614
  803MPD2    C411881   4.679   1.810  12.492 -0.0838 -0.0052 -0.1790
  803MPD2    C511882   4.656   1.903  12.390  0.5036  0.8458  0.1840
  803MPD2     H11883   0.244   1.695  12.370  0.0061 -0.2885 -2.7753
  803MPD2    H111884   4.607   1.793  12.572  1.5967 -1.4835  1.0323
  803MPD2    H211885   4.713   1.973  12.200  0.8377 -1.5090 -0.9778
  803MPD2    H311886   4.571   1.970  12.396  1.7936  2.4043  0.7962
  803MPD2     N11887   0.097   1.660  12.591  0.1685  0.1676 -0.1059
  803MPD2    H511888   0.029   1.660  12.667  0.5835  0.3178  0.2672
  803MPD2    N111889   0.184   1.825  12.159 -0.0076  0.3835  0.0238
  803MPD2    H711890   0.271   1.771  12.160  0.0180  0.4620  2.9072
  804MPD2     C11891   4.240   3.048  17.275  0.7819  0.3797 -0.1477
  804MPD2    C111892   4.280   2.983  17.388 -0.3168 -0.8038 -0.7197
  804MPD2    C211893   4.377   3.044  17.466 -0.3173  0.6619  0.2439
  804MPD2    C311894   4.442   3.160  17.420  0.5678  0.1702  0.0674
  804MPD2    C411895   4.401   3.220  17.306  0.5886  0.4121 -0.5838
  804MPD2    C511896   4.304   3.156  17.227  1.1356  1.0988 -0.1015
  804MPD2     H11897   4.402   3.011  17.566  1.1074 -1.2590 -0.7262
  804MPD2    H111898   4.447   3.308  17.264 -0.9572  1.1106 -0.8045
  804MPD2    H211899   4.152   3.014  17.220  1.4488  0.6861 -1.4076
  804MPD2    H311900   4.267   3.207  17.139 -2.2896  0.0028  0.7099
  804MPD2     N11901   4.547   3.215  17.501  0.4808  0.1456  0.6712
  804MPD2    H511902   4.560   3.171  17.592  1.8816 -1.0708 -0.1271
  804MPD2    N111903   4.215   2.869  17.444 -0.1312  0.4181  0.1289
  804MPD2    H711904   4.239   2.845  17.540  1.8901  1.1181 -0.2110
  805MPD2     C11905   3.519   1.347  15.712  0.8415  0.3147 -0.0630
  805MPD2    C111906   3.611   1.255  15.667 -0.4353 -0.4822  0.0592
  805MPD2    C211907   3.742   1.281  15.667  0.1221  0.2825 -0.1297
  805MPD2    C311908   3.792   1.396  15.732  0.2326  0.0144 -0.1435
  805MPD2    C411909   3.701   1.476  15.803  0.2731 -0.0913  0.2361
  805MPD2    C511910   3.565   1.449  15.790  0.0712  0.3717  0.0395
  805MPD2     H11911   3.808   1.211  15.617 -0.7787  0.2727 -1.2838
  805MPD2    H111912   3.727   1.560  15.867  1.6390 -0.7734  0.5897
  805MPD2    H211913   3.412   1.339  15.699  0.9499  1.1324 -1.4277
  805MPD2    H311914   3.489   1.518  15.826  0.2198 -0.5142  2.0818
  805MPD2     N11915   3.929   1.411  15.743  0.2770  0.6465 -0.7068
  805MPD2    H511916   3.985   1.350  15.683 -0.3982  0.5434 -1.2329
  805MPD2    N111917   3.574   1.149  15.581  1.0736 -0.1113  0.1867
  805MPD2    H711918   3.654   1.095  15.549  1.3978  0.8350 -0.6167
  806MPD2     C11919   4.087   0.571   0.332  0.4941  0.4617 -0.8294
  806MPD2    C111920   4.072   0.646   0.439 -0.0676 -0.1126  0.3025
  806MPD2    C211921   4.067   0.787   0.419  0.1546  0.5091 -0.6038
  806MPD2    C311922   4.078   0.839   0.294 -0.0911  0.0734 -0.3082
  806MPD2    C411923   4.095   0.756   0.185  0.3748 -0.4660  0.6331
  806MPD2    C511924   4.095   0.622   0.204 -0.6298  0.3674  0.2397
  806MPD2     H11925   4.074   0.858   0.501 -0.0120  0.0328 -0.1818
  806MPD2    H111926   4.114   0.787   0.083 -1.6755 -1.5560 -0.0910
  806MPD2    H211927   4.092   0.463   0.343  3.6906  0.7331  0.5874
  806MPD2    H311928   4.098   0.566   0.111  1.2425  0.5030  0.2090
  806MPD2     N11929   4.078   0.982   0.282  0.5379 -0.1550  0.0475
  806MPD2    H511930   4.093   1.037   0.366  1.1954 -0.0998 -0.0991
  806MPD2    N111931   4.074   0.591   0.570  0.4568  0.2027  0.2560
  806MPD2    H711932   4.111   0.497   0.578  0.6482  0.3460  1.0432
  807MPD2     C11933   3.548   0.405   1.183  0.8325 -0.3421  0.8322
  807MPD2    C111934   3.671   0.398   1.237 -0.1599 -0.3305 -0.1388
  807MPD2    C211935   3.690   0.334   1.356  0.5374  0.4271 -0.2384
  807MPD2    C311936   3.581   0.291   1.435 -0.5273  0.0360 -0.5066
  807MPD2    C411937   3.454   0.316   1.383 -0.1999  0.3646  0.2842
  807MPD2    C511938   3.445   0.366   1.258  0.6889  0.2808 -0.0826
  807MPD2     H11939   3.788   0.326   1.401 -0.2385 -0.2361  1.3083
  807MPD2    H111940   3.359   0.282   1.424 -0.7098  1.4872  0.0174
  807MPD2    H211941   3.527   0.447   1.085 -2.0893  0.9797  2.0533
  807MPD2    H311942   3.347   0.379   1.212 -0.0279 -1.2509  0.9784
  807MPD2     N11943   3.609   0.240   1.564 -0.2635  0.1225  0.1171
  807MPD2    H511944   3.705   0.218   1.590 -0.4525 -1.4862 -0.5405
  807MPD2    N111945   3.785   0.435   1.156 -0.2496 -0.0376 -0.1034
  807MPD2    H711946   3.878   0.420   1.193 -0.4687 -2.1133 -0.3960
  808MPD2     C11947   0.391   2.446   9.601 -0.3084 -0.5959 -0.7614
  808MPD2    C111948   0.294   2.548   9.645  0.2979 -0.4569 -0.1822
  808MPD2    C211949   0.348   2.668   9.683 -0.3062  0.7762  1.0108
  808MPD2    C311950   0.484   2.693   9.688  0.6883 -0.2084 -0.1286
  808MPD2    C411951   0.571   2.594   9.645 -0.2967  0.1827  0.1925
  808MPD2    C511952   0.526   2.466   9.611 -0.4820 -1.0041 -0.4246
  808MPD2     H11953   0.279   2.741   9.722 -1.0398  0.7812 -0.3211
  808MPD2    H111954   0.678   2.607   9.639 -0.1867 -0.8499  0.0209
  808MPD2    H211955   0.359   2.347   9.568 -3.6859  0.9579 -2.0922
  808MPD2    H311956   0.599   2.391   9.582  0.6658 -0.7125  1.7716
  808MPD2     N11957   0.543   2.816   9.725 -0.3282  0.4962 -0.2430
  808MPD2    H511958   0.640   2.829   9.701  0.0464  1.3460  1.7935
  808MPD2    N111959   0.153   2.527   9.655 -0.1915  0.7089 -0.2852
  808MPD2    H711960   0.099   2.609   9.681  1.1602  0.8274  2.0782
  809MPD2     C11961   1.044   3.542   9.308  0.3468 -0.0394  0.0059
  809MPD2    C111962   1.067   3.410   9.346 -0.7763  0.1089  0.1546
  809MPD2    C211963   0.974   3.352   9.431  0.1535  0.9642 -0.1663
  809MPD2    C311964   0.871   3.426   9.490 -0.0104 -0.3079  0.2284
  809MPD2    C411965   0.851   3.558   9.446  0.1305 -0.4767 -0.0553
  809MPD2    C511966   0.940   3.613   9.362  0.0152  0.6147  0.9076
  809MPD2     H11967   0.988   3.247   9.454  1.8872  0.7803 -2.1203
  809MPD2    H111968   0.767   3.616   9.482  0.2011 -2.3538  3.1443
  809MPD2    H211969   1.111   3.600   9.245  2.8530 -0.4844  2.2944
  809MPD2    H311970   0.920   3.715   9.334 -0.2388  0.7483  1.5631
  809MPD2     N11971   0.778   3.365   9.573  0.0128 -0.1495  0.0081
  809MPD2    H511972   0.701   3.428   9.596  0.8249  0.7161  0.3438
  809MPD2    N111973   1.161   3.324   9.297  0.1281 -0.5188 -0.2150
  809MPD2    H711974   1.172   3.238   9.350 -1.2160 -2.1096 -2.5594
  810MPD2     C11975   4.468   2.087  10.927  1.0018  1.0573 -0.8957
  810MPD2    C111976   4.449   2.139  10.801  0.2733 -1.5525  0.7694
  810MPD2    C211977   4.429   2.277  10.781  0.7012 -0.2546 -0.3554
  810MPD2    C311978   4.431   2.367  10.886 -0.1968 -0.0255  0.8040
  810MPD2    C411979   4.443   2.313  11.012 -0.6272  0.1246 -0.0734
  810MPD2    C511980   4.467   2.175  11.030 -0.2024 -0.0067 -0.5728
  810MPD2     H11981   4.392   2.307  10.684  0.9273  0.0264 -0.3569
  810MPD2    H111982   4.434   2.370  11.104 -2.7960 -0.4369  0.0491
  810MPD2    H211983   4.477   1.981  10.948  0.0596  1.4622  1.4936
  810MPD2    H311984   4.470   2.142  11.133  3.4819 -1.6246 -1.1980
  810MPD2     N11985   4.412   2.504  10.869  0.3416 -0.1784 -0.4659
  810MPD2    H511986   4.416   2.561  10.953 -0.1972  0.8453 -1.1381
  810MPD2    N111987   4.448   2.045  10.694 -0.3324 -0.2362  0.2188
  810MPD2    H711988   4.447   1.946  10.717 -0.0316 -0.1782  0.4782
  811MPD2     C11989   3.954   2.328  10.000 -0.1419  0.0579 -0.0046
  811MPD2    C111990   4.054   2.363  10.084  0.6012  0.4165 -1.0040
  811MPD2    C211991   4.114   2.488  10.076 -0.2743  0.0047  0.3681
  811MPD2    C311992   4.070   2.582   9.986  0.3811  0.3617  1.1983
  811MPD2    C411993   3.962   2.542   9.911 -0.1056 -0.0992  0.7499
  811MPD2    C511994   3.904   2.422   9.910  0.0839  0.0332 -0.2749
  811MPD2     H11995   4.199   2.508  10.140  1.3509 -1.4025 -1.3447
  811MPD2    H111996   3.925   2.606   9.832  1.1155 -0.9103 -0.4741
  811MPD2    H211997   3.912   2.229   9.996  0.3103 -0.0703 -1.7122
  811MPD2    H311998   3.835   2.392   9.831 -0.5196 -1.2682  0.7467
  811MPD2     N11999   4.142   2.700   9.966  0.5980 -0.3313  0.2554
  811MPD2    H512000   4.212   2.725  10.034  0.8832 -0.0157 -0.1540
  811MPD2    N112001   4.109   2.260  10.162  1.0113 -0.5867  0.1584
  811MPD2    H712002   4.050   2.177  10.168  0.6106 -0.5212 -3.0125
  812MPD2     C12003   2.651   1.907  11.980 -0.1099 -0.5745 -0.2526
  812MPD2    C112004   2.718   2.004  12.052 -0.1212  0.0892 -0.1043
  812MPD2    C212005   2.808   1.957  12.152  0.1281  0.5631 -0.2784
  812MPD2    C312006   2.815   1.817  12.181 -0.0844 -0.3662 -1.4652
  812MPD2    C412007   2.728   1.727  12.118 -0.3365 -0.7358 -0.0567
  812MPD2    C512008   2.652   1.771  12.011  0.4355 -0.0483  0.4792
  812MPD2     H12009   2.872   2.025  12.206  0.2112  0.0100  0.3159
  812MPD2    H112010   2.723   1.620  12.138  0.7875 -0.3517  2.2710
  812MPD2    H212011   2.581   1.941  11.905  0.5001  1.0459 -0.0881
  812MPD2    H312012   2.597   1.702  11.949  0.6078 -0.9515  1.3221
  812MPD2     N12013   2.909   1.776  12.280  0.0320  0.2420  0.0538
  812MPD2    H512014   2.963   1.838  12.340  0.7098  0.2882 -0.6015
  812MPD2    N112015   2.698   2.138  12.018 -0.2085  0.4701 -0.0506
  812MPD2    H712016   2.628   2.166  11.951 -0.3184 -0.1743 -0.2067
  813MPD2     C12017   2.540   3.497  12.878  1.2649 -0.3038 -0.0718
  813MPD2    C112018   2.466   3.607  12.858  0.8820  0.1614  0.0532
  813MPD2    C212019   2.331   3.601  12.848  0.0631 -0.0679  0.0728
  813MPD2    C312020   2.264   3.478  12.854  0.2347 -0.2644  0.2731
  813MPD2    C412021   2.344   3.362  12.854  0.5715 -0.3816 -0.0662
  813MPD2    C512022   2.476   3.375  12.877  0.7236  0.0199  0.0863
  813MPD2     H12023   2.273   3.692  12.839  0.4012  0.1736  0.3390
  813MPD2    H112024   2.306   3.262  12.836 -2.6340  0.7411  0.4321
  813MPD2    H212025   2.646   3.508  12.899  1.6512 -0.6805 -1.8290
  813MPD2    H312026   2.540   3.287  12.873  1.3435  0.4992 -0.4078
  813MPD2     N12027   2.121   3.474  12.851  0.5469 -0.4508 -0.2505
  813MPD2    H512028   2.075   3.565  12.849  0.8627 -0.2131  4.4732
  813MPD2    N112029   2.533   3.729  12.865 -0.2536 -0.0882 -0.3628
  813MPD2    H712030   2.623   3.728  12.911 -0.8902  0.0559  0.8782
  814MPD2     C12031   2.743   0.169  12.077 -0.1454  0.2466 -0.8739
  814MPD2    C112032   2.773   0.251  11.978  0.6202  0.5556 -0.1421
  814MPD2    C212033   2.821   0.375  12.015 -0.2310  0.8032  0.4562
  814MPD2    C312034   2.817   0.421  12.145 -0.8382 -0.4721  0.0816
  814MPD2    C412035   2.770   0.341  12.248 -0.2051  1.0227  0.4016
  814MPD2    C512036   2.738   0.214  12.215  0.0874  0.2041 -0.4750
  814MPD2     H12037   2.852   0.440  11.934 -2.3291 -1.4000 -2.1102
  814MPD2    H112038   2.767   0.377  12.351  0.4600 -0.8874  1.0778
  814MPD2    H212039   2.716   0.065  12.060 -0.1106  0.6078 -3.1587
  814MPD2    H312040   2.718   0.144  12.295 -0.8515 -1.0548 -1.8054
  814MPD2     N12041   2.857   0.555  12.163 -0.0565  0.4894  0.3740
  814MPD2    H512042   2.819   0.593  12.249 -0.6312  0.8846 -0.0617
  814MPD2    N112043   2.754   0.225  11.841 -0.5821 -0.6354 -0.4447
  814MPD2    H712044   2.782   0.300  11.778 -1.6588  1.7628  1.9148
  815MPD2     C12045   2.964   3.817  11.649  0.8193  0.2590  1.0204
  815MPD2    C112046   2.990   3.680  11.673 -0.0202  0.3152 -0.2528
  815MPD2    C212047   2.894   3.605  11.726 -0.5441  0.1535 -0.1346
  815MPD2    C312048   2.773   3.648  11.762  0.2060 -0.3329  0.4035
  815MPD2    C412049   2.750   3.775  11.747  0.3530 -0.4152 -0.2477
  815MPD2    C512050   2.847   3.860  11.695 -1.0134 -0.1659  0.3744
  815MPD2     H12051   2.917   3.501  11.747  1.0579 -0.0465 -2.8338
  815MPD2    H112052   2.647   3.808  11.753  0.6428  0.3389  0.4905
  815MPD2    H212053   3.026   3.873  11.579 -0.8435 -3.3271 -3.3542
  815MPD2    H312054   2.807   3.959  11.677  1.4837  0.2242 -3.0378
  815MPD2     N12055   2.673   3.555  11.808  0.2213  0.3333 -0.1069
  815MPD2    H512056   2.709   3.460  11.816 -2.6505 -0.7117  0.1914
  815MPD2    N112057   3.123   3.631  11.633  0.4716  0.6961  0.4529
  815MPD2    H712058   3.185   3.702  11.595  0.3620  0.9933  0.8330
  816MPD2     C12059   2.375   2.622  17.216  0.2627 -0.0424  0.0803
  816MPD2    C112060   2.475   2.713  17.232  0.2156 -0.9382 -0.1717
  816MPD2    C212061   2.607   2.674  17.193  0.2806  0.6348 -0.6997
  816MPD2    C312062   2.635   2.537  17.169  0.5295 -0.1635  0.1271
  816MPD2    C412063   2.528   2.449  17.173 -0.0750 -0.1038  0.0122
  816MPD2    C512064   2.400   2.488  17.194 -0.0553 -0.1757 -1.1221
  816MPD2     H12065   2.689   2.744  17.189 -0.3142  1.3123 -1.1118
  816MPD2    H112066   2.546   2.344  17.152  0.8452  0.2091 -0.7827
  816MPD2    H212067   2.269   2.642  17.231  0.1858  0.5395 -1.2773
  816MPD2    H312068   2.325   2.410  17.185  0.0401 -0.4290  0.1757
  816MPD2     N12069   2.764   2.495  17.150 -0.2059  0.8724 -0.3732
  816MPD2    H512070   2.837   2.566  17.145 -0.7196  1.5053  1.1268
  816MPD2    N112071   2.446   2.849  17.256 -0.3970 -0.1941 -0.0490
  816MPD2    H712072   2.346   2.864  17.267 -0.2729  0.4047  0.2527
  817MPD2     C12073   3.119   0.176   9.511 -0.3620  0.3598  1.0456
  817MPD2    C112074   3.034   0.072   9.541 -0.3287 -0.3009 -0.0678
  817MPD2    C212075   2.896   0.095   9.539 -0.3429  0.3811  0.2495
  817MPD2    C312076   2.859   0.224   9.515  0.6134  0.1938 -0.2224
  817MPD2    C412077   2.944   0.324   9.484 -0.3257 -0.0124 -0.2039
  817MPD2    C512078   3.074   0.298   9.469 -0.1826  0.5967  0.1399
  817MPD2     H12079   2.822   0.022   9.570  0.0863  0.3938  1.3246
  817MPD2    H112080   2.918   0.428   9.465 -0.7424 -0.1045 -0.1465
  817MPD2    H212081   3.228   0.172   9.510 -0.4903 -3.0591 -1.8678
  817MPD2    H312082   3.146   0.377   9.451  1.2179 -0.1622  2.4133
  817MPD2     N12083   2.721   0.248   9.533 -0.1151 -0.6124  0.1180
  817MPD2    H512084   2.666   0.163   9.545  0.1241 -0.6130  1.2160
  817MPD2    N112085   3.088   4.688   9.584  0.2858  0.2556 -0.4251
  817MPD2    H712086   3.016   4.621   9.606  0.3442  0.2333 -0.3037
  818MPD2     C12087   1.739   4.487   9.745 -0.2362  0.1710 -0.0342
  818MPD2    C112088   1.663   4.434   9.849 -1.1283 -0.5906  0.6059
  818MPD2    C212089   1.632   4.299   9.845 -0.1841  0.0732 -0.0173
  818MPD2    C312090   1.681   4.217   9.742  0.3196  0.6945  0.0915
  818MPD2    C412091   1.750   4.278   9.643 -0.8708 -1.0309  0.3537
  818MPD2    C512092   1.786   4.412   9.644  0.5741 -0.8036 -0.5559
  818MPD2     H12093   1.577   4.258   9.929 -0.9617 -1.0872 -1.0906
  818MPD2    H112094   1.764   4.216   9.555 -2.5720  0.9163 -1.2700
  818MPD2    H212095   1.791   4.582   9.756  1.2270 -0.2765 -3.0660
  818MPD2    H312096   1.850   4.455   9.568 -0.0256 -2.2730 -1.8966
  818MPD2     N12097   1.651   4.074   9.729  0.1112 -0.1630 -0.4834
  818MPD2    H512098   1.682   4.026   9.645 -0.3096  0.3669 -0.9485
  818MPD2    N112099   1.638   4.514   9.965 -0.3293  0.1546 -0.3091
  818MPD2    H712100   1.603   4.462  10.044 -1.0679 -1.8943 -1.9777
  819MPD2     C12101   4.280   0.942  15.624  0.3762  0.1253  0.3457
  819MPD2    C112102   4.384   0.855  15.597 -0.5247  0.3192 -0.1353
  819MPD2    C212103   4.508   0.872  15.653  0.1603  0.3024 -0.1249
  819MPD2    C312104   4.522   0.977  15.745  0.7240  0.5831 -0.4282
  819MPD2    C412105   4.415   1.058  15.781  0.1998 -0.1211  0.9711
  819MPD2    C512106   4.295   1.040  15.724 -0.1612  0.3438  0.1936
  819MPD2     H12107   4.595   0.811  15.636 -0.1000 -0.0184 -0.2977
  819MPD2    H112108   4.417   1.136  15.857 -1.0982 -0.2279  1.1254
  819MPD2    H212109   4.178   0.935  15.586  1.5176  1.9876 -3.0309
  819MPD2    H312110   4.209   1.102  15.744 -0.0271  1.2265 -2.0441
  819MPD2     N12111   4.652   0.999  15.800  0.0324  0.1737 -0.3935
  819MPD2    H512112   4.730   0.941  15.770 -0.4289 -1.3802  1.4212
  819MPD2    N112113   4.352   0.743  15.510 -0.7865 -0.5122  0.5099
  819MPD2    H712114   4.260   0.752  15.470 -0.6906  0.4403  0.5016
  820MPD2     C12115   3.575   0.320  15.355  0.3246  0.0346 -0.2398
  820MPD2    C112116   3.631   0.449  15.360 -0.0598  0.6445  0.6430
  820MPD2    C212117   3.765   0.466  15.336  0.2763 -0.0764  0.0232
  820MPD2    C312118   3.843   0.355  15.302  0.4355 -0.0183  0.7177
  820MPD2    C412119   3.782   0.230  15.307 -0.0279  0.0166 -0.5465
  820MPD2    C512120   3.652   0.217  15.326 -0.6245 -0.6652  0.1751
  820MPD2     H12121   3.807   0.565  15.331  0.4435 -0.0407  2.3685
  820MPD2    H112122   3.851   0.150  15.282  0.2854 -0.3853  1.6546
  820MPD2    H212123   3.467   0.312  15.363  0.2183  0.9588 -0.6738
  820MPD2    H312124   3.614   0.121  15.293  0.2026 -1.0777  0.4192
  820MPD2     N12125   3.985   0.362  15.281 -0.5028  0.3000  0.7920
  820MPD2    H512126   4.029   0.271  15.287  0.7451  0.8538  0.1764
  820MPD2    N112127   3.535   0.558  15.370  0.4893 -0.5793  0.1839
  820MPD2    H712128   3.436   0.539  15.359 -0.1741  1.5438  2.4639
  821MPD2     C12129   0.019   2.275  13.342 -0.2717 -0.0675 -0.6760
  821MPD2    C112130   0.091   2.258  13.456 -0.7628  0.3027 -0.5343
  821MPD2    C212131   0.221   2.296  13.473 -0.5145  0.1893 -0.3787
  821MPD2    C312132   0.284   2.349  13.364 -0.9143  0.1150  0.3988
  821MPD2    C412133   0.215   2.371  13.244 -0.6429 -0.0446  0.3296
  821MPD2    C512134   0.080   2.344  13.237 -0.4172  0.0669  0.1873
  821MPD2     H12135   0.273   2.272  13.564  0.3561 -1.1441 -1.2255
  821MPD2    H112136   0.264   2.409  13.155  1.7590 -2.1057  0.7737
  821MPD2    H212137   4.650   2.245  13.329 -0.7494  0.8967  0.9158
  821MPD2    H312138   0.019   2.369  13.151  1.7844  0.7916 -1.1632
  821MPD2     N12139   0.422   2.385  13.381  0.3802 -0.0840 -0.0348
  821MPD2    H512140   0.470   2.445  13.314  0.3426  0.1341  0.1345
  821MPD2    N112141   0.039   2.178  13.564  0.0562  0.7356 -0.5402
  821MPD2    H712142   0.103   2.154  13.639 -1.1612  0.7364  0.4773
  822MPD2     C12143   0.199   2.513  15.839 -0.3518  0.6963  0.5825
  822MPD2    C112144   0.284   2.542  15.941 -0.7018 -0.1890  0.1018
  822MPD2    C212145   0.249   2.644  16.025  0.3405  0.3182  0.0377
  822MPD2    C312146   0.127   2.714  16.015 -0.2606  0.2892 -0.0887
  822MPD2    C412147   0.042   2.682  15.911  0.0627 -0.5637 -0.1334
  822MPD2    C512148   0.080   2.581  15.822  0.4138  0.2559 -0.4625
  822MPD2     H12149   0.311   2.659  16.113  1.2224 -0.4436 -0.4379
  822MPD2    H112150   4.693   2.743  15.879 -0.4944 -0.4240  1.6152
  822MPD2    H212151   0.220   2.426  15.778 -0.1101  1.0811  0.1137
  822MPD2    H312152   0.016   2.558  15.738 -0.1906 -0.3883  0.1765
  822MPD2     N12153   0.102   2.823  16.097 -0.4103 -0.3259  0.9021
  822MPD2    H512154   0.171   2.854  16.164 -1.1088  0.0298  1.4581
  822MPD2    N112155   0.393   2.449  15.976 -0.3749 -0.2786 -0.6314
  822MPD2    H712156   0.449   2.479  16.054 -0.4225  0.6742 -0.9625
  823MPD2     C12157   4.615   3.060  16.872  0.2289 -0.6227 -0.5621
  823MPD2    C112158   4.623   2.970  16.767 -0.5053 -0.6363  0.7215
  823MPD2    C212159   4.652   2.840  16.782  0.6866  0.2027  0.8827
  823MPD2    C312160   4.644   2.788  16.913 -0.4523 -0.5428  0.3904
  823MPD2    C412161   4.628   2.868  17.018 -0.5938 -0.0680 -0.2174
  823MPD2    C512162   4.617   3.006  16.999  0.3738 -0.2223 -0.2490
  823MPD2     H12163   4.650   2.770  16.699 -1.4734 -1.1628  2.0714
  823MPD2    H112164   4.643   2.825  17.116  0.1874 -0.6614 -0.5950
  823MPD2    H212165   4.591   3.164  16.855 -0.3452 -0.3839  1.6852
  823MPD2    H312166   4.600   3.068  17.087  0.9753 -1.0830  0.4680
  823MPD2     N12167   4.680   2.654  16.937  0.7702 -0.2960 -0.4306
  823MPD2    H512168   4.698   2.615  17.030 -0.3903  1.5258  0.5622
  823MPD2    N112169   4.605   3.031  16.640 -0.7871 -0.7620 -0.0813
  823MPD2    H712170   4.579   3.129  16.644 -0.8313 -0.7803  0.1052
  824MPD2     C12171   0.830   1.899  15.605  0.1329 -0.0879  0.1158
  824MPD2    C112172   0.866   1.910  15.743  0.3070  0.6510  0.2274
  824MPD2    C212173   0.962   1.821  15.796 -0.0560 -0.4748 -0.2089
  824MPD2    C312174   1.009   1.720  15.718  0.2789  0.2221 -0.1478
  824MPD2    C412175   0.976   1.710  15.582  0.6381 -0.4653  0.4125
  824MPD2    C512176   0.892   1.800  15.534 -0.1502 -0.3356 -0.2931
  824MPD2     H12177   0.991   1.827  15.900  2.3616  1.0004 -0.9674
  824MPD2    H112178   1.032   1.643  15.518 -2.7166  0.4269 -3.4788
  824MPD2    H212179   0.776   1.975  15.551  0.4992  1.6842  2.2531
  824MPD2    H312180   0.871   1.790  15.428  1.2564 -1.4885 -0.4742
  824MPD2     N12181   1.084   1.615  15.777  0.2187  0.4490 -0.8036
  824MPD2    H512182   1.117   1.628  15.872 -0.1973  1.9952 -0.8602
  824MPD2    N112183   0.795   2.000  15.816  0.2742  0.4091 -0.1953
  824MPD2    H712184   0.712   2.031  15.766 -1.1267 -2.1565  0.5415
  825MPD2     C12185   1.603   1.893  16.067  0.2073  0.4880 -0.4126
  825MPD2    C112186   1.569   1.849  15.941 -0.2666 -0.2384 -0.4908
  825MPD2    C212187   1.572   1.948  15.842  0.0755 -0.3147 -0.4433
  825MPD2    C312188   1.587   2.081  15.877  0.4018  0.1505 -0.9105
  825MPD2    C412189   1.605   2.125  16.003 -0.6258  0.5140  0.3477
  825MPD2    C512190   1.619   2.029  16.100 -0.7793  0.1870  0.3601
  825MPD2     H12191   1.547   1.910  15.744  1.2849  0.8711 -1.2141
  825MPD2    H112192   1.619   2.230  16.028  2.0901  0.3193 -0.3770
  825MPD2    H212193   1.602   1.823  16.150 -0.6133 -1.4666 -2.0911
  825MPD2    H312194   1.637   2.069  16.200  1.5091 -0.2357  0.1242
  825MPD2     N12195   1.563   2.187  15.781  0.3134  0.7525  0.0919
  825MPD2    H512196   1.559   2.280  15.822  0.5909  0.9908 -0.4248
  825MPD2    N112197   1.532   1.714  15.922 -1.1845 -0.1935 -0.3195
  825MPD2    H712198   1.493   1.661  15.999  2.2550  1.2670  2.3964
  826MPD2     C12199   1.249   0.808  13.789 -0.3486  0.6384  0.1793
  826MPD2    C112200   1.316   0.925  13.751  0.0559  0.8530 -0.3479
  826MPD2    C212201   1.269   1.044  13.803 -0.4749  0.6129 -0.6519
  826MPD2    C312202   1.152   1.051  13.880 -0.5381  0.4830 -0.8156
  826MPD2    C412203   1.086   0.931  13.910 -0.3301 -0.3679 -0.0550
  826MPD2    C512204   1.148   0.819  13.873 -0.6813 -0.0269 -0.6393
  826MPD2     H12205   1.330   1.134  13.806  2.1276 -1.0989 -1.9192
  826MPD2    H112206   0.989   0.919  13.956 -0.5389 -1.4672 -0.7737
  826MPD2    H212207   1.286   0.710  13.761  2.6546  1.8805 -0.1526
  826MPD2    H312208   1.089   0.732  13.901 -2.1188  0.6809 -1.4538
  826MPD2     N12209   1.086   1.165  13.931 -0.8943 -0.2020 -0.1824
  826MPD2    H512210   0.996   1.146  13.973 -0.3561 -0.1317  0.9959
  826MPD2    N112211   1.437   0.909  13.674  0.3009 -0.2988  0.3255
  826MPD2    H712212   1.459   0.815  13.643  1.0850 -0.1751  0.5026
  827MPD2     C12213   2.841   3.067   9.686  0.0882 -0.1313 -0.1854
  827MPD2    C112214   2.751   3.044   9.789  0.2681  0.2954  1.0175
  827MPD2    C212215   2.613   3.025   9.754  0.0697 -0.0273  0.1691
  827MPD2    C312216   2.567   3.047   9.626  0.3032 -0.1418  0.2554
  827MPD2    C412217   2.658   3.084   9.527 -0.3425 -0.1843 -0.5159
  827MPD2    C512218   2.790   3.085   9.558 -0.4127 -0.4243 -0.9234
  827MPD2     H12219   2.541   2.989   9.827 -0.8721 -1.5061 -1.5107
  827MPD2    H112220   2.627   3.069   9.424 -0.4704 -0.5093 -0.4318
  827MPD2    H212221   2.948   3.067   9.700  0.0127  0.0923  0.4180
  827MPD2    H312222   2.854   3.104   9.473  1.9734 -0.0873  0.9500
  827MPD2     N12223   2.431   3.014   9.595 -0.5023 -0.5408 -0.1188
  827MPD2    H512224   2.373   2.975   9.668 -0.7057 -1.2192 -0.6364
  827MPD2    N112225   2.795   3.028   9.919 -0.2453  0.1490 -0.2894
  827MPD2    H712226   2.893   3.053   9.932 -0.3045  1.4490 -2.3251
  828MPD2     C12227   0.803   2.759  12.612 -0.9842  0.1236 -0.5888
  828MPD2    C112228   0.721   2.870  12.573  0.4659  0.1016 -0.1813
  828MPD2    C212229   0.764   2.943  12.469  0.1790  0.0455  0.2758
  828MPD2    C312230   0.883   2.912  12.402  0.0078 -0.1294  0.8765
  828MPD2    C412231   0.968   2.813  12.454 -0.2182  0.3133 -0.0959
  828MPD2    C512232   0.928   2.746  12.561 -0.3487  1.0129 -0.3372
  828MPD2     H12233   0.698   3.021  12.431  1.2406  1.3558  1.1161
  828MPD2    H112234   1.071   2.805  12.420 -0.5917 -0.4220 -1.0650
  828MPD2    H212235   0.764   2.701  12.694 -1.2844  1.5790  0.3106
  828MPD2    H312236   0.982   2.659  12.597  1.9201  2.2564 -0.7768
  828MPD2     N12237   0.936   2.977  12.291  0.4978  0.0726 -0.3144
  828MPD2    H512238   1.027   2.947  12.257  0.1671 -0.1891 -0.9670
  828MPD2    N112239   0.592   2.896  12.629  0.8136 -0.5210 -0.0763
  828MPD2    H712240   0.530   2.961  12.582 -0.0724 -1.4321 -0.1585
  829MPD2     C12241   0.011   3.243  12.180  0.1855  0.1174 -1.1525
  829MPD2    C112242   4.655   3.192  12.266 -0.0447  0.2357  0.4814
  829MPD2    C212243   4.707   3.125  12.378 -0.1161  0.1684 -0.1741
  829MPD2    C312244   0.107   3.113  12.400 -0.0577 -0.8383 -0.8404
  829MPD2    C412245   0.201   3.172  12.325 -0.0423 -0.2584 -0.4389
  829MPD2    C512246   0.143   3.234  12.209 -0.3525 -0.1786  0.1287
  829MPD2     H12247   4.641   3.061  12.436 -0.5044  0.3487 -0.4123
  829MPD2    H112248   0.304   3.163  12.357 -0.9557  0.1260  2.5673
  829MPD2    H212249   4.715   3.294  12.089  3.6929 -0.4201 -2.6369
  829MPD2    H312250   0.208   3.298  12.151  0.1545  0.9760  1.9622
  829MPD2     N12251   0.164   3.041  12.508  0.0448  0.7460 -0.0223
  829MPD2    H512252   0.264   3.030  12.515 -0.1067 -0.3751  0.4808
  829MPD2    N112253   4.514   3.204  12.243 -0.4270 -0.4171  0.2335
  829MPD2    H712254   4.485   3.274  12.177 -4.3678 -2.2465  0.0133
  830MPD2     C12255   0.654   0.729  15.827  0.1207  0.1800 -0.1699
  830MPD2    C112256   0.586   0.806  15.738 -1.0696 -0.8290  0.1530
  830MPD2    C212257   0.617   0.801  15.601 -0.9254  0.1464 -0.3142
  830MPD2    C312258   0.722   0.720  15.560  0.3520  0.5949  0.0084
  830MPD2    C412259   0.801   0.663  15.654 -0.3921 -0.3437  0.0474
  830MPD2    C512260   0.767   0.662  15.789 -1.0563 -0.3530  0.3201
  830MPD2     H12261   0.548   0.849  15.532  0.4803  1.1773 -0.9972
  830MPD2    H112262   0.884   0.601  15.624 -0.6639 -0.0938 -1.2541
  830MPD2    H212263   0.637   0.748  15.933  0.6292 -2.3652  0.3547
  830MPD2    H312264   0.827   0.609  15.862  0.8074  1.5780  0.1796
  830MPD2     N12265   0.776   0.718  15.426 -0.4324  0.3654  0.1139
  830MPD2    H512266   0.864   0.670  15.412 -1.4197 -1.4101 -0.0103
  830MPD2    N112267   0.477   0.881  15.790  0.1034 -0.0948  0.3643
  830MPD2    H712268   0.469   0.885  15.891 -1.7971 -4.2617  0.4010
  831MPD2     C12269   0.440   2.883  16.429 -0.1952 -0.5745 -0.2955
  831MPD2    C112270   0.444   2.768  16.358  0.0937  0.2828  0.1566
  831MPD2    C212271   0.329   2.689  16.363 -0.3095  0.1552 -0.0497
  831MPD2    C312272   0.221   2.725  16.444  0.1759  0.5866  0.2003
  831MPD2    C412273   0.220   2.848  16.513  0.1091 -0.4243 -0.4481
  831MPD2    C512274   0.336   2.925  16.509  0.1120 -0.2758 -0.2210
  831MPD2     H12275   0.326   2.597  16.305 -1.0917 -1.1450  2.0257
  831MPD2    H112276   0.134   2.890  16.562 -0.1844  0.5974 -1.8503
  831MPD2    H212277   0.513   2.960  16.405  0.2665 -1.5281 -1.9519
  831MPD2    H312278   0.343   3.017  16.566 -0.7332 -0.0699 -0.4561
  831MPD2     N12279   0.102   2.660  16.434  0.1682 -0.1933  0.6435
  831MPD2    H512280   0.030   2.701  16.494  0.6517 -0.0523  1.1294
  831MPD2    N112281   0.557   2.750  16.270  0.2959 -0.2020  0.2181
  831MPD2    H712282   0.626   2.823  16.259  1.9464 -1.7660  0.2756
  832MPD2     C12283   3.686   3.371  17.215 -0.5089 -0.2629 -0.0315
  832MPD2    C112284   3.677   3.512  17.229 -0.6109  0.3698 -0.5096
  832MPD2    C212285   3.559   3.566  17.181  0.1720  0.0781 -0.0943
  832MPD2    C312286   3.456   3.491  17.129  0.1456  0.3237  0.2525
  832MPD2    C412287   3.466   3.358  17.132 -0.4370  0.0904 -0.0107
  832MPD2    C512288   3.580   3.296  17.175  0.1540  0.1099  0.2417
  832MPD2     H12289   3.553   3.674  17.177 -0.5152  0.0492  0.1234
  832MPD2    H112290   3.390   3.299  17.082  0.2649  1.0806 -2.2486
  832MPD2    H212291   3.766   3.307  17.250  0.0713  0.2212 -0.4808
  832MPD2    H312292   3.585   3.188  17.161 -0.4141  0.2196 -0.7997
  832MPD2     N12293   3.340   3.548  17.065  0.0943 -1.1218  0.0249
  832MPD2    H512294   3.280   3.481  17.018 -0.6747 -0.3197 -0.1426
  832MPD2    N112295   3.792   3.579  17.275  0.0511  0.6348  0.7531
  832MPD2    H712296   3.864   3.519  17.313  1.8388  1.1976 -1.7249
  833MPD2     C12297   0.980   0.885  12.674 -0.2109  1.0966 -0.2944
  833MPD2    C112298   0.947   0.980  12.577  0.0621  0.3345  0.4283
  833MPD2    C212299   1.027   0.971  12.458  0.2013 -0.6117 -0.3614
  833MPD2    C312300   1.140   0.886  12.453  0.7833 -0.3564  0.3476
  833MPD2    C412301   1.169   0.810  12.558  0.1287  0.8509  0.1340
  833MPD2    C512302   1.096   0.818  12.674  0.4312  0.4479  0.2123
  833MPD2     H12303   1.005   1.043  12.380  2.7323  3.0048  2.2991
  833MPD2    H112304   1.252   0.741  12.546 -1.3200 -0.9683  0.4552
  833MPD2    H212305   0.917   0.863  12.760 -0.1052  0.3492 -0.4042
  833MPD2    H312306   1.116   0.743  12.750 -0.8674  0.2938  0.4043
  833MPD2     N12307   1.239   0.888  12.352 -0.0062  0.2967  0.1488
  833MPD2    H512308   1.320   0.827  12.354 -0.0802  0.2886  2.7579
  833MPD2    N112309   0.825   1.046  12.589  0.0504  0.1235  0.5927
  833MPD2    H712310   0.777   1.030  12.677  0.8880 -0.7036  0.9015
  834MPD2     C12311   1.420   0.166  11.686 -0.0143  0.3485 -0.3490
  834MPD2    C112312   1.430   0.281  11.608  0.3889  0.4542 -0.0616
  834MPD2    C212313   1.412   0.405  11.662 -0.4910 -0.6323  0.4259
  834MPD2    C312314   1.369   0.419  11.794 -0.6071 -0.6824 -0.0595
  834MPD2    C412315   1.363   0.304  11.875  0.6893 -0.8102 -0.3078
  834MPD2    C512316   1.389   0.183  11.823 -0.3577  0.1944  1.0125
  834MPD2     H12317   1.415   0.495  11.601 -1.6696  0.9852  2.7280
  834MPD2    H112318   1.331   0.306  11.978 -0.3732  0.6582 -0.6680
  834MPD2    H212319   1.432   0.067  11.644 -1.8216 -0.5013  1.1236
  834MPD2    H312320   1.379   0.092  11.880  2.8000 -0.5587  0.3846
  834MPD2     N12321   1.344   0.546  11.847  0.2653 -0.2827 -0.3787
  834MPD2    H512322   1.365   0.619  11.779  0.7061 -1.2745 -1.3076
  834MPD2    N112323   1.450   0.258  11.473 -0.0314  0.9623 -0.6270
  834MPD2    H712324   1.439   0.161  11.445  1.3973  0.1105  1.7922
  835MPD2     C12325   1.843   3.602  11.314  0.2169 -0.1643 -0.3585
  835MPD2    C112326   1.708   3.586  11.326 -0.6423 -0.2974  0.8124
  835MPD2    C212327   1.658   3.532  11.443  0.2001  0.7596  0.1691
  835MPD2    C312328   1.747   3.494  11.547 -0.4413  0.4048 -0.2448
  835MPD2    C412329   1.882   3.499  11.525 -0.3874  0.1131  0.1274
  835MPD2    C512330   1.928   3.558  11.410  0.6674 -0.0899 -0.0545
  835MPD2     H12331   1.552   3.524  11.464  0.7628  0.3633  2.8649
  835MPD2    H112332   1.958   3.472  11.598  2.4012  2.4527 -1.9240
  835MPD2    H212333   1.897   3.652  11.234  0.3605  0.5989  0.2133
  835MPD2    H312334   2.035   3.567  11.400  1.0868 -2.2101  2.4872
  835MPD2     N12335   1.709   3.450  11.674 -0.2840 -0.2346  0.2860
  835MPD2    H512336   1.787   3.447  11.740  1.2322  0.3700 -1.4728
  835MPD2    N112337   1.630   3.611  11.210  0.0322 -0.1469  0.3278
  835MPD2    H712338   1.678   3.659  11.135 -3.3974 -2.5252 -3.3974
  836MPD2     C12339   1.021   3.490  12.061 -0.1312  0.2848  0.2548
  836MPD2    C112340   1.112   3.405  12.131 -0.8090 -0.8425 -0.5018
  836MPD2    C212341   1.080   3.369  12.264  0.8966  0.2528 -0.2836
  836MPD2    C312342   0.960   3.399  12.316  0.4408 -0.0647  0.3934
  836MPD2    C412343   0.873   3.482  12.242  0.1149  0.2807 -0.3289
  836MPD2    C512344   0.900   3.525  12.118 -0.4109  0.7075 -0.6072
  836MPD2     H12345   1.152   3.320  12.328  1.2918  1.7814  0.4346
  836MPD2    H112346   0.776   3.517  12.274 -0.4868 -0.0465 -1.7746
  836MPD2    H212347   1.043   3.533  11.964  0.7039 -0.0762  0.2806
  836MPD2    H312348   0.823   3.587  12.074 -1.1362 -1.0654 -1.8372
  836MPD2     N12349   0.914   3.369  12.442 -0.4043  0.3819  0.1328
  836MPD2    H512350   0.822   3.410  12.455 -1.3915 -2.0467  0.8242
  836MPD2    N112351   1.242   3.387  12.074  0.3883 -0.2058  0.3165
  836MPD2    H712352   1.252   3.416  11.977  1.4924  3.1092  1.4348
  837MPD2     C12353   4.523   3.205  10.366  0.2395  0.4096  0.7595
  837MPD2    C112354   4.525   3.257  10.233  0.2864 -0.1636 -0.1985
  837MPD2    C212355   4.566   3.389  10.219 -0.1673  0.3286 -0.3190
  837MPD2    C312356   4.579   3.473  10.320  0.1567  0.1862 -0.8670
  837MPD2    C412357   4.565   3.424  10.452  0.3877  0.3699  0.1031
  837MPD2    C512358   4.539   3.290  10.472 -0.0911 -0.4964  0.3171
  837MPD2     H12359   4.573   3.416  10.114  0.3259  2.1574  0.1897
  837MPD2    H112360   4.608   3.489  10.528  2.1458  0.5642 -1.0669
  837MPD2    H212361   4.508   3.099  10.383 -0.5739  0.9382  3.3463
  837MPD2    H312362   4.526   3.258  10.575  3.0351 -0.7276  0.6451
  837MPD2     N12363   4.596   3.611  10.283 -0.1592  0.0301  0.4073
  837MPD2    H512364   4.613   3.631  10.185 -1.3050 -2.6425 -0.3410
  837MPD2    N112365   4.495   3.179  10.121 -0.1716 -0.6451 -0.5786
  837MPD2    H712366   4.493   3.225  10.031 -0.0071  1.4001  0.4646
  838MPD2     C12367   2.392   1.174  11.782 -0.0202  0.3429  0.1302
  838MPD2    C112368   2.422   1.066  11.701 -0.3561 -0.9171  0.1685
  838MPD2    C212369   2.330   0.967  11.688 -0.9308  0.3952  0.7088
  838MPD2    C312370   2.200   0.975  11.748 -0.2025  0.4847 -0.2969
  838MPD2    C412371   2.170   1.081  11.833 -0.3878 -0.2069 -0.1090
  838MPD2    C512372   2.269   1.181  11.849  0.5553  0.5737 -0.8355
  838MPD2     H12373   2.361   0.876  11.640  0.9235 -0.9046  4.3193
  838MPD2    H112374   2.075   1.085  11.886 -0.4981 -1.1989 -0.2270
  838MPD2    H212375   2.466   1.251  11.799 -0.2242  1.2786 -3.3873
  838MPD2    H312376   2.250   1.268  11.911  0.1831  0.4384 -0.7593
  838MPD2     N12377   2.109   0.870  11.720 -0.1003 -0.3528  0.3556
  838MPD2    H512378   2.136   0.794  11.658  0.1088  0.0821 -0.0825
  838MPD2    N112379   2.538   1.052  11.635 -0.4465 -0.1018 -0.1230
  838MPD2    H712380   2.544   0.963  11.588  1.3281 -1.6565  3.0169
  839MPD2     C12381   2.428   0.381  11.482 -0.4143  0.2569  0.8850
  839MPD2    C112382   2.466   0.413  11.355  0.4032 -0.5170  0.2079
  839MPD2    C212383   2.562   0.518  11.338  0.1636 -0.0432  0.4654
  839MPD2    C312384   2.611   0.590  11.450  0.8693  0.3084  0.4232
  839MPD2    C412385   2.564   0.551  11.574  0.0094 -0.1952  0.8617
  839MPD2    C512386   2.477   0.442  11.584 -0.0651 -1.0200 -0.2669
  839MPD2     H12387   2.597   0.548  11.240 -0.8730 -3.4339 -0.9376
  839MPD2    H112388   2.604   0.601  11.661 -0.6269 -1.2420  1.7575
  839MPD2    H212389   2.347   0.313  11.504  0.2987 -0.2180  2.0328
  839MPD2    H312390   2.447   0.404  11.681  0.2962 -0.1693  0.1727
  839MPD2     N12391   2.692   0.703  11.444  0.1858 -0.8539  0.3391
  839MPD2    H512392   2.734   0.741  11.528 -1.0672 -1.9332  1.4504
  839MPD2    N112393   2.427   0.327  11.241 -0.1179 -0.0267  0.5835
  839MPD2    H712394   2.481   0.347  11.157  0.4520 -1.8555  0.5259
  840MPD2     C12395   3.312   3.291  10.059  0.0754  0.3681  0.3979
  840MPD2    C112396   3.256   3.290  10.183  0.2044  0.3183 -0.6929
  840MPD2    C212397   3.291   3.393  10.270  0.5875 -0.8180  0.1686
  840MPD2    C312398   3.393   3.478  10.242  0.3752 -0.1858  0.0318
  840MPD2    C412399   3.462   3.467  10.119  0.2809  0.0135  0.2916
  840MPD2    C512400   3.412   3.381  10.027  0.1557  0.0060  0.4269
  840MPD2     H12401   3.232   3.404  10.360  0.4956  0.6741 -0.0859
  840MPD2    H112402   3.545   3.534  10.098 -0.0955  0.6072  0.6959
  840MPD2    H212403   3.269   3.226   9.983  0.2856 -0.0593  0.6484
  840MPD2    H312404   3.466   3.376   9.934 -1.7698 -2.4195 -0.5841
  840MPD2     N12405   3.424   3.584  10.326  0.5026 -0.8492  0.9250
  840MPD2    H512406   3.497   3.649  10.296  0.3139 -1.4546 -0.8569
  840MPD2    N112407   3.139   3.212  10.197  0.0549  0.0388 -1.0819
  840MPD2    H712408   3.122   3.143  10.125  0.7700 -1.1325 -0.1404
  841MPD2     C12409   2.205   2.912  14.226  0.0452 -0.6005 -0.1347
  841MPD2    C112410   2.294   2.815  14.272 -0.1073  0.0108 -0.4340
  841MPD2    C212411   2.393   2.853  14.362 -0.2364  0.2714  0.0644
  841MPD2    C312412   2.398   2.978  14.414 -0.2662  0.0506 -0.1628
  841MPD2    C412413   2.309   3.069  14.364 -0.3911 -0.2637  0.2921
  841MPD2    C512414   2.211   3.041  14.277 -0.6840 -0.1225 -0.4098
  841MPD2     H12415   2.469   2.779  14.386  0.1055  0.8631  0.8051
  841MPD2    H112416   2.305   3.171  14.402  1.1473  0.2099 -0.8510
  841MPD2    H212417   2.124   2.891  14.156 -0.5464  0.7162  0.1539
  841MPD2    H312418   2.130   3.101  14.237  0.4930  1.7560  0.0329
  841MPD2     N12419   2.489   3.015  14.514 -0.5011  0.1282  0.0887
  841MPD2    H512420   2.537   2.935  14.555 -0.6790 -0.0043  0.0427
  841MPD2    N112421   2.287   2.682  14.223 -0.5466 -0.0527 -0.0971
  841MPD2    H712422   2.347   2.612  14.266 -0.5881 -0.1648 -0.2221
  842MPD2     C12423   2.852   4.129  17.090 -0.9310  0.6747  0.2456
  842MPD2    C112424   2.777   4.060  17.002 -0.0468 -0.1307  0.2596
  842MPD2    C212425   2.682   3.968  17.048 -0.7763  0.3701  0.1271
  842MPD2    C312426   2.646   3.968  17.179  0.1396 -1.3465 -0.1408
  842MPD2    C412427   2.722   4.039  17.269  0.3426  0.8920  0.0650
  842MPD2    C512428   2.830   4.114  17.225  0.4189 -0.4493 -0.3945
  842MPD2     H12429   2.614   3.916  16.982 -0.7356 -1.0548  1.2188
  842MPD2    H112430   2.695   4.050  17.373  0.3628  0.0630  0.1609
  842MPD2    H212431   2.935   4.188  17.054 -1.8774  2.2573  0.6647
  842MPD2    H312432   2.871   4.179  17.301  0.6961 -0.2082 -0.7506
  842MPD2     N12433   2.519   3.909  17.207 -0.3434  0.5788  0.1826
  842MPD2    H512434   2.481   3.862  17.125 -0.8647  1.7631 -0.2544
  842MPD2    N112435   2.792   4.095  16.861 -0.1323  0.4524  0.0711
  842MPD2    H712436   2.842   4.181  16.839 -1.5502  1.6991  1.6811
  843MPD2     C12437   0.052   4.407   0.188 -0.7628 -0.4981  0.1356
  843MPD2    C112438   0.009   4.512   0.108 -0.6437 -0.0572 -0.5114
  843MPD2    C212439   0.090   4.620   0.085 -0.5078  0.6334 -0.1384
  843MPD2    C312440   0.214   4.630   0.146  0.3655 -0.2154 -0.2999
  843MPD2    C412441   0.249   4.530   0.238 -0.4785  0.3504  0.6215
  843MPD2    C512442   0.171   4.424   0.260 -0.0104 -0.2984  0.3883
  843MPD2     H12443   0.061   4.696   0.014  1.8404  2.6888  1.0519
  843MPD2    H112444   0.349   4.518   0.278  0.2296  3.2242 -0.3268
  843MPD2    H212445   4.733   4.314   0.203 -0.4112 -0.7894 -0.4143
  843MPD2    H312446   0.219   4.352   0.325 -0.8025 -2.8248 -1.8625
  843MPD2     N12447   0.308   4.731   0.124  0.4065  0.4112 -0.1775
  843MPD2    H512448   0.392   4.725   0.181  1.5804 -0.0064 -1.9235
  843MPD2    N112449   4.619   4.491   0.051 -0.7998  0.1030 -0.0185
  843MPD2    H712450   4.579   4.398   0.059 -1.2039  0.4067  1.3404
  844MPD2     C12451   3.464   3.570  16.672  0.3711  0.1494 -0.6753
  844MPD2    C112452   3.551   3.507  16.759  0.3222  1.0396  0.2895
  844MPD2    C212453   3.649   3.583  16.824  0.8151  0.0363 -0.5841
  844MPD2    C312454   3.641   3.721  16.826 -0.1236 -0.2468  0.6337
  844MPD2    C412455   3.550   3.783  16.746 -0.6451  0.4959 -0.1104
  844MPD2    C512456   3.465   3.707  16.679 -0.2685 -0.3145  0.8671
  844MPD2     H12457   3.727   3.532  16.879 -0.2047  0.1135  0.9340
  844MPD2    H112458   3.531   3.890  16.736 -0.4843  0.6768  1.4953
  844MPD2    H212459   3.388   3.524  16.609 -1.3554  0.5508  1.1072
  844MPD2    H312460   3.398   3.749  16.605 -1.9831 -1.4233  1.8090
  844MPD2     N12461   3.737   3.789  16.898 -0.2468 -0.2264 -0.4743
  844MPD2    H512462   3.809   3.733  16.942 -0.2267  0.8830  0.8900
  844MPD2    N112463   3.567   3.363  16.750 -0.1097  0.1162  0.2501
  844MPD2    H712464   3.650   3.322  16.794  0.5543  0.5891 -0.5636
  845MPD2     C12465   4.039   0.010  17.075  0.0199  0.2467  0.0962
  845MPD2    C112466   3.961   4.682  17.169  0.3219  0.0824  0.2451
  845MPD2    C212467   3.948   4.544  17.159  0.3247  0.4278  0.3767
  845MPD2    C312468   4.026   4.474  17.078  0.4570  0.4365  0.4210
  845MPD2    C412469   4.118   4.541  16.998  0.0424 -0.4167 -0.2518
  845MPD2    C512470   4.112   4.677  16.982  0.1670  0.5374  0.3982
  845MPD2     H12471   3.881   4.499  17.233 -0.8197  1.4583 -0.0356
  845MPD2    H112472   4.185   4.493  16.928  0.5585 -0.6919  0.4289
  845MPD2    H212473   4.042   0.118  17.067  0.8721  0.2445  0.4712
  845MPD2    H312474   4.165   4.725  16.901  0.6067 -0.8068 -0.1240
  845MPD2     N12475   4.016   4.336  17.082 -0.2697  0.3331  0.6780
  845MPD2    H512476   3.940   4.300  17.139 -2.2864  3.1846 -0.1709
  845MPD2    N112477   3.889   0.035  17.258  0.3469  0.0794  0.0058
  845MPD2    H712478   3.909   0.134  17.256 -0.6705  0.2357 -2.6905
  846MPD2     C12479   0.374   4.723  13.590  1.2322  0.4538  0.0748
  846MPD2    C112480   0.255   0.030  13.636  0.1760 -0.2317  0.3529
  846MPD2    C212481   0.229   0.019  13.776 -0.4880  0.2321 -0.5284
  846MPD2    C312482   0.315   4.692  13.866 -0.0632  0.6810  1.0612
  846MPD2    C412483   0.430   4.641  13.810 -0.0271 -0.1438 -0.4194
  846MPD2    C512484   0.464   4.664  13.681 -0.0953 -0.0432 -0.0360
  846MPD2     H12485   0.139   0.062  13.819  1.3480  2.9010  0.6004
  846MPD2    H112486   0.508   4.588  13.863  0.8258  0.3285 -1.1910
  846MPD2    H212487   0.406   4.724  13.486  1.9563 -0.2447  0.2953
  846MPD2    H312488   0.563   4.642  13.642  0.0479 -0.2336  0.4406
  846MPD2     N12489   0.279   4.686  13.999 -0.5283 -0.0601  0.6906
  846MPD2    H512490   0.191   4.732  14.021 -0.4788 -0.1221  1.0144
  846MPD2    N112491   0.171   0.108  13.553 -0.4277 -0.4312 -0.4638
  846MPD2    H712492   0.114   0.175  13.605  0.6322 -0.4799  0.7635
  847MPD2     C12493   0.408   0.552  14.475  0.0356 -0.1286 -0.2656
  847MPD2    C112494   0.435   0.685  14.454  0.3180 -0.1439  0.3468
  847MPD2    C212495   0.568   0.725  14.452  0.6540 -0.4631 -1.1810
  847MPD2    C312496   0.669   0.633  14.470  0.1422 -0.2390  0.1357
  847MPD2    C412497   0.638   0.501  14.474  0.2862  0.4336  0.5403
  847MPD2    C512498   0.510   0.463  14.480 -0.2158 -0.3393 -0.7835
  847MPD2     H12499   0.593   0.829  14.435  0.1843 -0.3378 -1.1095
  847MPD2    H112500   0.709   0.419  14.480  1.1570  1.2229  1.0269
  847MPD2    H212501   0.307   0.513  14.473  0.4444 -1.0723 -2.5752
  847MPD2    H312502   0.493   0.357  14.493  0.0858 -0.1110  1.4113
  847MPD2     N12503   0.803   0.671  14.499 -0.3504  0.1457  0.3501
  847MPD2    H512504   0.873   0.598  14.495  0.3262  0.8518 -0.7210
  847MPD2    N112505   0.346   0.795  14.437  0.0310 -0.1451 -0.1572
  847MPD2    H712506   0.380   0.890  14.431 -1.7197  0.4151 -1.0856
  848MPD2     C12507   3.172   3.991  16.426  0.6116  0.2592 -0.1881
  848MPD2    C112508   3.220   4.019  16.549  0.8133 -0.6198 -0.0564
  848MPD2    C212509   3.293   4.139  16.575  0.8009 -0.5792 -0.5948
  848MPD2    C312510   3.312   4.227  16.469 -0.5739  1.0665  1.0065
  848MPD2    C412511   3.252   4.199  16.353 -1.2047 -0.6512  0.1083
  848MPD2    C512512   3.182   4.086  16.331  0.4983 -0.1870  0.8516
  848MPD2     H12513   3.313   4.157  16.680 -0.1326  0.0257 -0.5249
  848MPD2    H112514   3.252   4.268  16.270  1.1616 -1.6134 -0.7014
  848MPD2    H212515   3.117   3.900  16.402  0.4062  0.3588 -0.0917
  848MPD2    H312516   3.129   4.079  16.236 -0.0891 -0.9872  1.2444
  848MPD2     N12517   3.393   4.342  16.471  0.1600  0.2061  0.2894
  848MPD2    H512518   3.385   4.386  16.380 -0.5210  0.8932  0.6815
  848MPD2    N112519   3.187   3.936  16.658  0.5784  0.0371  0.1931
  848MPD2    H712520   3.222   3.966  16.748  0.0109  1.4118 -0.0499
  849MPD2     C12521   2.049   3.653  14.429 -0.0542 -0.3681 -0.2148
  849MPD2    C112522   2.123   3.590  14.328  0.5308 -0.3714 -1.5390
  849MPD2    C212523   2.257   3.550  14.352  0.3221 -0.5214  1.0033
  849MPD2    C312524   2.308   3.583  14.475 -0.3927  0.9638  0.1409
  849MPD2    C412525   2.231   3.642  14.576 -0.0033  0.0025  0.1368
  849MPD2    C512526   2.106   3.679  14.548  0.2362  0.1666  0.0931
  849MPD2     H12527   2.326   3.504  14.283 -0.2756  1.4501 -0.8896
  849MPD2    H112528   2.275   3.675  14.669 -0.7971 -0.8095  0.8007
  849MPD2    H212529   1.946   3.683  14.416  0.3513  0.5388 -1.3951
  849MPD2    H312530   2.044   3.729  14.621  1.7852  3.7271 -1.0291
  849MPD2     N12531   2.450   3.554  14.487  0.2834 -0.2588 -0.4512
  849MPD2    H512532   2.501   3.508  14.412  1.7443 -1.0588  1.0331
  849MPD2    N112533   2.076   3.574  14.199 -0.0748  0.1642  0.2909
  849MPD2    H712534   2.140   3.522  14.140 -0.1180 -1.0171  1.2939
  850MPD2     C12535   0.594   1.684  14.653  0.1533 -0.1418  0.1420
  850MPD2    C112536   0.552   1.778  14.749 -0.4654 -0.1073 -0.6940
  850MPD2    C212537   0.649   1.839  14.824  0.0682 -0.3501 -0.5264
  850MPD2    C312538   0.779   1.825  14.804  0.0464 -0.3870 -0.3078
  850MPD2    C412539   0.828   1.740  14.707 -0.3167  0.3758 -0.5282
  850MPD2    C512540   0.732   1.680  14.629 -0.4585 -0.0561  0.1627
  850MPD2     H12541   0.614   1.903  14.904  0.9613 -0.3307 -0.1498
  850MPD2    H112542   0.932   1.725  14.681  0.2902  2.2899  0.7733
  850MPD2    H212543   0.524   1.623  14.597  2.0704 -3.2883  1.1290
  850MPD2    H312544   0.761   1.613  14.549 -1.7635 -0.2151 -0.1667
  850MPD2     N12545   0.875   1.889  14.877 -0.1273 -0.1471 -0.2671
  850MPD2    H512546   0.970   1.855  14.861 -0.7509 -2.3691  0.7648
  850MPD2    N112547   0.415   1.768  14.793 -0.4709 -0.0362  0.0212
  850MPD2    H712548   0.359   1.691  14.757 -2.7704  1.3200  0.7008
  851MPD2     C12549   0.720   1.527  15.347  0.4092 -0.3457 -0.4920
  851MPD2    C112550   0.622   1.473  15.269  0.7642 -0.5773 -0.5871
  851MPD2    C212551   0.645   1.341  15.223  0.3390  0.3142 -0.6988
  851MPD2    C312552   0.766   1.285  15.238  0.2686  0.4926 -0.7690
  851MPD2    C412553   0.868   1.350  15.304 -0.6301 -0.6399  0.2866
  851MPD2    C512554   0.845   1.469  15.354  0.6740  0.1351 -0.1355
  851MPD2     H12555   0.569   1.279  15.177  0.5691 -0.7674  0.3747
  851MPD2    H112556   0.966   1.311  15.327  0.4578  0.4055 -2.4837
  851MPD2    H212557   0.704   1.628  15.384 -1.0602 -0.3316 -1.1681
  851MPD2    H312558   0.931   1.510  15.407  1.0081  0.1937 -0.7265
  851MPD2     N12559   0.780   1.158  15.174 -0.0174 -0.2110  0.2988
  851MPD2    H512560   0.712   1.131  15.104 -0.5815  0.3204  0.6452
  851MPD2    N112561   0.503   1.545  15.247  0.1823  0.6073  0.2764
  851MPD2    H712562   0.494   1.632  15.300  2.0099  0.4131  0.9109
  852MPD2     C12563   0.085   0.051   9.877  0.1350 -0.2306  0.0652
  852MPD2    C112564   0.172   0.029   9.980  0.1702  0.7965  0.0674
  852MPD2    C212565   0.283   0.108   9.983  0.1714 -0.0393  0.2296
  852MPD2    C312566   0.298   0.215   9.893 -0.1773  0.6313 -0.0624
  852MPD2    C412567   0.200   0.243   9.798  0.2185 -0.1167  0.1287
  852MPD2    C512568   0.094   0.155   9.784  0.7058 -0.8509 -0.6363
  852MPD2     H12569   0.358   0.084  10.057  0.3538 -1.5914 -0.4681
  852MPD2    H112570   0.200   0.320   9.723  4.6452  1.1132  1.4361
  852MPD2    H212571   0.009   4.711   9.860  0.3991 -0.1571 -1.4417
  852MPD2    H312572   0.022   0.162   9.704  1.0576 -1.0137 -0.9684
  852MPD2     N12573   0.408   0.299   9.908 -0.5442 -0.7998  0.9182
  852MPD2    H512574   0.461   0.283   9.993  3.2870 -0.3641 -1.4001
  852MPD2    N112575   0.153   4.664  10.073  0.2060  0.1396 -0.0858
  852MPD2    H712576   0.235   4.662  10.132  1.0022  0.1712 -1.1786
  853MPD2     C12577   2.311   4.151  12.060 -0.3320  0.2204  0.5505
  853MPD2    C112578   2.208   4.214  11.990 -0.7513 -0.1587 -0.2983
  853MPD2    C212579   2.210   4.207  11.858  0.3710 -0.2807 -0.5415
  853MPD2    C312580   2.327   4.163  11.784  0.9645  0.7430 -0.3842
  853MPD2    C412581   2.435   4.112  11.854 -0.4149 -0.1049  1.1536
  853MPD2    C512582   2.424   4.104  11.989  0.1194 -0.3749 -0.2224
  853MPD2     H12583   2.135   4.262  11.801 -0.5952 -2.4125 -1.3195
  853MPD2    H112584   2.527   4.072  11.814  0.3568  2.4928  0.3673
  853MPD2    H212585   2.326   4.143  12.167 -2.2087  0.9015  0.8744
  853MPD2    H312586   2.506   4.065  12.049  0.2983  1.6245  0.8032
  853MPD2     N12587   2.339   4.169  11.645 -0.6007  0.2190  0.0286
  853MPD2    H512588   2.421   4.124  11.605 -0.0485 -0.2908  1.7424
  853MPD2    N112589   2.091   4.255  12.061 -0.2950  0.2622  0.5513
  853MPD2    H712590   2.083   4.228  12.159  0.9344  2.6275  1.3241
  854MPD2     C12591   3.592   4.461  13.020 -0.6441 -0.2081 -0.5990
  854MPD2    C112592   3.709   4.477  12.941  0.2199 -0.6822 -1.0909
  854MPD2    C212593   3.825   4.408  12.979 -0.4282  0.5056  0.4987
  854MPD2    C312594   3.816   4.309  13.075 -0.1463  0.9882  0.9453
  854MPD2    C412595   3.696   4.286  13.143 -0.1304  0.4335  0.1457
  854MPD2    C512596   3.589   4.368  13.121  0.1837 -0.1163  0.2712
  854MPD2     H12597   3.915   4.424  12.920 -0.0468 -0.1990  0.8918
  854MPD2    H112598   3.684   4.203  13.212  0.2078  1.0871  0.9934
  854MPD2    H212599   3.492   4.501  13.008 -0.5641  0.1074 -0.1948
  854MPD2    H312600   3.488   4.353  13.159 -0.5216 -1.0373 -1.9697
  854MPD2     N12601   3.923   4.226  13.114 -0.1596  0.1362 -0.3110
  854MPD2    H512602   3.892   4.150  13.175 -3.3412  2.8558  1.4791
  854MPD2    N112603   3.696   4.561  12.828 -0.0908 -0.3425  0.0990
  854MPD2    H712604   3.602   4.587  12.800 -0.4793 -1.7007  0.1900
  855MPD2     C12605   4.525   3.702  13.739  0.5634 -0.3137 -0.6949
  855MPD2    C112606   4.434   3.805  13.754  0.5886  0.6559 -0.1265
  855MPD2    C212607   4.385   3.864  13.633  0.0353  0.6738  0.4307
  855MPD2    C312608   4.431   3.831  13.510  0.4073  0.0428  0.3294
  855MPD2    C412609   4.531   3.737  13.499 -0.5508 -0.7871  0.2497
  855MPD2    C512610   4.567   3.667  13.613 -0.3545  0.0529 -0.5363
  855MPD2     H12611   4.311   3.943  13.640 -1.2822 -0.7502  2.4140
  855MPD2    H112612   4.577   3.709  13.404 -0.9628 -2.1587  0.4557
  855MPD2    H212613   4.555   3.649  13.828  0.6442 -0.2847 -0.7053
  855MPD2    H312614   4.643   3.593  13.596  1.7549  1.7936  1.3376
  855MPD2     N12615   4.375   3.883  13.390  0.4515 -0.7970  0.1205
  855MPD2    H512616   4.415   3.855  13.301  1.4347 -1.0455  0.6408
  855MPD2    N112617   4.388   3.850  13.879  0.1612 -0.2236  0.0406
  855MPD2    H712618   4.296   3.893  13.879 -0.0366 -0.6433 -0.1839
  856MPD2     C12619   1.711   4.324  14.275  0.5058 -0.4473 -0.3330
  856MPD2    C112620   1.732   4.453  14.237  0.3526  0.2835 -0.1768
  856MPD2    C212621   1.619   4.521  14.196  0.4775 -0.2701 -0.0487
  856MPD2    C312622   1.489   4.475  14.188 -0.1459 -0.0711 -0.1823
  856MPD2    C412623   1.479   4.344  14.242  0.6056  0.8799  0.2356
  856MPD2    C512624   1.588   4.273  14.291 -0.4901 -0.7580  0.0101
  856MPD2     H12625   1.637   4.621  14.158  1.3049 -0.3019  0.2598
  856MPD2    H112626   1.379   4.309  14.262 -0.5780  4.2133  0.2484
  856MPD2    H212627   1.796   4.265  14.308  0.6451 -0.4569 -0.7122
  856MPD2    H312628   1.581   4.183  14.351 -0.8343  1.6994  3.6859
  856MPD2     N12629   1.371   4.555  14.166 -0.2088  0.1174  0.4570
  856MPD2    H512630   1.285   4.501  14.162 -0.0969  0.1864 -2.7100
  856MPD2    N112631   1.858   4.508  14.223 -0.2281 -0.0817  0.0452
  856MPD2    H712632   1.860   4.594  14.169 -0.7707 -0.1280 -0.0510
  857MPD2     C12633   2.976   2.104  13.209  0.1638  0.4353  0.3496
  857MPD2    C112634   2.933   2.215  13.140 -0.5444 -0.3753  0.2105
  857MPD2    C212635   2.958   2.340  13.200 -0.5560 -0.4303  0.6181
  857MPD2    C312636   3.026   2.357  13.320  0.2143  0.6591 -0.4571
  857MPD2    C412637   3.062   2.243  13.387  0.4083  0.0472 -0.2110
  857MPD2    C512638   3.034   2.116  13.333 -0.6059 -0.6273 -0.4808
  857MPD2     H12639   2.923   2.428  13.148 -0.6483 -0.3936  0.7446
  857MPD2    H112640   3.115   2.247  13.482 -2.0290  1.9873  1.0746
  857MPD2    H212641   2.956   2.000  13.186  0.9685 -0.1480  2.2965
  857MPD2    H312642   3.074   2.027  13.381 -1.3914  0.8857  2.9890
  857MPD2     N12643   3.056   2.491  13.356  0.3214 -0.2021  0.4007
  857MPD2    H512644   3.013   2.565  13.302  1.7713  0.0524 -0.3937
  857MPD2    N112645   2.855   2.201  13.017  0.3050 -0.0060 -0.2676
  857MPD2    H712646   2.840   2.105  12.991 -1.8705  1.0821 -3.0441
  858MPD2     C12647   3.881   1.677  16.522 -0.1299 -0.7379  0.6421
  858MPD2    C112648   3.860   1.548  16.573 -0.0679 -0.4586 -0.1650
  858MPD2    C212649   3.793   1.536  16.692 -0.1073 -0.0193 -0.4386
  858MPD2    C312650   3.756   1.645  16.762  0.1095 -0.7267 -1.0242
  858MPD2    C412651   3.769   1.772  16.719 -0.2872  0.2516  0.2640
  858MPD2    C512652   3.836   1.781  16.597  0.6526 -0.5966  0.0692
  858MPD2     H12653   3.777   1.437  16.732 -1.0193 -0.0460 -0.8719
  858MPD2    H112654   3.723   1.859  16.765 -1.5314  0.1077 -0.7285
  858MPD2    H212655   3.927   1.700  16.426 -2.7087 -0.3494 -0.4935
  858MPD2    H312656   3.832   1.879  16.551 -1.7980 -0.5377  0.4094
  858MPD2     N12657   3.693   1.634  16.886 -0.4265 -0.1960 -0.0562
  858MPD2    H512658   3.655   1.715  16.934 -0.7344  0.9334 -2.2227
  858MPD2    N112659   3.916   1.438  16.501 -0.4907 -0.0065  0.3183
  858MPD2    H712660   3.976   1.451  16.420 -0.8977 -0.7201 -0.1011
  859MPD2     C12661   2.974   3.670  15.896  0.1157  0.7093 -0.1436
  859MPD2    C112662   2.852   3.664  15.823  0.3720 -0.2738  0.1463
  859MPD2    C212663   2.785   3.541  15.816  0.7576 -0.7592 -0.0729
  859MPD2    C312664   2.846   3.422  15.860 -0.3298  0.2406 -0.3372
  859MPD2    C412665   2.967   3.426  15.923  0.3062  0.1592  0.8094
  859MPD2    C512666   3.022   3.549  15.946 -0.0733  0.6454 -0.6010
  859MPD2     H12667   2.688   3.522  15.771 -1.1632  2.1047  2.9122
  859MPD2    H112668   3.029   3.341  15.951 -1.4812 -1.4174  0.0123
  859MPD2    H212669   3.032   3.761  15.907  0.9604  0.1892 -0.2678
  859MPD2    H312670   3.121   3.546  15.990  0.4782 -0.8897 -1.9499
  859MPD2     N12671   2.799   3.292  15.836  0.0710  0.2728 -0.1114
  859MPD2    H512672   2.847   3.214  15.880 -0.3648 -1.3145 -2.4727
  859MPD2    N112673   2.798   3.784  15.763  0.3028 -0.0298  0.1160
  859MPD2    H712674   2.852   3.869  15.775  0.3882 -0.1494  0.5836
  860MPD2     C12675   0.060   4.148  11.445 -0.4164 -0.1387  0.4229
  860MPD2    C112676   0.110   4.245  11.536 -0.3812 -0.1248  0.1456
  860MPD2    C212677   0.082   4.229  11.669 -0.5720  0.1601  0.2846
  860MPD2    C312678   0.026   4.115  11.721  0.3485 -0.6976 -0.6423
  860MPD2    C412679   4.716   4.014  11.637  0.1438  0.1968 -0.3681
  860MPD2    C512680   0.010   4.036  11.499  0.2830  0.2703 -0.4929
  860MPD2     H12681   0.118   4.304  11.738  1.1816 -0.7013  0.3006
  860MPD2    H112682   4.660   3.927  11.670 -0.7590  0.5486 -0.9544
  860MPD2    H212683   0.062   4.169  11.339 -0.0992  1.3561  0.7249
  860MPD2    H312684   4.693   3.967  11.434 -0.6769 -0.0864  0.6585
  860MPD2     N12685   0.014   4.114  11.860  0.7059  0.0579  0.0800
  860MPD2    H512686   0.048   4.196  11.910 -0.6020 -0.2329  1.4262
  860MPD2    N112687   0.177   4.365  11.498 -0.3351 -0.0968  0.1332
  860MPD2    H712688   0.217   4.421  11.572 -1.4244  0.0800  0.5880
  861MPD2     C12689   4.064   2.434  10.817  0.8779  0.4097  0.1562
  861MPD2    C112690   4.024   2.545  10.888 -0.4372  0.3552  0.2486
  861MPD2    C212691   3.971   2.655  10.823 -0.3136 -0.3352 -0.0677
  861MPD2    C312692   3.937   2.644  10.691 -0.1097  0.2508 -0.0085
  861MPD2    C412693   3.974   2.539  10.615 -0.7220  0.2761 -0.0710
  861MPD2    C512694   4.036   2.433  10.684 -0.2148 -0.5992 -0.3873
  861MPD2     H12695   3.954   2.741  10.888 -1.9304 -0.4121 -0.4057
  861MPD2    H112696   3.952   2.532  10.509 -2.5218 -1.3786  0.4115
  861MPD2    H212697   4.131   2.361  10.862 -0.0817 -0.0710  0.7911
  861MPD2    H312698   4.065   2.350  10.621 -1.3173 -0.7555 -0.6907
  861MPD2     N12699   3.878   2.754  10.617  0.1374  0.1396  0.4218
  861MPD2    H512700   3.849   2.730  10.523 -2.4923 -2.1604  1.8104
  861MPD2    N112701   4.053   2.566  11.024  0.2805 -0.0265  0.5604
  861MPD2    H712702   4.049   2.660  11.062  1.9357  0.2074  0.1508
  862MPD2     C12703   3.303   2.743  10.250 -0.0827  0.1574 -0.5933
  862MPD2    C112704   3.389   2.716  10.353 -0.3820  0.1596  0.3598
  862MPD2    C212705   3.387   2.595  10.415 -0.1585 -0.5045  0.0130
  862MPD2    C312706   3.296   2.498  10.389  0.4727 -0.1363  0.1170
  862MPD2    C412707   3.222   2.519  10.278 -0.1404  0.1194 -0.1536
  862MPD2    C512708   3.217   2.644  10.217  0.1378 -0.0926  0.0240
  862MPD2     H12709   3.460   2.572  10.492  0.0122  0.6832  0.2031
  862MPD2    H112710   3.153   2.447  10.235 -0.6431  0.2573  0.4161
  862MPD2    H212711   3.301   2.831  10.186  0.8484  0.0847 -0.7214
  862MPD2    H312712   3.153   2.651  10.130  2.0320  0.4570 -1.3078
  862MPD2     N12713   3.292   2.369  10.442  0.0761  0.4331  0.2581
  862MPD2    H512714   3.208   2.317  10.422  0.4327 -0.4308  0.9927
  862MPD2    N112715   3.478   2.819  10.399  0.0798 -0.2778 -0.3325
  862MPD2    H712716   3.524   2.798  10.487 -1.3730 -1.3930  0.1661
  863MPD2     C12717   1.457   0.549  17.128 -0.0886  0.7115  0.3007
  863MPD2    C112718   1.565   0.575  17.046  0.3766 -0.1871 -0.6822
  863MPD2    C212719   1.686   0.524  17.079  0.2816 -0.4893 -0.6896
  863MPD2    C312720   1.699   0.450  17.191 -0.0539 -0.1432 -0.1671
  863MPD2    C412721   1.595   0.429  17.277  1.1516 -0.6124 -0.0538
  863MPD2    C512722   1.475   0.486  17.248 -0.0228 -0.0442  0.4904
  863MPD2     H12723   1.772   0.542  17.016  1.0162  0.3532  0.5478
  863MPD2    H112724   1.608   0.380  17.373  1.2622 -0.0171  0.2333
  863MPD2    H212725   1.366   0.602  17.104 -0.2600 -0.4792 -1.6440
  863MPD2    H312726   1.391   0.460  17.311 -0.3691 -0.7174 -0.2518
  863MPD2     N12727   1.819   0.390  17.221 -0.1335 -0.0265 -0.0873
  863MPD2    H512728   1.834   0.366  17.319 -0.8538 -0.4877 -0.0879
  863MPD2    N112729   1.543   0.646  16.927  0.4995 -0.3760  0.9406
  863MPD2    H712730   1.445   0.670  16.915  0.1607 -2.4665 -0.3611
  864MPD2     C12731   2.533   1.181  16.557  0.3911 -0.0642 -0.2291
  864MPD2    C112732   2.479   1.270  16.649 -0.2913 -0.0584 -0.2635
  864MPD2    C212733   2.566   1.353  16.726  0.9697 -0.0195  0.0402
  864MPD2    C312734   2.705   1.356  16.702 -0.1072  0.1072  0.3351
  864MPD2    C412735   2.757   1.264  16.611 -0.5581 -0.2501  0.1681
  864MPD2    C512736   2.670   1.177  16.541 -0.0973  0.3882  0.6685
  864MPD2     H12737   2.521   1.420  16.798  0.0044  0.1923 -0.7598
  864MPD2    H112738   2.859   1.273  16.576 -1.0248 -0.8270 -1.3654
  864MPD2    H212739   2.476   1.130  16.480 -2.4408 -0.3972  2.1005
  864MPD2    H312740   2.722   1.112  16.472 -0.1567  0.5112  0.5075
  864MPD2     N12741   2.794   1.460  16.749  0.4127 -0.5566  0.1023
  864MPD2    H512742   2.889   1.447  16.716 -0.0375 -1.4341 -0.8502
  864MPD2    N112743   2.338   1.270  16.647 -0.2096  0.1041  1.0360
  864MPD2    H712744   2.288   1.202  16.590  0.5439 -0.2221  0.7645
  865MPD2     C12745   2.809   2.342  16.259  0.4877 -0.1873 -0.1650
  865MPD2    C112746   2.707   2.253  16.280  0.1969  0.1093 -0.1506
  865MPD2    C212747   2.726   2.158  16.376 -0.3871  0.7340  0.1959
  865MPD2    C312748   2.845   2.156  16.447  0.9480  0.1293  0.2441
  865MPD2    C412749   2.941   2.257  16.433 -0.6155  0.0951  0.2595
  865MPD2    C512750   2.926   2.350  16.331 -1.0139 -0.0035  0.7790
  865MPD2     H12751   2.652   2.079  16.387  1.2301 -1.3349 -3.7622
  865MPD2    H112752   3.019   2.253  16.509  0.5123 -0.3016 -0.9047
  865MPD2    H212753   2.808   2.419  16.183  1.3902 -0.9448 -0.9403
  865MPD2    H312754   2.996   2.430  16.309 -0.2090 -0.5226  1.4572
  865MPD2     N12755   2.886   2.053  16.540  0.2698  0.3120 -0.2462
  865MPD2    H512756   2.979   2.059  16.580 -0.7473  1.5318  1.9208
  865MPD2    N112757   2.607   2.242  16.182  0.8450  0.4557 -0.3141
  865MPD2    H712758   2.614   2.308  16.105  2.0460  0.9820  0.2489
  866MPD2     C12759   4.329   2.753  11.549  0.4344 -0.5501  1.0275
  866MPD2    C112760   4.346   2.734  11.418  0.4642  0.3647  0.7256
  866MPD2    C212761   4.266   2.800  11.328 -0.2891  1.1249  0.0459
  866MPD2    C312762   4.163   2.888  11.381  0.2119 -0.4635 -0.6045
  866MPD2    C412763   4.160   2.910  11.518  0.1821 -0.0088  1.4114
  866MPD2    C512764   4.251   2.856  11.597 -0.4748 -0.0508  0.0540
  866MPD2     H12765   4.288   2.800  11.222  0.3849 -1.6724  0.1736
  866MPD2    H112766   4.083   2.976  11.557 -0.1340  1.3141 -1.3965
  866MPD2    H212767   4.398   2.711  11.621 -0.8857 -0.2445  2.4879
  866MPD2    H312768   4.245   2.864  11.705  0.6903 -0.7703  0.1719
  866MPD2     N12769   4.069   2.947  11.295 -0.3285  0.3087  0.0774
  866MPD2    H512770   3.996   3.010  11.329  2.0049  1.5478  2.7942
  866MPD2    N112771   4.459   2.666  11.376 -0.6340 -0.3732 -0.0988
  866MPD2    H712772   4.525   2.637  11.447  0.3320  0.8041 -0.5349
  867MPD2     C12773   1.076   1.893  16.619 -0.0732 -1.0474 -0.2216
  867MPD2    C112774   1.159   1.855  16.722  0.4514  0.2373  0.2108
  867MPD2    C212775   1.138   1.905  16.852  0.1842  0.7251  0.5654
  867MPD2    C312776   1.031   1.999  16.869  0.5961 -0.2907  0.2319
  867MPD2    C412777   0.947   2.031  16.768 -0.5461  0.0150  0.1318
  867MPD2    C512778   0.970   1.978  16.644  1.0119 -0.5443 -0.0489
  867MPD2     H12779   1.213   1.886  16.928  0.7245  1.6499  0.2650
  867MPD2    H112780   0.860   2.094  16.782 -0.8318 -0.1931 -0.6969
  867MPD2    H212781   1.092   1.852  16.520  0.1066  3.0036 -1.8991
  867MPD2    H312782   0.908   2.010  16.561 -0.2056 -0.3440  0.9377
  867MPD2     N12783   0.993   2.068  16.992  0.2090  0.1232  0.6071
  867MPD2    H512784   0.905   2.118  16.994 -0.8459 -1.7152  0.0790
  867MPD2    N112785   1.255   1.756  16.682  0.3323  0.1179 -0.8371
  867MPD2    H712786   1.254   1.725  16.585 -1.7989 -1.8754 -0.1542
  868MPD2     C12787   3.180   1.098  12.930  0.2866 -0.1322 -0.3156
  868MPD2    C112788   3.269   1.087  13.031 -0.2067 -0.4946  0.4468
  868MPD2    C212789   3.220   1.080  13.164  0.3526  1.2890  0.0960
  868MPD2    C312790   3.091   1.110  13.190 -0.6678 -0.4718  0.2822
  868MPD2    C412791   3.008   1.139  13.088  0.5029  0.0476  0.0255
  868MPD2    C512792   3.047   1.117  12.959 -0.7302 -0.2372 -0.3250
  868MPD2     H12793   3.281   1.059  13.251  0.8404 -0.4853 -0.6621
  868MPD2    H112794   2.905   1.170  13.098  0.8942  1.0524  0.9355
  868MPD2    H212795   3.206   1.084  12.826 -3.6285  0.8615 -1.3930
  868MPD2    H312796   2.973   1.127  12.880  0.0781  0.7661 -0.9588
  868MPD2     N12797   3.059   1.104  13.326 -0.4020  0.3096  0.1806
  868MPD2    H512798   3.132   1.083  13.394  0.0634  0.0390 -0.3960
  868MPD2    N112799   3.407   1.071  12.995 -0.1428  0.8091  0.3834
  868MPD2    H712800   3.432   1.104  12.902 -0.6501 -0.4994 -0.2313
  869MPD2     C12801   3.592   3.112   0.776  1.0805 -0.2079 -0.3844
  869MPD2    C112802   3.701   3.107   0.695  0.8204 -0.7309 -0.2146
  869MPD2    C212803   3.777   3.223   0.701  0.3854 -0.2466 -0.0838
  869MPD2    C312804   3.737   3.340   0.776  0.6181  0.1070  0.4217
  869MPD2    C412805   3.625   3.332   0.848 -0.6246 -0.0322  0.5023
  869MPD2    C512806   3.560   3.214   0.853  0.4472  0.1923  0.1870
  869MPD2     H12807   3.861   3.232   0.633 -1.0989  0.6688 -1.8020
  869MPD2    H112808   3.577   3.419   0.893  0.4849  0.4427  0.7637
  869MPD2    H212809   3.519   3.031   0.773  0.0115  0.8222 -2.2622
  869MPD2    H312810   3.471   3.195   0.911  1.0189  0.3832  1.1290
  869MPD2     N12811   3.792   3.467   0.759 -0.0190  0.2041 -0.1379
  869MPD2    H512812   3.759   3.542   0.819 -1.3268  0.3730 -1.0653
  869MPD2    N112813   3.715   3.010   0.595  0.0422  0.1590  0.2815
  869MPD2    H712814   3.638   2.945   0.581 -0.0335  0.0890  1.0318
  870MPD2     C12815   4.291   1.639   2.100 -0.9169 -0.0247 -0.3504
  870MPD2    C112816   4.269   1.627   1.967 -0.5517  0.2847  0.0132
  870MPD2    C212817   4.178   1.717   1.907  1.0907 -0.1469  0.1627
  870MPD2    C312818   4.119   1.821   1.979  1.6062  0.1007  0.5588
  870MPD2    C412819   4.145   1.830   2.115  0.6468  0.0611 -0.5302
  870MPD2    C512820   4.223   1.733   2.175 -0.0010  0.5209  0.2292
  870MPD2     H12821   4.172   1.710   1.799  0.1705  0.5974  0.1650
  870MPD2    H112822   4.104   1.908   2.178 -0.1794 -0.5859 -0.2621
  870MPD2    H212823   4.370   1.576   2.140 -2.5085 -0.2787  2.4108
  870MPD2    H312824   4.243   1.741   2.281  0.0534 -0.3211  0.2850
  870MPD2     N12825   4.043   1.918   1.906  0.2091  0.3293 -0.2852
  870MPD2    H512826   4.038   1.899   1.807 -0.0863 -0.3173 -0.1532
  870MPD2    N112827   4.333   1.524   1.899  0.1105  0.5561  0.4356
  870MPD2    H712828   4.408   1.475   1.947 -0.3574 -0.2008  0.3871
  871MPD2     C12829   0.195   2.088  16.469 -0.7420 -0.1534  0.1286
  871MPD2    C112830   0.222   2.046  16.599  0.2969  0.1451 -0.3586
  871MPD2    C212831   0.282   1.930  16.624  0.0026  0.7268  0.4131
  871MPD2    C312832   0.314   1.843  16.514 -0.0905 -0.5576  0.9143
  871MPD2    C412833   0.275   1.884  16.385  0.2583 -0.2464 -0.6624
  871MPD2    C512834   0.215   2.008  16.360  0.4373 -0.2441  0.4708
  871MPD2     H12835   0.314   1.899  16.722  0.6250 -0.1988 -0.0834
  871MPD2    H112836   0.301   1.815  16.306 -2.5368 -2.2522  0.1630
  871MPD2    H212837   0.157   2.187  16.444 -1.6191 -0.4131  0.4101
  871MPD2    H312838   0.205   2.047  16.259  0.8600 -0.5014  0.3301
  871MPD2     N12839   0.370   1.716  16.543 -0.5332  0.5712  0.3445
  871MPD2    H512840   0.371   1.684  16.639  0.6785  0.3884  0.2742
  871MPD2    N112841   0.188   2.139  16.704 -0.1885  0.1834 -0.3618
  871MPD2    H712842   0.152   2.225  16.666 -1.6372 -0.5388 -0.6189
  872MPD2     C12843   1.335   3.912  14.023  0.3588 -0.4493 -0.2477
  872MPD2    C112844   1.345   4.049  14.015  0.0448 -0.4398  0.7450
  872MPD2    C212845   1.249   4.123  14.075 -0.4048  0.0867 -0.2218
  872MPD2    C312846   1.138   4.060  14.128  0.2612 -0.1548  0.3803
  872MPD2    C412847   1.126   3.927  14.123 -0.3869  0.1708 -0.3950
  872MPD2    C512848   1.225   3.854  14.072 -0.6959  0.2325 -0.2946
  872MPD2     H12849   1.260   4.231  14.070 -0.4995  0.0885 -0.3753
  872MPD2    H112850   1.040   3.876  14.165 -0.5384  1.3251  0.6871
  872MPD2    H212851   1.420   3.850  13.996  1.5502  1.7514 -1.5549
  872MPD2    H312852   1.216   3.746  14.070  0.1721  0.1768 -1.0552
  872MPD2     N12853   1.038   4.132  14.200 -0.6460  0.2086  0.0203
  872MPD2    H512854   0.969   4.072  14.245  0.0090  1.6718  3.0266
  872MPD2    N112855   1.451   4.114  13.959  0.2897 -0.3916  0.1375
  872MPD2    H712856   1.436   4.214  13.963  2.1005 -0.1446  0.9327
  873MPD2     C12857   3.081   4.675   0.836 -0.3424  0.1973 -0.3410
  873MPD2    C112858   2.978   4.625   0.913  0.1113 -0.5176  0.0522
  873MPD2    C212859   2.912   4.505   0.879  0.3242 -0.0290  0.2341
  873MPD2    C312860   2.943   4.444   0.764 -0.2651  0.0738  0.6481
  873MPD2    C412861   3.056   4.485   0.691  0.1168 -0.1008 -0.6343
  873MPD2    C512862   3.125   4.597   0.727  0.1732 -1.4963  0.2640
  873MPD2     H12863   2.823   4.473   0.933 -0.4045 -1.2466 -1.6868
  873MPD2    H112864   3.097   4.419   0.614 -1.9644  0.5058 -2.2589
  873MPD2    H212865   3.134   0.031   0.861  0.4447 -0.4945  0.4994
  873MPD2    H312866   3.214   4.634   0.675 -1.6443 -0.6125 -2.2271
  873MPD2     N12867   2.873   4.333   0.723  0.1705  0.3011 -0.0667
  873MPD2    H512868   2.905   4.290   0.637 -0.9977  1.2280 -0.9826
  873MPD2    N112869   2.955   4.683   1.035  0.5264 -0.0674 -0.3377
  873MPD2    H712870   3.037   4.734   1.067  0.1081 -0.4075  1.3233
  874MPD2     C12871   2.850   4.563  16.150  0.1767 -0.0739  0.3477
  874MPD2    C112872   2.932   4.480  16.221 -0.4868 -0.2559  0.0521
  874MPD2    C212873   3.062   4.512  16.236 -0.3909 -0.6140  0.0767
  874MPD2    C312874   3.114   4.622  16.168 -0.1028  0.1894  0.5832
  874MPD2    C412875   3.028   4.698  16.092 -0.3896 -0.0514 -0.5867
  874MPD2    C512876   2.890   4.678  16.094  0.6197  0.2274 -0.2221
  874MPD2     H12877   3.119   4.447  16.301 -1.7509 -1.9607 -0.0754
  874MPD2    H112878   3.069   0.044  16.032  1.2286  1.1236  2.1015
  874MPD2    H212879   2.748   4.527  16.145  0.6114 -1.3556  0.5449
  874MPD2    H312880   2.828   0.019  16.048  1.2042  0.9834  0.2248
  874MPD2     N12881   3.250   4.660  16.184  0.3760 -0.1663  1.0028
  874MPD2    H512882   3.278   0.015  16.147 -1.4126 -0.5661 -1.2740
  874MPD2    N112883   2.859   4.373  16.292 -0.1655 -0.2900  0.3612
  874MPD2    H712884   2.761   4.359  16.272 -1.0590  2.1913  3.0956
  875MPD2     C12885   3.681   2.263  14.795  0.7855  1.0558  0.1650
  875MPD2    C112886   3.589   2.364  14.785  0.3381  0.3644 -0.1789
  875MPD2    C212887   3.598   2.469  14.881 -0.1537 -0.0941 -0.2482
  875MPD2    C312888   3.688   2.464  14.984  0.3220 -0.3753 -0.2328
  875MPD2    C412889   3.772   2.354  14.998  0.3991  0.8198 -0.2298
  875MPD2    C512890   3.749   2.247  14.910 -0.2144  0.9877  0.0950
  875MPD2     H12891   3.537   2.557  14.865 -1.2593 -0.8923 -0.4529
  875MPD2    H112892   3.837   2.350  15.084 -1.2188  2.1144  1.0558
  875MPD2    H212893   3.691   2.188  14.718 -2.2456 -0.1600  0.9411
  875MPD2    H312894   3.812   2.159  14.913 -2.6754 -0.7971 -1.4750
  875MPD2     N12895   3.716   2.562  15.078  0.6886 -0.4356  0.1026
  875MPD2    H512896   3.796   2.544  15.138  2.3595 -3.4429 -2.9884
  875MPD2    N112897   3.509   2.389  14.673  0.5623  0.5518 -0.3260
  875MPD2    H712898   3.456   2.476  14.677 -0.5452 -0.1701  0.9652
  876MPD2     C12899   2.613   4.013  15.998 -0.5234 -0.2752  0.0413
  876MPD2    C112900   2.747   4.039  16.031 -0.7170 -0.2431  0.1408
  876MPD2    C212901   2.829   3.962  16.110  0.0064  0.7329 -0.6755
  876MPD2    C312902   2.777   3.839  16.154 -0.1743 -0.0581 -0.0817
  876MPD2    C412903   2.651   3.801  16.114 -0.2935  0.7472 -0.1430
  876MPD2    C512904   2.572   3.884  16.041 -0.3156  0.7240  0.2100
  876MPD2     H12905   2.936   3.982  16.116  0.4599 -1.6407 -0.9267
  876MPD2    H112906   2.616   3.704  16.146 -0.4975  0.7303 -0.4223
  876MPD2    H212907   2.560   4.082  15.932  3.0727  2.7564  0.3552
  876MPD2    H312908   2.473   3.853  16.012 -0.4124 -2.6913  4.2591
  876MPD2     N12909   2.851   3.740  16.226  0.6246  1.4409  0.6709
  876MPD2    H512910   2.951   3.759  16.227  1.1188 -1.1873  0.6899
  876MPD2    N112911   2.803   4.158  15.975  0.4984 -0.0538 -0.1691
  876MPD2    H712912   2.743   4.219  15.919 -0.6993 -3.1054 -2.2179
  877MPD2     C12913   2.583   4.488  15.386 -0.7464 -0.4790  0.3319
  877MPD2    C112914   2.718   4.507  15.388  0.2593 -0.3325  0.7621
  877MPD2    C212915   2.785   4.513  15.266 -0.0024 -0.4167  0.7198
  877MPD2    C312916   2.716   4.514  15.144  0.2545  0.5978  0.2145
  877MPD2    C412917   2.576   4.499  15.148 -0.4034  0.0169  0.1897
  877MPD2    C512918   2.516   4.487  15.268 -0.1883 -0.4720 -0.3470
  877MPD2     H12919   2.889   4.544  15.275 -0.5930  0.7773  3.3326
  877MPD2    H112920   2.504   4.497  15.066  0.2177 -0.4315 -0.3372
  877MPD2    H212921   2.524   4.467  15.475  0.9192  1.6131  1.9069
  877MPD2    H312922   2.407   4.485  15.268 -0.2152  0.7472 -2.4908
  877MPD2     N12923   2.763   4.561  15.022  0.5322  0.3462  0.7604
  877MPD2    H512924   2.695   4.549  14.948  2.5393  1.2157 -1.2030
  877MPD2    N112925   2.789   4.506  15.511 -0.0346 -0.2207 -0.5175
  877MPD2    H712926   2.890   4.516  15.506  0.0378 -0.6987 -0.0596
  878MPD2     C12927   2.136   4.190  13.395  0.4219  0.1057 -0.8825
  878MPD2    C112928   2.217   4.083  13.391  0.0630 -0.4666 -0.9420
  878MPD2    C212929   2.219   3.988  13.493  0.4595 -0.1482  0.0667
  878MPD2    C312930   2.131   3.999  13.600  0.2694 -0.1347 -0.0129
  878MPD2    C412931   2.058   4.115  13.610 -0.0047 -0.0945 -0.2551
  878MPD2    C512932   2.057   4.203  13.509 -0.5142 -0.1382  0.3631
  878MPD2     H12933   2.285   3.902  13.494 -0.5774 -0.9510 -0.9377
  878MPD2    H112934   1.992   4.143  13.690  1.9524 -0.7043  1.5868
  878MPD2    H212935   2.136   4.263  13.315  0.1444 -1.0235 -1.9131
  878MPD2    H312936   1.990   4.288  13.500  0.6419  0.8937  1.4408
  878MPD2     N12937   2.123   3.891  13.690  0.4604 -0.2995  0.2427
  878MPD2    H512938   2.190   3.815  13.678 -0.1257 -0.8220  0.2725
  878MPD2    N112939   2.301   4.083  13.280 -0.7246 -0.8250  0.2664
  878MPD2    H712940   2.289   4.164  13.220  1.0599 -1.3946 -0.8647
  879MPD2     C12941   2.646   4.455  17.466 -0.0646  0.5953 -0.4133
  879MPD2    C112942   2.746   4.521  17.394 -0.0946 -0.8388  0.0471
  879MPD2    C212943   2.765   4.504  17.256  0.0531 -0.5941 -0.1626
  879MPD2    C312944   2.680   4.424  17.186  0.2914  0.2297 -0.0962
  879MPD2    C412945   2.582   4.354  17.264  0.0477  0.9440  0.3507
  879MPD2    C512946   2.568   4.364  17.400 -0.5221 -0.5758 -0.2561
  879MPD2     H12947   2.850   4.558  17.215  0.7729 -1.4766  0.1605
  879MPD2    H112948   2.513   4.291  17.209  2.7567 -1.6392 -0.0990
  879MPD2    H212949   2.641   4.459  17.574 -0.1626  0.1653 -0.4020
  879MPD2    H312950   2.492   4.314  17.459 -0.3170 -0.8785 -0.2469
  879MPD2     N12951   2.678   4.415  17.046 -0.1503  0.2583  0.0898
  879MPD2    H512952   2.607   4.348  17.018  0.3598 -0.3053  0.1457
  879MPD2    N112953   2.822   4.613  17.471  0.1539  0.1124  0.0890
  879MPD2    H712954   2.789   4.622  17.566 -0.3664 -0.1135 -0.0686
  880MPD2     C12955   3.799   1.583   0.399  0.0834 -0.8061  0.0734
  880MPD2    C112956   3.857   1.639   0.514 -0.4499 -0.5264  0.3557
  880MPD2    C212957   3.918   1.546   0.598  0.1311 -0.2137 -0.7234
  880MPD2    C312958   3.941   1.414   0.565 -0.0364  0.0082  0.2793
  880MPD2    C412959   3.882   1.360   0.455 -0.3368 -0.2444 -0.0439
  880MPD2    C512960   3.813   1.450   0.376  0.1226 -0.4237 -0.0262
  880MPD2     H12961   3.969   1.583   0.686  0.0464 -0.4927 -0.5550
  880MPD2    H112962   3.886   1.255   0.429  0.1948 -0.3537  0.4689
  880MPD2    H212963   3.728   1.633   0.335 -0.1441 -1.8607 -0.4865
  880MPD2    H312964   3.763   1.408   0.289 -0.6890  1.6460 -0.5542
  880MPD2     N12965   3.999   1.323   0.661  0.5104 -0.0540  0.0646
  880MPD2    H512966   4.033   1.362   0.748 -1.2471 -0.1907  0.8321
  880MPD2    N112967   3.835   1.773   0.539  0.0327  0.2669 -0.4617
  880MPD2    H712968   3.790   1.830   0.468 -0.8846 -0.0280 -0.1182
  881MPD2     C12969   4.154   2.708   0.298  0.0788  0.2542  0.4184
  881MPD2    C112970   4.135   2.585   0.240  0.0078 -0.2039  0.5724
  881MPD2    C212971   4.081   2.480   0.310 -0.1446 -0.3910 -0.3770
  881MPD2    C312972   4.076   2.492   0.451  0.6045 -0.1136  0.2176
  881MPD2    C412973   4.118   2.608   0.514 -0.8487 -0.7487 -0.0380
  881MPD2    C512974   4.145   2.719   0.435 -0.5585 -0.3803  1.2865
  881MPD2     H12975   4.068   2.381   0.267  0.4994 -0.8148  0.4106
  881MPD2    H112976   4.115   2.603   0.622  0.1736 -0.5457 -0.0052
  881MPD2    H212977   4.180   2.794   0.238 -0.7014  0.3857  0.2718
  881MPD2    H312978   4.164   2.816   0.478 -1.5258 -0.1209  1.1185
  881MPD2     N12979   4.029   2.396   0.542  0.1044 -0.4526  0.0799
  881MPD2    H512980   4.057   2.412   0.638 -0.0534  2.5187 -0.3628
  881MPD2    N112981   4.143   2.589   0.101  0.0583 -0.0965  0.4879
  881MPD2    H712982   4.174   2.679   0.065  2.0584 -1.2055 -0.5836
  882MPD2     C12983   2.741   4.362  14.298 -0.4030  0.2055  0.1983
  882MPD2    C112984   2.690   4.434  14.398 -0.5462 -0.0361  0.4535
  882MPD2    C212985   2.564   4.404  14.447 -0.0714  0.0682  0.1319
  882MPD2    C312986   2.484   4.297  14.397 -0.0919  0.0965  0.1280
  882MPD2    C412987   2.536   4.230  14.289  0.3504 -0.2979 -0.0944
  882MPD2    C512988   2.671   4.258  14.244  0.2020  0.4431  0.6202
  882MPD2     H12989   2.522   4.476  14.516 -3.0186  0.2451 -1.8420
  882MPD2    H112990   2.479   4.152  14.238 -0.0703  0.1214 -0.2702
  882MPD2    H212991   2.845   4.363  14.266 -0.8274 -1.1829 -1.1636
  882MPD2    H312992   2.723   4.211  14.161 -0.0751 -2.4483  2.1051
  882MPD2     N12993   2.358   4.262  14.442 -0.1900  0.2892 -0.3323
  882MPD2    H512994   2.303   4.188  14.398  0.5425 -0.0653 -0.6421
  882MPD2    N112995   2.782   4.525  14.460  0.5399 -0.1131  0.5140
  882MPD2    H712996   2.880   4.534  14.438  0.0913  0.6047 -1.1704
  883MPD2     C12997   4.624   4.470  16.497  0.4440  0.4969 -0.6592
  883MPD2    C112998   4.656   4.559  16.406  0.7531 -0.6820  0.1840
  883MPD2    C212999   0.020   4.651  16.429  0.7584 -0.1944 -0.1935
  883MPD2    C313000   0.084   4.659  16.555  0.0740  0.2833  0.2685
  883MPD2    C413001   0.034   4.577  16.649 -0.3796  0.0342 -0.1421
  883MPD2    C513002   4.676   4.479  16.622  0.1229 -0.0853 -0.5651
  883MPD2     H13003   0.043   4.720  16.349 -1.6503 -0.1315 -0.8509
  883MPD2    H113004   0.078   4.579  16.748  0.5883  2.6025 -0.5994
  883MPD2    H213005   4.545   4.395  16.492 -0.1585  1.1804 -1.3496
  883MPD2    H313006   4.646   4.413  16.702  1.3368  1.1265  0.8993
  883MPD2     N13007   0.186   0.021  16.583 -0.0399  0.5155  0.0062
  883MPD2    H513008   0.215   0.081  16.507  0.0421  0.3230 -0.1160
  883MPD2    N113009   4.593   4.563  16.277 -0.6453 -0.4173  0.1806
  883MPD2    H713010   4.617   4.647  16.225  0.4143 -0.3072  0.8370
  884MPD2     C13011   2.031   0.245  15.217  0.3320 -0.3527 -0.4955
  884MPD2    C113012   2.016   0.378  15.164  0.2435  0.5872  0.8674
  884MPD2    C213013   1.904   0.453  15.194 -0.1282 -0.2911  0.2430
  884MPD2    C313014   1.798   0.402  15.259  0.9578 -0.3059 -0.3576
  884MPD2    C413015   1.819   0.281  15.328  0.2489  0.4274  0.2263
  884MPD2    C513016   1.934   0.209  15.316 -0.0278  0.0967  0.0411
  884MPD2     H13017   1.896   0.555  15.159 -1.6208 -0.5027 -0.0250
  884MPD2    H113018   1.748   0.248  15.403  2.7062 -2.1057  1.4291
  884MPD2    H213019   2.109   0.174  15.190  0.0983 -0.9874  0.4772
  884MPD2    H313020   1.960   0.129  15.385  3.4042  2.1991  1.2196
  884MPD2     N13021   1.685   0.488  15.291  0.8553  0.2792  0.0570
  884MPD2    H513022   1.699   0.581  15.254  0.8547 -1.2811 -3.7932
  884MPD2    N113023   2.115   0.429  15.073  0.7003 -0.0139 -0.0269
  884MPD2    H713024   2.101   0.528  15.052 -0.8280 -0.3524 -0.5829
  885MPD2     C13025   4.428   0.372   0.079  0.0866 -0.5077  0.5416
  885MPD2    C113026   4.565   0.380   0.074  0.5555 -0.3443 -0.6797
  885MPD2    C213027   4.616   0.452  17.705 -0.8380  0.3814 -0.0435
  885MPD2    C313028   4.531   0.510  17.607  0.4670 -0.0462  0.4503
  885MPD2    C413029   4.396   0.510  17.632  1.0673 -0.3412 -0.0124
  885MPD2    C513030   4.344   0.445  17.736 -0.0719 -0.5458  0.0837
  885MPD2     H13031   4.723   0.458  17.687 -0.2856 -2.5997  2.4292
  885MPD2    H113032   4.331   0.559  17.560  2.2104  1.7368  0.3799
  885MPD2    H213033   4.376   0.324   0.161 -0.2155  0.2001  0.7676
  885MPD2    H313034   4.236   0.440   0.005 -0.1631  0.3027 -0.6550
  885MPD2     N13035   4.585   0.566  17.484  0.4028 -0.0262 -0.1429
  885MPD2    H513036   4.682   0.555  17.458  0.3448 -0.6666 -0.0721
  885MPD2    N113037   4.644   0.311   0.170 -0.5273 -0.2926  0.0144
  885MPD2    H713038   4.597   0.235   0.216  2.1700 -3.2060 -2.0604
  886MPD2     C13039   1.525   3.513  15.260  0.8107 -0.1398  0.3385
  886MPD2    C113040   1.561   3.574  15.378 -0.0476  0.3159  0.3090
  886MPD2    C213041   1.524   3.706  15.399 -0.7502 -0.0290 -0.2922
  886MPD2    C313042   1.459   3.777  15.307  0.2849 -0.5168 -0.0810
  886MPD2    C413043   1.443   3.719  15.181  0.2943  0.1326  0.8196
  886MPD2    C513044   1.468   3.588  15.161  0.2278  0.2635  0.2976
  886MPD2     H13045   1.564   3.745  15.492  1.8931  0.8620 -1.7897
  886MPD2    H113046   1.402   3.776  15.099  0.6411  1.7700  1.7784
  886MPD2    H213047   1.570   3.418  15.232 -0.7020 -0.9933  0.7965
  886MPD2    H313048   1.458   3.547  15.061  1.6255 -0.1983  0.3513
  886MPD2     N13049   1.435   3.913  15.315 -0.7148  0.2559  0.3718
  886MPD2    H513050   1.403   3.949  15.226  1.1016  1.2861  0.1358
  886MPD2    N113051   1.635   3.506  15.477 -0.3133 -0.3773 -0.0467
  886MPD2    H713052   1.656   3.554  15.564 -1.7373 -3.1947  1.8772
  887MPD2     C13053   2.253   3.732  15.783  0.1452  0.0756  0.1237
  887MPD2    C113054   2.123   3.744  15.739  0.2409 -0.4757 -0.1363
  887MPD2    C213055   2.080   3.878  15.714 -1.0674  0.3833 -1.0087
  887MPD2    C313056   2.166   3.981  15.732  0.0570  0.4654 -0.6184
  887MPD2    C413057   2.301   3.966  15.763  0.6536 -0.1356  0.0569
  887MPD2    C513058   2.336   3.836  15.784 -0.1711  0.1554 -0.0040
  887MPD2     H13059   1.974   3.898  15.700 -0.9782  1.7361  0.2249
  887MPD2    H113060   2.369   4.047  15.785 -1.4315  1.2179  1.5841
  887MPD2    H213061   2.297   3.634  15.795  0.6795  0.1957 -0.8992
  887MPD2    H313062   2.440   3.811  15.800 -0.1387  0.1391 -0.2346
  887MPD2     N13063   2.103   4.105  15.712  0.6193 -0.5367  0.5206
  887MPD2    H513064   2.002   4.102  15.705  0.5623  2.0867  0.1417
  887MPD2    N113065   2.031   3.636  15.725  0.7565  0.0367  0.1476
  887MPD2    H713066   1.935   3.662  15.702  1.1683  1.2362 -0.2332
  888MPD2     C13067   3.595   3.975  14.763  0.3672  0.5048  0.3799
  888MPD2    C113068   3.643   3.968  14.897 -0.4891 -0.4325  0.9755
  888MPD2    C213069   3.746   4.053  14.941  0.2359  0.1688 -1.2164
  888MPD2    C313070   3.814   4.136  14.852 -0.4369 -1.0325  0.1846
  888MPD2    C413071   3.775   4.139  14.718 -0.1567  0.1325 -0.2287
  888MPD2    C513072   3.666   4.064  14.683  0.7726 -0.6116  0.2921
  888MPD2     H13073   3.777   4.058  15.045  0.2905 -0.7486 -1.1919
  888MPD2    H113074   3.821   4.199  14.640  2.6276 -2.4139 -0.5452
  888MPD2    H213075   3.520   3.914  14.715  0.0573  2.0320 -1.0552
  888MPD2    H313076   3.638   4.068  14.579  1.0251  1.2078  0.2959
  888MPD2     N13077   3.913   4.225  14.901  0.1773  0.2496  0.4114
  888MPD2    H513078   3.921   4.230  15.002  2.6740  1.3799  0.1748
  888MPD2    N113079   3.578   3.884  14.995  0.0418  0.2967 -0.2567
  888MPD2    H713080   3.613   3.896  15.090  2.7718 -0.8148 -1.1067
  889MPD2     C13081   2.832   3.208  13.200 -0.0886 -0.3103  0.1235
  889MPD2    C113082   2.913   3.217  13.312  0.1730  0.4519 -0.1399
  889MPD2    C213083   2.941   3.348  13.354 -0.0919  0.0368  0.4181
  889MPD2    C313084   2.870   3.462  13.307  0.8503 -1.0262 -0.0446
  889MPD2    C413085   2.787   3.447  13.201 -0.3011 -0.2005 -0.1343
  889MPD2    C513086   2.775   3.322  13.142 -0.1550 -0.2374  0.3543
  889MPD2     H13087   2.995   3.354  13.448 -0.2845  0.9607  0.4733
  889MPD2    H113088   2.730   3.529  13.159 -1.4684  0.2669  2.3408
  889MPD2    H213089   2.843   3.124  13.133  1.6130  0.4039 -0.4874
  889MPD2    H313090   2.718   3.309  13.051 -0.0789  3.0929 -0.1669
  889MPD2     N13091   2.905   3.590  13.365 -0.0207  0.2243 -0.2432
  889MPD2    H513092   2.979   3.594  13.434  0.9739 -0.7083 -1.2615
  889MPD2    N113093   3.002   3.117  13.357 -1.3198 -0.6370  1.1776
  889MPD2    H713094   3.075   3.144  13.422 -0.0731 -2.0889  0.3611
  890MPD2     C13095   2.559   0.285  14.634  1.0157  0.4547 -0.7502
  890MPD2    C113096   2.690   0.333  14.652  0.1980 -0.1798 -0.2513
  890MPD2    C213097   2.750   0.295  14.764  0.6781 -0.2895  0.5562
  890MPD2    C313098   2.689   0.230  14.870 -0.1149  0.2579  0.0034
  890MPD2    C413099   2.563   0.182  14.848 -0.1539 -0.5370 -0.0080
  890MPD2    C513100   2.503   0.200  14.728  0.6494  0.6662  0.4763
  890MPD2     H13101   2.854   0.322  14.775  0.1076  1.1300  2.3741
  890MPD2    H113102   2.511   0.132  14.928 -0.7967  0.2721  0.0719
  890MPD2    H213103   2.518   0.292  14.534  2.0430  1.7139 -1.0793
  890MPD2    H313104   2.408   0.148  14.717  0.9405  0.3416 -0.4635
  890MPD2     N13105   2.761   0.225  14.997  0.3218  0.0703  0.0123
  890MPD2    H513106   2.850   0.273  15.000  0.6555 -0.5927  0.7268
  890MPD2    N113107   2.758   0.414  14.558  0.0445  0.4559 -0.7321
  890MPD2    H713108   2.694   0.456  14.492 -0.0037  1.6474  0.0770
  891MPD2     C13109   0.863   3.538  16.506 -0.2487 -0.5336  0.6328
  891MPD2    C113110   0.769   3.545  16.608  0.9768  1.0614 -0.5702
  891MPD2    C213111   0.812   3.506  16.736  0.5907 -0.1484 -0.1117
  891MPD2    C313112   0.946   3.481  16.763  0.0003 -0.1611 -0.1714
  891MPD2    C413113   1.039   3.498  16.661  0.5249  0.3893  0.4911
  891MPD2    C513114   0.999   3.530  16.537 -0.6907 -0.0425 -0.3670
  891MPD2     H13115   0.740   3.505  16.817  1.0820 -1.9896  0.3140
  891MPD2    H113116   1.145   3.481  16.674 -0.0206 -2.1682  1.5926
  891MPD2    H213117   0.826   3.563  16.407  0.0328 -0.1284  0.6304
  891MPD2    H313118   1.063   3.529  16.450 -0.0055 -0.2251  0.1378
  891MPD2     N13119   0.984   3.435  16.894 -0.1266 -0.0772  0.0216
  891MPD2    H513120   0.913   3.426  16.966  0.1235  0.7232  0.3698
  891MPD2    N113121   0.640   3.582  16.574  0.1341 -0.0811  0.6003
  891MPD2    H713122   0.621   3.573  16.474  0.0205  0.7835  0.5497
  892MPD2     C13123   1.923   4.564  15.288  0.2994 -0.0745  0.5228
  892MPD2    C113124   1.851   4.553  15.169  0.0147 -0.3866 -0.3798
  892MPD2    C213125   1.903   4.475  15.072  0.1403 -0.2051 -0.0939
  892MPD2    C313126   2.027   4.406  15.093 -0.4930 -0.5081  0.7468
  892MPD2    C413127   2.094   4.417  15.215  0.8524 -0.0400  0.8754
  892MPD2    C513128   2.036   4.494  15.306 -0.4692 -0.0422  0.1781
  892MPD2     H13129   1.847   4.461  14.980 -1.8401  2.1423  0.7557
  892MPD2    H113130   2.186   4.366  15.240  1.9535  0.7755 -1.5559
  892MPD2    H213131   1.884   4.622  15.370  1.0196  1.1624 -0.0026
  892MPD2    H313132   2.085   4.510  15.401  1.0727 -2.3596 -0.2187
  892MPD2     N13133   2.071   4.319  14.998 -0.0759  0.0521 -0.6161
  892MPD2    H513134   2.168   4.292  15.012 -0.4658  0.3101  2.5926
  892MPD2    N113135   1.737   4.626  15.147 -0.6333 -0.4939  0.6526
  892MPD2    H713136   1.715   4.635  15.049  2.3190 -1.9636 -0.1460
  893MPD2     C13137   3.238   1.834   1.626 -0.1613  0.3706 -0.1877
  893MPD2    C113138   3.235   1.859   1.494 -0.0330 -0.5735 -0.1344
  893MPD2    C213139   3.167   1.773   1.414  0.1062 -0.1864  0.9072
  893MPD2    C313140   3.110   1.659   1.473 -0.3896  0.5837 -0.5313
  893MPD2    C413141   3.116   1.635   1.609 -0.7961  0.4984 -0.8538
  893MPD2    C513142   3.185   1.721   1.687 -0.4245 -0.3721 -0.3307
  893MPD2     H13143   3.167   1.788   1.307  1.9056 -0.7796  0.8212
  893MPD2    H113144   3.081   1.544   1.657  1.7139  0.1336  0.3084
  893MPD2    H213145   3.294   1.902   1.690 -0.9036  0.3440  0.4796
  893MPD2    H313146   3.191   1.715   1.795  0.1319 -0.8855 -0.3867
  893MPD2     N13147   3.046   1.565   1.393  0.2160  0.0465 -0.2720
  893MPD2    H513148   3.035   1.472   1.431 -1.2386  0.6129  0.6875
  893MPD2    N113149   3.306   1.970   1.444 -0.5645  0.3079 -0.5963
  893MPD2    H713150   3.361   2.026   1.508 -0.0449 -1.8909  0.8783
  894MPD2     C13151   1.367   0.714   0.983 -0.2870 -0.4849 -0.4104
  894MPD2    C113152   1.423   0.696   1.104  0.1542 -0.0471 -0.6068
  894MPD2    C213153   1.483   0.807   1.162  0.1270  0.3973 -1.0488
  894MPD2    C313154   1.496   0.921   1.092  0.1220 -0.2530 -0.7040
  894MPD2    C413155   1.429   0.935   0.972  0.5194  0.5176 -0.7032
  894MPD2    C513156   1.366   0.834   0.914  0.0198 -0.1685  0.5411
  894MPD2     H13157   1.528   0.802   1.261  0.4337 -0.2410 -1.2272
  894MPD2    H113158   1.407   1.028   0.922  2.0253  1.0292 -0.4349
  894MPD2    H213159   1.309   0.632   0.944 -0.0257 -1.7745  1.9320
  894MPD2    H313160   1.286   0.842   0.842 -0.7637  0.1760  1.4441
  894MPD2     N13161   1.563   1.028   1.152  0.0526 -0.2586  0.0586
  894MPD2    H513162   1.570   1.022   1.253 -0.3316 -0.3432  0.0803
  894MPD2    N113163   1.431   0.571   1.173  0.1907 -0.6060 -0.4727
  894MPD2    H713164   1.480   0.570   1.262 -0.4123 -1.0177 -0.1413
  895MPD2     C13165   0.927   4.303  13.435  0.1032  0.3091  0.1659
  895MPD2    C113166   0.903   4.272  13.303 -1.1273  0.1077  0.2881
  895MPD2    C213167   0.822   4.162  13.279  0.1436  0.3594 -0.0413
  895MPD2    C313168   0.768   4.081  13.372 -0.2364  0.1209  0.3637
  895MPD2    C413169   0.790   4.119  13.506  0.6916 -0.7477 -0.3374
  895MPD2    C513170   0.864   4.235  13.534  0.4575  0.0858 -0.3347
  895MPD2     H13171   0.789   4.148  13.177 -0.3597 -0.4798  0.2401
  895MPD2    H113172   0.753   4.064  13.592 -0.3662 -1.4857 -1.2745
  895MPD2    H213173   1.004   4.372  13.467  1.5677 -1.1108 -0.2702
  895MPD2    H313174   0.891   4.262  13.636  0.9882  1.2774 -0.7995
  895MPD2     N13175   0.704   3.963  13.341  0.6252  0.5239  0.2734
  895MPD2    H513176   0.666   3.908  13.418  1.0329  0.2300  0.2693
  895MPD2    N113177   0.954   4.347  13.188 -0.3713  0.0543 -0.0318
  895MPD2    H713178   0.921   4.312  13.099 -0.9142 -0.2530  0.2834
  896MPD2     C13179   3.404   0.863   1.894  0.2125 -0.3630  0.0434
  896MPD2    C113180   3.332   0.913   1.788 -0.7455  0.6860 -0.3741
  896MPD2    C213181   3.197   0.937   1.809 -0.2140  0.0281  0.4602
  896MPD2    C313182   3.139   0.917   1.932 -0.0041  0.6252  0.3538
  896MPD2    C413183   3.212   0.855   2.035 -0.6183  0.0262 -0.3477
  896MPD2    C513184   3.342   0.822   2.009 -0.4864 -0.0459 -0.3523
  896MPD2     H13185   3.133   0.976   1.730 -1.6873 -1.1696  1.0542
  896MPD2    H113186   3.176   0.834   2.135  0.7881  2.9381  0.7391
  896MPD2    H213187   3.510   0.839   1.890 -0.5374 -3.7686  0.8484
  896MPD2    H313188   3.391   0.791   2.100  0.3883  1.4019 -0.3322
  896MPD2     N13189   3.012   0.964   1.946 -0.0151  0.0319  0.7722
  896MPD2    H513190   2.956   1.003   1.870  0.9382  0.0942  0.1092
  896MPD2    N113191   3.408   0.946   1.676  0.2979  0.1640 -0.5281
  896MPD2    H713192   3.505   0.915   1.680  0.5159  0.9911  0.6380
  897MPD2     C13193   0.071   3.312  10.847  0.8945  0.6618 -0.5341
  897MPD2    C113194   0.071   3.447  10.830  0.1060 -0.5097 -0.2107
  897MPD2    C213195   0.008   3.513  10.931 -0.0041 -0.8435  0.8696
  897MPD2    C313196   4.673   3.450  11.028  0.2582 -0.0676  0.1441
  897MPD2    C413197   4.664   3.319  11.033  0.0023 -0.5401 -0.0294
  897MPD2    C513198   4.730   3.245  10.944  0.1660  0.2745 -0.0843
  897MPD2     H13199   0.001   3.620  10.919 -0.7175 -1.1115 -1.2351
  897MPD2    H113200   4.589   3.268  11.093 -1.3862  1.1607 -0.3408
  897MPD2    H213201   0.121   3.246  10.776 -1.9186 -0.4600 -1.5089
  897MPD2    H313202   4.728   3.137  10.952 -2.1019  0.2795 -0.4718
  897MPD2     N13203   4.584   3.532  11.099 -0.8742 -0.1449  0.2698
  897MPD2    H513204   4.578   3.628  11.068 -1.0002 -0.9046 -2.0971
  897MPD2    N113205   0.111   3.525  10.722  0.2269  0.0140  0.6021
  897MPD2    H713206   0.089   3.624  10.727 -0.8382 -0.2298  0.6875
  898MPD2     C13207   1.127   3.983  17.635 -0.5691 -0.4722  0.6713
  898MPD2    C113208   1.237   4.026  17.704 -0.1943  0.1455  0.2990
  898MPD2    C213209   1.304   4.142  17.661 -0.6136 -0.1256 -0.5672
  898MPD2    C313210   1.266   4.208  17.547 -0.1399  0.2979 -0.2846
  898MPD2    C413211   1.161   4.157  17.477  0.9830  0.3825 -0.5281
  898MPD2    C513212   1.089   4.049  17.525  0.6631 -0.0238 -0.2670
  898MPD2     H13213   1.397   4.176  17.706 -1.4355  1.1613  0.1449
  898MPD2    H113214   1.120   4.216  17.396  0.4412  1.5197  0.5655
  898MPD2    H213215   1.067   3.899  17.668  1.3844 -1.4793  1.6672
  898MPD2    H313216   1.011   4.008  17.462 -0.7508  2.2413  0.0342
  898MPD2     N13217   1.330   4.324  17.508  0.5769  0.1865  0.3500
  898MPD2    H513218   1.415   4.352  17.556  0.4152 -0.7395  1.1768
  898MPD2    N113219   1.279   3.964   0.080 -0.6443 -0.0667 -0.5370
  898MPD2    H713220   1.328   4.014   0.153 -1.6170 -2.3998  1.7227
  899MPD2     C13221   2.306   4.592  17.651 -0.0201 -0.6859  0.0020
  899MPD2    C113222   2.198   4.675  17.640 -1.4073 -0.3157 -0.2103
  899MPD2    C213223   2.100   4.677   0.000  0.1887  0.6070 -0.0065
  899MPD2    C313224   2.111   4.597   0.109  0.5468  0.6542  0.1135
  899MPD2    C413225   2.225   4.512   0.123 -1.0796 -0.4545 -0.2245
  899MPD2    C513226   2.318   4.512   0.023 -0.6341  0.4993  0.3300
  899MPD2     H13227   2.014   0.008   0.004 -0.5066 -0.2237 -1.0564
  899MPD2    H113228   2.238   4.437   0.200 -1.2635  0.5148  0.7508
  899MPD2    H213229   2.385   4.604  17.578  0.6575  3.4809  1.4265
  899MPD2    H313230   2.406   4.452   0.044 -0.5224 -0.0898 -1.8788
  899MPD2     N13231   2.017   4.595   0.212  0.4366  0.2677 -0.0906
  899MPD2    H513232   2.040   4.541   0.295  1.4639  1.7363  0.5637
  899MPD2    N113233   2.196   0.013  17.519 -0.0270  0.0791 -0.3868
  899MPD2    H713234   2.272   0.001  17.453 -0.6165 -1.0245 -0.8622
  900MPD2     C13235   1.862   1.754  12.693 -0.3750  0.8156 -0.4271
  900MPD2    C113236   1.846   1.624  12.666 -0.4714 -0.2198 -0.3761
  900MPD2    C213237   1.730   1.583  12.610 -0.5681 -0.4006  1.0688
  900MPD2    C313238   1.629   1.667  12.574  0.3934  0.6369  0.0323
  900MPD2    C413239   1.647   1.801  12.585 -0.4137  0.1216 -0.5696
  900MPD2    C513240   1.762   1.842  12.645  0.3828 -0.5296  0.7223
  900MPD2     H13241   1.713   1.477  12.594 -0.7934  0.1060 -1.8784
  900MPD2    H113242   1.579   1.878  12.548 -0.5509  0.5326  0.5319
  900MPD2    H213243   1.948   1.791  12.747  0.1325 -0.5961 -0.2475
  900MPD2    H313244   1.783   1.947  12.660  0.4920 -0.8365  2.7413
  900MPD2     N13245   1.520   1.599  12.508  0.2491 -0.3181  0.0686
  900MPD2    H513246   1.522   1.499  12.492 -0.6643 -0.1847 -0.8669
  900MPD2    N113247   1.938   1.522  12.697  0.3515 -0.6812  0.4585
  900MPD2    H713248   1.906   1.426  12.690  0.8040 -0.7400 -0.7538
  901MPD2     C13249   1.677   0.697  12.611  0.3245  0.0414 -0.1648
  901MPD2    C113250   1.811   0.665  12.610  0.1589  0.2765  0.3969
  901MPD2    C213251   1.905   0.762  12.657 -0.6966 -0.1288  0.0676
  901MPD2    C313252   1.860   0.886  12.687 -0.3293 -0.0048 -0.0543
  901MPD2    C413253   1.733   0.922  12.670  0.6987  0.8213  0.6203
  901MPD2    C513254   1.636   0.828  12.644  0.4140  0.7613  1.1533
  901MPD2     H13255   2.006   0.725  12.674 -0.5121  1.5499  2.6620
  901MPD2    H113256   1.692   1.016  12.703 -0.7765  0.2452  0.4009
  901MPD2    H213257   1.606   0.623  12.574  1.0266  0.0985 -1.6339
  901MPD2    H313258   1.532   0.854  12.632  0.2296 -0.2691  0.4999
  901MPD2     N13259   1.960   0.975  12.735 -0.6330  0.3875  0.3794
  901MPD2    H513260   2.053   0.936  12.752  0.2537  1.6509 -1.6213
  901MPD2    N113261   1.847   0.535  12.570  0.2480  0.1016  0.2027
  901MPD2    H713262   1.770   0.476  12.541 -1.1444  1.0984  1.8969
  902MPD2     C13263   0.485   4.304  12.017  0.0987  0.2454  0.2727
  902MPD2    C113264   0.599   4.307  12.086  0.1079  0.2272  0.0165
  902MPD2    C213265   0.671   4.189  12.099 -0.2351 -0.4267  0.1961
  902MPD2    C313266   0.629   4.068  12.041  0.2709  0.6175  0.3048
  902MPD2    C413267   0.503   4.062  11.996 -0.0671 -0.2205 -0.0325
  902MPD2    C513268   0.432   4.179  11.976 -0.2173 -0.0338  0.0307
  902MPD2     H13269   0.767   4.200  12.149 -0.3228 -0.1299  0.2945
  902MPD2    H113270   0.467   3.971  11.950  2.0087  0.2738 -2.6350
  902MPD2    H213271   0.428   4.395  12.005  0.6660  0.7551  1.5039
  902MPD2    H313272   0.331   4.176  11.935 -0.6231 -0.6821  1.0934
  902MPD2     N13273   0.717   3.966  12.002  0.0081 -0.0355 -0.5242
  902MPD2    H513274   0.674   3.897  11.941 -0.8964 -0.7478  0.9024
  902MPD2    N113275   0.655   4.434  12.113  0.7975 -0.0442  0.3700
  902MPD2    H713276   0.603   4.514  12.080 -0.0583 -0.7810 -0.0774
  903MPD2     C13277   1.068   4.263  11.394 -0.2146 -0.4666  0.3145
  903MPD2    C113278   0.957   4.198  11.444 -0.1456 -0.7826 -0.4508
  903MPD2    C213279   0.829   4.251  11.417 -0.1283 -0.4969  0.3173
  903MPD2    C313280   0.815   4.370  11.358 -0.2052  0.3617  0.3146
  903MPD2    C413281   0.929   4.435  11.311  0.0894  0.0858 -0.5225
  903MPD2    C513282   1.054   4.386  11.331 -0.7329 -0.2367  0.1850
  903MPD2     H13283   0.737   4.195  11.434 -1.9617  2.0441 -1.2777
  903MPD2    H113284   0.926   4.536  11.271 -1.4195 -0.2471 -1.2272
  903MPD2    H213285   1.166   4.220  11.410  0.8463  2.1930  1.0128
  903MPD2    H313286   1.138   4.437  11.285 -0.1014 -1.0242  0.4597
  903MPD2     N13287   0.681   4.424  11.341 -0.0710 -0.3226 -0.6548
  903MPD2    H513288   0.607   4.375  11.390 -0.0583 -2.0898 -2.4455
  903MPD2    N113289   0.986   4.082  11.525 -0.3476 -0.0865 -0.2223
  903MPD2    H713290   1.081   4.063  11.555 -0.0247  0.2537 -1.0273
  904MPD2     C13291   0.595   2.809  13.798 -0.4024  0.4032 -0.6788
  904MPD2    C113292   0.644   2.926  13.848  0.4973 -0.1773  0.4127
  904MPD2    C213293   0.780   2.947  13.843 -0.0243  0.0100  0.2492
  904MPD2    C313294   0.869   2.852  13.805 -0.9826 -0.7538 -0.4945
  904MPD2    C413295   0.816   2.723  13.774 -0.5716 -0.2008  0.5487
  904MPD2    C513296   0.683   2.709  13.770 -0.0535  1.2459 -0.2878
  904MPD2     H13297   0.824   3.043  13.869  0.7318 -0.0398 -0.8231
  904MPD2    H113298   0.877   2.635  13.754 -2.2041 -1.3330  0.5585
  904MPD2    H213299   0.490   2.781  13.789  0.2155 -2.2349  0.4042
  904MPD2    H313300   0.651   2.612  13.732 -0.2134  0.6846  1.3066
  904MPD2     N13301   0.998   2.896  13.804 -0.2011  0.0620 -0.1659
  904MPD2    H513302   1.009   2.992  13.835  0.0762  0.7928 -2.5382
  904MPD2    N113303   0.565   3.034  13.894  0.1987 -0.0716  0.1893
  904MPD2    H713304   0.618   3.113  13.928 -1.0036 -0.1234  2.2204
  905MPD2     C13305   0.129   3.764  13.824  0.7611  0.2592  0.6199
  905MPD2    C113306   0.166   3.645  13.769 -0.2250 -0.3513  0.5180
  905MPD2    C213307   0.229   3.644  13.653  0.0749 -0.1436 -0.4251
  905MPD2    C313308   0.234   3.757  13.578  0.3452  0.3187  0.0550
  905MPD2    C413309   0.202   3.877  13.637  0.0283  0.6014  0.4475
  905MPD2    C513310   0.143   3.886  13.760 -0.5126  0.5049 -0.1922
  905MPD2     H13311   0.270   3.551  13.614  2.4100  0.4529  0.6474
  905MPD2    H113312   0.215   3.974  13.590  0.1818  0.8427  0.9885
  905MPD2    H213313   0.082   3.764  13.922 -0.6840 -0.8919 -0.0637
  905MPD2    H313314   0.108   3.981  13.799  0.4694  0.9950 -0.4968
  905MPD2     N13315   0.294   3.773  13.446  0.1300  0.4148 -0.3218
  905MPD2    H513316   0.314   3.868  13.415 -2.5746  1.0292 -0.1526
  905MPD2    N113317   0.153   3.532  13.853 -0.1468  0.2067  0.0391
  905MPD2    H713318   0.077   3.540  13.919  0.4315 -1.7589  0.9351
  906MPD2     C13319   3.113   4.062  10.967  0.1654 -0.3564 -0.4293
  906MPD2    C113320   3.150   3.934  10.929  0.5852  0.4200 -0.0563
  906MPD2    C213321   3.106   3.829  11.000  0.0452  0.3689  0.4814
  906MPD2    C313322   3.029   3.847  11.112  0.1765 -0.8659  0.2678
  906MPD2    C413323   2.998   3.974  11.150 -1.0844  0.3795  0.8700
  906MPD2    C513324   3.040   4.081  11.081  0.2479  0.7279 -0.8424
  906MPD2     H13325   3.145   3.735  10.963 -2.3919  0.1083 -1.4391
  906MPD2    H113326   2.941   3.989  11.241 -1.9410  1.1450  0.2020
  906MPD2    H213327   3.145   4.154  10.920  2.7395 -0.7324  0.5970
  906MPD2    H313328   3.037   4.180  11.125 -1.1415  0.9657 -1.4854
  906MPD2     N13329   2.956   3.742  11.178  0.1419 -0.0988 -0.1234
  906MPD2    H513330   2.885   3.778  11.241 -0.1460  0.8056 -0.9569
  906MPD2    N113331   3.224   3.900  10.812 -0.0327 -0.8042  0.6503
  906MPD2    H713332   3.235   3.801  10.792 -1.4876 -1.2456  2.0228
  907MPD2     C13333   1.206   2.789  15.883  0.0276 -0.4253  0.2225
  907MPD2    C113334   1.303   2.696  15.904 -0.6201  0.1888  0.3695
  907MPD2    C213335   1.358   2.677  16.024  0.1145 -0.7516 -0.4794
  907MPD2    C313336   1.327   2.769  16.124 -0.4046 -0.5405  0.1489
  907MPD2    C413337   1.240   2.874  16.103  0.4008  0.5867  0.0471
  907MPD2    C513338   1.170   2.878  15.987  0.0325  0.0567 -0.0095
  907MPD2     H13339   1.416   2.588  16.047 -0.8805 -0.9338  1.3215
  907MPD2    H113340   1.211   2.944  16.180 -2.3867 -1.4126  0.8167
  907MPD2    H213341   1.143   2.805  15.796 -0.3321  0.8621  0.7218
  907MPD2    H313342   1.096   2.953  15.963  0.7404  0.9375  0.5685
  907MPD2     N13343   1.410   2.775  16.233  0.7601 -0.5285  0.2423
  907MPD2    H513344   1.503   2.738  16.220  1.3285  0.5659  1.1557
  907MPD2    N113345   1.339   2.601  15.804 -0.0164 -0.1806  0.1775
  907MPD2    H713346   1.427   2.554  15.822 -0.2857 -0.4363  0.8132
  908MPD2     C13347   0.189   3.552   9.672 -0.0181 -0.3697 -0.7311
  908MPD2    C113348   0.194   3.434   9.739 -0.2303 -0.7354 -0.2744
  908MPD2    C213349   0.196   3.427   9.881  0.3898  0.6472 -0.6041
  908MPD2    C313350   0.199   3.548   9.951 -0.2014  0.2946 -0.8088
  908MPD2    C413351   0.204   3.669   9.877 -0.3393  0.1631  0.0989
  908MPD2    C513352   0.182   3.666   9.744  0.2248  0.5045 -0.1156
  908MPD2     H13353   0.196   3.337   9.941 -2.5912 -0.8094 -2.7400
  908MPD2    H113354   0.212   3.767   9.922 -0.7355  0.8264 -1.3052
  908MPD2    H213355   0.185   3.557   9.564 -2.4557 -0.7998 -0.6652
  908MPD2    H313356   0.174   3.763   9.696  3.7045  0.6465 -0.4720
  908MPD2     N13357   0.196   3.554  10.096 -0.4777 -0.1721 -0.6466
  908MPD2    H513358   0.203   3.469  10.151  2.6988 -0.0939 -0.9327
  908MPD2    N113359   0.207   3.318   9.663 -0.1556 -0.1263 -0.1310
  908MPD2    H713360   0.230   3.331   9.565 -1.2016  0.2429 -0.3337
  909MPD2     C13361   0.017   1.465  11.527 -0.9982  0.1593  0.2159
  909MPD2    C113362   0.042   1.600  11.532 -0.0799  0.0185 -0.5018
  909MPD2    C213363   0.019   1.662  11.657 -1.2892  0.2971 -1.2575
  909MPD2    C313364   4.696   1.594  11.760 -0.0140  0.0208 -0.5780
  909MPD2    C413365   4.683   1.462  11.751  0.3916  0.2358  0.6175
  909MPD2    C513366   4.720   1.395  11.639  0.0923  0.4904  0.1551
  909MPD2     H13367   0.041   1.768  11.662 -0.2485  0.0914 -1.3897
  909MPD2    H113368   4.649   1.400  11.832 -1.8912 -2.1966 -2.1865
  909MPD2    H213369   0.035   1.405  11.438  0.6757  1.2104 -0.1577
  909MPD2    H313370   4.684   1.293  11.636  0.4142  0.3405  1.4392
  909MPD2     N13371   4.631   1.671  11.865  0.1439 -0.4099 -0.1790
  909MPD2    H513372   4.646   1.771  11.867  3.8653 -1.0056  1.3376
  909MPD2    N113373   0.111   1.676  11.431 -0.3038  0.0835  0.4414
  909MPD2    H713374   0.142   1.769  11.457 -0.2085 -0.1060  1.0085
  910MPD2     C13375   1.261   3.273  16.264 -0.1271  0.0906  0.1546
  910MPD2    C113376   1.135   3.222  16.290  0.4134  0.5306  0.6320
  910MPD2    C213377   1.040   3.195  16.192 -0.3717 -0.3472  0.9027
  910MPD2    C313378   1.073   3.233  16.059  0.6762 -0.5542  0.6701
  910MPD2    C413379   1.193   3.294  16.034  0.0129 -0.3082  0.0841
  910MPD2    C513380   1.284   3.308  16.136 -1.2861  0.0700  0.2880
  910MPD2     H13381   0.944   3.151  16.218 -0.7458 -1.7134 -2.8593
  910MPD2    H113382   1.231   3.328  15.938 -0.4635 -2.0639 -0.7179
  910MPD2    H213383   1.345   3.285  16.331  0.2840  0.2694 -0.3956
  910MPD2    H313384   1.380   3.352  16.111 -2.1091  0.5530 -2.0261
  910MPD2     N13385   0.984   3.220  15.951  0.2406 -0.3329  0.0901
  910MPD2    H513386   1.007   3.270  15.866 -0.8278  0.5644  0.3271
  910MPD2    N113387   1.104   3.160  16.415 -0.0155  0.7158 -0.5430
  910MPD2    H713388   1.013   3.116  16.422 -0.5622  2.1162  1.0694
  911MPD2     C13389   3.985   3.789  16.310  0.1606 -0.0820  0.0324
  911MPD2    C113390   3.955   3.742  16.434 -0.5010  0.7839  0.3022
  911MPD2    C213391   3.907   3.839  16.531 -0.1896 -0.0380  0.0783
  911MPD2    C313392   3.896   3.971  16.506 -0.0612 -0.6575  0.1714
  911MPD2    C413393   3.936   4.016  16.379  0.0774  0.3575  0.2585
  911MPD2    C513394   3.982   3.923  16.284 -0.7521 -0.7542 -0.6577
  911MPD2     H13395   3.883   3.801  16.629  1.2813 -1.2572 -0.0263
  911MPD2    H113396   3.933   4.123  16.359  2.6134  0.5400  0.7905
  911MPD2    H213397   4.028   3.724  16.234  1.0140  2.0174 -1.2838
  911MPD2    H313398   4.016   3.969  16.192 -0.2507  0.2121  0.0083
  911MPD2     N13399   3.833   4.056  16.600 -0.1029  0.2475  0.6381
  911MPD2    H513400   3.812   4.028  16.695 -1.9656 -2.4968 -0.5676
  911MPD2    N113401   3.979   3.607  16.463  0.6014  0.3333 -0.2078
  911MPD2    H713402   4.011   3.550  16.386 -1.1763 -2.1530  0.9079
  912MPD2     C13403   3.756   3.704  16.051  0.0476 -0.2911 -0.0619
  912MPD2    C113404   3.678   3.720  16.163  0.0585  0.2828 -0.5192
  912MPD2    C213405   3.639   3.616  16.245  0.3388 -0.0534 -0.5637
  912MPD2    C313406   3.696   3.494  16.221 -0.1207  0.0992 -0.2395
  912MPD2    C413407   3.772   3.468  16.110  0.4955 -0.0224  0.3584
  912MPD2    C513408   3.799   3.573  16.025 -0.1103  0.4125 -0.9011
  912MPD2     H13409   3.588   3.628  16.340 -0.8082  1.3628 -1.3637
  912MPD2    H113410   3.801   3.365  16.088  3.0318  0.6823  0.3365
  912MPD2    H213411   3.775   3.783  15.979 -0.8429  3.0653  3.4070
  912MPD2    H313412   3.871   3.555  15.946  1.4678  2.9359 -0.0287
  912MPD2     N13413   3.669   3.384  16.313  0.2184 -0.4031  0.4046
  912MPD2    H513414   3.618   3.414  16.396 -0.9036  1.3405 -0.9067
  912MPD2    N113415   3.641   3.852  16.188 -0.0187 -0.3746 -0.1676
  912MPD2    H713416   3.680   3.922  16.126 -1.2431  0.8940  0.4837
  913MPD2     C13417   4.459   0.220  11.020  0.4730  0.2199  0.0751
  913MPD2    C113418   4.553   0.262  10.933  0.0388  0.5948  0.0928
  913MPD2    C213419   4.536   0.243  10.799  0.3175  0.7470 -0.0287
  913MPD2    C313420   4.412   0.205  10.752 -0.9674 -0.4050 -0.4981
  913MPD2    C413421   4.307   0.173  10.848  0.3873  0.3593 -0.0892
  913MPD2    C513422   4.348   0.165  10.980 -0.1439  0.2879  0.0257
  913MPD2     H13423   4.611   0.273  10.727  0.5413  4.2352  1.6596
  913MPD2    H113424   4.208   0.134  10.830  0.2924  1.2972 -1.6188
  913MPD2    H213425   4.478   0.232  11.126  1.0545  1.0853 -0.1291
  913MPD2    H313426   4.272   0.125  11.047 -0.7633  0.2199 -0.7223
  913MPD2     N13427   4.376   0.191  10.616 -0.0642 -1.0410  0.2976
  913MPD2    H513428   4.293   0.137  10.597 -0.7113  0.0040  0.1486
  913MPD2    N113429   4.678   0.309  10.991  0.5246  0.4338 -0.5563
  913MPD2    H713430   4.673   0.334  11.090  2.8396  0.1230 -0.3575
  914MPD2     C13431   1.736   0.124  11.837 -0.5468 -0.2743  0.3489
  914MPD2    C113432   1.746   0.248  11.890 -0.5031 -0.8772 -0.6233
  914MPD2    C213433   1.794   0.263  12.020 -0.0151 -0.6389 -0.1291
  914MPD2    C313434   1.823   0.149  12.090  0.4432  0.3305 -0.1045
  914MPD2    C413435   1.794   0.026  12.036 -0.2473 -0.0458  0.1442
  914MPD2    C513436   1.762   0.012  11.908  0.2193  0.4526 -0.3319
  914MPD2     H13437   1.820   0.360  12.061 -0.6633 -0.4119 -0.2534
  914MPD2    H113438   1.806   4.671  12.096 -3.1764  1.0839  2.4291
  914MPD2    H213439   1.692   0.121  11.738  0.0479 -0.2202  0.0832
  914MPD2    H313440   1.750   4.649  11.863  0.0594  0.3124  0.0144
  914MPD2     N13441   1.881   0.164  12.216 -0.1527 -0.0040 -0.3648
  914MPD2    H513442   1.897   0.262  12.238  0.9436 -0.0003 -1.1955
  914MPD2    N113443   1.727   0.355  11.809  0.0546 -1.1341 -0.2613
  914MPD2    H713444   1.733   0.334  11.710 -3.0891  0.6089 -0.8213
  915MPD2     C13445   0.380   0.424  15.673  0.4548 -0.0821  0.1676
  915MPD2    C113446   0.304   0.537  15.664  0.1525  0.1281 -0.0619
  915MPD2    C213447   0.298   0.610  15.778 -0.2679 -0.2212  0.0212
  915MPD2    C313448   0.344   0.567  15.900 -0.1360 -0.6207 -0.1428
  915MPD2    C413449   0.421   0.450  15.903  0.7839 -0.7198 -0.8633
  915MPD2    C513450   0.423   0.375  15.791 -0.1585 -0.1404 -0.3847
  915MPD2     H13451   0.245   0.704  15.769  0.4694  0.2828  0.8787
  915MPD2    H113452   0.463   0.412  15.995 -0.6918 -1.1559 -0.3601
  915MPD2    H213453   0.388   0.360  15.586 -0.6191 -0.7342  0.5473
  915MPD2    H313454   0.487   0.288  15.796  1.7001  1.2686  0.4139
  915MPD2     N13455   0.301   0.638  16.017 -0.1987 -0.1040 -0.2321
  915MPD2    H513456   0.228   0.707  15.999 -0.2118  0.2740  1.2675
  915MPD2    N113457   0.258   0.589  15.540  0.3601  0.5282  0.1890
  915MPD2    H713458   0.296   0.540  15.460  1.2522  0.0433  0.9116
  916MPD2     C13459   3.425   3.507  16.022  0.1394 -0.0985  0.2856
  916MPD2    C113460   3.345   3.405  16.081 -0.1647 -0.3327 -0.8299
  916MPD2    C213461   3.353   3.278  16.028  0.5234 -0.1458 -0.0775
  916MPD2    C313462   3.434   3.252  15.919  0.1167  0.6899  0.2987
  916MPD2    C413463   3.506   3.356  15.865  0.3954 -0.0738  0.6604
  916MPD2    C513464   3.500   3.487  15.910  0.4863  0.8425  0.0602
  916MPD2     H13465   3.287   3.198  16.058 -1.4019  1.3780 -0.2774
  916MPD2    H113466   3.571   3.344  15.779  0.1695  0.2964  0.4374
  916MPD2    H213467   3.415   3.609  16.059  0.3804  0.5908 -1.5845
  916MPD2    H313468   3.564   3.558  15.860  0.1590 -0.3106 -2.0166
  916MPD2     N13469   3.423   3.128  15.858 -0.2305 -0.2973  0.1219
  916MPD2    H513470   3.367   3.055  15.898  2.3393 -1.6613  1.2470
  916MPD2    N113471   3.274   3.457  16.195  0.0828 -0.2124 -0.0840
  916MPD2    H713472   3.290   3.552  16.228 -0.2548 -0.6538  1.3324
  917MPD2     C13473   3.889   0.987  11.624 -0.4257  0.2580  0.4030
  917MPD2    C113474   3.794   0.989  11.525  0.0800  0.0980  0.4432
  917MPD2    C213475   3.827   1.036  11.401 -0.7293 -0.6722 -0.5384
  917MPD2    C313476   3.956   1.084  11.371 -0.2391 -0.0696 -0.1946
  917MPD2    C413477   4.051   1.081  11.472  0.3407 -0.0313 -0.1835
  917MPD2    C513478   4.013   1.038  11.595 -0.5822 -0.0534 -0.0894
  917MPD2     H13479   3.749   1.052  11.327 -2.1691 -0.4743  1.0269
  917MPD2    H113480   4.145   1.133  11.455 -0.5511  1.8889  0.7291
  917MPD2    H213481   3.866   0.961  11.727 -0.9169 -1.3556 -0.1000
  917MPD2    H313482   4.086   1.046  11.675  0.7811 -1.3535 -1.2101
  917MPD2     N13483   3.992   1.136  11.244  0.1187 -0.5007 -0.7533
  917MPD2    H513484   4.091   1.146  11.224  0.5975 -2.7017  0.4482
  917MPD2    N113485   3.661   0.954  11.563 -0.6143 -0.4104  0.1045
  917MPD2    H713486   3.639   0.933  11.659 -0.0667  1.3996  0.6335
  918MPD2     C13487   3.414   1.601  11.977 -0.3191  0.0421  0.3197
  918MPD2    C113488   3.515   1.502  11.994 -0.2519 -0.3822 -0.3872
  918MPD2    C213489   3.490   1.369  11.971 -0.3346 -0.7125  0.6220
  918MPD2    C313490   3.362   1.330  11.924  0.4473 -0.1385  1.1009
  918MPD2    C413491   3.260   1.423  11.904  0.1841 -0.8361 -0.1498
  918MPD2    C513492   3.289   1.560  11.936 -0.4397  0.5528  0.6963
  918MPD2     H13493   3.570   1.297  11.974  1.1636  0.8870 -1.8154
  918MPD2    H113494   3.157   1.397  11.883 -0.0869 -0.1307  0.3195
  918MPD2    H213495   3.435   1.704  12.003  1.7014  0.2515 -2.1386
  918MPD2    H313496   3.211   1.635  11.931 -0.2232  0.6612 -1.2932
  918MPD2     N13497   3.343   1.196  11.880  0.2653  0.3867 -0.3330
  918MPD2    H513498   3.430   1.143  11.870  0.6221  1.3614 -2.3772
  918MPD2    N113499   3.646   1.535  12.032 -0.3122  0.1362 -0.1518
  918MPD2    H713500   3.702   1.454  12.055 -0.7622 -0.0317  0.3616
  919MPD2     C13501   4.419   0.314  11.786 -0.4881  0.0994  0.2621
  919MPD2    C113502   4.290   0.251  11.795  0.1965 -0.3026 -0.2608
  919MPD2    C213503   4.210   0.272  11.688 -0.3413  0.0874  0.1379
  919MPD2    C313504   4.241   0.354  11.584 -0.0904 -0.3685  0.1924
  919MPD2    C413505   4.357   0.419  11.590 -0.5382  0.4468  0.2235
  919MPD2    C513506   4.449   0.399  11.685 -0.2977  0.8573 -0.0258
  919MPD2     H13507   4.111   0.226  11.690 -0.3152 -0.0365 -1.2355
  919MPD2    H113508   4.377   0.494  11.514 -0.1380  0.6106  0.4923
  919MPD2    H213509   4.488   0.317  11.870 -1.0624  1.6668  0.6898
  919MPD2    H313510   4.532   0.467  11.701  0.3270 -0.3383  1.7724
  919MPD2     N13511   4.159   0.370  11.473 -0.7328  0.7281  0.0798
  919MPD2    H513512   4.203   0.416  11.394  1.2448  1.4501  1.6120
  919MPD2    N113513   4.247   0.164  11.902  0.0756 -0.6391  0.1959
  919MPD2    H713514   4.153   0.126  11.898 -1.1575  2.3479  1.2584
  920MPD2     C13515   4.127   0.507  10.472 -0.4456  0.2915  0.2088
  920MPD2    C113516   4.002   0.461  10.508 -0.0263  0.0937  0.1725
  920MPD2    C213517   3.972   0.431  10.640  0.1166 -0.0253 -1.0009
  920MPD2    C313518   4.063   0.434  10.741  0.5618  0.5947  0.3453
  920MPD2    C413519   4.192   0.470  10.707 -0.1681 -0.1214  0.0005
  920MPD2    C513520   4.217   0.506  10.576  0.1813 -0.0685 -1.1109
  920MPD2     H13521   3.875   0.384  10.650 -0.0250 -0.2296 -3.1717
  920MPD2    H113522   4.264   0.472  10.788 -0.6852 -0.0137  0.4589
  920MPD2    H213523   4.156   0.550  10.377 -1.7917  0.0765 -0.2955
  920MPD2    H313524   4.319   0.534  10.549  0.4516  0.5324  0.5158
  920MPD2     N13525   4.026   0.387  10.867  0.5159 -0.1845 -0.3106
  920MPD2    H513526   3.941   0.331  10.867 -0.6494  1.5912  0.4076
  920MPD2    N113527   3.898   0.462  10.414 -0.1375 -0.0203  0.1316
  920MPD2    H713528   3.806   0.454  10.456 -0.2651  0.9797  0.0368
  921MPD2     C13529   4.667   3.628  16.951 -0.0167 -0.5926  0.0644
  921MPD2    C113530   4.673   3.555  16.836 -0.6616 -0.1632 -0.7121
  921MPD2    C213531   4.562   3.481  16.800  0.0019 -0.0954 -0.2069
  921MPD2    C313532   4.449   3.465  16.884 -0.2721 -0.3537  0.1309
  921MPD2    C413533   4.444   3.532  16.999 -0.3360 -0.4303 -0.2410
  921MPD2    C513534   4.554   3.612  17.029 -0.0188  0.1519  0.3558
  921MPD2     H13535   4.560   3.428  16.706  0.1103 -0.2590 -0.1179
  921MPD2    H113536   4.363   3.512  17.069  0.7529  0.6939  1.3567
  921MPD2    H213537   0.012   3.690  16.988 -0.2074 -0.8895  0.9810
  921MPD2    H313538   4.561   3.662  17.125 -0.2363  1.4918 -0.3315
  921MPD2     N13539   4.330   3.398  16.832 -0.4258 -0.2829  0.1700
  921MPD2    H513540   4.242   3.413  16.881 -1.4639 -2.0305 -1.1569
  921MPD2    N113541   0.051   3.573  16.751 -0.5954  0.3400  0.4361
  921MPD2    H713542   0.128   3.632  16.782 -0.5586  1.4629 -1.7637
  922MPD2     C13543   0.418   1.608   0.418  0.0651 -0.0684  0.0302
  922MPD2    C113544   0.330   1.690   0.352 -0.4806 -0.7202 -0.0437
  922MPD2    C213545   0.281   1.666   0.229 -0.5855 -1.5292  0.3136
  922MPD2    C313546   0.320   1.553   0.166 -0.0983 -0.1614  0.3414
  922MPD2    C413547   0.410   1.471   0.226 -0.1275 -0.4660 -0.0365
  922MPD2    C513548   0.459   1.498   0.349  0.1717 -0.4518  0.0946
  922MPD2     H13549   0.211   1.737   0.187 -1.4966 -0.4205  3.6634
  922MPD2    H113550   0.448   1.382   0.177  1.5702  0.0511  0.3224
  922MPD2    H213551   0.464   1.628   0.514 -0.4024  0.7747  0.0759
  922MPD2    H313552   0.533   1.429   0.389 -2.2272 -1.3163  3.0759
  922MPD2     N13553   0.275   1.536   0.034  0.2037 -0.0228 -0.5886
  922MPD2    H513554   0.239   1.620  17.729  0.9802  0.6979  0.1556
  922MPD2    N113555   0.296   1.817   0.413  0.2201 -0.0768  0.2088
  922MPD2    H713556   0.243   1.884   0.358 -1.4128 -0.1876  1.6471
  923MPD2     C13557   2.235   3.719   9.781 -1.1062  0.3308 -1.3021
  923MPD2    C113558   2.310   3.790   9.694  0.1139  0.2103 -0.4023
  923MPD2    C213559   2.442   3.818   9.723  0.2730 -0.2543  0.9360
  923MPD2    C313560   2.504   3.767   9.842  0.0570  0.3675  0.1566
  923MPD2    C413561   2.430   3.676   9.915  0.1180 -0.4434 -0.2216
  923MPD2    C513562   2.295   3.670   9.895  0.3859 -0.2318  0.1195
  923MPD2     H13563   2.508   3.874   9.657 -2.1671 -0.5832 -1.7723
  923MPD2    H113564   2.473   3.625  10.000  1.0477  0.1566 -0.3328
  923MPD2    H213565   2.128   3.712   9.771 -1.4044  0.3883  1.7209
  923MPD2    H313566   2.229   3.613   9.960 -0.5374 -1.0322 -1.5030
  923MPD2     N13567   2.638   3.789   9.884  1.0175  0.5220  0.1355
  923MPD2    H513568   2.684   3.723   9.946  0.5900 -2.5931 -2.8488
  923MPD2    N113569   2.246   3.824   9.573 -0.2741 -0.2288  0.7343
  923MPD2    H713570   2.152   3.790   9.560  1.1086 -2.8148 -2.4260
  924MPD2     C13571   1.915   2.210  16.355 -0.3197 -0.3552  0.1122
  924MPD2    C113572   1.871   2.257  16.476  0.7763  0.7909 -0.2249
  924MPD2    C213573   1.848   2.389  16.492 -0.4888  0.3519  0.2769
  924MPD2    C313574   1.858   2.477  16.384 -0.1407  0.6303 -0.2055
  924MPD2    C413575   1.883   2.427  16.257  0.1572  0.8839  0.1671
  924MPD2    C513576   1.909   2.295  16.249  0.2358  0.0233 -0.2139
  924MPD2     H13577   1.840   2.424  16.594 -1.1528  1.9662 -0.3123
  924MPD2    H113578   1.886   2.491  16.169  1.9797  1.4662  0.6680
  924MPD2    H213579   1.931   2.103  16.346  0.8923 -0.1652 -0.0847
  924MPD2    H313580   1.938   2.253  16.154 -4.4113  0.7959 -1.9722
  924MPD2     N13581   1.814   2.615  16.393  0.2546 -0.7363  0.1000
  924MPD2    H513582   1.766   2.658  16.314  0.7079 -0.7908 -0.2030
  924MPD2    N113583   1.828   2.168  16.584  0.1231  0.9991 -0.1209
  924MPD2    H713584   1.802   2.071  16.564  1.4218  0.7197 -0.4882
  925MPD2     C13585   0.975   4.549  14.907  0.4616 -0.0692  0.0483
  925MPD2    C113586   0.852   4.546  14.847  0.0236 -0.1994  0.3537
  925MPD2    C213587   0.736   4.590  14.913  0.2700  0.2483  0.0190
  925MPD2    C313588   0.744   4.645  15.040 -0.5959  0.1344  0.4532
  925MPD2    C413589   0.870   4.656  15.100 -0.2709  0.2136 -0.2588
  925MPD2    C513590   0.983   4.616  15.029 -0.2222 -0.5927 -0.4979
  925MPD2     H13591   0.642   4.568  14.864 -0.0601  0.5207  0.5322
  925MPD2    H113592   0.884   4.700  15.198 -0.5258 -0.7295  0.2014
  925MPD2    H213593   1.059   4.489  14.873  2.3273  1.6428  1.6706
  925MPD2    H313594   1.079   4.622  15.080 -0.5472 -0.4214  0.0858
  925MPD2     N13595   0.626   4.648  15.123 -0.0569  0.7107  0.0000
  925MPD2    H513596   0.640   4.629  15.222  0.7472  0.8638 -0.0866
  925MPD2    N113597   0.828   4.482  14.728 -0.0962 -0.5373  0.4259
  925MPD2    H713598   0.734   4.480  14.692  0.4519 -1.0977 -0.9849
  926MPD2     C13599   4.023   2.725  13.429  0.0648 -0.5137 -0.2617
  926MPD2    C113600   3.996   2.857  13.445 -0.2680 -0.2290 -0.0403
  926MPD2    C213601   4.049   2.951  13.358  0.7111 -0.2141 -0.1291
  926MPD2    C313602   4.136   2.910  13.253 -0.4928  0.2528 -0.9040
  926MPD2    C413603   4.165   2.778  13.245  0.2957 -0.5795 -0.1892
  926MPD2    C513604   4.109   2.691  13.327  0.2917 -0.2356 -0.2989
  926MPD2     H13605   4.024   3.056  13.369 -1.8593 -0.8692  0.2839
  926MPD2    H113606   4.234   2.746  13.168  0.4638 -1.2958  0.2549
  926MPD2    H213607   3.969   2.646  13.481 -1.0611  1.8838  2.1844
  926MPD2    H313608   4.141   2.587  13.322  0.4047 -0.0342 -4.3863
  926MPD2     N13609   4.190   3.000  13.160 -0.1451 -0.4640  0.2215
  926MPD2    H513610   4.254   2.965  13.090 -0.7164 -0.6844 -0.1870
  926MPD2    N113611   3.902   2.905  13.545  0.4962  0.3299  0.7027
  926MPD2    H713612   3.913   3.004  13.564 -1.2275  0.7126 -0.3145
  927MPD2     C13613   3.798   0.547  17.697 -0.2498  0.2242 -0.7429
  927MPD2    C113614   3.841   0.445   0.038  0.5064  0.6839 -0.1936
  927MPD2    C213615   3.944   0.360   0.001  0.1288  0.0121 -0.2035
  927MPD2    C313616   3.995   0.377  17.611 -0.5902  0.3086  0.4104
  927MPD2    C413617   3.947   0.470  17.526 -0.4498  0.2449 -0.5453
  927MPD2    C513618   3.843   0.548  17.564  0.3130  0.5374 -0.1292
  927MPD2     H13619   3.989   0.280   0.058 -0.3317 -0.6279 -0.7332
  927MPD2    H113620   3.983   0.490  17.425 -1.3130  3.8269 -0.1549
  927MPD2    H213621   3.713   0.607  17.730 -0.7637 -0.2283 -1.2490
  927MPD2    H313622   3.801   0.619  17.493  2.1897  1.7086 -0.0448
  927MPD2     N13623   4.103   0.294  17.571 -0.2933  0.2865  0.3215
  927MPD2    H513624   4.131   0.225  17.640 -1.2726 -0.8198 -0.3909
  927MPD2    N113625   3.786   0.440   0.164  0.7813  0.0830 -0.3639
  927MPD2    H713626   3.712   0.506   0.184  0.9456 -0.2342  1.2787
  928MPD2     C13627   1.737   3.749   1.277 -0.8520 -0.1871 -0.4951
  928MPD2    C113628   1.742   3.675   1.156  0.3100 -0.8156 -1.0936
  928MPD2    C213629   1.751   3.747   1.036 -0.8582 -0.2473 -0.1556
  928MPD2    C313630   1.758   3.884   1.034  0.4291 -0.5240 -0.0683
  928MPD2    C413631   1.753   3.956   1.155 -0.2297  1.0289  0.1369
  928MPD2    C513632   1.741   3.886   1.275  0.6654 -0.4809  0.0681
  928MPD2     H13633   1.773   3.688   0.947  1.8464 -0.5232  0.6983
  928MPD2    H113634   1.784   4.060   1.153 -1.2387  1.3218 -0.1032
  928MPD2    H213635   1.747   3.699   1.373  1.4030  0.4557 -0.4052
  928MPD2    H313636   1.756   3.945   1.364  1.2890  0.5236 -0.7159
  928MPD2     N13637   1.779   3.951   0.912 -0.5108 -0.0750  0.3641
  928MPD2    H513638   1.814   4.045   0.931 -0.2547  0.2918 -1.8242
  928MPD2    N113639   1.742   3.531   1.152  0.6054  0.4081 -0.6084
  928MPD2    H713640   1.749   3.486   1.062 -0.8056 -0.1989 -0.4281
  929MPD2     C13641   2.182   3.478   9.373 -0.2474  0.1587 -0.2917
  929MPD2    C113642   2.155   3.438   9.502 -0.1746  0.2460 -0.2267
  929MPD2    C213643   2.034   3.481   9.565  0.1859  0.0061  0.6835
  929MPD2    C313644   1.944   3.564   9.498  0.1381  0.6983  0.4145
  929MPD2    C413645   1.972   3.597   9.366 -0.1573 -0.5983 -0.0858
  929MPD2    C513646   2.093   3.562   9.307 -0.2680  0.1334 -0.0269
  929MPD2     H13647   2.019   3.466   9.671  1.2159 -0.6141  0.7436
  929MPD2    H113648   1.899   3.649   9.305  0.4525 -1.0338 -1.2055
  929MPD2    H213649   2.267   3.444   9.314 -3.1078 -0.5012 -4.0788
  929MPD2    H313650   2.118   3.583   9.204  0.9649  0.5056  0.3427
  929MPD2     N13651   1.831   3.620   9.561  0.6753  0.7095 -0.4697
  929MPD2    H513652   1.784   3.696   9.512 -0.6645 -1.9215 -3.2349
  929MPD2    N113653   2.259   3.370   9.569  0.2582  0.5554  0.0224
  929MPD2    H713654   2.344   3.366   9.515  1.1973 -0.2965  1.5542
  930MPD2     C13655   3.773   0.529  14.204  0.0044  0.7112  0.3752
  930MPD2    C113656   3.762   0.651  14.135 -0.3564 -0.3159 -0.0951
  930MPD2    C213657   3.750   0.656  13.999  0.1521 -0.1145 -0.4680
  930MPD2    C313658   3.755   0.540  13.925  0.6983 -0.0670  0.7654
  930MPD2    C413659   3.780   0.421  13.997  0.0697  0.6748 -0.2043
  930MPD2    C513660   3.776   0.416  14.131  0.0686 -0.4262 -0.0728
  930MPD2     H13661   3.743   0.751  13.947 -1.1505 -0.4411 -0.9036
  930MPD2    H113662   3.799   0.331  13.940 -0.6407  1.2808 -1.3835
  930MPD2    H213663   3.787   0.525  14.311  1.5652  1.1276  0.1860
  930MPD2    H313664   3.799   0.316  14.166  0.8646 -0.0657  0.4466
  930MPD2     N13665   3.772   0.529  13.784  0.1851 -0.7205  0.6566
  930MPD2    H513666   3.805   0.441  13.748 -1.1538 -0.9204 -0.0595
  930MPD2    N113667   3.772   0.775  14.197 -0.1137 -0.2718 -0.3758
  930MPD2    H713668   3.773   0.853  14.132 -0.3654  0.1715  0.1538
  931MPD2     C13669   4.079   4.703   0.658  0.1719 -0.2302  0.5484
  931MPD2    C113670   3.992   0.047   0.731  0.6613 -0.2256 -0.7205
  931MPD2    C213671   3.976   0.015   0.863  0.0337 -0.3987  0.2267
  931MPD2    C313672   4.044   4.641   0.921  0.1683 -0.5496 -0.4458
  931MPD2    C413673   4.139   4.573   0.846 -0.3369 -0.8504 -1.0500
  931MPD2    C513674   4.161   4.603   0.715  0.0938  0.0895 -0.9623
  931MPD2     H13675   3.913   0.078   0.924  1.3379 -2.0782  3.3273
  931MPD2    H113676   4.200   4.488   0.873 -0.3891 -1.4123 -2.7637
  931MPD2    H213677   4.096   4.726   0.553  1.1457  1.3187  1.0446
  931MPD2    H313678   4.225   4.537   0.657  0.1265 -0.8318  0.1126
  931MPD2     N13679   4.038   4.609   1.061 -0.3995  0.5486  0.5018
  931MPD2    H513680   4.100   4.537   1.097 -0.9672 -1.7588 -3.0827
  931MPD2    N113681   3.923   0.151   0.668  0.0121 -0.3893 -0.0863
  931MPD2    H713682   3.954   0.174   0.574 -0.8163  1.0751  0.0015
  932MPD2     C13683   1.219   4.513  11.009 -0.0782  0.0286  0.0678
  932MPD2    C113684   1.311   4.576  11.086  0.0031 -0.4417 -0.1759
  932MPD2    C213685   1.424   4.514  11.132 -0.0961  0.2943  0.2455
  932MPD2    C313686   1.442   4.383  11.106 -0.0407 -0.8637 -0.0726
  932MPD2    C413687   1.353   4.319  11.027 -0.4360  0.3335 -0.1272
  932MPD2    C513688   1.238   4.380  10.979  0.6992 -0.1624 -0.0282
  932MPD2     H13689   1.506   4.569  11.178  2.0241 -1.8215 -0.9865
  932MPD2    H113690   1.367   4.213  11.006  0.2149  0.3351  0.3060
  932MPD2    H213691   1.130   4.568  10.981  0.3670  0.7381  0.0707
  932MPD2    H313692   1.166   4.339  10.909  0.2697 -0.1132  0.3849
  932MPD2     N13693   1.566   4.312  11.140 -0.4706 -0.1469 -0.6613
  932MPD2    H513694   1.572   4.211  11.125  0.9533  0.1353 -1.9960
  932MPD2    N113695   1.296   4.710  11.128 -0.4256 -0.3029 -0.1306
  932MPD2    H713696   1.369   0.018  11.185 -0.8334 -0.9153  0.8498
  933MPD2     C13697   1.117   3.088   1.396 -0.0027  0.8679 -0.4213
  933MPD2    C113698   1.213   3.182   1.439 -0.3174  0.1620 -0.0753
  933MPD2    C213699   1.180   3.273   1.535 -0.3524 -0.2679  0.7065
  933MPD2    C313700   1.067   3.267   1.611 -0.6250  0.7875  0.2854
  933MPD2    C413701   0.976   3.168   1.571  0.3304 -0.0458 -0.8173
  933MPD2    C513702   0.996   3.092   1.461 -0.1122  0.3036 -0.7017
  933MPD2     H13703   1.249   3.355   1.551 -1.4969  1.4198 -3.1222
  933MPD2    H113704   0.876   3.158   1.613  0.2509  3.7869 -0.0460
  933MPD2    H213705   1.137   3.009   1.325  1.8700  0.8933  0.0908
  933MPD2    H313706   0.919   3.016   1.445 -0.7603  0.8007  0.0583
  933MPD2     N13707   1.044   3.367   1.708 -0.3966  0.1979 -0.3106
  933MPD2    H513708   1.114   3.439   1.708  0.7297 -0.9033  1.2889
  933MPD2    N113709   1.340   3.192   1.392  0.0946  0.1007 -0.5736
  933MPD2    H713710   1.401   3.261   1.436  0.2971 -0.3453 -0.1648
  934MPD2     C13711   2.698   0.802   2.354  0.1322 -0.6731  0.1480
  934MPD2    C113712   2.780   0.725   2.276 -0.0552  0.3182 -0.3201
  934MPD2    C213713   2.742   0.709   2.144  0.7130 -0.2521  0.0814
  934MPD2    C313714   2.628   0.765   2.091 -0.3301  0.1782  1.0078
  934MPD2    C413715   2.550   0.849   2.172  0.4571  0.2546  0.0302
  934MPD2    C513716   2.586   0.871   2.301  0.1714 -0.1562 -0.2154
  934MPD2     H13717   2.809   0.655   2.078 -0.5427  1.4493 -2.6205
  934MPD2    H113718   2.477   0.911   2.121 -1.9216 -1.5598  1.2247
  934MPD2    H213719   2.713   0.841   2.454  0.0621 -2.6963  0.9354
  934MPD2    H313720   2.541   0.953   2.356 -0.4956 -1.2841  0.9236
  934MPD2     N13721   2.589   0.758   1.959  0.2627 -0.6382 -0.7383
  934MPD2    H513722   2.507   0.813   1.937 -1.6410 -2.6569  1.2626
  934MPD2    N113723   2.902   0.673   2.325 -0.5442  0.1870 -0.2869
  934MPD2    H713724   2.950   0.618   2.255 -0.2491 -1.3529  1.1203
  935MPD2     C13725   3.021   0.314   1.164  0.1972 -0.3042 -0.1081
  935MPD2    C113726   2.893   0.340   1.113  0.3810 -0.4034  0.4947
  935MPD2    C213727   2.813   0.426   1.196  0.7144  0.4016 -1.1478
  935MPD2    C313728   2.856   0.474   1.315  0.4065  0.3366  0.1587
  935MPD2    C413729   2.987   0.449   1.356  0.2907 -0.6576  0.2480
  935MPD2    C513730   3.063   0.367   1.277  0.0360  0.1546  0.1739
  935MPD2     H13731   2.708   0.435   1.171  0.2659 -1.8534 -0.1012
  935MPD2    H113732   3.023   0.481   1.453  2.8984 -1.1601 -0.5394
  935MPD2    H213733   3.090   0.250   1.111 -0.4049 -0.3467 -0.8381
  935MPD2    H313734   3.162   0.333   1.304  0.1625 -1.2647 -2.0875
  935MPD2     N13735   2.769   0.545   1.403 -0.7433 -0.2847 -0.6239
  935MPD2    H513736   2.807   0.570   1.493 -0.5822  0.0927 -0.7974
  935MPD2    N113737   2.840   0.287   0.995 -0.5556  0.8513  0.2649
  935MPD2    H713738   2.739   0.292   0.987 -0.4884 -0.9817 -1.7916
  936MPD2     C13739   1.172   2.307  12.507  0.1631  0.2697 -0.7365
  936MPD2    C113740   1.307   2.303  12.538 -0.5484  0.1645 -0.0412
  936MPD2    C213741   1.393   2.388  12.469  0.0179 -0.2179  0.0871
  936MPD2    C313742   1.340   2.493  12.392  0.5593 -0.2968 -0.1579
  936MPD2    C413743   1.204   2.506  12.374 -0.2440 -0.0644  0.0782
  936MPD2    C513744   1.122   2.417  12.432 -0.3716 -0.5084  0.6762
  936MPD2     H13745   1.497   2.380  12.500 -0.8674  0.1613  3.0580
  936MPD2    H113746   1.160   2.586  12.316 -2.4944 -0.0984  1.7714
  936MPD2    H213747   1.103   2.238  12.555  2.7945 -1.2149  0.8846
  936MPD2    H313748   1.018   2.412  12.402 -0.1198 -0.4210 -0.2073
  936MPD2     N13749   1.423   2.587  12.333  0.2621  0.1272  0.7999
  936MPD2    H513750   1.373   2.670  12.302 -0.4091 -0.7526 -0.4377
  936MPD2    N113751   1.361   2.222  12.645 -0.8263 -0.2496  0.1283
  936MPD2    H713752   1.462   2.213  12.654 -0.5972  2.0136 -0.0231
  937MPD2     C13753   4.407   4.214  11.832 -0.9986 -0.3779  0.0949
  937MPD2    C113754   4.444   4.351  11.834  0.0843 -0.0269  0.0656
  937MPD2    C213755   4.466   4.408  11.712  0.7977  0.9062 -0.0601
  937MPD2    C313756   4.457   4.327  11.594  0.2476  0.6964 -0.7228
  937MPD2    C413757   4.424   4.195  11.600 -0.0056 -0.0074  0.2814
  937MPD2    C513758   4.406   4.135  11.718 -0.7544  0.0082 -0.0309
  937MPD2     H13759   4.508   4.507  11.701 -0.5347  1.5041  0.3358
  937MPD2    H113760   4.429   4.122  11.519  0.2662  0.8011 -0.4375
  937MPD2    H213761   4.367   4.166  11.920 -3.5547  1.6710  0.0564
  937MPD2    H313762   4.388   4.028  11.719  0.1236 -0.1621 -1.7691
  937MPD2     N13763   4.501   4.396  11.478 -0.0405 -0.2206  0.1211
  937MPD2    H513764   4.531   4.491  11.495  0.9341 -0.4779 -0.1434
  937MPD2    N113765   4.420   4.444  11.943 -0.6174 -0.4327  0.0936
  937MPD2    H713766   4.441   4.542  11.927 -2.2356  0.0713  1.0500
  938MPD2     C13767   2.018   1.728   0.831 -0.2369  0.1709  0.2629
  938MPD2    C113768   2.084   1.645   0.922 -0.4308  0.2141  0.1119
  938MPD2    C213769   2.066   1.508   0.920  0.1232  0.4474 -0.1464
  938MPD2    C313770   1.964   1.449   0.838 -0.1876  0.1134  0.0361
  938MPD2    C413771   1.903   1.534   0.747  0.2892 -0.6319 -0.0661
  938MPD2    C513772   1.937   1.667   0.742 -0.0744 -0.2043  0.1739
  938MPD2     H13773   2.114   1.449   0.997  1.4170  1.3205 -0.2784
  938MPD2    H113774   1.833   1.499   0.672 -1.2349  0.0320  1.0399
  938MPD2    H213775   2.023   1.836   0.822 -1.1566  0.1422 -0.6512
  938MPD2    H313776   1.901   1.730   0.661  2.8281  1.8157  0.4588
  938MPD2     N13777   1.937   1.306   0.849 -0.1423 -0.4095  0.6703
  938MPD2    H513778   1.858   1.281   0.790 -1.1170  2.0121  0.9320
  938MPD2    N113779   2.166   1.687   1.029  0.7869 -0.3438 -0.3444
  938MPD2    H713780   2.205   1.611   1.084  2.7817 -0.5925 -2.1201
  939MPD2     C13781   2.698   0.852   0.361 -0.3089  0.7097 -0.4134
  939MPD2    C113782   2.735   0.973   0.298  0.0416 -0.0876 -0.3468
  939MPD2    C213783   2.736   0.980   0.157  0.1738  0.3575 -0.1732
  939MPD2    C313784   2.687   0.875   0.085  0.5535  0.4066  0.1476
  939MPD2    C413785   2.640   0.760   0.150 -0.6533  0.3317  0.2083
  939MPD2    C513786   2.647   0.748   0.289  0.1258  0.3719 -0.6240
  939MPD2     H13787   2.780   1.064   0.105 -1.6181  0.7974 -0.9837
  939MPD2    H113788   2.590   0.673   0.112 -1.2280  1.0697 -0.7326
  939MPD2    H213789   2.706   0.848   0.469 -1.1891  0.0742 -0.3725
  939MPD2    H313790   2.610   0.663   0.345  3.6434 -2.3400 -2.3943
  939MPD2     N13791   2.693   0.879  17.683 -0.7168 -0.2853 -0.4237
  939MPD2    H513792   2.728   0.969  17.652 -1.1370 -0.1079 -0.3879
  939MPD2    N113793   2.783   1.081   0.386  0.1756  0.4231 -0.1400
  939MPD2    H713794   2.772   1.062   0.485 -1.7919  1.4807 -0.1561
  940MPD2     C13795   2.250   2.530  12.498  0.1634 -0.1286  0.1048
  940MPD2    C113796   2.283   2.423  12.577 -0.6767 -0.7114 -0.2693
  940MPD2    C213797   2.240   2.298  12.537  0.2559 -0.7675  0.2395
  940MPD2    C313798   2.157   2.278  12.423  0.2967  0.0319 -0.2728
  940MPD2    C413799   2.123   2.390  12.346  0.2125  0.1608  0.4250
  940MPD2    C513800   2.167   2.513  12.389  0.4317  0.3173 -0.6600
  940MPD2     H13801   2.255   2.209  12.596  1.7195 -0.5354  0.2063
  940MPD2    H113802   2.079   2.391  12.247 -0.2145  0.3002  0.6154
  940MPD2    H213803   2.289   2.630  12.510 -0.7785  0.5470 -2.3556
  940MPD2    H313804   2.134   2.595  12.327 -1.4887 -0.2580 -0.3832
  940MPD2     N13805   2.103   2.148  12.382 -0.4112  0.1512  0.0749
  940MPD2    H513806   2.034   2.149  12.308 -0.2611 -1.2881 -0.0972
  940MPD2    N113807   2.361   2.426  12.694 -0.5438 -0.0557  0.8143
  940MPD2    H713808   2.373   2.336  12.740 -0.7986 -0.4854  0.0355
  941MPD2     C13809   1.480   2.232   9.879  0.1297 -0.2792  0.8667
  941MPD2    C113810   1.593   2.226   9.959 -0.0078 -0.2716 -0.1819
  941MPD2    C213811   1.580   2.185  10.090 -1.3099 -0.2630  0.3817
  941MPD2    C313812   1.456   2.140  10.139  0.0008 -0.4654 -0.0072
  941MPD2    C413813   1.348   2.147  10.059 -0.6213  0.5388  0.3441
  941MPD2    C513814   1.359   2.194   9.934  0.4570 -0.3453 -0.1250
  941MPD2     H13815   1.671   2.181  10.148 -2.2455 -0.8538  1.8131
  941MPD2    H113816   1.247   2.126  10.092  0.2662  0.4891  3.0071
  941MPD2    H213817   1.477   2.272   9.779 -1.5200  0.8603  1.3738
  941MPD2    H313818   1.275   2.215   9.870  1.0902  0.7476 -0.6007
  941MPD2     N13819   1.443   2.091  10.266  0.1561 -0.3499  0.2213
  941MPD2    H513820   1.352   2.059  10.298 -0.7685  1.7375 -0.2588
  941MPD2    N113821   1.726   2.256   9.915  0.3375  0.1971 -0.3244
  941MPD2    H713822   1.799   2.235   9.982 -2.1531 -0.3715  2.2107
  942MPD2     C13823   1.386   3.244   9.646  0.4022  0.5034 -0.2338
  942MPD2    C113824   1.310   3.356   9.661 -0.0510  0.3174 -0.1414
  942MPD2    C213825   1.356   3.464   9.593 -0.1490 -0.2245  0.3325
  942MPD2    C313826   1.457   3.458   9.500  0.3105  0.7442  0.7694
  942MPD2    C413827   1.530   3.339   9.488 -0.0201  0.1815 -0.1406
  942MPD2    C513828   1.493   3.234   9.566 -0.0933 -0.2371  0.1710
  942MPD2     H13829   1.285   3.546   9.602 -0.0460 -0.1012  0.0277
  942MPD2    H113830   1.626   3.329   9.439  0.8606  0.2725  1.5851
  942MPD2    H213831   1.375   3.148   9.695  0.3231  0.0471 -1.1488
  942MPD2    H313832   1.557   3.147   9.570 -1.2694 -1.0159  1.7348
  942MPD2     N13833   1.495   3.560   9.408 -0.0858 -0.3005  0.1038
  942MPD2    H513834   1.562   3.539   9.335 -0.8116 -1.7999 -0.1354
  942MPD2    N113835   1.188   3.356   9.738  0.4103  0.2352 -0.2440
  942MPD2    H713836   1.141   3.443   9.761 -0.9636 -1.1731  2.2878
  943MPD2     C13837   0.603   0.724   9.567 -0.3250 -0.6472  0.2827
  943MPD2    C113838   0.518   0.817   9.634  0.0083 -0.0061  0.0805
  943MPD2    C213839   0.578   0.915   9.711 -0.5616 -0.3394  0.6359
  943MPD2    C313840   0.717   0.931   9.703  0.1367  0.1261 -0.5734
  943MPD2    C413841   0.792   0.835   9.646 -0.6326  0.0039  0.0089
  943MPD2    C513842   0.735   0.723   9.584  0.0893  0.2707 -0.3654
  943MPD2     H13843   0.518   0.994   9.754 -0.8859  0.1709 -0.7619
  943MPD2    H113844   0.900   0.834   9.652 -0.5164 -0.9317 -2.1371
  943MPD2    H213845   0.560   0.639   9.516  0.6492  0.8278 -2.9898
  943MPD2    H313846   0.789   0.636   9.549 -0.2999  0.4197 -1.3249
  943MPD2     N13847   0.768   1.052   9.750 -0.1969  0.3593  0.8013
  943MPD2    H513848   0.869   1.059   9.742 -0.0694 -1.1371  1.1591
  943MPD2    N113849   0.378   0.821   9.609  0.1941  0.8446 -0.4416
  943MPD2    H713850   0.342   0.756   9.539  2.3599  0.5428 -1.2485
  944MPD2     C13851   0.069   1.553  10.805  0.1804 -0.3348 -0.6720
  944MPD2    C113852   4.717   1.505  10.894 -0.2225  0.2836 -0.4322
  944MPD2    C213853   4.666   1.586  10.994 -0.6116  0.3141 -0.1903
  944MPD2    C313854   4.700   1.723  10.999 -0.4658 -0.3346  0.2837
  944MPD2    C413855   0.026   1.776  10.890  0.1349 -0.9085 -0.3008
  944MPD2    C513856   0.080   1.690  10.796 -0.3698  1.1981 -0.4412
  944MPD2     H13857   4.615   1.542  11.079 -1.4342 -1.4098 -1.5661
  944MPD2    H113858   0.048   1.881  10.882 -0.2626 -0.7907  0.1534
  944MPD2    H213859   0.116   1.493  10.728 -0.4088  0.7835 -1.8933
  944MPD2    H313860   0.129   1.747  10.718  0.8908  2.1657  1.0681
  944MPD2     N13861   4.653   1.787  11.110 -0.0127 -0.2309  0.4847
  944MPD2    H513862   4.586   1.741  11.170  0.8480 -0.5689  1.1977
  944MPD2    N113863   4.705   1.365  10.903 -0.5422 -0.3037 -1.0262
  944MPD2    H713864   0.031   1.319  10.836  0.8642  0.4573 -0.2657
    1TMC1    C113865   3.239   1.773  14.297 -0.0901 -0.6992 -0.3152
    1TMC1    C213866   3.111   1.724  14.263 -0.0533 -0.0394  0.4316
    1TMC1    C313867   3.098   1.618  14.171 -0.0208  0.2572  0.4583
    1TMC1    C413868   3.356   1.715  14.247  0.4858  0.2334  0.4111
    1TMC1    C513869   3.331   1.610  14.155  0.5120  0.3663 -0.7519
    1TMC1    C613870   3.205   1.585  14.103 -0.1687  0.2664  0.4656
    1TMC1     C13871   3.248   1.885  14.392 -0.3045 -0.2630 -0.5116
    1TMC1     O13872   3.352   1.891  14.448  0.4548 -0.2515  0.0040
    1TMC1     H13873   3.025   1.747  14.325  0.0891 -0.8235  0.9205
    1TMC1    H113874   3.448   1.756  14.286 -0.5919  0.7523  2.4085
    1TMC1    H213875   3.193   1.501  14.035  1.8555 -0.2818  0.7734
    1TMC1    C713876   3.445   1.577  14.064 -0.2705  0.3440  0.4307
    1TMC1    C813877   2.967   1.562  14.135 -0.8837 -0.4996 -0.2781
    1TMC1    O113878   3.425   1.524  13.951  0.0652 -0.3308 -0.6866
    1TMC1    O213879   2.958   1.480  14.047 -0.0578  0.3978  0.3286
    1TMC1    O313880   3.558   1.624  14.118 -0.4501 -0.3624  0.3155
    1TMC1    H313881   3.546   1.658  14.209 -0.3932 -0.9448  0.5429
    1TMC1    O513882   2.885   1.674  14.148 -0.1377 -0.1115 -0.1820
    1TMC1    H513883   2.919   1.741  14.212  0.1480  0.2353 -0.6955
    2MPD2     C13884   3.118   2.312  14.635  0.6361  0.3050  0.5222
    2MPD2    C113885   3.028   2.288  14.540  0.2903 -0.4753 -0.6907
    2MPD2    C213886   3.024   2.165  14.470  0.4780  0.6714  0.3586
    2MPD2    C313887   3.126   2.070  14.493  0.2212  0.9075  0.4869
    2MPD2    C413888   3.217   2.095  14.594 -0.4859 -0.2307 -0.2387
    2MPD2    C513889   3.202   2.214  14.670 -0.0598 -0.6413 -0.2528
    2MPD2     H13890   2.951   2.146  14.392 -0.8412 -0.2707  1.8217
    2MPD2    H113891   3.288   2.022  14.631 -2.2426 -1.7859  0.0416
    2MPD2    H213892   3.119   2.406  14.690 -0.2165  0.6214 -0.0026
    2MPD2    H313893   3.269   2.220  14.755  0.3223  0.9939 -0.6836
    2MPD2     N13894   3.136   1.960  14.407 -0.0894  0.2859 -0.2001
    2MPD2    H513895   3.054   1.941  14.349 -1.1435 -1.3755  1.8735
    2MPD2    N113896   2.932   2.393  14.505 -0.6119  0.0501 -0.3050
    2MPD2    H713897   2.934   2.479  14.559  2.7832  2.0799 -3.6864
    3TMC2    C113898   2.766   2.511  14.397  0.9193  0.3322  0.2457
    3TMC2    C213899   2.810   2.628  14.458  0.2161 -0.2016 -0.4861
    3TMC2    C313900   2.788   2.744  14.389  0.2967  0.6001 -0.1936
    3TMC2    C413901   2.707   2.518  14.269  0.2890  0.3995  0.2822
    3TMC2    C513902   2.697   2.638  14.200 -0.0483  0.8660  0.0042
    3TMC2    C613903   2.733   2.753  14.260  0.0139 -0.1706  0.1740
    3TMC2     C13904   2.829   2.383  14.418  0.2034  0.3362  0.2111
    3TMC2     O13905   2.784   2.285  14.357 -0.4915  0.0368  0.0073
    3TMC2     H13906   2.876   2.626  14.544 -1.8954 -1.5402  1.0848
    3TMC2    H113907   2.662   2.429  14.226 -1.4209  3.3196 -3.9253
    3TMC2    H213908   2.684   2.842  14.222 -0.4830 -0.6997 -0.4260
    3TMC2    C713909   2.649   2.643  14.060 -0.3525 -0.5320 -0.0575
    3TMC2    C813910   2.811   2.864  14.462 -0.2901  0.5542 -0.0757
    3TMC2    O113911   2.593   2.542  14.015  0.0248 -0.4777  0.3500
    3TMC2    O213912   2.820   2.864  14.585  0.4025  0.0196  0.1832
    3TMC2    O513913   2.802   2.971  14.380  0.0849  0.5320 -0.2818
    3TMC2    H513914   2.806   2.958  14.283 -0.9059  0.5279 -0.3236
    4TMC2    C113915   2.543   3.510  13.613 -0.1877 -0.4717 -0.0824
    4TMC2    C213916   2.629   3.614  13.631 -0.0375 -0.1432 -0.4686
    4TMC2    C313917   2.749   3.569  13.677  0.4905 -0.9698  0.9573
    4TMC2    C413918   2.567   3.375  13.634 -0.0916  0.9001 -0.1587
    4TMC2    C513919   2.692   3.341  13.681 -0.8814  0.5341 -0.4591
    4TMC2    C613920   2.782   3.436  13.700  0.4342 -0.4282 -0.1764
    4TMC2     C13921   2.415   3.557  13.560  0.4957 -0.5673 -0.5554
    4TMC2     O13922   2.386   3.677  13.581  0.0902  0.4190 -0.3426
    4TMC2     H13923   2.611   3.719  13.610  2.1089  0.8780  2.6674
    4TMC2    H113924   2.489   3.301  13.620  1.2508 -0.3639 -0.9808
    4TMC2    H213925   2.883   3.415  13.732  0.2615  0.5672  1.0442
    4TMC2    C713926   2.718   3.200  13.726  0.0686  0.0292 -0.6272
    4TMC2    C813927   2.851   3.661  13.711 -1.1519 -1.0620 -0.4214
    4TMC2    O113928   2.817   3.185  13.798  0.0354  0.4295  0.9321
    4TMC2    O213929   2.966   3.638  13.674  0.7425 -0.5333 -0.6027
    4TMC2    O513930   2.796   3.782  13.735 -0.2105 -0.5945  0.2053
    4TMC2    H513931   2.704   3.764  13.765 -0.0031  0.3867  1.4409
    5MPD2     C13932   1.946   3.520  13.346 -0.8962  0.6882 -0.5194
    5MPD2    C113933   1.997   3.391  13.358  0.4158 -0.1889 -0.1313
    5MPD2    C213934   2.126   3.376  13.410 -0.3170 -0.3817 -0.8427
    5MPD2    C313935   2.199   3.485  13.457  0.2559  0.4726  0.1919
    5MPD2    C413936   2.143   3.608  13.447  0.4446  0.6406 -1.4047
    5MPD2    C513937   2.023   3.622  13.389 -0.3510  1.3249 -0.3113
    5MPD2     H13938   2.162   3.275  13.423 -0.0612  0.2646  3.5028
    5MPD2    H113939   2.192   3.703  13.467 -0.4778  0.2787  2.5981
    5MPD2    H213940   1.853   3.539  13.293 -1.4547  0.0047  0.2252
    5MPD2    H313941   1.985   3.722  13.376  1.8643  2.7297  4.2282
    5MPD2     N13942   2.332   3.462  13.506  0.4426  0.3798 -0.7059
    5MPD2    H513943   2.370   3.369  13.489 -0.0332 -0.1636  1.2560
    5MPD2    N113944   1.920   3.278  13.325 -0.3037 -0.0351  0.1931
    5MPD2    H713945   1.824   3.297  13.299  1.1236  2.0273 -3.5436
    6MPD1     C13946   1.413   4.110  12.006 -0.3585 -0.1907 -0.1817
    6MPD1    C113947   1.303   4.063  12.061  0.0155  0.0111  0.3214
    6MPD1    C213948   1.311   3.948  12.141 -0.3867 -0.1247 -0.3766
    6MPD1    C313949   1.430   3.875  12.155 -0.1723 -0.3204 -0.5048
    6MPD1    C413950   1.544   3.924  12.096  0.5250  0.1949  0.3311
    6MPD1    C513951   1.531   4.045  12.031 -0.2020  0.4413  0.1344
    6MPD1     H13952   1.218   3.918  12.189 -2.1328  3.7868 -1.2741
    6MPD1    H113953   1.641   3.878  12.078  1.3271  1.8234  0.4507
    6MPD1    H213954   1.414   4.198  11.943  2.1215 -0.3914 -0.4228
    6MPD1    H313955   1.620   4.093  11.994 -0.3410  0.3358 -0.3311
    6MPD1     N13956   1.435   3.757  12.230 -0.1410  0.4968  0.5133
    6MPD1    H513957   1.529   3.721  12.241 -0.2921  0.8003  2.7886
    6MPD1    N113958   1.186   4.145  12.063 -0.1503 -0.3356 -0.4110
    6MPD1    H613959   1.105   4.092  12.094  2.9342 -3.3937  2.3694
    6MPD1    H713960   1.162   4.192  11.975  1.6080  2.4278  0.5862
    7MPD2     C13961   1.215   3.353  12.972 -0.4085  0.3863 -0.3713
    7MPD2    C113962   1.307   3.300  12.889  0.3982  0.1887  0.0673
    7MPD2    C213963   1.395   3.204  12.939 -0.1865  0.3482  0.2609
    7MPD2    C313964   1.391   3.155  13.067  0.2555  0.2955 -0.3944
    7MPD2    C413965   1.283   3.192  13.138  0.4894 -0.4174 -0.8734
    7MPD2    C513966   1.204   3.300  13.101  0.1431 -0.4825  0.3572
    7MPD2     H13967   1.467   3.164  12.868  1.5831  0.7782  1.8131
    7MPD2    H113968   1.259   3.145  13.232  1.3240 -1.9581 -1.4256
    7MPD2    H213969   1.134   3.420  12.946  0.5660  1.7278  0.0354
    7MPD2    H313970   1.125   3.331  13.168  2.6322 -1.9636  3.9534
    7MPD2     N13971   1.492   3.059  13.102  0.3278  0.2260 -0.1139
    7MPD2    H513972   1.560   3.037  13.030 -0.5921 -2.4134 -0.1834
    7MPD2    N113973   1.325   3.321  12.749  0.3200 -0.5999 -0.4284
    7MPD2    H713974   1.397   3.277  12.692  0.8731 -1.5381  0.9869
    8TMC3    C113975   1.662   2.960  13.232  0.1590 -0.0030  0.2108
    8TMC3    C213976   1.749   3.048  13.288  0.6064  0.3727  0.4386
    8TMC3    C313977   1.870   3.071  13.223  0.2991  0.2791  0.7905
    8TMC3    C413978   1.697   2.904  13.108 -0.5783 -0.8240  0.3371
    8TMC3    C513979   1.813   2.931  13.046 -0.1749  0.1842  0.0610
    8TMC3    C613980   1.907   3.008  13.104 -0.3518  0.0940 -0.1256
    8TMC3     C13981   1.527   3.013  13.228 -0.2042  0.1762  0.1041
    8TMC3     O13982   1.484   3.057  13.335 -0.3765  0.3905 -0.0444
    8TMC3     H13983   1.714   3.085  13.384  0.2586  2.2848 -0.4481
    8TMC3    H113984   1.622   2.849  13.053 -1.3127 -0.8204  1.3268
    8TMC3    H213985   2.000   3.040  13.058 -0.3623  0.7682  0.3220
    8TMC3    C713986   1.777   2.971  12.914  0.0426 -0.3647 -0.5640
    8TMC3    C813987   1.970   3.155  13.284 -0.8720  0.4617  0.7614
    8TMC3    O113988   1.663   3.013  12.896  0.2530 -0.4218 -0.4078
    8TMC3    O213989   2.086   3.117  13.280  0.6494 -0.0860  0.4364
    9TMC3    C113990   1.375   3.578  12.371  0.2710 -0.7496  0.0267
    9TMC3    C213991   1.496   3.521  12.347 -0.7493  1.0178  0.7973
    9TMC3    C313992   1.546   3.432  12.439  0.2575  0.5030 -0.0118
    9TMC3    C413993   1.293   3.537  12.470  0.1792  0.1446 -0.5133
    9TMC3    C513994   1.343   3.445  12.556 -0.1022 -0.1243  0.4655
    9TMC3    C613995   1.467   3.393  12.544 -0.2372 -0.1252  0.9562
    9TMC3     C13996   1.332   3.700  12.299 -0.0419  0.2157 -0.0039
    9TMC3     O13997   1.224   3.749  12.326 -0.0122  0.8828  0.1473
    9TMC3     H13998   1.549   3.550  12.256 -0.6967  0.1572  0.5571
    9TMC3    H113999   1.201   3.588  12.496  0.1458 -0.6220  0.8733
    9TMC3    H214000   1.522   3.364  12.633 -2.3686 -1.1255  1.9263
    9TMC3    C714001   1.266   3.426  12.681 -0.5699 -0.1828 -0.5531
    9TMC3    C814002   1.671   3.358  12.407  0.3572 -0.0210 -0.6058
    9TMC3    O114003   1.190   3.512  12.708 -0.1042  0.3298 -0.0659
    9TMC3    O214004   1.761   3.415  12.345  0.3080 -0.2354  0.0501
   10MPD2     C14005   2.025   3.096  12.660 -1.0453  0.1679  0.4223
   10MPD2    C114006   1.900   3.064  12.709  0.3662  0.3592 -0.1710
   10MPD2    C214007   1.789   3.114  12.650  0.2807 -0.0017 -0.7648
   10MPD2    C314008   1.800   3.198  12.543  0.6289 -0.5007 -0.7025
   10MPD2    C414009   1.923   3.230  12.492  0.6850  0.5134  0.4455
   10MPD2    C514010   2.039   3.182  12.553  0.1603  0.1308 -1.0153
   10MPD2     H14011   1.690   3.096  12.690 -0.2122  1.8717 -1.1381
   10MPD2    H114012   1.936   3.283  12.399 -2.5804  0.0289 -0.2669
   10MPD2    H214013   2.111   3.055  12.713 -0.1016  0.6805 -0.7090
   10MPD2    H314014   2.139   3.205  12.517  0.3555 -0.6161 -0.9520
   10MPD2     N14015   1.679   3.252  12.496  0.4472  0.5267 -0.2098
   10MPD2    H514016   1.594   3.208  12.528  0.3162  2.8880  2.7529
   10MPD2    N114017   1.888   2.990  12.835 -0.3384  0.1680 -0.0203
   10MPD2    H714018   1.972   2.949  12.875 -0.5896  0.3619  0.7127
   11MPD2     C14019   2.538   2.729  13.798 -0.0182 -0.1749 -0.5731
   11MPD2    C114020   2.630   2.804  13.870  0.0759 -0.7607 -0.1039
   11MPD2    C214021   2.674   2.922  13.830 -0.6178 -0.0387  0.3932
   11MPD2    C314022   2.616   2.976  13.712  0.6181 -0.7989  0.2946
   11MPD2    C414023   2.521   2.906  13.640 -0.0796 -0.0765 -0.3886
   11MPD2    C514024   2.493   2.781  13.678  0.1150  0.1279  0.1262
   11MPD2     H14025   2.741   2.984  13.889  2.0368 -0.8370 -1.7534
   11MPD2    H114026   2.471   2.934  13.548 -0.7691  2.2164  0.6864
   11MPD2    H214027   2.499   2.632  13.828 -1.3813  0.3177 -0.7651
   11MPD2    H314028   2.438   2.715  13.612 -2.3321  1.1753  1.1231
   11MPD2     N14029   2.638   3.108  13.668 -0.0953  0.1101  0.3934
   11MPD2    H514030   2.579   3.122  13.587 -0.0448 -2.1690 -0.0295
   11MPD2    N114031   2.679   2.763  13.996 -1.1681  0.6435 -0.6859
   11MPD2    H714032   2.750   2.821  14.039  0.0945 -1.4236 -0.0020
    1MPD1     C14033   0.720   3.899  16.673 -0.6158 -0.2441 -0.1701
    1MPD1    C114034   0.679   3.934  16.547  0.1599 -0.2603 -0.2136
    1MPD1    C214035   0.775   3.957  16.452  0.5297  0.7754  0.9898
    1MPD1    C314036   0.912   3.940  16.475  0.7055 -0.3987 -0.0468
    1MPD1    C414037   0.946   3.888  16.601  0.5366  1.0216  0.6682
    1MPD1    C514038   0.853   3.876  16.697 -0.1740 -0.3011  0.3787
    1MPD1     H14039   0.739   3.986  16.354 -1.4118  0.2406  1.5344
    1MPD1    H114040   1.046   3.857  16.630  0.6268  0.5570 -0.1360
    1MPD1    H214041   0.642   3.893  16.748 -1.5746  0.7991 -1.0785
    1MPD1    H314042   0.887   3.840  16.793  0.2618 -2.3218 -0.5230
    1MPD1     N14043   1.014   3.960  16.379  0.0298 -0.0444  0.0685
    1MPD1    H514044   1.107   3.934  16.410 -0.3046 -3.1439 -1.5828
    1MPD1    N114045   0.546   3.955  16.533  0.0596 -0.6869 -0.1536
    1MPD1    H614046   0.495   3.911  16.608 -1.1418  0.3467 -0.3629
    1MPD1    H714047   0.508   3.944  16.439  0.5763 -0.7772 -0.3545
    2MPD1     C14048   1.808   3.714  16.519  0.2289  0.2292 -0.4486
    2MPD1    C114049   1.686   3.744  16.586 -0.3448 -0.3741  0.3645
    2MPD1    C214050   1.584   3.803  16.513 -0.3104 -0.9472 -0.5342
    2MPD1    C314051   1.599   3.829  16.373 -1.3591  0.1003  0.6583
    2MPD1    C414052   1.715   3.792  16.316  0.4321 -0.5682 -0.2711
    2MPD1    C514053   1.817   3.731  16.382 -0.0956 -0.4055 -0.2807
    2MPD1     H14054   1.488   3.831  16.554 -0.0794 -0.2374 -0.4871
    2MPD1    H114055   1.724   3.827  16.213  0.4198 -1.1317 -0.4663
    2MPD1    H214056   1.900   3.688  16.570  0.6281  0.3608 -1.1186
    2MPD1    H314057   1.910   3.704  16.334 -1.1044 -0.2933 -2.2880
    2MPD1     N14058   1.491   3.895  16.311  0.2842 -0.4063 -0.3229
    2MPD1    H514059   1.410   3.914  16.369 -0.1486 -1.4441 -0.5963
    2MPD1    N114060   1.665   3.749  16.728  0.1780  0.3697 -0.1672
    2MPD1    H614061   1.572   3.729  16.765 -0.0147 -0.3584 -1.0248
    2MPD1    H714062   1.726   3.684  16.776 -1.1427  0.1041  1.1662
    3TMC3    C114063   1.361   4.007  16.142  0.4840  0.0456  0.2699
    3TMC3    C214064   1.362   4.101  16.042  0.0543  0.6927 -0.2333
    3TMC3    C314065   1.242   4.170  16.018 -0.5845 -0.2980  0.1893
    3TMC3    C414066   1.241   3.974  16.211  0.2906 -0.4357 -0.8189
    3TMC3    C514067   1.130   4.039  16.177  0.6371 -1.2981  0.6686
    3TMC3    C614068   1.124   4.134  16.081  0.2394  0.5044  0.0198
    3TMC3     C14069   1.487   3.949  16.184  0.7591  1.0158 -0.1013
    3TMC3     O14070   1.572   3.950  16.094 -0.6975 -0.2857  0.0253
    3TMC3     H14071   1.453   4.141  16.000  0.2108  0.4611 -0.1132
    3TMC3    H114072   1.243   3.896  16.287 -0.6023  2.5702  2.3070
    3TMC3    H214073   1.030   4.181  16.053  0.2890  1.2638  1.1234
    3TMC3    C714074   1.005   4.021  16.253 -0.8460  0.5011  0.8731
    3TMC3    C814075   1.227   4.268  15.912 -0.0012 -0.0410 -0.0332
    3TMC3    O114076   0.902   4.067  16.198  0.0853  0.1349 -0.5995
    3TMC3    O214077   1.120   4.326  15.896  0.8686  0.5609 -0.0000
    4MPD1     C14078   1.499   4.576  15.605  0.2699 -0.0985  0.1496
    4MPD1    C114079   1.564   4.457  15.616 -0.4752  0.0002  0.1565
    4MPD1    C214080   1.508   4.354  15.682 -0.4413  0.8249 -0.0604
    4MPD1    C314081   1.387   4.366  15.744 -0.4105  0.2992  0.0633
    4MPD1    C414082   1.319   4.484  15.739  0.3453 -0.2711 -0.0350
    4MPD1    C514083   1.376   4.585  15.666 -0.0981  0.3556  0.1510
    4MPD1     H14084   1.568   4.264  15.689 -0.1601  0.9471 -1.0143
    4MPD1    H114085   1.218   4.506  15.773  0.8581  2.8896 -0.5884
    4MPD1    H214086   1.544   4.663  15.559 -0.3428 -0.3617 -0.9588
    4MPD1    H314087   1.317   4.675  15.658 -1.3864 -0.4654  0.5672
    4MPD1     N14088   1.339   4.263  15.832  0.8392  0.4430 -0.2596
    4MPD1    H514089   1.406   4.187  15.838 -1.5864 -1.8031 -1.9505
    4MPD1    N114090   1.694   4.456  15.583 -0.1565 -0.2025  0.1980
    4MPD1    H614091   1.727   4.362  15.561 -2.7975 -0.5609 -2.1529
    4MPD1    H714092   1.707   4.520  15.505 -0.3617  1.5175  1.5569
    1TCq1    O114093   2.482   3.418  11.337  0.2241 -0.0363  0.0131
    1TCq1    C114094   2.497   3.528  11.418  0.7726  0.2055 -0.1930
    1TCq1    O214095   2.595   3.555  11.485  0.4350 -0.3414 -0.2082
    1TCq1    C214096   2.389   3.621  11.397  1.0874 -0.4458 -0.5400
    1TCq1    C314097   2.317   3.623  11.280 -0.0524 -0.2410  0.1237
    1TCq1    C414098   2.248   3.735  11.245  0.8914  0.2855 -0.2078
    1TCq1    C514099   2.197   3.819  11.344 -0.4632  0.3012 -0.8869
    1TCq1    C614100   2.264   3.808  11.463 -0.1013 -0.8361  0.3956
    1TCq1    C714101   2.366   3.719  11.484 -0.0009  0.1486  0.1381
    1TCq1    C814102   2.174   3.851  11.567  0.2896 -0.5412  0.0500
    1TCq1    O414103   2.071   3.903  11.526  0.4891  0.6205  0.2539
    1TCq1    C914104   2.175   3.738  11.124  0.8093  0.1378  0.4596
    1TCq1    O514105   2.093   3.833  11.108  0.0772 -0.0204 -0.3538
    1TCq1    O614106   2.228   3.672  11.029 -0.3962  0.3827  0.3268
    1TCq1    H114107   2.391   3.421  11.301 -0.1275 -0.4747  0.8776
    1TCq1    H214108   2.349   3.557  11.199  1.2964 -2.9273  2.8479
    1TCq1    H314109   2.126   3.898  11.323 -1.0862  0.7347  2.9509
    1TCq1    H414110   2.409   3.715  11.584 -0.6287 -0.3754  0.3888
    2MPD1     C14111   2.020   3.884  12.053  0.2795 -0.1635 -0.5386
    2MPD1    C114112   2.152   3.849  12.049 -0.0729 -0.3509 -0.7976
    2MPD1    C214113   2.221   3.834  11.932 -1.0682  0.3764  0.2141
    2MPD1    C314114   2.154   3.857  11.814  0.0110  0.2038  0.3446
    2MPD1    C414115   2.021   3.900  11.818 -0.0470  0.5767 -0.0231
    2MPD1    C514116   1.953   3.912  11.934  0.4036  0.3087  0.3246
    2MPD1     H14117   2.327   3.813  11.939 -0.9230  0.6120 -1.1228
    2MPD1    H114118   1.963   3.915  11.728 -0.4855 -0.1802  0.1323
    2MPD1    H214119   1.973   3.901  12.149 -0.8808 -0.4790 -1.0439
    2MPD1    H314120   1.847   3.936  11.937  0.8974  2.7941 -1.8542
    2MPD1     N14121   2.220   3.831  11.697  0.8369  0.4429  0.6643
    2MPD1    H514122   2.317   3.802  11.704  1.0382  1.5894  2.3827
    2MPD1    N114123   2.207   3.804  12.170  0.1703 -0.2006  1.5476
    2MPD1    H614124   2.172   3.849  12.255 -0.2865  0.7257  0.8693
    2MPD1    H714125   2.308   3.818  12.174  0.1851  0.4109 -1.1790
    1TMC1    C114126   1.702   0.744   9.395 -0.2210 -0.2414  0.3121
    1TMC1    C214127   1.612   0.681   9.482 -0.4580  0.0697 -0.4452
    1TMC1    C314128   1.616   0.546   9.494  1.1942  0.1838 -0.3833
    1TMC1    C414129   1.795   0.673   9.323 -0.3361 -0.3577 -0.6091
    1TMC1    C514130   1.805   0.539   9.349  0.0343 -0.4587  0.1585
    1TMC1    C614131   1.713   0.473   9.427  0.1519 -0.3837 -0.3358
    1TMC1     C14132   1.688   0.890   9.391 -0.0954  0.4801 -0.1990
    1TMC1     O14133   1.589   0.940   9.428 -0.3650 -0.2057 -0.3632
    1TMC1     H14134   1.553   0.739   9.552  0.0588  0.3149 -0.2095
    1TMC1    H114135   1.859   0.721   9.250 -0.7882  0.7587 -0.2741
    1TMC1    H214136   1.729   0.366   9.428  0.5763 -0.3108  0.3708
    1TMC1    C714137   1.913   0.464   9.286  0.0623  0.0797 -0.9170
    1TMC1    C814138   1.536   0.476   9.599 -0.0444 -0.0144  0.1852
    1TMC1    O114139   1.967   0.376   9.350 -0.5545 -0.6719  1.1179
    1TMC1    O214140   1.576   0.384   9.671 -0.2385  0.1076 -0.4341
    1TMC1    O314141   1.935   0.499   9.158 -0.3299 -0.5471  0.4694
    1TMC1    H314142   1.873   0.567   9.125  1.1258  0.2267 -0.6659
    1TMC1    O514143   1.410   0.487   9.555  0.4537  0.0625  0.0625
    1TMC1    H514144   1.411   0.563   9.493 -0.0406  0.1909  0.2176
    2MPD1     C14145   1.848   1.362   9.242 -0.1174 -0.5517  0.3359
    2MPD1    C114146   1.715   1.316   9.261  0.2702  0.1946  1.0437
    2MPD1    C214147   1.701   1.181   9.293 -0.5492 -0.1276  0.1224
    2MPD1    C314148   1.809   1.093   9.302 -0.1935  0.0606 -0.6720
    2MPD1    C414149   1.931   1.144   9.284 -0.1677 -0.4241 -0.2337
    2MPD1    C514150   1.951   1.274   9.253  0.4747 -1.4605 -0.0653
    2MPD1     H14151   1.605   1.136   9.314  0.4843 -1.2239  2.5659
    2MPD1    H114152   2.019   1.081   9.293  0.7028  0.8867  0.5712
    2MPD1    H214153   1.875   1.465   9.222 -1.7510 -0.1612  0.1562
    2MPD1    H314154   2.052   1.307   9.233 -0.6958  1.2999 -1.3978
    2MPD1     N14155   1.803   0.955   9.340  0.3316 -0.5525 -0.1504
    2MPD1    H514156   1.886   0.898   9.345  2.1505  2.1914  0.7914
    2MPD1    N114157   1.607   1.389   9.238 -0.0431  0.1780 -0.4571
    2MPD1    H614158   1.526   1.351   9.288  0.2560  1.6774  1.1744
    2MPD1    H714159   1.612   1.488   9.259 -0.0285  0.2446 -0.7877
    1MPD1     C14160   3.227   4.157  12.163 -0.6266 -0.3012 -0.1327
    1MPD1    C114161   3.231   4.110  12.030 -0.2325  0.3571  0.8249
    1MPD1    C214162   3.352   4.126  11.966 -1.0192  0.0708  0.9079
    1MPD1    C314163   3.456   4.204  12.021 -0.1124  0.2370 -0.6839
    1MPD1    C414164   3.435   4.263  12.143  0.9922  0.3534  0.3217
    1MPD1    C514165   3.322   4.238  12.216 -0.2754  0.1101  0.1823
    1MPD1     H14166   3.369   4.072  11.874 -2.1207 -0.4484  1.0089
    1MPD1    H114167   3.512   4.308  12.205  0.2521  1.1576  0.6626
    1MPD1    H214168   3.141   4.148  12.227  1.3495  0.2211  2.5897
    1MPD1    H314169   3.315   4.274  12.318 -2.0760  2.1932 -0.6967
    1MPD1     N14170   3.572   4.223  11.948  0.2749  0.1174 -0.0299
    1MPD1    H514171   3.583   4.178  11.858 -1.8132 -0.3796 -0.0574
    1MPD1    N114172   3.129   4.033  11.983  1.0164  0.3225  0.0538
    1MPD1    H614173   3.116   4.040  11.882 -0.0568  0.3179  0.1861
    1MPD1    H714174   3.047   4.039  12.043  1.9623 -3.2294  1.6505
    2MPD1     C14175   2.750   4.437  11.065 -0.0018 -0.7516  0.4856
    2MPD1    C114176   2.720   4.332  10.982 -0.8134  0.4369  0.4350
    2MPD1    C214177   2.803   4.292  10.880  0.1745 -0.2946 -0.0596
    2MPD1    C314178   2.927   4.356  10.863  0.2436  0.2364 -0.0233
    2MPD1    C414179   2.961   4.457  10.952 -1.1687  0.1010 -0.3284
    2MPD1    C514180   2.869   4.501  11.051  0.9009  0.1229 -0.1597
    2MPD1     H14181   2.771   4.204  10.825  0.3310  0.1287 -0.8271
    2MPD1    H114182   3.060   4.500  10.947 -1.5614  1.1511  0.8303
    2MPD1    H214183   2.685   4.472  11.145  0.1060 -0.6243  0.5175
    2MPD1    H314184   2.897   4.584  11.114  2.7634 -1.4188  1.0377
    2MPD1     N14185   3.009   4.332  10.745 -0.1208 -0.0154  0.1016
    2MPD1    H514186   3.103   4.371  10.742  0.7041 -1.9467  1.3920
    2MPD1    N114187   2.599   4.264  11.011 -0.1663 -0.0695 -0.1291
    2MPD1    H614188   2.528   4.333  11.035  1.0615  0.7902  1.0244
    2MPD1    H714189   2.556   4.217  10.932 -1.7298  1.0963  0.0210
    3MPD1     C14190   2.936   3.566  10.096 -0.2908  0.0390 -0.3834
    3MPD1    C114191   2.841   3.646  10.148  0.1207  0.4127  0.2107
    3MPD1    C214192   2.895   3.760  10.203 -0.1015 -0.8952 -0.2752
    3MPD1    C314193   3.028   3.791  10.219  0.4063 -0.3433  0.3019
    3MPD1    C414194   3.121   3.704  10.183 -0.4221 -0.0267  0.4115
    3MPD1    C514195   3.071   3.587  10.126  0.4432  0.2354 -0.0037
    3MPD1     H14196   2.823   3.830  10.244  1.8112  0.4142  0.8542
    3MPD1    H114197   3.227   3.725  10.193 -0.6643  0.9101  1.0609
    3MPD1    H214198   2.923   3.482  10.029  0.2252 -2.3733  2.4905
    3MPD1    H314199   3.141   3.520  10.077 -1.9225  0.3027 -3.4925
    3MPD1     N14200   3.063   3.911  10.287 -0.2449 -0.5602 -0.4416
    3MPD1    H514201   2.985   3.963  10.326  1.0960 -0.4570  2.0677
    3MPD1    N114202   2.706   3.627  10.131  0.6318 -0.0014 -0.4181
    3MPD1    H614203   2.693   3.526  10.137 -0.5470  0.1002 -1.3498
    3MPD1    H714204   2.648   3.669  10.204  1.5869  0.2643  0.1966
    4MPD2     C14205   4.156   4.632  11.594 -0.2323  0.4950  0.5105
    4MPD2    C114206   4.129   4.501  11.582  0.3615 -0.3821 -0.6341
    4MPD2    C214207   4.146   4.446  11.457 -0.7056 -0.4205  0.4963
    4MPD2    C314208   4.181   4.522  11.349 -0.2759  0.3060  0.2008
    4MPD2    C414209   4.184   4.657  11.358 -0.0408 -1.1528 -0.7914
    4MPD2    C514210   4.179   4.711  11.487 -0.5371  0.0628  0.2596
    4MPD2     H14211   4.132   4.340  11.436  1.9578 -0.9343  1.2978
    4MPD2    H114212   4.202   4.727  11.276  0.5089  0.7976  0.9935
    4MPD2    H214213   4.155   4.684  11.689  4.4281 -1.1898  1.4887
    4MPD2    H314214   4.187   0.084  11.496 -0.4678 -0.0197  1.1269
    4MPD2     N14215   4.172   4.455  11.224  0.1971  0.7774 -0.4653
    4MPD2    H514216   4.153   4.356  11.239 -0.2152  0.9895  0.4564
    4MPD2    N114217   4.113   4.415  11.690 -0.3450 -0.3117 -0.4735
    4MPD2    H714218   4.101   4.317  11.667  1.1662 -0.2480 -1.5303
    5TMC3    C114219   4.016   4.351  11.889 -0.9372 -1.1083 -0.4726
    5TMC3    C214220   3.884   4.384  11.909  0.0791  0.5586  0.2924
    5TMC3    C314221   3.786   4.293  11.889  0.7968 -0.5776 -0.1671
    5TMC3    C414222   4.049   4.224  11.854 -0.5099  0.3414 -0.6681
    5TMC3    C514223   3.948   4.132  11.828  1.1427 -0.5594 -1.5956
    5TMC3    C614224   3.820   4.164  11.852  0.4952 -0.5468 -0.3405
    5TMC3     C14225   4.087   4.463  11.820 -0.0367  0.7601 -0.0372
    5TMC3     O14226   4.083   4.575  11.873  0.2800  0.3058 -0.6102
    5TMC3     H14227   3.858   4.487  11.928  1.7464  1.1908 -0.9595
    5TMC3    H114228   4.153   4.199  11.838 -0.7688 -2.2702  1.7154
    5TMC3    H214229   3.741   4.094  11.826 -0.6200  0.8149 -0.6558
    5TMC3    C714230   3.976   4.084  11.694 -0.6277 -0.3834 -0.8768
    5TMC3    C814231   3.672   4.309  11.984 -0.1939  0.0477  0.2496
    5TMC3    O114232   4.055   4.152  11.627 -0.1956  0.0466 -0.2055
    5TMC3    O214233   3.684   4.390  12.075  0.5721 -0.1617  0.5021
    6TMC3    C114234   3.077   4.225  10.540 -1.2352 -0.1817  0.5922
    6TMC3    C214235   3.077   4.113  10.462 -0.1829  0.0614 -0.2784
    6TMC3    C314236   3.186   4.090  10.388 -0.4239  0.2330 -1.0990
    6TMC3    C414237   3.189   4.310  10.533 -0.0414 -1.2238 -0.2357
    6TMC3    C514238   3.294   4.285  10.447  0.6374 -0.3645  0.5039
    6TMC3    C614239   3.290   4.173  10.371 -0.3867  0.9416 -0.3088
    6TMC3     C14240   2.976   4.234  10.648  0.1071  0.1779  0.0633
    6TMC3     O14241   2.886   4.152  10.636  0.3926  0.0323 -0.3987
    6TMC3     H14242   3.002   4.038  10.484  0.7684 -0.8354 -0.1260
    6TMC3    H114243   3.184   4.394  10.601  0.2849 -1.1567 -0.2939
    6TMC3    H214244   3.381   4.147  10.319 -1.9228 -1.2905 -1.8592
    6TMC3    C714245   3.417   4.315  10.495 -0.1775 -0.3387  0.5475
    6TMC3    C814246   3.187   3.978  10.291  1.0075  0.2203 -0.0229
    6TMC3    O114247   3.517   4.247  10.471  0.5428 -0.2654  0.9312
    6TMC3    O214248   3.295   3.949  10.242  0.0207  0.0933 -0.2144
    7MPD2     C14249   3.778   3.899  11.244  0.0821  0.2026 -0.1050
    7MPD2    C114250   3.887   3.985  11.268  0.1851  0.4432 -0.0353
    7MPD2    C214251   3.934   4.015  11.399  0.3249  0.1831 -0.1985
    7MPD2    C314252   3.854   3.962  11.508  0.5839 -0.3529  0.1695
    7MPD2    C414253   3.749   3.874  11.486 -0.2563  0.5271 -0.4667
    7MPD2    C514254   3.711   3.852  11.358  0.7126  0.0516 -0.1089
    7MPD2     H14255   4.025   4.069  11.424 -0.0251  0.7709 -0.1901
    7MPD2    H114256   3.706   3.819  11.569 -2.0181  0.0699 -1.6695
    7MPD2    H214257   3.749   3.867  11.145  2.3226 -2.8425  0.2326
    7MPD2    H314258   3.624   3.789  11.343  0.7749  0.0880 -0.5999
    7MPD2     N14259   3.883   3.989  11.646 -1.0876  0.3506  0.1811
    7MPD2    H514260   3.835   3.932  11.715  0.6314 -2.9957 -1.3592
    7MPD2    N114261   3.949   4.040  11.151  0.5485 -0.1839 -0.2455
    7MPD2    H714262   3.909   4.010  11.063 -1.6520  0.4007  0.5419
    8TMC3    C114263   4.076   4.198  11.043  0.4953  0.2624 -0.2563
    8TMC3    C214264   3.966   4.225  10.962  0.3900  0.6820 -0.2626
    8TMC3    C314265   3.970   4.347  10.902  0.5964  0.1152  0.0255
    8TMC3    C414266   4.180   4.293  11.055 -0.2059 -0.1603 -0.1056
    8TMC3    C514267   4.166   4.417  10.999  0.7443 -1.0939  0.0315
    8TMC3    C614268   4.064   4.447  10.920 -0.0681  0.5580  0.4076
    8TMC3     C14269   4.066   4.109  11.155  0.8575  0.6752  0.3365
    8TMC3     O14270   4.154   4.115  11.239 -0.4104 -0.1851 -0.2088
    8TMC3     H14271   3.879   4.160  10.956 -0.1871  1.5015 -0.7551
    8TMC3    H114272   4.260   4.271  11.124  1.9150  1.2467 -2.1076
    8TMC3    H214273   4.045   4.547  10.882  2.4326  1.3886  1.3784
    8TMC3    C714274   4.188   4.513  11.100  0.3627 -0.6575 -0.7815
    8TMC3    C814275   3.856   4.364  10.813 -0.7691 -0.0042  0.4121
    8TMC3    O114276   4.213   4.630  11.076 -0.0885 -0.4906  0.2596
    8TMC3    O214277   3.777   4.274  10.796 -0.4015 -0.2939 -0.2064
    9MPD2     C14278   3.678   4.673  10.759 -0.1417 -0.3865 -0.9260
    9MPD2    C114279   3.704   4.543  10.739 -0.1449 -0.1327 -0.0090
    9MPD2    C214280   3.625   4.462  10.660 -0.2846 -0.2212  0.1401
    9MPD2    C314281   3.513   4.521  10.605  0.1733  0.2385  0.0318
    9MPD2    C414282   3.489   4.659  10.616  0.0040 -0.0356  0.2316
    9MPD2    C514283   3.560   4.719  10.713  0.1677  0.0834 -0.4822
    9MPD2     H14284   3.634   4.355  10.654 -1.3483 -0.1750 -2.1316
    9MPD2    H114285   3.402   4.704  10.572  1.0880  0.6581 -1.1954
    9MPD2    H214286   3.733   4.730  10.832  0.5960  0.4616 -2.1636
    9MPD2    H314287   3.533   0.087  10.733  0.2654  0.0572 -0.2173
    9MPD2     N14288   3.418   4.449  10.532 -0.0623 -0.0093 -0.4647
    9MPD2    H514289   3.342   4.513  10.512 -1.7565 -1.1049  2.4567
    9MPD2    N114290   3.823   4.494  10.794 -0.3989  0.5384 -0.1377
    9MPD2    H714291   3.875   4.560  10.850  1.2050 -0.5433 -0.3192
    1MPD1     C14292   3.071   3.110  15.767  0.2056 -0.3565  0.3523
    1MPD1    C114293   3.018   3.036  15.866  0.3367  0.3377  0.6993
    1MPD1    C214294   2.964   2.913  15.824 -0.2680 -0.5971 -0.0577
    1MPD1    C314295   2.984   2.862  15.695  0.5972 -0.3689  0.3161
    1MPD1    C414296   3.054   2.939  15.610 -0.3027 -0.5162  0.4126
    1MPD1    C514297   3.102   3.060  15.641 -0.6054 -0.3465  0.5694
    1MPD1     H14298   2.908   2.850  15.892 -1.2677 -0.6183 -0.9095
    1MPD1    H114299   3.065   2.903  15.508  0.1638  1.7547 -0.3377
    1MPD1    H214300   3.107   3.209  15.794  0.0591  0.2443 -1.6417
    1MPD1    H314301   3.147   3.115  15.560 -1.4401  1.8878  1.6340
    1MPD1     N14302   2.937   2.734  15.654  0.4820 -0.0944 -0.1256
    1MPD1    H514303   2.955   2.706  15.559  0.6824 -1.4809  0.3268
    1MPD1    N114304   2.990   3.080  15.998  0.3157 -0.2062  0.5115
    1MPD1    H614305   3.077   3.118  16.036  0.0099 -0.7194  1.7305
    1MPD1    H714306   2.968   3.000  16.057 -3.4297 -0.5132 -1.3050
    2TMC2    C114307   2.743   2.459  15.439 -0.4072 -0.1194 -0.1795
    2TMC2    C214308   2.614   2.420  15.483  0.0079  0.1415 -0.5773
    2TMC2    C314309   2.584   2.448  15.614 -0.3873 -0.1738 -0.7850
    2TMC2    C414310   2.834   2.513  15.525  0.1804 -0.6851 -0.2046
    2TMC2    C514311   2.800   2.536  15.660 -0.1462  0.2258 -0.1823
    2TMC2    C614312   2.676   2.494  15.704  0.0450 -0.3693 -0.3813
    2TMC2     C14313   2.795   2.405  15.318  0.2625 -0.5768  0.2046
    2TMC2     O14314   2.916   2.423  15.297  0.9013  0.2177  0.2009
    2TMC2     H14315   2.535   2.402  15.411 -0.8034 -3.3081  1.1816
    2TMC2    H114316   2.936   2.535  15.492 -0.1267  1.5364  0.3222
    2TMC2    H214317   2.652   2.528  15.804  3.4101 -0.0533  0.3118
    2TMC2    C714318   2.856   2.651  15.732 -0.0294  0.2715 -0.6082
    2TMC2    C814319   2.457   2.416  15.672 -0.6030  0.1570  0.2058
    2TMC2    O114320   2.838   2.652  15.849 -0.0853 -0.0268  0.3608
    2TMC2    O214321   2.430   2.449  15.785  0.0923 -0.5263 -0.2077
    2TMC2    O514322   2.430   2.289  15.627 -0.3383 -0.1175  0.0186
    2TMC2    H514323   2.477   2.268  15.544 -1.1027  0.2300 -0.5029
    3MPD1     C14324   2.746   2.128  14.885 -0.3476  0.5632  0.1629
    3MPD1    C114325   2.621   2.185  14.925 -0.1832 -0.2824 -0.4759
    3MPD1    C214326   2.615   2.245  15.049 -0.2821  0.1326  0.8656
    3MPD1    C314327   2.724   2.288  15.114 -0.4216  0.7172 -0.4517
    3MPD1    C414328   2.848   2.247  15.061  0.0154 -0.1921 -0.0342
    3MPD1    C514329   2.854   2.165  14.953  0.1662  0.6806  0.4680
    3MPD1     H14330   2.515   2.272  15.081 -0.6870 -0.8469  0.4566
    3MPD1    H114331   2.937   2.294  15.102 -1.8433  0.9501  2.6797
    3MPD1    H214332   2.756   2.062  14.799 -0.8700 -0.9628  1.2731
    3MPD1    H314333   2.956   2.145  14.922 -0.7264 -0.0754 -2.0118
    3MPD1     N14334   2.698   2.349  15.238  0.3056  0.0554 -0.5482
    3MPD1    H514335   2.606   2.334  15.277  0.3335 -0.2370 -0.5952
    3MPD1    N114336   2.505   2.158  14.849  0.0698 -0.9128 -0.4794
    3MPD1    H614337   2.526   2.161  14.750 -2.2524  1.1874 -0.9316
    3MPD1    H714338   2.423   2.218  14.859  0.8817 -0.1970  1.8382
    1TMC1    C114339   0.574   1.317  13.246  0.1245 -0.6112  0.1186
    1TMC1    C214340   0.592   1.188  13.282  0.7093  0.2857  0.3008
    1TMC1    C314341   0.494   1.125  13.353 -0.3133 -0.0455  0.2671
    1TMC1    C414342   0.457   1.386  13.270 -0.3422  0.2956 -1.3715
    1TMC1    C514343   0.358   1.314  13.339 -0.1929 -0.9726  0.1572
    1TMC1    C614344   0.373   1.189  13.386  0.3774 -0.5305  0.0936
    1TMC1     C14345   0.682   1.402  13.196 -0.6049 -0.1334 -0.0038
    1TMC1     O14346   0.651   1.493  13.121 -0.4845 -0.1633  0.2442
    1TMC1     H14347   0.687   1.142  13.259  1.5619  2.8482 -1.3300
    1TMC1    H114348   0.444   1.493  13.256 -0.8793  0.7470  2.5822
    1TMC1    H214349   0.299   1.130  13.437  0.8323 -1.1955 -0.0210
    1TMC1    C714350   0.261   1.391  13.411 -0.3269 -0.2931 -0.1389
    1TMC1    C814351   0.531   1.015  13.439  0.3891 -0.4452  0.1850
    1TMC1    O114352   0.273   1.513  13.424  0.1716  0.3724  0.6825
    1TMC1    O214353   0.445   0.965  13.510 -0.3890 -0.5240  1.2782
    1TMC1    O314354   0.157   1.314  13.437  0.0157  0.3671  0.3183
    1TMC1    H314355   0.150   1.241  13.372 -0.7097  0.9976 -0.3140
    1TMC1    O514356   0.615   0.933  13.366 -0.5641 -0.3968 -1.1264
    1TMC1    H514357   0.653   0.975  13.286 -1.4537  0.7485 -0.9514
    2MPD2     C14358   0.940   1.521  13.099 -0.8300  0.3224 -0.7719
    2MPD2    C114359   0.928   1.435  13.209 -0.0496  0.8264 -1.4748
    2MPD2    C214360   1.032   1.414  13.290 -0.0360  0.4032 -0.4158
    2MPD2    C314361   1.157   1.479  13.273 -0.0068  0.8584 -1.1597
    2MPD2    C414362   1.167   1.562  13.169 -0.0512  0.1494  0.7656
    2MPD2    C514363   1.064   1.578  13.080  0.2893 -0.2421  0.0842
    2MPD2     H14364   1.014   1.349  13.375  1.8901 -0.9883 -1.0811
    2MPD2    H114365   1.263   1.600  13.138  0.1778 -2.3786 -1.5958
    2MPD2    H214366   0.861   1.541  13.028  0.2790  1.9241 -1.5468
    2MPD2    H314367   1.078   1.650  13.001 -0.3889 -1.1582 -0.8789
    2MPD2     N14368   1.258   1.461  13.362 -0.6722  0.2648  0.0264
    2MPD2    H514369   1.235   1.420  13.452 -0.2981  0.9360  0.4299
    2MPD2    N114370   0.805   1.378  13.253 -0.8894  0.2049 -0.2232
    2MPD2    H714371   0.811   1.319  13.336 -1.4632 -0.7522 -0.8706
    3TCq1    O114372   1.563   1.484  13.922  0.4939  0.4198  0.1154
    3TCq1    C114373   1.476   1.529  13.823  0.1937 -0.5379 -0.2131
    3TCq1    O214374   1.378   1.601  13.834  0.2400  0.0408  0.0534
    3TCq1    C214375   1.514   1.472  13.691  0.5514  0.1737 -0.1070
    3TCq1    C314376   1.645   1.451  13.666  0.4945 -0.5894 -0.0482
    3TCq1    C414377   1.690   1.412  13.545  0.3775 -0.2173 -0.1615
    3TCq1    C514378   1.596   1.406  13.440 -0.3419  0.2015  0.1613
    3TCq1    C614379   1.472   1.449  13.467 -0.2435 -0.3705  0.3947
    3TCq1    C714380   1.423   1.484  13.593  0.6257  0.3662 -0.6820
    3TCq1    C814381   1.393   1.494  13.352 -0.0724  0.1548 -0.4808
    3TCq1    O414382   1.459   1.503  13.248 -0.0581  0.9547 -0.0151
    3TCq1    C914383   1.826   1.383  13.528  0.2371 -0.1870 -0.3082
    3TCq1    O514384   1.857   1.314  13.428 -0.0027  0.2065  0.3872
    3TCq1    O614385   1.895   1.395  13.635 -0.0388  0.1133 -0.0362
    3TCq1    H114386   1.611   1.408  13.884  0.2132  0.6531 -0.7042
    3TCq1    H214387   1.720   1.441  13.744  0.0253  0.0561  0.4814
    3TCq1    H314388   1.633   1.388  13.340 -2.1371 -0.7205 -0.3448
    3TCq1    H414389   1.325   1.527  13.611  0.9029  0.0219  1.6398
    1MPD2     C14390   0.839   3.038  15.011 -0.1934  0.4932 -0.2217
    1MPD2    C114391   0.795   2.925  14.947 -0.0815 -0.0320  0.3797
    1MPD2    C214392   0.825   2.806  15.017  0.6263 -0.3414  0.2446
    1MPD2    C314393   0.889   2.809  15.136  0.7433 -0.0941 -0.9760
    1MPD2    C414394   0.931   2.925  15.193  0.3048 -0.7271 -0.0323
    1MPD2    C514395   0.902   3.040  15.131 -0.6236 -0.4059 -0.1866
    1MPD2     H14396   0.786   2.709  14.988 -0.4216  0.1838 -0.0911
    1MPD2    H114397   0.973   2.935  15.292 -2.0646 -0.2320  0.9174
    1MPD2    H214398   0.823   3.136  14.969  0.3263  0.4436 -0.5380
    1MPD2    H314399   0.948   3.126  15.179  2.2034 -2.1213  0.1705
    1MPD2     N14400   0.897   2.683  15.195  0.4199  0.4132 -0.3393
    1MPD2    H514401   0.835   2.613  15.155 -1.0214  2.1641 -1.1299
    1MPD2    N114402   0.716   2.924  14.824 -0.1147  0.3289  0.5348
    1MPD2    H714403   0.700   3.013  14.778  0.3329 -0.0286 -0.3085
    2TMC3    C114404   0.555   2.854  14.671 -0.0448  0.9223  0.3680
    2TMC3    C214405   0.509   2.745  14.601  0.3863 -0.5717  0.3182
    2TMC3    C314406   0.368   2.733  14.575  0.0300 -0.1397 -0.0211
    2TMC3    C414407   0.483   2.967  14.701 -0.1177 -0.1502  0.2363
    2TMC3    C514408   0.351   2.957  14.675  0.1239 -0.5850  0.0391
    2TMC3    C614409   0.293   2.851  14.610  0.4168 -0.2122  0.0581
    2TMC3     C14410   0.651   2.814  14.772  0.2061  0.7590  0.1512
    2TMC3     O14411   0.634   2.704  14.821  0.0824  0.1809  0.3885
    2TMC3     H14412   0.574   2.659  14.588 -1.3445 -1.6573 -1.1139
    2TMC3    H114413   0.507   3.029  14.787  2.4348 -1.1870  0.2788
    2TMC3    H214414   0.187   2.853  14.588  0.7435  2.8832 -1.2162
    2TMC3    C714415   0.280   3.084  14.688 -0.2111 -0.4978  0.4562
    2TMC3    C814416   0.320   2.614  14.644 -0.3138  0.1203 -0.6604
    2TMC3    O114417   0.160   3.064  14.703 -0.2641  0.1929 -0.4913
    2TMC3    O214418   0.222   2.557  14.600 -0.4584 -0.0582 -0.1432
    3TCq1    O114419   0.473   3.774  13.921 -0.1702 -0.4167  0.3480
    3TCq1    C114420   0.516   3.892  13.980  0.2387 -0.5113 -0.0024
    3TCq1    O214421   0.605   3.957  13.924  0.5232  0.2932 -0.3482
    3TCq1    C214422   0.534   3.851  14.120 -0.1238  0.0121 -1.1486
    3TCq1    C314423   0.659   3.887  14.176 -0.3143 -0.4772 -0.0641
    3TCq1    C414424   0.668   3.870  14.316  0.6021 -0.4587 -0.4379
    3TCq1    C514425   0.556   3.831  14.390 -0.1898  0.2772 -0.7442
    3TCq1    C614426   0.440   3.802  14.329 -0.0075 -0.7073 -1.0196
    3TCq1    C714427   0.432   3.810  14.194  0.4156  0.0626 -0.3624
    3TCq1    C814428   0.336   3.725  14.397  0.2383 -0.9699 -0.2426
    3TCq1    O414429   0.220   3.734  14.358 -0.2082  0.2244 -0.3524
    3TCq1    C914430   0.793   3.882  14.381 -0.2336 -0.4328  0.2108
    3TCq1    O514431   0.790   3.838  14.503  0.5987  0.1128 -0.1257
    3TCq1    O614432   0.877   3.957  14.327  0.3184  0.1828 -0.7331
    3TCq1    H114433   0.438   3.711  13.988 -0.4923 -2.4689 -1.7573
    3TCq1    H214434   0.745   3.932  14.128 -0.1749 -0.5767  0.0926
    3TCq1    H314435   0.563   3.827  14.498  0.1083  0.8217 -0.7431
    3TCq1    H414436   0.341   3.775  14.147  0.6833 -0.1575 -0.7167
    4MPD2     C14437   0.194   3.572  14.602 -0.4840 -0.2808  0.1532
    4MPD2    C114438   0.318   3.541  14.555  1.0968  0.2795 -0.4754
    4MPD2    C214439   0.370   3.416  14.574  0.8082  0.3949 -0.0662
    4MPD2    C314440   0.297   3.314  14.643 -0.1837 -0.0414 -0.5702
    4MPD2    C414441   0.168   3.356  14.685 -0.4361  0.5296 -0.1236
    4MPD2    C514442   0.118   3.484  14.667 -0.1794  0.3842  0.1791
    4MPD2     H14443   0.468   3.394  14.533  0.0961 -1.3491 -0.8393
    4MPD2    H114444   0.087   3.291  14.716 -0.5263  0.0180 -1.4286
    4MPD2    H214445   0.164   3.674  14.582  0.0280 -0.0101  0.7769
    4MPD2    H314446   0.016   3.510  14.694 -0.3137  0.7192 -0.6568
    4MPD2     N14447   0.357   3.189  14.664  0.7138  0.2093 -0.6044
    4MPD2    H514448   0.454   3.177  14.637  1.3294 -0.2173  1.7785
    4MPD2    N114449   0.388   3.624  14.469 -0.1901  0.3791 -1.0404
    4MPD2    H714450   0.489   3.609  14.466 -0.1278  0.3278  1.7639
    5TMC2    C114451   0.756   2.375  15.250  0.4018 -0.5216 -0.3106
    5TMC2    C214452   0.691   2.359  15.367  0.3852  0.3897 -0.0721
    5TMC2    C314453   0.745   2.425  15.473  0.7389  0.1151 -0.2482
    5TMC2    C414454   0.880   2.439  15.237 -0.3202  0.1665  0.0149
    5TMC2    C514455   0.926   2.518  15.344  0.0325 -0.0261 -0.3655
    5TMC2    C614456   0.863   2.495  15.462 -1.1775 -0.2717  0.0938
    5TMC2     C14457   0.676   2.410  15.134  0.5112  0.1549  0.1019
    5TMC2     O14458   0.723   2.489  15.052  0.6238 -0.2114 -0.0165
    5TMC2     H14459   0.591   2.317  15.369  0.0116  1.1651 -2.2746
    5TMC2    H114460   0.922   2.455  15.139 -0.1358  2.4454  0.4610
    5TMC2    H214461   0.890   2.547  15.553  2.4925  0.4017 -1.3796
    5TMC2    C714462   0.957   2.657  15.314 -0.6220 -0.3415  0.2418
    5TMC2    C814463   0.693   2.380  15.600 -0.6168  0.0045 -0.0587
    5TMC2    O114464   1.037   2.724  15.374 -0.0215  0.1642  0.2713
    5TMC2    O214465   0.725   2.428  15.710 -0.0227  0.1398  0.0817
    5TMC2    O514466   0.688   2.247  15.575 -0.3382 -0.1691 -0.5640
    5TMC2    H514467   0.730   2.221  15.490  1.2671  0.4027  0.0547
    6MPD2     C14468   0.274   2.381  14.827  0.1718 -0.7775  0.0340
    6MPD2    C114469   0.376   2.468  14.842  0.0774  0.0272 -0.5711
    6MPD2    C214470   0.466   2.454  14.947  0.3452  0.1412 -0.0498
    6MPD2    C314471   0.462   2.349  15.030 -0.4107  1.1181  0.1141
    6MPD2    C414472   0.358   2.263  15.016  0.1132 -0.2077 -0.2867
    6MPD2    C514473   0.261   2.280  14.916  0.2393  0.0269  0.0975
    6MPD2     H14474   0.539   2.534  14.950  0.2268  0.3111 -1.8038
    6MPD2    H114475   0.343   2.178  15.083 -3.2354  0.0039 -0.7636
    6MPD2    H214476   0.200   2.397  14.749  2.0027  0.8187 -1.3699
    6MPD2    H314477   0.178   2.212  14.901 -0.1412  0.8708 -1.6524
    6MPD2     N14478   0.562   2.332  15.124  0.2721  0.8582  0.4475
    6MPD2    H514479   0.547   2.254  15.187 -0.3671  1.2007  0.7235
    6MPD2    N114480   0.391   2.583  14.755 -0.8696  0.3110 -0.2658
    6MPD2    H714481   0.468   2.644  14.782  0.2778 -0.4804 -1.7835
  945NH4     N114482   2.655   3.405  15.365  0.3983 -0.5271  0.4172
  945NH4     H214483   2.569   3.462  15.373 -0.8094 -1.9319 -2.5975
  945NH4     H314484   2.673   3.376  15.267  0.3454  1.9808 -0.3386
  945NH4     H414485   2.648   3.314  15.414 -0.6409 -2.6353 -3.6112
  945NH4     H514486   2.742   3.455  15.393  0.2136  0.0791 -0.0790
  946SOD     NA14487   4.468   3.275  11.448  0.0498 -0.2851 -0.1207
  947SOD     NA14488   4.600   2.114  16.009  0.0221  0.3544  0.4097
  948SOD     NA14489   3.478   1.524  12.811  0.0950 -0.2766  0.4392
  949SOD     NA14490   1.032   0.240  17.385 -0.0891 -0.0270 -0.3197
  950SOD     NA14491   0.361   0.918  10.024  0.0719  0.0648 -0.3407
  951SOD     NA14492   4.363   0.444   8.676  0.1338  0.0874  0.2563
  952SOD     NA14493   1.500   1.750  11.176  0.6413  0.0023 -0.0705
  953SOL     OW14494   3.451   4.696   8.561 -0.0473  0.5701 -0.3981
  953SOL    HW114495   3.403   4.613   8.555  0.6302  0.2700 -1.8256
  953SOL    HW214496   3.484   4.716   8.473  0.8867  1.7451  0.2429
  954SOL     OW14497   0.562   1.386   9.582 -0.1265 -0.3164 -0.1020
  954SOL    HW114498   0.534   1.470   9.546  0.9876  0.8893  1.8779
  954SOL    HW214499   0.651   1.393   9.547  0.1463 -0.6128  0.5342
  955SOL     OW14500   2.054   3.088   2.931  0.3261  0.1577  0.2014
  955SOL    HW114501   2.073   3.182   2.934 -1.8822  0.6208 -0.8860
  955SOL    HW214502   2.020   3.070   3.019  0.3359 -2.3451 -0.3154
  956SOL     OW14503   2.074   1.966   8.839  0.0350  0.7730 -0.6573
  956SOL    HW114504   2.140   1.899   8.823 -0.8301 -0.6443  1.6723
  956SOL    HW214505   1.991   1.926   8.816 -0.3005  0.7415  0.6016
  957SOL     OW14506   1.353   4.293   5.205  0.4757  1.0188 -0.1094
  957SOL    HW114507   1.397   4.369   5.243 -0.9401  1.2228  1.1605
  957SOL    HW214508   1.318   4.320   5.120  1.2211  1.3439 -0.3066
  958SOL     OW14509   3.618   2.714   2.966  0.1220 -0.1968  0.5532
  958SOL    HW114510   3.701   2.733   2.922 -0.6921  0.0040 -0.8617
  958SOL    HW214511   3.649   2.670   3.046 -0.9747 -2.3596 -0.2051
  959SOL     OW14512   2.363   2.390   3.122 -0.0414 -0.5955  0.2514
  959SOL    HW114513   2.428   2.429   3.063 -2.9727  1.9518 -1.2874
  959SOL    HW214514   2.297   2.459   3.117 -0.4077 -1.0597 -1.2475
  960SOL     OW14515   1.976   2.036   0.503 -0.5508 -0.4454  0.2795
  960SOL    HW114516   1.973   1.941   0.516 -1.2222 -0.5781 -0.8595
  960SOL    HW214517   2.069   2.040   0.480 -0.3932  0.9144  1.1487
  961SOL     OW14518   2.620   3.599   9.179  0.1394 -0.0761 -0.1125
  961SOL    HW114519   2.616   3.587   9.084  2.7604  0.5963 -0.3332
  961SOL    HW214520   2.706   3.560   9.196  0.5280  0.2016 -1.4054
  962SOL     OW14521   4.229   4.174   9.810  0.1933 -0.3733 -0.1553
  962SOL    HW114522   4.276   4.111   9.864  0.8051 -0.1297 -0.4098
  962SOL    HW214523   4.140   4.139   9.815  0.3896 -0.7012  1.0733
  963SOL     OW14524   0.586   3.241   4.820 -0.1282 -0.3340  0.4281
  963SOL    HW114525   0.526   3.300   4.774  1.2371 -0.1862 -1.1652
  963SOL    HW214526   0.554   3.241   4.910 -1.4097 -1.5877 -0.0213
  964SOL     OW14527   0.342   4.575   1.068  0.2843 -0.2392 -0.4885
  964SOL    HW114528   0.433   4.547   1.057  0.7703  0.7089  1.1669
  964SOL    HW214529   0.331   4.540   1.157 -0.2987  0.9348 -0.0945
  965SOL     OW14530   4.479   2.306  16.096 -0.6733  0.0834 -0.1636
  965SOL    HW114531   4.399   2.312  16.148 -0.8904 -0.1910 -0.4649
  965SOL    HW214532   4.515   2.395  16.093  0.4625 -0.3613  0.0123
  966SOL     OW14533   3.161   0.605   4.527 -0.6728 -1.0040  0.2415
  966SOL    HW114534   3.071   0.577   4.508 -0.3671 -1.0381 -1.1910
  966SOL    HW214535   3.182   0.560   4.609 -1.5607 -0.6509  0.6622
  967SOL     OW14536   4.034   3.033   7.677  0.0855 -0.1496 -0.1225
  967SOL    HW114537   4.109   3.010   7.623 -1.1665 -2.0670 -1.0574
  967SOL    HW214538   4.067   3.111   7.722 -0.1946  1.4875 -2.7454
  968SOL     OW14539   3.686   3.786   8.372 -0.1282  0.1708  0.0306
  968SOL    HW114540   3.707   3.708   8.423 -0.3139 -0.1067 -0.3176
  968SOL    HW214541   3.680   3.844   8.449 -0.3075 -1.3926  1.1867
  969SOL     OW14542   1.575   2.107   6.415 -0.2340 -0.2906  0.6331
  969SOL    HW114543   1.654   2.053   6.421 -0.4405 -0.5924  0.6684
  969SOL    HW214544   1.614   2.188   6.382 -3.2418  1.2918  0.9714
  970SOL     OW14545   3.227   2.825   3.927  0.5937  0.2996  0.1089
  970SOL    HW114546   3.271   2.740   3.929 -1.3235 -0.6354  1.9854
  970SOL    HW214547   3.296   2.871   3.878  0.6813 -0.5570 -0.5652
  971SOL     OW14548   0.844   2.175   3.781 -0.1124  0.5150 -0.1087
  971SOL    HW114549   0.822   2.136   3.866  0.4032  0.7526  0.1343
  971SOL    HW214550   0.759   2.173   3.738 -0.6537 -0.9531  1.0199
  972SOL     OW14551   0.536   0.026   5.519 -0.1150 -0.1312  0.0568
  972SOL    HW114552   0.564   4.694   5.456 -0.3101 -0.2089  0.0515
  972SOL    HW214553   0.441   0.021   5.509 -0.0074 -0.8692 -0.6485
  973SOL     OW14554   0.939   1.494   3.473  0.0927  0.1968  0.2676
  973SOL    HW114555   0.943   1.580   3.515 -0.5791 -0.7588  2.2615
  973SOL    HW214556   0.865   1.495   3.411  0.6056 -1.1196 -0.3580
  974SOL     OW14557   0.060   0.115   7.860 -0.2733 -0.1381 -0.3629
  974SOL    HW114558   4.735   0.060   7.911  1.1404  1.6791  3.3192
  974SOL    HW214559   0.081   0.047   7.796  0.2325  0.6820 -1.0652
  975SOL     OW14560   2.934   0.295   5.332 -0.4408  0.0495  0.0803
  975SOL    HW114561   2.971   0.343   5.258 -0.4197  0.7538  0.5503
  975SOL    HW214562   2.940   0.210   5.287  0.7794  0.0385  0.2643
  976SOL     OW14563   3.767   3.981   9.122  0.1184  0.3520  0.1145
  976SOL    HW114564   3.729   4.002   9.208 -0.9361  0.3882 -0.3629
  976SOL    HW214565   3.781   3.887   9.134  0.3835  0.4843  0.8409
  977SOL     OW14566   1.880   2.003   9.993  0.2498 -0.1599 -0.1719
  977SOL    HW114567   1.943   1.931   9.993  1.0705  0.5715  2.4998
  977SOL    HW214568   1.803   1.951  10.014  1.2429 -1.5854 -0.0222
  978SOL     OW14569   1.332   0.673   6.384 -0.3674 -0.3504  0.3449
  978SOL    HW114570   1.347   0.739   6.316  0.1531  0.1430  0.9345
  978SOL    HW214571   1.420   0.640   6.405 -0.7837 -1.2465  0.6611
  979SOL     OW14572   3.132   2.033   6.519  0.2134 -0.3831  0.1585
  979SOL    HW114573   3.111   2.094   6.590  0.4437  1.2177 -1.1496
  979SOL    HW214574   3.162   2.094   6.451  0.9776  0.6190  1.4018
  980SOL     OW14575   1.084   1.087  16.407  0.0759 -0.2157  0.2977
  980SOL    HW114576   1.162   1.120  16.450 -0.1263 -0.2130  0.6628
  980SOL    HW214577   1.087   1.124  16.319  1.0012 -2.7780 -0.7433
  981SOL     OW14578   0.509   2.990   7.646  0.4814  0.1213  0.4182
  981SOL    HW114579   0.588   2.946   7.678 -0.5192 -1.3931  0.7849
  981SOL    HW214580   0.537   3.008   7.556 -2.2817 -0.5225 -0.5447
  982SOL     OW14581   1.678   4.291   7.522 -0.4175  0.0304  0.1443
  982SOL    HW114582   1.721   4.360   7.472 -1.6886  0.6330 -0.0953
  982SOL    HW214583   1.631   4.243   7.454 -0.3167 -1.3661  1.0349
  983SOL     OW14584   1.170   4.080  15.061  0.7168  0.4989 -0.3564
  983SOL    HW114585   1.241   4.139  15.035  1.2626 -0.3607 -0.8026
  983SOL    HW214586   1.101   4.114  15.004 -0.4850  2.2642  2.1144
  984SOL     OW14587   1.874   4.044   6.941 -0.3705  0.5882 -0.0143
  984SOL    HW114588   1.887   4.021   7.033 -3.0941  2.8047  0.9443
  984SOL    HW214589   1.964   4.054   6.911 -1.6370  0.5267 -3.7571
  985SOL     OW14590   0.551   2.108   2.465  0.2648 -0.2348 -0.0319
  985SOL    HW114591   0.560   2.174   2.534  0.3666  0.3970 -0.6532
  985SOL    HW214592   0.464   2.076   2.487 -0.1199  0.0522 -1.1630
  986SOL     OW14593   1.815   3.170   9.666 -0.9303  0.0867  0.1077
  986SOL    HW114594   1.795   3.263   9.667  0.7327  0.4512 -1.3248
  986SOL    HW214595   1.901   3.179   9.706  0.1354 -1.6343 -1.7842
  987SOL     OW14596   4.202   1.680  12.824 -0.0694  0.2163 -0.2923
  987SOL    HW114597   4.118   1.686  12.870 -1.5712  0.7347 -3.1230
  987SOL    HW214598   4.217   1.769  12.793 -0.6448  0.6413  0.6425
  988SOL     OW14599   2.349   0.993   5.332 -0.1536 -0.3317 -0.5028
  988SOL    HW114600   2.326   1.083   5.306  2.2212 -0.1866 -2.0988
  988SOL    HW214601   2.358   1.006   5.426 -0.8495 -0.1604 -0.4608
  989SOL     OW14602   0.152   0.956  10.109 -0.2231 -0.6371  0.1981
  989SOL    HW114603   0.131   1.039  10.151  0.8481  0.2702 -1.0341
  989SOL    HW214604   0.090   0.893  10.146  0.0239  0.4943  2.5631
  990SOL     OW14605   1.425   2.417  12.905  0.4164  0.9499 -0.2662
  990SOL    HW114606   1.335   2.426  12.874  0.1295 -0.0869  0.2737
  990SOL    HW214607   1.417   2.459  12.991 -0.3945  0.4922 -0.1160
  991SOL     OW14608   0.015   3.919   3.450 -0.4740 -0.6662 -0.3051
  991SOL    HW114609   0.019   3.981   3.522  1.2767  0.7127 -1.5731
  991SOL    HW214610   4.668   3.884   3.483 -0.1486  0.0354  1.2142
  992SOL     OW14611   3.736   1.456   3.446 -0.4945 -0.4225  0.2029
  992SOL    HW114612   3.820   1.422   3.415 -1.3185 -0.5669 -1.8644
  992SOL    HW214613   3.708   1.523   3.383 -0.0813  0.1527  0.6295
  993SOL     OW14614   1.594   1.636   5.521  0.2743 -0.7504  0.0062
  993SOL    HW114615   1.535   1.711   5.531  3.3536  1.3391  2.5131
  993SOL    HW214616   1.668   1.683   5.483  0.4115 -0.0798  1.1276
  994SOL     OW14617   2.893   1.805   7.195 -0.3364 -0.2850 -0.4760
  994SOL    HW114618   2.879   1.853   7.277  0.3187  4.5735 -3.2162
  994SOL    HW214619   2.827   1.847   7.140  0.6129  2.7152  0.6661
  995SOL     OW14620   4.669   2.812  10.628  0.3656  0.3005 -0.2308
  995SOL    HW114621   4.682   2.907  10.622  3.4244 -0.1025 -0.1210
  995SOL    HW214622   4.597   2.801  10.566  0.5495  3.1679 -0.9639
  996SOL     OW14623   2.637   0.360   5.361  0.4097  0.1181 -0.0021
  996SOL    HW114624   2.714   0.369   5.306 -0.1965  3.9607 -0.1906
  996SOL    HW214625   2.601   0.272   5.345 -1.4716  0.2859  3.1604
  997SOL     OW14626   0.358   3.900   3.840  0.0435  0.5203 -0.1214
  997SOL    HW114627   0.383   3.834   3.905  0.0108  0.1320 -0.5056
  997SOL    HW214628   0.307   3.960   3.896  1.1067  1.3865 -0.0929
  998SOL     OW14629   4.105   2.236   7.092 -0.4023 -0.4394 -0.5295
  998SOL    HW114630   4.160   2.308   7.063  0.5481 -0.0933  2.0993
  998SOL    HW214631   4.110   2.172   7.021  1.2155 -0.9891  0.0608
  999SOL     OW14632   4.394   4.495   5.658  0.3749  0.3596  0.1320
  999SOL    HW114633   4.463   4.555   5.628 -0.2208  2.0062  2.1104
  999SOL    HW214634   4.331   4.561   5.685  0.0878 -0.1798  0.7856
 1000SOL     OW14635   0.820   4.402   4.867  0.0243  0.3910  0.0775
 1000SOL    HW114636   0.794   4.493   4.859 -1.5132 -0.2559 -2.2744
 1000SOL    HW214637   0.875   4.383   4.791  0.5895 -2.2342  1.1451
 1001SOL     OW14638   1.078   0.155  13.498  0.4122  0.2283 -0.1975
 1001SOL    HW114639   0.993   0.111  13.491 -0.8032  2.5433  0.0078
 1001SOL    HW214640   1.079   0.199  13.412  0.0040 -1.1977 -0.9224
 1002SOL     OW14641   3.403   2.769   2.773 -0.2550 -0.2314 -0.0663
 1002SOL    HW114642   3.406   2.854   2.816 -1.7638  0.7871 -2.0012
 1002SOL    HW214643   3.465   2.721   2.828  0.7732  2.9926  1.5844
 1003SOL     OW14644   2.344   1.756   9.590  0.3041  0.4364  0.0504
 1003SOL    HW114645   2.368   1.841   9.626  0.6475 -0.3069  1.5622
 1003SOL    HW214646   2.338   1.697   9.665 -0.9936  0.5658  0.0540
 1004SOL     OW14647   0.269   1.506   4.642  0.3347  0.4877  0.5781
 1004SOL    HW114648   0.304   1.539   4.560 -0.5013 -0.7507 -0.2726
 1004SOL    HW214649   0.299   1.415   4.641  0.6836  0.6060  0.4103
 1005SOL     OW14650   3.981   2.285   2.250 -0.0727  0.3481  0.0999
 1005SOL    HW114651   3.991   2.317   2.339 -0.0489  0.4306  0.0674
 1005SOL    HW214652   4.050   2.219   2.245 -0.2407  0.3224 -2.0370
 1006SOL     OW14653   2.785   0.865  12.918  0.1566  0.3862  0.1235
 1006SOL    HW114654   2.725   0.922  12.967 -1.2418 -0.7289 -0.2867
 1006SOL    HW214655   2.737   0.784  12.937 -1.0276  1.3201  1.1579
 1007SOL     OW14656   3.783   3.476   4.588 -0.5365  0.6070 -0.0343
 1007SOL    HW114657   3.820   3.392   4.614 -2.4776 -0.1656  0.2731
 1007SOL    HW214658   3.695   3.444   4.569 -0.1159  0.0908 -1.1235
 1008SOL     OW14659   4.291   1.631   1.100 -0.1406  0.3331  0.9186
 1008SOL    HW114660   4.256   1.606   1.186  0.9546 -0.1258  1.2364
 1008SOL    HW214661   4.218   1.679   1.061 -0.2343 -1.8495 -1.5806
 1009SOL     OW14662   2.630   4.435   2.649  0.4248  0.2574  0.3617
 1009SOL    HW114663   2.675   4.378   2.712  2.1963  0.4828 -0.6801
 1009SOL    HW214664   2.678   4.415   2.568 -0.2078  0.9231 -0.1771
 1010SOL     OW14665   1.517   3.904   4.339 -0.1159  0.2550  0.2462
 1010SOL    HW114666   1.466   3.865   4.410 -1.1341 -0.9419 -1.1401
 1010SOL    HW214667   1.507   3.831   4.277  1.0049  1.6187 -1.5209
 1011SOL     OW14668   3.274   4.102   3.434  0.1864 -0.3109 -0.1312
 1011SOL    HW114669   3.300   4.144   3.516  0.1446  1.4446 -1.0278
 1011SOL    HW214670   3.353   4.066   3.394  2.3685  0.6844  3.2728
 1012SOL     OW14671   2.760   3.716   6.036 -0.6779 -0.3339 -0.1809
 1012SOL    HW114672   2.842   3.694   5.992 -2.5023 -1.3476 -3.0987
 1012SOL    HW214673   2.730   3.790   5.983  0.3919 -0.7611 -1.3860
 1013SOL     OW14674   3.407   3.964   4.568 -0.3424  0.5087 -0.4341
 1013SOL    HW114675   3.408   3.931   4.478  1.5959 -0.3674 -0.0968
 1013SOL    HW214676   3.484   3.923   4.610 -1.4054 -0.7959  0.2557
 1014SOL     OW14677   0.772   2.641  12.225 -0.3259  0.1042  0.3464
 1014SOL    HW114678   0.775   2.549  12.200 -1.1116  0.4092 -0.8511
 1014SOL    HW214679   0.862   2.669  12.208  0.3477 -3.1067 -1.2492
 1015SOL     OW14680   0.859   0.968  13.236  0.1077 -0.4392 -0.3509
 1015SOL    HW114681   0.915   0.966  13.314  1.3975 -0.6233 -1.2844
 1015SOL    HW214682   0.905   0.918  13.169 -0.5320  0.8152 -1.7188
 1016SOL     OW14683   1.472   4.040   5.191  0.2542 -0.1913 -0.4375
 1016SOL    HW114684   1.426   4.119   5.219  1.3469  0.4452 -0.4431
 1016SOL    HW214685   1.536   4.085   5.135  1.4933  0.5349  1.5648
 1017SOL     OW14686   4.109   0.986   2.202  0.1995 -0.1358 -0.8208
 1017SOL    HW114687   4.057   1.038   2.263 -0.8943 -0.6447 -1.3181
 1017SOL    HW214688   4.171   0.947   2.264 -1.4844  0.6194  1.3482
 1018SOL     OW14689   3.482   1.455   9.363  0.1363  0.3826 -0.1122
 1018SOL    HW114690   3.391   1.463   9.335  0.0121  0.0638  0.1876
 1018SOL    HW214691   3.522   1.539   9.341  1.3550 -0.3359 -0.6423
 1019SOL     OW14692   2.670   2.568   7.294  0.6934  0.0591  0.0489
 1019SOL    HW114693   2.634   2.656   7.287  0.1433 -0.2040 -0.3649
 1019SOL    HW214694   2.694   2.553   7.202  1.7877 -0.2393  0.3854
 1020SOL     OW14695   3.744   2.453  17.409  0.4840  0.3961  0.6333
 1020SOL    HW114696   3.665   2.478  17.457  0.1691 -2.0381  1.4062
 1020SOL    HW214697   3.783   2.540  17.402  0.0855  0.4833 -0.5755
 1021SOL     OW14698   3.106   3.888   3.530  0.1642  0.2323  0.1685
 1021SOL    HW114699   3.166   3.962   3.522  0.2903 -0.1293 -2.1193
 1021SOL    HW214700   3.122   3.834   3.453 -1.5131  0.3355 -0.2401
 1022SOL     OW14701   0.491   4.732   3.297  0.5942  0.1933  0.3046
 1022SOL    HW114702   0.480   0.028   3.387 -0.0441  0.6298  0.0731
 1022SOL    HW214703   0.403   0.013   3.261 -0.3291  0.8042  2.8151
 1023SOL     OW14704   3.008   0.660   1.065 -0.1763 -0.5980 -0.1207
 1023SOL    HW114705   2.962   0.609   1.132  1.6735  0.5155  2.0058
 1023SOL    HW214706   2.940   0.709   1.019  0.4913  1.9553  1.6263
 1024SOL     OW14707   1.434   1.761  17.144 -0.0347  0.3739  0.1766
 1024SOL    HW114708   1.520   1.783  17.109  0.4245 -0.6759  0.6372
 1024SOL    HW214709   1.407   1.723  17.060 -1.0772  1.7197 -0.0955
 1025SOL     OW14710   1.809   0.822   6.860 -0.2028 -0.2782 -0.1297
 1025SOL    HW114711   1.846   0.863   6.938 -0.6436  1.4188 -0.7985
 1025SOL    HW214712   1.776   0.745   6.905  0.3170 -0.7753 -0.6085
 1026SOL     OW14713   2.758   2.741  16.316 -0.5686 -0.1575  0.0406
 1026SOL    HW114714   2.812   2.700  16.249 -0.6906  1.7353 -1.2355
 1026SOL    HW214715   2.738   2.821  16.268  2.4798  1.8050  2.0421
 1027SOL     OW14716   1.336   3.235   3.215  0.3619  0.1411  0.3278
 1027SOL    HW114717   1.309   3.326   3.224  1.9081  0.5777  0.6791
 1027SOL    HW214718   1.322   3.202   3.304  0.9597  1.0267  0.7481
 1028SOL     OW14719   4.082   2.104  12.614  0.3215  0.0558 -0.2932
 1028SOL    HW114720   4.025   2.030  12.592  0.6446  0.3786 -2.2539
 1028SOL    HW214721   4.148   2.056  12.663  1.3612  0.1202 -1.6271
 1029SOL     OW14722   3.188   3.400   0.918 -0.0018  0.2529  0.0273
 1029SOL    HW114723   3.215   3.485   0.952  0.2134  0.2888 -0.2311
 1029SOL    HW214724   3.170   3.427   0.828  3.8762  0.5969 -0.6471
 1030SOL     OW14725   3.208   1.150   3.647 -0.0001 -0.8235  0.5806
 1030SOL    HW114726   3.219   1.240   3.679 -0.9356 -0.1912 -0.8629
 1030SOL    HW214727   3.131   1.164   3.592  0.8619  1.4909 -0.0781
 1031SOL     OW14728   3.686   2.811   8.733 -0.0813 -0.2980 -0.4087
 1031SOL    HW114729   3.629   2.734   8.732 -0.5995  0.0826 -0.2812
 1031SOL    HW214730   3.743   2.786   8.660  0.0294  0.2057 -0.4942
 1032SOL     OW14731   4.125   1.211  17.350 -0.3059 -0.8905 -0.4281
 1032SOL    HW114732   4.036   1.243  17.363 -0.0832 -0.4654  0.0043
 1032SOL    HW214733   4.124   1.154  17.427 -0.6326 -0.2093  0.0721
 1033SOL     OW14734   3.477   1.912   6.213 -0.1710 -0.1516  0.2684
 1033SOL    HW114735   3.483   1.998   6.171 -0.5915 -0.2872 -0.0630
 1033SOL    HW214736   3.554   1.902   6.269 -0.0258  2.0745  0.4781
 1034SOL     OW14737   2.334   2.865   1.474  0.0950  0.3112 -0.1836
 1034SOL    HW114738   2.278   2.799   1.514  0.4187  0.4320  0.4716
 1034SOL    HW214739   2.348   2.928   1.545 -0.0986  1.0499 -0.8059
 1035SOL     OW14740   2.489   3.226   0.369 -0.4757 -0.2181 -0.5154
 1035SOL    HW114741   2.407   3.219   0.419 -0.2682 -0.2545 -0.1818
 1035SOL    HW214742   2.463   3.286   0.299  0.3026  0.0723 -0.5511
 1036SOL     OW14743   3.896   0.825   4.222  0.0139 -0.4723 -0.1966
 1036SOL    HW114744   3.895   0.776   4.140 -0.2263  0.1269 -0.5493
 1036SOL    HW214745   3.826   0.783   4.271 -1.0635  1.2862 -0.2251
 1037SOL     OW14746   1.439   0.249   4.199  0.1714  0.4279 -0.7530
 1037SOL    HW114747   1.466   0.253   4.107 -0.4854  0.0780 -0.9643
 1037SOL    HW214748   1.528   0.247   4.235  0.1573  0.8434 -0.7057
 1038SOL     OW14749   4.481   1.666   8.112  0.4686  0.0999  0.7233
 1038SOL    HW114750   4.512   1.580   8.140  1.6540  0.4836  0.5764
 1038SOL    HW214751   4.502   1.706   8.196 -1.1331 -0.9338  1.6107
 1039SOL     OW14752   4.602   4.136   8.728  0.3057  0.5379 -0.1858
 1039SOL    HW114753   4.591   4.179   8.813 -1.9183  4.2177 -2.3304
 1039SOL    HW214754   4.690   4.163   8.702  0.2911 -0.5173 -1.3026
 1040SOL     OW14755   1.536   3.092   5.080 -0.8037 -0.1312  0.3125
 1040SOL    HW114756   1.489   3.098   4.997 -1.1562  0.6289  0.5609
 1040SOL    HW214757   1.462   3.128   5.130 -0.9689 -1.2750  0.9011
 1041SOL     OW14758   3.438   0.220   3.821 -0.3069 -0.0084  0.5020
 1041SOL    HW114759   3.470   0.302   3.782 -1.1758 -0.6903 -1.6521
 1041SOL    HW214760   3.397   0.181   3.744  0.4079 -0.9979  0.6160
 1042SOL     OW14761   2.285   1.281   3.159 -0.1208  0.2804 -0.4293
 1042SOL    HW114762   2.242   1.353   3.111 -1.2749 -0.9460 -1.2418
 1042SOL    HW214763   2.303   1.221   3.086  0.2065  1.1738 -1.0914
 1043SOL     OW14764   1.967   2.925   2.710  0.4250 -0.1926  0.0411
 1043SOL    HW114765   1.988   2.999   2.768  1.7216 -0.2171 -0.3838
 1043SOL    HW214766   1.873   2.921   2.725  0.9325 -2.8282  2.5241
 1044SOL     OW14767   3.769   3.456   2.305 -0.1356  0.2903  0.6422
 1044SOL    HW114768   3.712   3.512   2.252 -0.1992  1.4331  1.9008
 1044SOL    HW214769   3.753   3.374   2.260 -0.6691 -0.1079  1.5637
 1045SOL     OW14770   0.246   0.341   4.334  0.2716  0.0182 -0.4107
 1045SOL    HW114771   0.261   0.266   4.392 -3.5987 -0.7835 -0.5045
 1045SOL    HW214772   0.153   0.345   4.314 -0.1432  0.3569  1.5590
 1046SOL     OW14773   4.697   0.675   0.257  0.2012 -0.3378 -0.3964
 1046SOL    HW114774   0.008   0.696   0.338  0.1709 -3.3102  0.3966
 1046SOL    HW214775   0.016   0.612   0.210  2.5166  0.0073  1.8007
 1047SOL     OW14776   0.709   4.506   9.802 -0.4983  0.1815 -0.4094
 1047SOL    HW114777   0.762   4.519   9.881 -0.6005 -1.9679  0.0077
 1047SOL    HW214778   0.624   4.541   9.826 -0.6507  0.5052 -1.4298
 1048SOL     OW14779   1.652   0.029   0.956  0.0054 -0.5098  0.1382
 1048SOL    HW114780   1.695   4.678   0.956 -1.1926 -1.1128 -0.6770
 1048SOL    HW214781   1.716   0.064   0.894 -0.0310 -1.2450 -0.3263
 1049SOL     OW14782   3.170   1.830  16.061  0.3262 -0.5746 -0.0324
 1049SOL    HW114783   3.115   1.853  15.986 -0.1905  2.1882  1.1940
 1049SOL    HW214784   3.138   1.891  16.127 -0.3599 -1.4537  0.4544
 1050SOL     OW14785   3.511   1.744   3.019  0.9764 -0.2610  0.4830
 1050SOL    HW114786   3.557   1.815   3.064  0.5317 -0.1670  0.7941
 1050SOL    HW214787   3.590   1.708   2.979 -0.4520 -0.1532 -2.4026
 1051SOL     OW14788   0.538   1.814  15.370  0.4329  0.1930 -0.4887
 1051SOL    HW114789   0.522   1.773  15.455 -1.1705  1.5408 -0.1212
 1051SOL    HW214790   0.455   1.859  15.352  1.1812  1.9607  0.4296
 1052SOL     OW14791   1.462   2.252   1.061 -0.5122  0.0200  0.2852
 1052SOL    HW114792   1.525   2.262   0.990 -2.2865  0.3036 -1.2451
 1052SOL    HW214793   1.499   2.192   1.126 -1.3113 -2.1832 -1.3077
 1053SOL     OW14794   3.018   4.275  16.852  0.5933  0.0214  0.3115
 1053SOL    HW114795   3.075   4.296  16.926  0.3538 -0.5838  0.6667
 1053SOL    HW214796   3.076   4.240  16.784  1.0789  0.2218  0.6238
 1054SOL     OW14797   3.688   3.809   4.579 -0.1403  0.1513 -0.1769
 1054SOL    HW114798   3.768   3.762   4.603  0.6841  0.4146 -2.3958
 1054SOL    HW214799   3.687   3.786   4.486  3.4473  0.5528 -0.2870
 1055SOL     OW14800   2.312   3.213   3.030 -0.0520  0.3263  0.3066
 1055SOL    HW114801   2.314   3.142   3.094 -2.8989  1.6769  1.8979
 1055SOL    HW214802   2.233   3.264   3.047 -1.1051 -1.4185  0.6337
 1056SOL     OW14803   0.743   1.578   8.996  0.0746 -0.2485 -0.2796
 1056SOL    HW114804   0.687   1.644   8.954 -0.7614 -1.6576 -1.3844
 1056SOL    HW214805   0.754   1.612   9.085 -2.6045 -3.7471  1.3726
 1057SOL     OW14806   0.769   2.468   3.892  0.2292 -0.2117  0.2019
 1057SOL    HW114807   0.749   2.430   3.806 -1.2632 -1.3508  1.0744
 1057SOL    HW214808   0.699   2.533   3.895 -0.6539 -1.0814 -1.1934
 1058SOL     OW14809   1.542   0.771   4.337  0.1936  0.4404  0.2202
 1058SOL    HW114810   1.595   0.697   4.308 -1.7168 -0.8293 -0.0816
 1058SOL    HW214811   1.474   0.768   4.270  0.6499  3.0054 -0.3377
 1059SOL     OW14812   2.061   2.609   6.967  0.6806  0.0339 -0.7112
 1059SOL    HW114813   1.974   2.585   7.001  2.6060 -3.1830  1.9541
 1059SOL    HW214814   2.046   2.702   6.985  0.8846  0.2443 -1.6447
 1060SOL     OW14815   2.859   4.518   9.648  0.2165  0.1994  0.1440
 1060SOL    HW114816   2.863   4.437   9.699  1.9228  0.2445  0.0838
 1060SOL    HW214817   2.815   4.581   9.705 -0.3684  2.0952 -2.4123
 1061SOL     OW14818   2.091   1.134   6.576 -0.3363  0.5444 -0.5508
 1061SOL    HW114819   2.166   1.132   6.518 -0.0913 -1.4251 -0.1575
 1061SOL    HW214820   2.024   1.150   6.509 -0.4087  1.4795 -0.2697
 1062SOL     OW14821   3.347   0.484   9.320  0.0838  0.2579  0.2926
 1062SOL    HW114822   3.298   0.530   9.387  0.1171  0.8852 -0.1143
 1062SOL    HW214823   3.282   0.487   9.249 -0.9047 -1.2811  1.1263
 1063SOL     OW14824   4.481   1.378   3.206 -0.5158  0.4092 -0.3115
 1063SOL    HW114825   4.417   1.440   3.241  0.2734  1.4888 -0.7676
 1063SOL    HW214826   4.431   1.300   3.183  0.4864 -1.0249  2.2917
 1064SOL     OW14827   3.748   4.485  14.417 -0.1310 -0.7739  0.0223
 1064SOL    HW114828   3.653   4.482  14.412 -0.0774 -1.5762 -0.4491
 1064SOL    HW214829   3.784   4.401  14.445  0.3181 -0.7824 -0.5807
 1065SOL     OW14830   0.207   3.598   2.308 -0.5575 -0.2537  0.6182
 1065SOL    HW114831   0.266   3.568   2.238 -0.0335 -1.6215  1.6464
 1065SOL    HW214832   0.259   3.661   2.358 -0.4759 -0.6838  1.0676
 1066SOL     OW14833   1.638   3.742   5.707  0.2707 -0.4160 -0.0105
 1066SOL    HW114834   1.572   3.685   5.745  1.0349 -1.3610 -0.1011
 1066SOL    HW214835   1.690   3.689   5.646 -1.0693 -1.9274  0.1636
 1067SOL     OW14836   3.669   0.756   6.508  0.0086  0.2740  0.1281
 1067SOL    HW114837   3.648   0.685   6.569  1.7049  0.3489  0.8161
 1067SOL    HW214838   3.634   0.824   6.566  0.1536 -1.7895  2.6155
 1068SOL     OW14839   1.301   1.680   4.298 -0.0173  0.2712  0.2931
 1068SOL    HW114840   1.284   1.613   4.231 -0.3095 -2.2748  2.8980
 1068SOL    HW214841   1.354   1.743   4.250  3.4239 -0.6515  2.8963
 1069SOL     OW14842   3.140   3.509  12.972 -0.1392  0.6995  0.2576
 1069SOL    HW114843   3.052   3.472  12.973  1.1496 -2.3476  0.0355
 1069SOL    HW214844   3.136   3.561  12.892  0.3534 -1.6431 -1.2767
 1070SOL     OW14845   1.105   0.707   4.206 -0.2540 -0.2409 -0.1826
 1070SOL    HW114846   1.195   0.738   4.191 -1.1093  0.4909 -3.7766
 1070SOL    HW214847   1.068   0.726   4.120  0.1009  0.4904 -0.1749
 1071SOL     OW14848   4.640   2.958  13.268 -0.0738 -0.2033 -0.2017
 1071SOL    HW114849   4.649   3.041  13.220 -0.3215 -0.9108 -1.4933
 1071SOL    HW214850   4.684   2.911  13.197 -0.8895  0.8384 -1.4187
 1072SOL     OW14851   0.926   3.851   2.506  0.3919 -0.3481 -0.0812
 1072SOL    HW114852   0.997   3.910   2.480 -1.6882  1.6547 -1.2364
 1072SOL    HW214853   0.929   3.794   2.429 -1.6410 -1.1582  0.4602
 1073SOL     OW14854   1.937   1.886   4.687  0.0369  0.3028  0.3796
 1073SOL    HW114855   1.929   1.966   4.739  0.9026 -0.0915  1.1191
 1073SOL    HW214856   1.845   1.868   4.670 -0.1583 -0.1129  1.8417
 1074SOL     OW14857   3.654   0.168   6.569  0.1222 -0.5722 -0.7592
 1074SOL    HW114858   3.710   0.228   6.519 -1.6606  1.7580  0.0644
 1074SOL    HW214859   3.699   0.164   6.653 -2.2318  1.1872  0.5804
 1075SOL     OW14860   0.872   2.227   2.055 -0.1866 -0.6094 -0.3872
 1075SOL    HW114861   0.825   2.208   2.136  1.6490  0.2993  0.9046
 1075SOL    HW214862   0.961   2.256   2.077  0.2960 -2.2940 -0.1610
 1076SOL     OW14863   1.420   0.759   4.600  0.0128 -0.1017 -0.3687
 1076SOL    HW114864   1.471   0.734   4.524 -0.7164 -2.6232 -0.0459
 1076SOL    HW214865   1.407   0.672   4.638 -0.6036 -0.8402 -2.2547
 1077SOL     OW14866   0.305   4.021   4.084  0.2034 -0.7544 -0.4040
 1077SOL    HW114867   0.397   4.048   4.077  0.1905 -1.1700 -2.0897
 1077SOL    HW214868   0.319   3.945   4.142 -0.5477 -2.4156 -2.3964
 1078SOL     OW14869   0.249   0.960   6.547 -0.1005 -0.4601  0.5285
 1078SOL    HW114870   0.187   0.887   6.554  0.6539 -1.3977 -2.3921
 1078SOL    HW214871   0.190   1.032   6.568  2.4678  1.6633  0.4847
 1079SOL     OW14872   0.965   3.240   8.425  0.2577 -0.3271  0.2529
 1079SOL    HW114873   1.057   3.261   8.408  0.5277 -1.6702  0.0084
 1079SOL    HW214874   0.935   3.329   8.440  0.7880 -0.1806  0.4533
 1080SOL     OW14875   1.609   4.146   4.707 -0.4256  0.2881  0.2602
 1080SOL    HW114876   1.675   4.163   4.640  1.3090 -1.5344  1.5474
 1080SOL    HW214877   1.526   4.152   4.658  0.8546  0.5596 -1.8702
 1081SOL     OW14878   3.193   3.385  12.215 -0.0702  0.0081 -0.4927
 1081SOL    HW114879   3.270   3.330  12.230 -0.4788 -0.2760  0.5326
 1081SOL    HW214880   3.139   3.336  12.277  1.9296 -0.6162  0.7648
 1082SOL     OW14881   1.134   2.872  11.265 -0.0984  0.4473 -0.0337
 1082SOL    HW114882   1.148   2.854  11.358 -1.8176  1.1654  0.3788
 1082SOL    HW214883   1.181   2.953  11.246  1.5768 -1.1951 -2.7715
 1083SOL     OW14884   2.443   0.669  10.270 -0.2531  1.0062  0.0932
 1083SOL    HW114885   2.472   0.714  10.349 -0.0130  1.2866 -0.1570
 1083SOL    HW214886   2.350   0.693  10.263 -0.4767  0.2842  0.6521
 1084SOL     OW14887   2.369   1.859  16.234 -0.2694 -0.1584 -0.0207
 1084SOL    HW114888   2.388   1.948  16.262 -0.3095  0.4148 -1.8506
 1084SOL    HW214889   2.433   1.812  16.287  0.7848 -1.7056 -2.6618
 1085SOL     OW14890   2.112   1.551  15.178  0.1412  0.4361 -0.4555
 1085SOL    HW114891   2.073   1.480  15.229  1.2597 -0.9304 -1.5174
 1085SOL    HW214892   2.040   1.562  15.116  0.4064  1.6743 -0.5365
 1086SOL     OW14893   0.046   3.914  16.624 -0.6374  0.1597 -0.2460
 1086SOL    HW114894   0.000   3.997  16.617 -1.3964 -0.1007  1.7249
 1086SOL    HW214895   0.045   3.884  16.533  0.8796  2.8653 -1.1534
 1087SOL     OW14896   0.420   0.392   6.053 -0.0253  0.1703 -0.1601
 1087SOL    HW114897   0.391   0.303   6.037 -0.4664  0.5240 -1.3594
 1087SOL    HW214898   0.438   0.386   6.146  1.3298  0.4517 -0.3979
 1088SOL     OW14899   1.382   1.075   4.058 -0.2489  0.1852  0.6122
 1088SOL    HW114900   1.377   1.039   4.147  0.8958 -1.1473  0.1439
 1088SOL    HW214901   1.333   1.006   4.012  2.3574 -0.6892 -0.8277
 1089SOL     OW14902   3.590   3.179  14.725 -0.0159 -0.2581 -0.4520
 1089SOL    HW114903   3.552   3.101  14.766 -1.2495  1.1576  1.1080
 1089SOL    HW214904   3.669   3.187  14.779 -1.5184 -1.2295  1.9080
 1090SOL     OW14905   0.273   3.585  12.568  0.0872  0.1746 -0.3058
 1090SOL    HW114906   0.338   3.609  12.502  2.0179 -1.3511  1.0228
 1090SOL    HW214907   0.299   3.645  12.638  1.4448 -1.0516  0.2399
 1091SOL     OW14908   1.027   0.173  17.706  0.0686 -0.0991  0.1508
 1091SOL    HW114909   0.967   0.128  17.647 -0.1317  1.1696 -0.6130
 1091SOL    HW214910   1.004   0.265  17.696 -1.5702 -0.3983  1.2482
 1092SOL     OW14911   1.431   4.088   2.614  0.0749  0.2728 -0.0220
 1092SOL    HW114912   1.400   4.133   2.693 -1.8456  0.7580 -1.0592
 1092SOL    HW214913   1.373   4.012   2.614 -1.2511  1.2561  2.0020
 1093SOL     OW14914   0.710   1.098  11.069  0.3085  0.4991  0.2465
 1093SOL    HW114915   0.703   1.052  11.153  0.1892  1.0313  0.5223
 1093SOL    HW214916   0.729   1.187  11.098 -1.1341  1.5282 -1.9848
 1094SOL     OW14917   4.465   0.124   7.701  0.0885 -0.2748  0.4645
 1094SOL    HW114918   4.435   0.122   7.792  1.2476  2.6455  0.8942
 1094SOL    HW214919   4.471   0.029   7.686 -0.3978  0.1578 -2.4478
 1095SOL     OW14920   2.330   1.294   2.157 -0.5415 -0.3067  0.3878
 1095SOL    HW114921   2.377   1.308   2.239 -0.3444 -1.5844  0.4958
 1095SOL    HW214922   2.323   1.380   2.118  0.1218 -0.8424 -0.9129
 1096SOL     OW14923   3.334   4.643   4.354  0.4623 -0.2525  0.1951
 1096SOL    HW114924   3.373   4.585   4.420  0.1160 -0.0726  0.5584
 1096SOL    HW214925   3.350   4.596   4.272  0.1127  0.2646 -0.1646
 1097SOL     OW14926   0.636   3.648  15.169  0.3325 -0.1541 -0.1345
 1097SOL    HW114927   0.670   3.558  15.164 -0.4723 -0.3958 -1.2565
 1097SOL    HW214928   0.709   3.683  15.119 -0.8114  0.4432 -1.3745
 1098SOL     OW14929   0.424   1.947   4.661  0.0182  0.1139 -0.2294
 1098SOL    HW114930   0.508   1.990   4.648 -0.8354  1.4469 -1.3198
 1098SOL    HW214931   0.381   1.997   4.730  0.7420  0.0192  0.2852
 1099SOL     OW14932   1.244   2.367   4.523 -0.6842  0.3461  0.5198
 1099SOL    HW114933   1.223   2.298   4.461 -1.1841  1.0045 -0.0504
 1099SOL    HW214934   1.210   2.331   4.605 -1.2325  1.4905  0.7920
 1100SOL     OW14935   3.696   3.626  17.728 -0.1611  0.3094 -0.5454
 1100SOL    HW114936   3.659   3.655  17.644 -1.7496  1.3000  0.4963
 1100SOL    HW214937   3.757   3.557  17.702  0.3903  0.7570 -0.4448
 1101SOL     OW14938   0.656   1.531   8.183 -0.2564  0.0463 -0.4921
 1101SOL    HW114939   0.734   1.547   8.236 -2.5335  3.1296  1.8656
 1101SOL    HW214940   0.588   1.585   8.223  2.1844  2.8200 -0.0840
 1102SOL     OW14941   1.493   1.633   3.978  0.4939  0.1075 -0.3619
 1102SOL    HW114942   1.464   1.696   4.044  1.3145 -1.0852  1.1413
 1102SOL    HW214943   1.585   1.629   4.006  0.8604  1.1180 -1.4853
 1103SOL     OW14944   0.045   3.893   7.673 -0.7848  0.0581  0.2167
 1103SOL    HW114945   0.047   3.965   7.609 -0.4192 -0.5025 -0.4037
 1103SOL    HW214946   4.693   3.853   7.662  0.2308 -2.0790 -0.0416
 1104SOL     OW14947   3.095   2.528   7.154 -0.6180 -0.1123  0.0635
 1104SOL    HW114948   3.044   2.552   7.232  0.7266  1.6864  0.3795
 1104SOL    HW214949   3.156   2.599   7.137 -1.6971  0.2683 -2.1856
 1105SOL     OW14950   2.604   1.133  16.194 -0.7937 -0.7266  0.6852
 1105SOL    HW114951   2.614   1.221  16.230 -0.5369 -0.6331  0.3869
 1105SOL    HW214952   2.512   1.136  16.168 -0.2858 -0.5580 -1.1455
 1106SOL     OW14953   4.310   4.647  10.045 -0.2997  0.6702 -0.1706
 1106SOL    HW114954   4.340   4.560  10.019 -1.2156  0.5018 -0.6478
 1106SOL    HW214955   4.249   4.624  10.115  0.0178 -0.3403 -0.2328
 1107SOL     OW14956   1.520   0.086   1.841 -0.0461 -0.1955 -0.2881
 1107SOL    HW114957   1.430   0.117   1.837 -0.1338 -0.3109  0.5929
 1107SOL    HW214958   1.557   0.135   1.768 -0.2598  1.9697  1.0677
 1108SOL     OW14959   0.565   0.990   6.355 -0.6045  0.5231  0.4461
 1108SOL    HW114960   0.479   1.011   6.321 -1.3447 -0.8221  1.4676
 1108SOL    HW214961   0.553   0.990   6.450  0.1437  0.1679  0.5475
 1109SOL     OW14962   2.181   3.220   4.329 -0.1810  0.0809 -0.6203
 1109SOL    HW114963   2.112   3.268   4.282 -3.1043 -1.0955  2.4780
 1109SOL    HW214964   2.252   3.270   4.289  0.1687 -1.1297 -1.5208
 1110SOL     OW14965   2.649   4.287   0.083 -0.0278  0.1014  0.2642
 1110SOL    HW114966   2.743   4.292   0.068 -0.5231  0.5494 -2.8351
 1110SOL    HW214967   2.607   4.266  17.737  0.9697  0.2870 -0.2726
 1111SOL     OW14968   4.502   2.358   5.636 -0.3036 -0.1639  0.2050
 1111SOL    HW114969   4.417   2.349   5.592 -0.2399 -1.3471  0.3301
 1111SOL    HW214970   4.549   2.415   5.575  1.8707  0.1149  2.1345
 1112SOL     OW14971   1.594   3.183   8.448  0.4791 -0.2862  0.1110
 1112SOL    HW114972   1.601   3.174   8.543  0.6612  2.1465  0.3368
 1112SOL    HW214973   1.579   3.094   8.417 -1.4283  0.4335 -1.0484
 1113SOL     OW14974   3.113   0.301   3.749 -0.1556  0.0199 -0.6187
 1113SOL    HW114975   3.126   0.311   3.654  0.7190 -1.6497 -0.6768
 1113SOL    HW214976   3.170   0.368   3.788  0.4320 -0.8344 -0.0345
 1114SOL     OW14977   3.567   3.280   2.680 -0.1848  0.4706 -0.2954
 1114SOL    HW114978   3.481   3.274   2.723 -1.5927  1.9341 -2.8858
 1114SOL    HW214979   3.579   3.375   2.674  0.0993  0.4460 -0.1054
 1115SOL     OW14980   3.652   4.069  17.426 -0.6643  0.9226  0.2344
 1115SOL    HW114981   3.613   4.010  17.490 -0.6099 -1.7473 -2.2041
 1115SOL    HW214982   3.617   4.028  17.347 -3.0011  0.6916  1.4043
 1116SOL     OW14983   4.143   2.025  11.817  0.2125  0.1157 -0.0434
 1116SOL    HW114984   4.148   1.938  11.856 -0.4063  0.5122  0.9119
 1116SOL    HW214985   4.179   2.014  11.729 -0.9592 -0.8263 -0.4072
 1117SOL     OW14986   4.709   0.592   2.443  0.1459  0.3313 -0.2627
 1117SOL    HW114987   0.001   0.624   2.529 -0.1683  0.5764 -0.2563
 1117SOL    HW214988   0.016   0.664   2.396 -0.3660  0.0471 -1.1533
 1118SOL     OW14989   0.205   2.856   3.256 -0.7884 -0.5438  0.3392
 1118SOL    HW114990   0.208   2.773   3.208  0.5754 -0.9157  1.0539
 1118SOL    HW214991   0.112   2.875   3.241 -1.1423 -1.8320  0.8157
 1119SOL     OW14992   3.923   2.475   5.169 -0.0990 -0.5233  0.1947
 1119SOL    HW114993   4.013   2.444   5.164  0.4963  1.5776 -1.7978
 1119SOL    HW214994   3.873   2.423   5.107 -0.1674  0.6546 -0.7201
 1120SOL     OW14995   2.087   3.524  12.056  0.4705 -0.8100  0.0362
 1120SOL    HW114996   2.144   3.476  12.114  0.9259 -2.5948 -1.9008
 1120SOL    HW214997   2.128   3.611  12.053  0.5992 -0.9250 -1.6592
 1121SOL     OW14998   0.098   0.757   6.619 -0.0047 -0.5050 -0.3591
 1121SOL    HW114999   0.004   0.772   6.621  0.0174 -0.2834 -0.9040
 1121SOL    HW215000   0.105   0.727   6.709 -1.7144 -0.6969 -0.2968
 1122SOL     OW15001   3.109   2.791   8.312 -0.0317  0.4286  0.3301
 1122SOL    HW115002   3.046   2.737   8.265  0.6891 -0.6449  0.6041
 1122SOL    HW215003   3.067   2.877   8.314 -2.5731 -0.7602 -1.8868
 1123SOL     OW15004   2.719   3.985   5.629 -0.2965  0.1450  0.5631
 1123SOL    HW115005   2.735   3.915   5.567  1.4513  0.3463  0.7703
 1123SOL    HW215006   2.743   4.065   5.582 -0.9871 -0.0122 -0.0488
 1124SOL     OW15007   1.104   4.090   4.175 -0.2917  0.1652 -0.3119
 1124SOL    HW115008   1.197   4.079   4.197 -0.1076 -0.3891 -1.3655
 1124SOL    HW215009   1.074   4.167   4.224 -0.0571 -1.1332  1.8445
 1125SOL     OW15010   2.323   4.042   3.810 -0.4287 -0.4095 -0.7715
 1125SOL    HW115011   2.403   4.037   3.863 -0.3454  0.7768 -0.7857
 1125SOL    HW215012   2.278   4.103   3.869 -0.0164 -0.9301  0.0847
 1126SOL     OW15013   2.432   1.540  15.898 -0.4772  0.3867 -0.5288
 1126SOL    HW115014   2.419   1.619  15.846 -0.9669  0.0322 -0.9418
 1126SOL    HW215015   2.442   1.578  15.986  0.9389 -0.1011 -0.4754
 1127SOL     OW15016   2.308   0.551  12.403  0.3481  0.5799 -0.8639
 1127SOL    HW115017   2.362   0.613  12.452 -1.7304  1.5084  0.2471
 1127SOL    HW215018   2.233   0.548  12.461  2.9377 -0.1249  2.4473
 1128SOL     OW15019   3.616   1.235   5.679 -0.6713  0.4577  0.0996
 1128SOL    HW115020   3.593   1.159   5.625 -1.8855 -0.4415  1.8681
 1128SOL    HW215021   3.711   1.223   5.686 -0.2600  2.1884 -2.7586
 1129SOL     OW15022   3.916   0.367  17.059 -0.4477 -0.6922  0.1243
 1129SOL    HW115023   3.862   0.410  17.125 -0.9975 -1.8760  0.4525
 1129SOL    HW215024   3.997   0.409  17.089 -0.1512 -1.9931  1.1417
 1130SOL     OW15025   3.787   4.205   5.544 -0.4369  0.4795  0.2510
 1130SOL    HW115026   3.800   4.230   5.452  0.7261 -0.9542  0.0147
 1130SOL    HW215027   3.693   4.189   5.545 -0.4034  0.3829  1.5772
 1131SOL     OW15028   1.871   1.642   7.080 -0.3182  0.0258 -0.4572
 1131SOL    HW115029   1.927   1.578   7.038  1.1712  0.7985  0.3519
 1131SOL    HW215030   1.806   1.578   7.110 -0.9550  0.6647 -0.4556
 1132SOL     OW15031   4.177   1.882   1.448  0.1147 -0.2927  0.2166
 1132SOL    HW115032   4.107   1.923   1.500  0.6166 -0.1768  0.7998
 1132SOL    HW215033   4.128   1.856   1.370  3.3835 -0.4831 -1.7515
 1133SOL     OW15034   4.184   2.572   7.864  0.6564  0.2886 -0.1866
 1133SOL    HW115035   4.129   2.576   7.785 -0.9134 -0.7008  0.8525
 1133SOL    HW215036   4.247   2.642   7.848  1.9380 -0.1111  3.1261
 1134SOL     OW15037   1.967   2.102   8.071 -0.3293 -0.3261 -0.6186
 1134SOL    HW115038   2.015   2.181   8.045 -1.4131  0.7527  0.6582
 1134SOL    HW215039   2.021   2.032   8.033 -0.3920  0.1418 -1.5842
 1135SOL     OW15040   0.474   3.223   5.083  0.0981 -0.0501 -0.9934
 1135SOL    HW115041   0.381   3.245   5.096  1.1632  3.2588  1.0328
 1135SOL    HW215042   0.480   3.141   5.132  0.9193  1.6859  1.8328
 1136SOL     OW15043   4.514   1.632   3.773 -0.3133 -0.6008 -0.0450
 1136SOL    HW115044   4.551   1.697   3.713 -0.7570  0.1352  0.4768
 1136SOL    HW215045   4.425   1.663   3.786  0.5079  1.8931 -0.3529
 1137SOL     OW15046   2.189   1.897  13.282 -0.0867  0.3291 -0.3001
 1137SOL    HW115047   2.142   1.957  13.225 -2.5308 -0.5550  0.7795
 1137SOL    HW215048   2.197   1.943  13.366 -1.8551 -3.5624  2.0134
 1138SOL     OW15049   0.422   3.788   5.662 -0.2046 -1.0177  0.6060
 1138SOL    HW115050   0.472   3.797   5.581 -1.3474  2.7829  0.3122
 1138SOL    HW215051   0.343   3.840   5.642  0.3507 -0.1727  0.6143
 1139SOL     OW15052   1.848   2.803  13.414  0.1645  0.1281 -0.0568
 1139SOL    HW115053   1.769   2.821  13.465 -0.1483  0.2810 -0.6031
 1139SOL    HW215054   1.908   2.814  13.488 -1.4236 -0.6031  1.3396
 1140SOL     OW15055   2.028   2.340   3.105  0.2467  0.2379  0.4679
 1140SOL    HW115056   2.087   2.415   3.117 -0.7569  0.9612  0.8340
 1140SOL    HW215057   2.033   2.323   3.011 -0.7117 -1.6673  0.7535
 1141SOL     OW15058   0.541   2.720   1.868 -0.2982 -0.1265 -0.0032
 1141SOL    HW115059   0.448   2.745   1.877  0.0816  1.6829 -1.0312
 1141SOL    HW215060   0.576   2.788   1.925 -1.5167  0.2802  0.2662
 1142SOL     OW15061   3.345   2.967  16.917  0.1126 -0.2702 -0.0524
 1142SOL    HW115062   3.274   2.993  16.858  1.4809  0.1429 -1.5200
 1142SOL    HW215063   3.303   2.976  17.002  0.5875 -1.8135  0.3593
 1143SOL     OW15064   0.976   3.677  12.744 -0.0216 -0.0794  0.8399
 1143SOL    HW115065   0.989   3.723  12.661 -0.2889  0.0816  0.8876
 1143SOL    HW215066   1.046   3.613  12.736 -0.8249 -1.1232  2.1539
 1144SOL     OW15067   2.210   2.148   5.667  0.0249  0.2010  0.1208
 1144SOL    HW115068   2.151   2.222   5.683  0.6706  0.1479  2.8751
 1144SOL    HW215069   2.168   2.088   5.729 -2.5605  0.3386 -1.5039
 1145SOL     OW15070   1.363   1.292   1.363  0.4722 -0.3350 -0.0688
 1145SOL    HW115071   1.422   1.361   1.393 -0.9008  1.6925 -2.0330
 1145SOL    HW215072   1.296   1.354   1.334  2.1041  1.3460 -0.2779
 1146SOL     OW15073   4.232   2.832   2.289  0.1412 -0.0489 -0.0459
 1146SOL    HW115074   4.203   2.921   2.269 -1.3539  0.0907  2.7625
 1146SOL    HW215075   4.153   2.800   2.333  0.7354 -0.8048  0.4705
 1147SOL     OW15076   1.149   0.919   4.914  0.4535  0.5034 -0.0818
 1147SOL    HW115077   1.141   0.980   4.987  3.0967 -0.6057  1.1525
 1147SOL    HW215078   1.222   0.961   4.870  0.2732  2.3842  1.4115
 1148SOL     OW15079   1.413   1.750   3.445 -0.0183  0.6952  0.3313
 1148SOL    HW115080   1.436   1.760   3.538  0.4218  1.3401  0.1506
 1148SOL    HW215081   1.503   1.746   3.414 -0.0756 -0.7887  0.3441
 1149SOL     OW15082   0.854   4.542   3.697  0.8206 -0.5119  0.0112
 1149SOL    HW115083   0.924   4.585   3.746 -1.0251  2.7551 -0.2684
 1149SOL    HW215084   0.850   4.592   3.616 -0.9943  2.0318  1.6622
 1150SOL     OW15085   0.900   1.725  16.254  0.0742 -0.2865  0.0229
 1150SOL    HW115086   0.958   1.787  16.209 -1.3800 -0.5033 -2.1169
 1150SOL    HW215087   0.810   1.758  16.251  0.3213  0.4995  1.2683
 1151SOL     OW15088   2.460   1.554   7.924 -0.5484 -0.0166 -0.3306
 1151SOL    HW115089   2.409   1.599   7.857 -0.4678 -0.8366 -0.9389
 1151SOL    HW215090   2.397   1.548   7.995  0.4908  1.2817  0.6986
 1152SOL     OW15091   3.457   1.263   1.999  0.3194 -0.5554 -0.9589
 1152SOL    HW115092   3.488   1.178   1.966 -2.8857 -2.2756  0.4918
 1152SOL    HW215093   3.525   1.293   2.058 -0.7105 -2.0255  0.9561
 1153SOL     OW15094   0.850   4.550  10.045  0.4255 -0.6631  1.0762
 1153SOL    HW115095   0.896   4.580  10.123 -1.3394  1.7729  1.1901
 1153SOL    HW215096   0.768   4.533  10.092 -1.0254  0.1375 -1.1351
 1154SOL     OW15097   2.994   0.238   4.743 -0.2447 -0.3722 -0.6269
 1154SOL    HW115098   3.079   0.276   4.724  0.5256 -1.9817 -0.3653
 1154SOL    HW215099   3.021   0.147   4.749 -0.4741 -0.4403 -0.6097
 1155SOL     OW15100   3.695   2.118  15.403  0.1129 -0.3067  0.7185
 1155SOL    HW115101   3.751   2.087  15.475 -0.7257 -0.3824  1.3279
 1155SOL    HW215102   3.739   2.064  15.336  1.0026 -0.2576  1.2548
 1156SOL     OW15103   4.218   4.405   2.181  0.2920  0.0996 -0.3150
 1156SOL    HW115104   4.127   4.435   2.174  0.0816 -0.2786  0.6877
 1156SOL    HW215105   4.250   4.421   2.093 -3.0714 -0.0442 -1.5918
 1157SOL     OW15106   2.666   3.449   5.471 -0.6385 -0.7652 -0.3252
 1157SOL    HW115107   2.698   3.365   5.504  2.0627  0.7752  0.9437
 1157SOL    HW215108   2.681   3.508   5.544 -1.9707  1.0334 -1.5189
 1158SOL     OW15109   2.340   1.054   5.983  0.5855 -0.7602  0.4891
 1158SOL    HW115110   2.406   1.053   5.914  0.1006  4.0805 -0.0066
 1158SOL    HW215111   2.376   1.118   6.044 -0.1574  3.0790 -3.0812
 1159SOL     OW15112   2.364   2.668  15.897  0.5569  0.4029 -0.5577
 1159SOL    HW115113   2.392   2.582  15.866 -0.9572  0.0497 -0.9672
 1159SOL    HW215114   2.309   2.693  15.823 -1.3622  0.8626  1.0325
 1160SOL     OW15115   2.601   3.839   7.271  0.3455  0.0911 -0.7443
 1160SOL    HW115116   2.555   3.779   7.212 -2.6243 -0.4883  2.1584
 1160SOL    HW215117   2.547   3.821   7.348 -1.4653  0.5360 -1.9087
 1161SOL     OW15118   4.735   1.649   6.570 -0.3856  1.2810  0.4919
 1161SOL    HW115119   0.056   1.605   6.506 -0.3491  3.7279 -1.1455
 1161SOL    HW215120   4.652   1.603   6.553  0.4508  0.3453 -1.0467
 1162SOL     OW15121   4.292   3.299  17.735 -0.2437 -0.3714  0.3356
 1162SOL    HW115122   4.376   3.321   0.037 -0.4837  1.2549 -0.0490
 1162SOL    HW215123   4.232   3.288   0.070 -0.7795 -0.2246 -0.0825
 1163SOL     OW15124   2.769   2.253   7.007  0.4051  0.1018  0.4139
 1163SOL    HW115125   2.686   2.288   7.038 -0.5249  0.6887 -2.7230
 1163SOL    HW215126   2.788   2.207   7.089 -0.1598 -0.6993  0.0908
 1164SOL     OW15127   0.217   0.712   4.012  0.5908 -0.0472  0.4908
 1164SOL    HW115128   0.223   0.808   4.004  1.3851  0.0770  2.9114
 1164SOL    HW215129   0.183   0.704   4.101  1.9531 -1.9594  0.8325
 1165SOL     OW15130   3.939   2.188   3.326 -0.3432  0.0745 -0.0960
 1165SOL    HW115131   3.974   2.249   3.392 -0.2953  2.2213 -2.1088
 1165SOL    HW215132   3.964   2.103   3.361  1.5933  0.1075 -1.4297
 1166SOL     OW15133   3.149   0.146   4.420 -0.3107 -0.2271  0.4315
 1166SOL    HW115134   3.218   0.197   4.378 -3.2641  1.2003 -2.7078
 1166SOL    HW215135   3.178   0.055   4.409 -0.7000 -0.1061 -1.5761
 1167SOL     OW15136   4.343   1.076   9.060 -0.0573 -0.3280  0.9045
 1167SOL    HW115137   4.425   1.106   9.100  0.7646 -1.1134 -0.1764
 1167SOL    HW215138   4.366   0.989   9.027 -1.5542 -0.9140  1.4484
 1168SOL     OW15139   4.590   4.571   9.261 -0.0077  0.0852  0.1379
 1168SOL    HW115140   4.645   4.507   9.216  0.3654 -0.2233  1.0427
 1168SOL    HW215141   4.605   4.558   9.355  2.5731  0.4267 -0.2295
 1169SOL     OW15142   2.454   3.413   7.668  0.1293 -0.3127  0.1136
 1169SOL    HW115143   2.541   3.424   7.630  0.9151 -0.2117  1.9606
 1169SOL    HW215144   2.478   3.442   7.756 -2.1793  2.4183 -0.1538
 1170SOL     OW15145   2.680   2.381   0.993  0.4574  0.3929  0.1029
 1170SOL    HW115146   2.595   2.365   1.035  0.4381 -0.6388 -0.3482
 1170SOL    HW215147   2.655   2.429   0.914  0.2686 -1.0059 -0.6879
 1171SOL     OW15148   1.801   0.262   3.934  0.0857  0.8063 -0.2329
 1171SOL    HW115149   1.858   0.202   3.982  1.9225  0.7138 -2.5222
 1171SOL    HW215150   1.826   0.349   3.962 -0.7567  0.1791  2.5110
 1172SOL     OW15151   2.879   4.362   6.214 -0.4683 -0.0051 -0.5953
 1172SOL    HW115152   2.920   4.359   6.127 -0.6936 -1.2053 -0.6650
 1172SOL    HW215153   2.799   4.412   6.195 -1.2532 -1.4680 -1.2011
 1173SOL     OW15154   2.578   2.332   2.494  0.0083 -0.3162  0.3736
 1173SOL    HW115155   2.615   2.319   2.406  1.4538 -2.5336  1.2926
 1173SOL    HW215156   2.630   2.404   2.529  1.2620 -0.4413 -1.1911
 1174SOL     OW15157   0.863   3.962   5.542  0.5866  0.2139 -0.9178
 1174SOL    HW115158   0.835   4.005   5.623  1.1403 -0.2975 -0.4587
 1174SOL    HW215159   0.957   3.976   5.552  0.9347 -2.1241 -0.8837
 1175SOL     OW15160   1.784   4.721  15.702  0.1515 -0.5005  0.0793
 1175SOL    HW115161   1.757   0.074  15.674 -1.3728 -0.0931  2.7505
 1175SOL    HW215162   1.733   4.660  15.650  0.0408  1.4333 -2.0673
 1176SOL     OW15163   1.766   4.010   8.734  0.0618  0.0916  0.2892
 1176SOL    HW115164   1.757   3.987   8.827 -0.9008  1.0429  0.4378
 1176SOL    HW215165   1.687   3.978   8.690 -1.4251  1.3430  2.0238
 1177SOL     OW15166   2.792   4.262   9.710  0.3183 -0.5252 -0.6114
 1177SOL    HW115167   2.820   4.231   9.623 -0.6961  0.3789 -1.2565
 1177SOL    HW215168   2.708   4.221   9.727 -0.9050  2.4707  0.4519
 1178SOL     OW15169   2.589   3.863   5.143 -0.3995 -0.6558 -0.3696
 1178SOL    HW115170   2.519   3.844   5.081  0.1019 -1.3354 -0.7347
 1178SOL    HW215171   2.631   3.777   5.148 -1.2260 -1.0913 -0.8896
 1179SOL     OW15172   1.479   3.134  14.414  0.4880 -0.0105  1.1690
 1179SOL    HW115173   1.574   3.136  14.403  0.2371  1.2016 -0.8359
 1179SOL    HW215174   1.451   3.045  14.394  3.2335 -0.4900 -0.5575
 1180SOL     OW15175   0.268   0.153   7.279  0.0663 -0.1612 -0.5160
 1180SOL    HW115176   0.233   0.226   7.228 -0.3868 -0.1962 -0.2583
 1180SOL    HW215177   0.255   0.191   7.365  1.7006 -1.4868  0.3238
 1181SOL     OW15178   1.074   4.699   2.190  0.3030 -0.2401  0.1357
 1181SOL    HW115179   1.108   4.642   2.121  0.1653 -1.6283  1.2084
 1181SOL    HW215180   1.046   4.639   2.259  1.0292  0.1760  0.7804
 1182SOL     OW15181   3.708   3.770   3.907  0.0809 -0.5739 -0.0430
 1182SOL    HW115182   3.639   3.737   3.849  0.3275 -2.8626  0.9997
 1182SOL    HW215183   3.704   3.705   3.976  3.0131 -2.2676 -1.4844
 1183SOL     OW15184   3.815   3.718   7.275 -0.1380 -0.2408 -0.1224
 1183SOL    HW115185   3.731   3.736   7.232  0.1918  0.4604 -0.4692
 1183SOL    HW215186   3.861   3.707   7.192 -0.0212  0.9324 -0.2118
 1184SOL     OW15187   2.033   3.990   8.004 -0.3726 -0.2582  0.2440
 1184SOL    HW115188   1.993   3.916   8.050  1.0380 -0.0670  1.7863
 1184SOL    HW215189   1.968   4.061   8.004  0.9269  0.9239 -0.9234
 1185SOL     OW15190   4.694   0.440   3.343 -0.3950  0.2266 -0.1124
 1185SOL    HW115191   4.724   0.497   3.414 -0.4932 -0.4814  0.5001
 1185SOL    HW215192   0.038   0.388   3.328 -0.9784 -0.6078 -0.3037
 1186SOL     OW15193   0.922   3.800  13.772 -0.1028  0.3115 -0.0834
 1186SOL    HW115194   0.919   3.813  13.677 -0.5057  0.6731 -0.0200
 1186SOL    HW215195   0.886   3.885  13.798 -0.4599  0.2219 -0.2763
 1187SOL     OW15196   2.960   3.292   5.299 -0.4428  0.2791  0.2126
 1187SOL    HW115197   2.900   3.339   5.357 -0.5580  0.8824 -0.4027
 1187SOL    HW215198   2.952   3.207   5.343 -0.0035  1.3546  2.3739
 1188SOL     OW15199   0.908   2.356   3.154  0.0318  0.0214 -0.8077
 1188SOL    HW115200   0.926   2.332   3.064  0.9566 -1.3724 -0.2583
 1188SOL    HW215201   0.984   2.412   3.171 -0.0537 -0.3152  0.7244
 1189SOL     OW15202   2.062   3.286   5.802 -0.1324  0.2525  0.0855
 1189SOL    HW115203   2.086   3.260   5.891 -1.1453  2.9226  1.1191
 1189SOL    HW215204   1.979   3.330   5.821 -1.2219 -0.5594 -2.7329
 1190SOL     OW15205   4.149   4.561   3.438  0.1778  0.0015  0.0213
 1190SOL    HW115206   4.069   4.513   3.417  0.6625 -1.2056  0.9664
 1190SOL    HW215207   4.146   4.626   3.368 -0.6839  0.0617  0.1157
 1191SOL     OW15208   3.580   0.667   2.377 -0.4231 -0.1565  0.2758
 1191SOL    HW115209   3.538   0.586   2.405  2.8944 -1.6918  0.7506
 1191SOL    HW215210   3.502   0.722   2.369  0.8115  0.8779 -4.9356
 1192SOL     OW15211   3.461   0.577  13.275  0.2578  0.0374  0.0891
 1192SOL    HW115212   3.537   0.543  13.227 -0.5347  0.2453 -1.3091
 1192SOL    HW215213   3.393   0.591  13.209  0.1626  0.1101  0.2036
 1193SOL     OW15214   2.113   1.439   7.098  0.1599 -0.3885  0.3192
 1193SOL    HW115215   2.181   1.466   7.036 -1.1698  0.2355 -0.8648
 1193SOL    HW215216   2.092   1.352   7.065  1.0227 -1.0484  1.5088
 1194SOL     OW15217   3.509   4.688   6.047 -0.1211  0.8149 -0.1947
 1194SOL    HW115218   3.567   4.642   6.108  3.3294  2.0706 -2.4950
 1194SOL    HW215219   3.495   0.040   6.085  0.7174  1.2110 -0.7816
 1195SOL     OW15220   4.023   3.214  13.605  0.0158 -0.3059 -0.1491
 1195SOL    HW115221   4.082   3.158  13.655 -0.8743 -0.8177  0.3299
 1195SOL    HW215222   3.985   3.277  13.666  0.8829  0.5281 -0.4803
 1196SOL     OW15223   1.710   4.002  15.049 -0.4983  0.7699  0.3082
 1196SOL    HW115224   1.733   3.909  15.048  0.2588  0.9628  0.3053
 1196SOL    HW215225   1.636   3.997  14.988  1.2013  0.2059 -1.7162
 1197SOL     OW15226   3.257   3.730  16.256 -0.1935  0.0060  0.0628
 1197SOL    HW115227   3.295   3.790  16.320 -0.0212 -0.0712  0.0343
 1197SOL    HW215228   3.235   3.792  16.186 -0.4408 -0.4026 -0.2207
 1198SOL     OW15229   1.807   3.450  15.189 -0.1575  0.4057 -0.3799
 1198SOL    HW115230   1.766   3.395  15.256  1.2526  1.2762  1.1817
 1198SOL    HW215231   1.773   3.414  15.106  0.4693  0.8209 -0.8082
 1199SOL     OW15232   3.914   0.850   8.131 -0.7174  0.7309 -0.2548
 1199SOL    HW115233   3.894   0.937   8.097 -0.4935  0.9367  0.1342
 1199SOL    HW215234   3.840   0.801   8.095 -0.9524 -0.1001  1.3293
 1200SOL     OW15235   2.148   3.909   1.815  0.4904 -0.1599 -0.2322
 1200SOL    HW115236   2.075   3.861   1.852 -0.1938  0.6790 -0.4841
 1200SOL    HW215237   2.153   3.981   1.879 -1.2845  0.1828 -0.4777
 1201SOL     OW15238   2.673   3.339   4.058 -0.5046  0.4281  0.0215
 1201SOL    HW115239   2.626   3.356   4.139 -0.9037 -1.5510  0.2194
 1201SOL    HW215240   2.601   3.361   3.999 -0.6056  0.4245  0.1455
 1202SOL     OW15241   0.341   2.227   3.371  0.1508  0.4418  0.3832
 1202SOL    HW115242   0.426   2.262   3.343  0.9487 -0.1624  2.0702
 1202SOL    HW215243   0.344   2.202   3.463  0.1792 -2.1817 -0.3349
 1203SOL     OW15244   3.292   3.335   4.759  0.4576  0.1868  0.0357
 1203SOL    HW115245   3.228   3.294   4.701  0.4244 -0.5397  0.5793
 1203SOL    HW215246   3.255   3.406   4.812  1.3688  0.9677 -0.3660
 1204SOL     OW15247   1.230   3.505  11.743 -0.3783 -0.0668  0.4068
 1204SOL    HW115248   1.255   3.587  11.786 -1.5586 -0.1363  1.2207
 1204SOL    HW215249   1.301   3.482  11.684  0.1069  0.9682  0.5815
 1205SOL     OW15250   4.154   4.123   5.512  0.4151 -0.6373  0.4139
 1205SOL    HW115251   4.237   4.149   5.551  0.6891 -0.7789 -0.0803
 1205SOL    HW215252   4.148   4.195   5.449 -0.7971  0.2634  1.5537
 1206SOL     OW15253   1.582   0.270   6.344  0.3139 -0.4297 -0.2009
 1206SOL    HW115254   1.659   0.297   6.294 -1.1283  1.7032 -1.2010
 1206SOL    HW215255   1.569   0.177   6.325  3.3169 -0.7846 -0.5886
 1207SOL     OW15256   1.071   0.576  10.994 -0.4731  0.2007  0.2877
 1207SOL    HW115257   1.065   0.543  11.084 -0.0134 -0.1376  0.1987
 1207SOL    HW215258   1.092   0.668  11.009  2.4246 -0.3535 -0.3457
 1208SOL     OW15259   1.220   2.937   6.259  0.4752  0.2105  0.5474
 1208SOL    HW115260   1.204   2.988   6.179  1.9865  0.1077  0.1805
 1208SOL    HW215261   1.133   2.897   6.264  0.7761 -0.4679  0.3474
 1209SOL     OW15262   1.495   0.351   1.942 -0.5572 -0.3147 -0.6656
 1209SOL    HW115263   1.584   0.346   1.907 -0.0216 -1.7308  0.8885
 1209SOL    HW215264   1.464   0.262   1.924 -1.1125 -0.1937 -0.3276
 1210SOL     OW15265   3.725   1.598   5.631  0.9382 -0.7962  0.1302
 1210SOL    HW115266   3.798   1.556   5.585  0.0291 -2.2238 -0.0140
 1210SOL    HW215267   3.761   1.628   5.714 -0.0623 -0.3247  0.3899
 1211SOL     OW15268   3.462   0.438   4.522 -0.7169  0.1037 -0.2865
 1211SOL    HW115269   3.493   0.506   4.461 -1.3965  0.6470 -0.0246
 1211SOL    HW215270   3.446   0.362   4.468 -1.2616  0.5362 -0.7254
 1212SOL     OW15271   3.852   1.907   7.708  0.6262 -0.4639 -0.2037
 1212SOL    HW115272   3.929   1.939   7.661  1.4444 -1.9562  0.1336
 1212SOL    HW215273   3.887   1.875   7.791 -0.6682  0.9001  0.8873
 1213SOL     OW15274   4.677   3.700   8.988  0.4618 -0.4892  0.5324
 1213SOL    HW115275   4.638   3.769   8.935  0.4517 -1.5775 -0.8810
 1213SOL    HW215276   4.619   3.625   8.973  0.7209 -0.8502  1.3085
 1214SOL     OW15277   0.737   2.689  11.676  0.1948 -0.1248  0.4800
 1214SOL    HW115278   0.655   2.641  11.687 -0.2735  0.2864 -1.3202
 1214SOL    HW215279   0.709   2.780  11.665  0.9379  0.0297 -0.1147
 1215SOL     OW15280   3.677   2.325   2.953  0.3433 -0.1013 -0.7611
 1215SOL    HW115281   3.665   2.358   2.864 -1.3074  0.6310 -0.2549
 1215SOL    HW215282   3.763   2.355   2.984 -0.2945  1.7179 -0.7209
 1216SOL     OW15283   4.124   1.332   4.161  0.0686  0.2967  0.0413
 1216SOL    HW115284   4.153   1.248   4.197  2.8566  1.1974 -0.1070
 1216SOL    HW215285   4.098   1.379   4.241 -0.0898  0.8063 -0.3083
 1217SOL     OW15286   3.224   3.016   7.541  0.5261 -0.2918  0.2544
 1217SOL    HW115287   3.251   2.971   7.621  1.7074 -0.5731 -0.2985
 1217SOL    HW215288   3.288   3.085   7.556 -1.0670  1.7097 -2.0214
 1218SOL     OW15289   0.419   2.234   6.364  0.2374  0.0728  0.1243
 1218SOL    HW115290   0.408   2.329   6.371  0.0816  0.2029 -1.8793
 1218SOL    HW215291   0.384   2.220   6.452  0.4550  2.6554  0.6034
 1219SOL     OW15292   2.665   2.275   8.174 -0.4931  0.2235  0.0568
 1219SOL    HW115293   2.759   2.286   8.159 -0.3253 -1.7198 -0.2945
 1219SOL    HW215294   2.671   2.195   8.225  1.6441  0.4356  0.1356
 1220SOL     OW15295   2.190   1.113   8.853  0.6146  0.8817  0.1582
 1220SOL    HW115296   2.275   1.087   8.820  0.1516 -0.8417  0.3493
 1220SOL    HW215297   2.218   1.170   8.925  1.8637 -1.7399  1.7203
 1221SOL     OW15298   3.517   2.171  11.278 -0.5240  0.0044 -0.0035
 1221SOL    HW115299   3.479   2.084  11.265 -2.4177  1.3124 -3.6125
 1221SOL    HW215300   3.492   2.197  11.366 -1.4671  1.4713 -0.6960
 1222SOL     OW15301   1.329   2.039   6.816 -0.2438 -0.1741  0.2052
 1222SOL    HW115302   1.248   2.011   6.859 -1.5331 -1.4192 -3.0107
 1222SOL    HW215303   1.391   2.007   6.881 -0.0639 -0.5736 -0.1614
 1223SOL     OW15304   3.286   2.603   9.310  0.9180  0.1567  0.6090
 1223SOL    HW115305   3.217   2.587   9.374  0.1405  1.3906  0.0726
 1223SOL    HW215306   3.279   2.538   9.240  0.3854 -0.9654  1.6949
 1224SOL     OW15307   2.918   0.426   6.571 -0.5979 -0.2289  0.3486
 1224SOL    HW115308   2.987   0.362   6.555 -1.4139 -1.2544  0.9959
 1224SOL    HW215309   2.901   0.454   6.481  2.7213 -0.1184 -0.2715
 1225SOL     OW15310   3.118   1.372   6.441 -0.0371 -0.5725  0.0042
 1225SOL    HW115311   3.153   1.405   6.359 -0.3828  1.1994  0.5626
 1225SOL    HW215312   3.142   1.437   6.508  0.5333 -0.1606 -0.6099
 1226SOL     OW15313   2.638   2.118   8.841 -0.0617 -0.1459 -0.3513
 1226SOL    HW115314   2.689   2.176   8.784 -1.4346  2.0251  0.5953
 1226SOL    HW215315   2.558   2.171   8.850 -0.8806 -1.7092  1.3601
 1227SOL     OW15316   0.034   3.432  12.499 -0.1635 -0.2575  0.8868
 1227SOL    HW115317   0.029   3.434  12.404 -2.6761 -0.7894  0.9946
 1227SOL    HW215318   0.121   3.464  12.523 -0.7956  2.6541 -0.6690
 1228SOL     OW15319   2.924   3.024   4.868 -0.5722  0.5295 -0.3609
 1228SOL    HW115320   2.830   3.038   4.863 -0.6919 -0.4716 -0.9889
 1228SOL    HW215321   2.947   3.016   4.775  1.4376  2.0762  0.0023
 1229SOL     OW15322   1.950   1.447   0.417  0.3378 -0.1018 -0.5619
 1229SOL    HW115323   1.976   1.523   0.365  0.4386 -0.6761 -1.3412
 1229SOL    HW215324   2.022   1.444   0.480 -0.0927 -1.9754 -0.1536
 1230SOL     OW15325   4.544   3.901  13.179 -0.8034  0.0039  0.3866
 1230SOL    HW115326   4.557   3.995  13.186  0.7180 -0.0705 -1.3428
 1230SOL    HW215327   4.632   3.870  13.201 -0.5137 -0.0637 -0.8311
 1231SOL     OW15328   3.902   3.317   2.584 -0.4261 -0.3418  0.5756
 1231SOL    HW115329   3.832   3.302   2.520 -0.2145 -0.8833  0.4734
 1231SOL    HW215330   3.910   3.413   2.585 -1.8452 -0.2538  4.0147
 1232SOL     OW15331   0.111   1.500   7.391  0.9914  0.3394  0.2794
 1232SOL    HW115332   0.196   1.457   7.402  0.5060 -0.3841  1.1934
 1232SOL    HW215333   0.085   1.474   7.303  0.3753  0.5231  0.4084
 1233SOL     OW15334   3.518   4.213   1.517 -0.2652  0.2646 -0.1811
 1233SOL    HW115335   3.528   4.300   1.556  0.9997  0.9322 -2.0209
 1233SOL    HW215336   3.582   4.225   1.448  0.2308 -1.0085  0.0626
 1234SOL     OW15337   3.011   1.441   0.159 -0.1938 -0.5821  0.1382
 1234SOL    HW115338   3.060   1.397   0.089 -0.0931 -1.2851  0.6533
 1234SOL    HW215339   2.950   1.372   0.182  0.8647 -1.7207 -0.4844
 1235SOL     OW15340   1.777   1.584   4.038 -0.1975  0.0166 -0.1778
 1235SOL    HW115341   1.800   1.502   3.995  0.3924 -0.4887  1.1028
 1235SOL    HW215342   1.858   1.632   4.020 -0.4105  0.3372 -0.2769
 1236SOL     OW15343   3.014   0.604   5.963 -0.5689  0.3126 -0.5004
 1236SOL    HW115344   3.067   0.580   6.039 -0.1849  1.3236 -0.4515
 1236SOL    HW215345   3.004   0.519   5.920  1.1020  0.8183 -1.8811
 1237SOL     OW15346   1.155   1.918   2.481 -0.3448 -0.1764 -0.3584
 1237SOL    HW115347   1.185   2.005   2.452  3.1128 -0.3732  2.5767
 1237SOL    HW215348   1.086   1.932   2.547  0.2178  1.5242 -0.1292
 1238SOL     OW15349   1.038   4.283  17.168  0.1127  0.0826  0.3022
 1238SOL    HW115350   1.101   4.306  17.100  2.6912 -2.4369  1.8075
 1238SOL    HW215351   1.073   4.324  17.247 -1.9512  3.2889 -0.4614
 1239SOL     OW15352   0.815   2.812   1.157  0.3048  0.0764 -0.2519
 1239SOL    HW115353   0.739   2.757   1.138 -0.2780  1.0059 -0.6542
 1239SOL    HW215354   0.879   2.751   1.193 -1.0254 -1.4694 -0.5115
 1240SOL     OW15355   3.855   1.884  11.410  0.1558 -0.6386  0.3022
 1240SOL    HW115356   3.856   1.925  11.324  0.3292  0.1520  0.6729
 1240SOL    HW215357   3.794   1.939  11.460 -1.0269 -0.4003 -1.4334
 1241SOL     OW15358   0.435   2.698   5.459  0.4545  0.5662 -1.1421
 1241SOL    HW115359   0.413   2.605   5.459  0.2832  0.6067  1.5715
 1241SOL    HW215360   0.508   2.701   5.398  2.3891  0.2247  1.1920
 1242SOL     OW15361   3.732   0.476   9.533 -0.1619 -0.1085 -0.0890
 1242SOL    HW115362   3.687   0.548   9.578  0.3112  0.2517 -0.1900
 1242SOL    HW215363   3.822   0.509   9.538 -0.0549 -0.7678  2.0838
 1243SOL     OW15364   2.763   3.436   4.505 -0.4715 -0.1305 -0.8636
 1243SOL    HW115365   2.754   3.503   4.572  2.3046 -0.1002 -0.5021
 1243SOL    HW215366   2.684   3.433   4.452 -0.4512  1.3120 -0.9901
 1244SOL     OW15367   1.839   1.291  12.449 -0.8605  0.3715 -0.4984
 1244SOL    HW115368   1.897   1.340  12.390 -0.4066 -1.4411 -1.5456
 1244SOL    HW215369   1.890   1.211  12.463 -1.0630  0.2398 -0.5215
 1245SOL     OW15370   4.374   4.645   6.000 -0.9200 -0.3895 -0.6387
 1245SOL    HW115371   4.303   4.642   6.064 -0.8854  4.2930 -0.3430
 1245SOL    HW215372   4.425   4.720   6.029 -1.3286 -0.9339  1.4862
 1246SOL     OW15373   3.192   3.288   2.489  0.2076 -0.0844  0.2393
 1246SOL    HW115374   3.101   3.302   2.515 -0.0715  0.0963 -0.8639
 1246SOL    HW215375   3.189   3.206   2.441 -2.0011 -0.7327  1.4601
 1247SOL     OW15376   1.696   0.556   5.776 -0.6287  0.0881  0.2478
 1247SOL    HW115377   1.648   0.637   5.798  2.3849  1.2457  2.5312
 1247SOL    HW215378   1.780   0.588   5.743 -0.6411 -0.1547 -0.0218
 1248SOL     OW15379   3.368   0.577   6.282 -0.0776 -0.2582  0.0255
 1248SOL    HW115380   3.362   0.499   6.337  1.5137 -0.6646 -0.3960
 1248SOL    HW215381   3.274   0.595   6.278  0.1069  0.4339 -1.1449
 1249SOL     OW15382   2.023   3.478  16.728  0.2344  0.1323 -0.5920
 1249SOL    HW115383   2.096   3.467  16.668 -0.1967 -0.6450 -0.9698
 1249SOL    HW215384   1.957   3.421  16.688 -1.1240 -0.0065  1.8348
 1250SOL     OW15385   0.202   2.642   8.667 -0.4798  0.6931 -0.0820
 1250SOL    HW115386   0.148   2.664   8.743  0.4307 -2.3508  1.4373
 1250SOL    HW215387   0.165   2.703   8.602 -1.5521  0.7733  0.6125
 1251SOL     OW15388   2.524   4.084   4.720 -0.6357  0.0177 -0.4249
 1251SOL    HW115389   2.455   4.023   4.747 -1.6314  1.1199 -0.4845
 1251SOL    HW215390   2.518   4.154   4.786 -1.7189 -0.1981 -0.2884
 1252SOL     OW15391   2.073   2.975   1.747 -0.2093  0.2315 -0.3683
 1252SOL    HW115392   2.095   2.929   1.827 -0.0654 -1.4785 -1.3966
 1252SOL    HW215393   2.034   3.046   1.799 -0.7847  0.5749 -1.2645
 1253SOL     OW15394   4.317   0.215   4.889 -0.7249 -0.0750  0.3972
 1253SOL    HW115395   4.278   0.284   4.835  1.3787 -0.2132 -1.2781
 1253SOL    HW215396   4.278   0.144   4.838  1.8655 -1.8583  0.8966
 1254SOL     OW15397   3.435   1.853   5.834  0.1615  0.1507  0.7616
 1254SOL    HW115398   3.389   1.791   5.777  1.3290  0.0024 -0.0185
 1254SOL    HW215399   3.353   1.881   5.875 -0.8326  0.5722 -1.5175
 1255SOL     OW15400   2.855   4.147   1.281  0.3408  0.4303  0.7551
 1255SOL    HW115401   2.808   4.143   1.365 -0.5073 -1.5632  0.1795
 1255SOL    HW215402   2.827   4.231   1.246  0.4036 -1.0218 -2.7369
 1256SOL     OW15403   0.335   2.389   9.054 -0.0347  0.7999  0.0315
 1256SOL    HW115404   0.370   2.477   9.042 -0.0011  1.0690  2.0827
 1256SOL    HW215405   0.277   2.399   9.130 -0.0329  1.6608 -0.0894
 1257SOL     OW15406   1.709   2.611   1.492 -0.6734  0.1287 -0.0018
 1257SOL    HW115407   1.719   2.516   1.488 -0.0189  0.2090 -0.2917
 1257SOL    HW215408   1.733   2.621   1.584 -1.7206  0.8119  0.1956
 1258SOL     OW15409   1.164   1.343  13.606 -0.5738 -0.1571  0.2237
 1258SOL    HW115410   1.207   1.346  13.692 -0.9757 -0.9518  0.4532
 1258SOL    HW215411   1.080   1.300  13.622  0.4562 -2.6315 -1.0081
 1259SOL     OW15412   3.520   4.349  14.379  0.3779 -0.2758  0.1224
 1259SOL    HW115413   3.444   4.310  14.338  1.0182 -1.8723  0.4511
 1259SOL    HW215414   3.491   4.343  14.470  2.5209  1.4361  0.9110
 1260SOL     OW15415   4.494   3.484  11.544  0.7368 -0.0236 -0.4927
 1260SOL    HW115416   4.452   3.569  11.530  1.0924  0.3779  0.8375
 1260SOL    HW215417   4.576   3.512  11.584  0.7456 -1.5487  0.5409
 1261SOL     OW15418   1.545   0.206   3.948 -0.4824  0.2812  0.5899
 1261SOL    HW115419   1.545   0.117   3.984  0.4348  0.3797  0.8327
 1261SOL    HW215420   1.639   0.218   3.933 -0.3714 -1.4941 -0.1261
 1262SOL     OW15421   2.934   0.692   2.947  0.4551  0.1381 -0.4135
 1262SOL    HW115422   2.885   0.727   2.873  0.2022  0.7079  0.0225
 1262SOL    HW215423   2.880   0.720   3.021  1.2185  0.8132 -0.1200
 1263SOL     OW15424   0.310   3.968   8.386 -0.0105 -0.1443  0.1201
 1263SOL    HW115425   0.235   4.006   8.341 -0.8267 -2.3473 -0.4133
 1263SOL    HW215426   0.327   3.884   8.344 -0.7445  0.1868 -0.8211
 1264SOL     OW15427   0.931   4.643   4.314 -0.0847 -0.2474 -1.2837
 1264SOL    HW115428   0.893   4.591   4.384  1.0114 -0.3084 -0.7307
 1264SOL    HW215429   0.852   4.688   4.283 -0.1979  1.4370  1.4518
 1265SOL     OW15430   4.482   2.939   8.821  0.3328  0.3170 -0.0766
 1265SOL    HW115431   4.515   3.029   8.830  0.2721  0.2907  0.4548
 1265SOL    HW215432   4.504   2.917   8.731  1.8714  0.1863  0.3281
 1266SOL     OW15433   4.585   0.215   2.331 -0.0300 -0.1250 -0.0159
 1266SOL    HW115434   4.620   0.136   2.290 -2.4243 -1.1405 -0.1291
 1266SOL    HW215435   4.581   0.192   2.424 -1.5743 -2.0952 -0.5716
 1267SOL     OW15436   0.564   2.445   3.644 -0.4924  0.3485 -0.0286
 1267SOL    HW115437   0.550   2.510   3.576 -0.1283  1.6165  1.1146
 1267SOL    HW215438   0.537   2.496   3.720  2.3784  1.3160  0.3389
 1268SOL     OW15439   3.844   2.544   4.232  0.2602  0.5640 -0.1935
 1268SOL    HW115440   3.854   2.583   4.319  1.7687  0.4322 -0.3113
 1268SOL    HW215441   3.758   2.576   4.203 -0.2773 -0.5920  0.1205
 1269SOL     OW15442   3.779   1.334   7.152  0.0513  0.0903 -0.5616
 1269SOL    HW115443   3.788   1.427   7.172  0.5782  0.2285 -1.3934
 1269SOL    HW215444   3.700   1.341   7.099  0.6143  1.2082 -1.2651
 1270SOL     OW15445   0.749   2.525   9.025  0.8889 -0.4203  0.3395
 1270SOL    HW115446   0.728   2.511   9.117  0.4685  0.4573  0.3794
 1270SOL    HW215447   0.708   2.450   8.981  2.0273 -0.8698  0.0531
 1271SOL     OW15448   3.882   1.296  17.315  0.0703  0.4381 -0.3844
 1271SOL    HW115449   3.831   1.365  17.358  2.0188  0.9725  1.0545
 1271SOL    HW215450   3.823   1.262  17.248 -1.7060  0.6781  1.0485
 1272SOL     OW15451   3.378   1.040   5.961 -0.4333 -0.0433 -0.3433
 1272SOL    HW115452   3.355   1.060   6.052  0.9818 -2.7589  0.6191
 1272SOL    HW215453   3.352   0.948   5.966  1.4955 -0.6465 -1.4623
 1273SOL     OW15454   0.629   4.594   1.811  0.6667  0.4121  0.0860
 1273SOL    HW115455   0.555   4.587   1.751  1.4278  2.5753 -1.1128
 1273SOL    HW215456   0.581   4.599   1.895  0.5104  2.0705 -0.0971
 1274SOL     OW15457   3.468   0.302  11.752  0.4928 -0.1270  0.3718
 1274SOL    HW115458   3.476   0.215  11.791 -0.6559 -0.6756 -0.6081
 1274SOL    HW215459   3.518   0.279  11.674  0.3123 -0.6931  0.4208
 1275SOL     OW15460   4.129   3.684   7.238 -0.4194 -0.3163 -0.2224
 1275SOL    HW115461   4.076   3.763   7.222 -1.2709 -1.2256 -1.8780
 1275SOL    HW215462   4.155   3.658   7.149 -0.8825 -1.2624 -0.0773
 1276SOL     OW15463   3.185   1.903   5.911  0.0083  0.2264 -0.1347
 1276SOL    HW115464   3.138   1.985   5.894 -1.4111 -0.7931 -1.0493
 1276SOL    HW215465   3.124   1.853   5.858 -0.4528  0.4513  0.1782
 1277SOL     OW15466   3.748   0.273  10.865  0.2224  0.2767  0.5351
 1277SOL    HW115467   3.717   0.362  10.878 -0.8800  0.2128 -1.6881
 1277SOL    HW215468   3.689   0.229  10.926 -0.5237 -1.6625 -1.5589
 1278SOL     OW15469   2.405   2.280   8.835 -0.1481  0.2095 -0.2233
 1278SOL    HW115470   2.391   2.367   8.872  1.9431 -0.1245  1.2923
 1278SOL    HW215471   2.326   2.236   8.867  0.2141 -1.0557 -1.0588
 1279SOL     OW15472   0.313   3.493  11.785 -0.4893 -0.1920  0.2365
 1279SOL    HW115473   0.403   3.461  11.782 -0.0996  0.8119  1.0997
 1279SOL    HW215474   0.302   3.552  11.711 -0.3953 -1.0168 -0.4388
 1280SOL     OW15475   2.405   4.453  11.089 -0.5972  0.0198  0.5075
 1280SOL    HW115476   2.441   4.508  11.158  1.2782  0.3343 -0.7185
 1280SOL    HW215477   2.332   4.417  11.141 -0.5473 -0.4345  0.2671
 1281SOL     OW15478   4.126   1.937   6.162  0.0198  0.2581  0.1168
 1281SOL    HW115479   4.117   1.993   6.085 -3.7431 -2.7226 -1.5672
 1281SOL    HW215480   4.216   1.960   6.188  0.4370 -0.4131 -0.7217
 1282SOL     OW15481   1.407   2.692  13.409  0.3201  0.1282 -0.3118
 1282SOL    HW115482   1.489   2.649  13.384  0.4159 -0.8524  1.7111
 1282SOL    HW215483   1.364   2.618  13.453  1.2683  0.6743  1.4966
 1283SOL     OW15484   3.886   2.789   2.117  0.2346 -0.0933  0.2168
 1283SOL    HW115485   3.900   2.702   2.153  0.6518  0.4254  1.3102
 1283SOL    HW215486   3.849   2.769   2.031 -1.8603  0.2945  1.0322
 1284SOL     OW15487   2.392   2.260   4.297  0.0488 -0.1566  0.1226
 1284SOL    HW115488   2.400   2.258   4.393 -0.6046  2.0990  0.2218
 1284SOL    HW215489   2.368   2.169   4.284  0.0507 -0.1867  0.3206
 1285SOL     OW15490   3.898   0.518   5.278  0.1602  0.1564 -0.5035
 1285SOL    HW115491   3.825   0.523   5.340 -1.3833  1.9295 -2.4689
 1285SOL    HW215492   3.844   0.496   5.202 -1.7228  1.3278  0.4913
 1286SOL     OW15493   0.520   2.803   2.158 -0.4813  0.0613 -0.1707
 1286SOL    HW115494   0.501   2.711   2.175 -0.4582  0.1899  0.5371
 1286SOL    HW215495   0.443   2.849   2.192 -0.2769  0.6191 -0.4501
 1287SOL     OW15496   3.190   1.039   7.035  0.1647 -0.1938  0.2825
 1287SOL    HW115497   3.227   1.073   6.953 -0.1943  0.6269  0.4590
 1287SOL    HW215498   3.151   0.955   7.011  2.2206 -1.5583  1.6089
 1288SOL     OW15499   0.774   3.849   5.956  0.4338  0.3054  0.1316
 1288SOL    HW115500   0.779   3.821   5.865  1.4081  0.1031  0.2487
 1288SOL    HW215501   0.685   3.884   5.962  0.3738  0.5264 -2.0351
 1289SOL     OW15502   0.763   4.676   3.440 -0.2806 -0.3638  0.1592
 1289SOL    HW115503   0.779   4.617   3.366 -0.6648 -1.2412  0.7600
 1289SOL    HW215504   0.670   4.686   3.422 -0.7376 -1.9481  1.5970
 1290SOL     OW15505   3.734   0.299   4.959 -0.1563  0.1127  0.1354
 1290SOL    HW115506   3.674   0.358   4.915  1.5147  1.6405 -0.0671
 1290SOL    HW215507   3.722   0.224   4.900 -2.9420 -0.7475  1.7644
 1291SOL     OW15508   2.789   0.411   6.022 -0.2329 -0.0859  0.0741
 1291SOL    HW115509   2.775   0.495   5.978 -0.5871 -0.1890 -0.0095
 1291SOL    HW215510   2.820   0.349   5.956  0.3802 -1.4709  1.6661
 1292SOL     OW15511   3.075   2.622   4.421 -0.3568 -0.1233  0.1111
 1292SOL    HW115512   2.984   2.598   4.404 -0.3312 -0.5867  0.6550
 1292SOL    HW215513   3.067   2.670   4.504  0.4133  1.6237 -0.8173
 1293SOL     OW15514   3.091   0.301   7.731  0.2468  0.2393 -0.1134
 1293SOL    HW115515   3.088   0.240   7.657 -1.7206  2.0525 -1.5439
 1293SOL    HW215516   2.998   0.301   7.752  0.4809  0.9510  0.9036
 1294SOL     OW15517   1.869   2.375  14.217 -0.4417 -0.0357 -0.2373
 1294SOL    HW115518   1.817   2.296  14.204  1.2406 -1.0248 -1.0211
 1294SOL    HW215519   1.863   2.421  14.133  0.4189 -1.8109 -1.2707
 1295SOL     OW15520   0.520   1.549  12.884  0.1145 -0.1961 -0.2389
 1295SOL    HW115521   0.561   1.506  12.959 -1.3972 -0.4015  0.4695
 1295SOL    HW215522   0.581   1.621  12.868  0.0415 -0.2662 -0.8207
 1296SOL     OW15523   3.698   2.096   7.856  0.3565 -0.0321  0.4681
 1296SOL    HW115524   3.630   2.112   7.790 -1.3075 -0.5661  2.0331
 1296SOL    HW215525   3.761   2.064   7.791 -0.7625 -1.0758 -0.1291
 1297SOL     OW15526   1.660   0.216  16.623  0.7283  0.0573 -0.0873
 1297SOL    HW115527   1.747   0.243  16.594  1.0637  2.6703  3.4642
 1297SOL    HW215528   1.663   0.229  16.718  2.0126  1.6851 -0.3518
 1298SOL     OW15529   0.520   4.133   5.528  0.1789  0.3911 -0.2650
 1298SOL    HW115530   0.579   4.196   5.570  1.7937 -1.4281  0.2231
 1298SOL    HW215531   0.570   4.053   5.544  0.9342  0.6974 -1.0586
 1299SOL     OW15532   0.474   3.346   2.899  0.1021 -0.1984  0.0152
 1299SOL    HW115533   0.491   3.289   2.975 -0.1084  1.2922  1.1704
 1299SOL    HW215534   0.556   3.395   2.891 -0.2047  0.6080  1.7916
 1300SOL     OW15535   0.930   0.186   8.979  0.6671 -0.2918  0.4919
 1300SOL    HW115536   0.898   0.103   8.944  1.0950 -0.4710  0.5318
 1300SOL    HW215537   0.915   0.167   9.071 -3.2059  2.8290  0.4995
 1301SOL     OW15538   1.165   0.997   2.029  0.5558  0.0307  0.0162
 1301SOL    HW115539   1.219   0.931   1.985 -0.7220 -1.3551  0.5334
 1301SOL    HW215540   1.080   0.954   2.026  0.9167 -0.6218 -0.8527
 1302SOL     OW15541   2.310   0.675   8.715  0.1851  0.1710  0.5233
 1302SOL    HW115542   2.302   0.582   8.736 -2.1819  0.2907  0.2087
 1302SOL    HW215543   2.284   0.717   8.798  0.6582 -0.8668  1.2012
 1303SOL     OW15544   4.490   1.900   1.977  0.3610  0.7200  0.5331
 1303SOL    HW115545   4.395   1.904   1.988  0.3173  1.4419 -0.0694
 1303SOL    HW215546   4.508   1.966   1.910  1.2666  0.9124  0.9755
 1304SOL     OW15547   0.700   0.156   3.621 -0.3836 -0.0807 -0.3644
 1304SOL    HW115548   0.696   0.105   3.701  0.0234  0.7021  0.1610
 1304SOL    HW215549   0.716   0.083   3.562  0.4807 -1.0343  1.0722
 1305SOL     OW15550   2.762   4.430  11.801 -0.0981  0.1513  0.4847
 1305SOL    HW115551   2.779   4.438  11.707 -3.9402 -2.2167 -0.3704
 1305SOL    HW215552   2.667   4.441  11.798 -0.1998 -0.6815  0.5406
 1306SOL     OW15553   2.375   2.680   2.236  0.4882 -0.1164 -0.1594
 1306SOL    HW115554   2.388   2.746   2.168  0.8985 -1.6874 -1.6071
 1306SOL    HW215555   2.343   2.605   2.186 -0.8054  1.2849 -1.4372
 1307SOL     OW15556   3.420   0.204   9.297  0.0534  0.3218 -0.0925
 1307SOL    HW115557   3.509   0.231   9.322 -0.5069  1.3321  0.7983
 1307SOL    HW215558   3.374   0.286   9.315 -0.9329 -0.6294  1.7411
 1308SOL     OW15559   1.608   3.029  14.787 -0.3493  0.0566  0.3351
 1308SOL    HW115560   1.573   2.983  14.711  0.0080  1.1746 -0.5074
 1308SOL    HW215561   1.689   2.982  14.809 -0.5900 -0.5937 -0.1867
 1309SOL     OW15562   1.828   1.168   7.112 -0.5287 -0.1656 -0.0968
 1309SOL    HW115563   1.904   1.195   7.061 -1.8356  0.0823 -1.9280
 1309SOL    HW215564   1.843   1.074   7.124  0.8151 -0.0141 -0.6337
 1310SOL     OW15565   1.318   4.303   4.056  0.1026  0.1500  0.0344
 1310SOL    HW115566   1.335   4.255   4.137  0.1184 -0.4102 -0.3019
 1310SOL    HW215567   1.317   4.237   3.987 -1.1992 -2.7317  2.8570
 1311SOL     OW15568   0.834   2.033  10.341  0.2986  0.3384 -0.4224
 1311SOL    HW115569   0.762   2.095  10.342  0.6240  0.6539  1.7821
 1311SOL    HW215570   0.909   2.079  10.378  0.1242 -0.0870  0.4533
 1312SOL     OW15571   1.647   0.818   2.007  0.3358  0.4178 -0.0553
 1312SOL    HW115572   1.631   0.747   2.068 -0.7398  1.2052  0.5876
 1312SOL    HW215573   1.686   0.765   1.938  1.9830 -1.7958  2.5765
 1313SOL     OW15574   3.485   2.320   7.080  0.0322 -0.1923  0.3040
 1313SOL    HW115575   3.539   2.270   7.141  0.0372 -1.0591 -0.4193
 1313SOL    HW215576   3.506   2.410   7.104  1.5566 -0.5620  0.3441
 1314SOL     OW15577   4.205   3.049   1.269  0.4989 -0.3062  0.2596
 1314SOL    HW115578   4.230   3.127   1.219 -2.1833 -0.6155 -1.5779
 1314SOL    HW215579   4.242   2.979   1.215 -0.5103 -0.4101 -0.2969
 1315SOL     OW15580   1.004   3.790  13.495  0.1101  0.6487  0.1790
 1315SOL    HW115581   0.993   3.705  13.451  0.0248  0.0119  1.4198
 1315SOL    HW215582   0.980   3.849  13.424 -0.1660 -1.1165 -1.1880
 1316SOL     OW15583   1.692   1.310   4.178 -0.4063 -0.2092 -0.2940
 1316SOL    HW115584   1.651   1.301   4.092 -0.0918  0.9336 -0.5682
 1316SOL    HW215585   1.712   1.404   4.178 -0.5800 -0.1667  1.3724
 1317SOL     OW15586   1.203   1.453   2.649 -0.1370  0.0345  0.4353
 1317SOL    HW115587   1.169   1.383   2.593  0.9201  0.8327 -1.1980
 1317SOL    HW215588   1.279   1.420   2.697  1.8592  3.1030 -0.6042
 1318SOL     OW15589   0.745   0.149   1.033 -0.4447  0.0470  0.2191
 1318SOL    HW115590   0.724   0.116   1.120 -1.5853  0.0173 -0.0702
 1318SOL    HW215591   0.655   0.161   1.003 -0.4870 -0.3101  0.2104
 1319SOL     OW15592   0.752   0.143   2.394 -0.3923 -0.1550  0.0071
 1319SOL    HW115593   0.745   0.152   2.299 -1.4875  3.0005  0.3847
 1319SOL    HW215594   0.843   0.169   2.402 -0.5423  0.1918  0.5706
 1320SOL     OW15595   3.280   4.429   6.646 -0.4478 -0.0787 -0.1174
 1320SOL    HW115596   3.195   4.455   6.613 -0.0318  0.3748 -0.8277
 1320SOL    HW215597   3.258   4.418   6.739 -2.1837 -1.4819 -0.6957
 1321SOL     OW15598   3.667   1.950   3.178  0.9039  0.3793 -0.4263
 1321SOL    HW115599   3.710   1.907   3.252  1.5219  1.1056 -0.3690
 1321SOL    HW215600   3.578   1.967   3.211  1.1974  1.7009 -0.3096
 1322SOL     OW15601   0.989   1.742   0.868 -0.3353 -0.0301  0.6222
 1322SOL    HW115602   1.071   1.717   0.824 -0.9706  0.3620 -0.7786
 1322SOL    HW215603   1.028   1.785   0.944  0.5842 -2.5074  1.5360
 1323SOL     OW15604   0.624   3.586   5.816 -0.4560  0.0610 -0.2267
 1323SOL    HW115605   0.570   3.663   5.799  1.8226  1.2630 -1.9622
 1323SOL    HW215606   0.648   3.563   5.726 -0.0551 -0.9723  0.1469
 1324SOL     OW15607   3.941   1.433   3.846 -0.2707 -0.5995 -0.0104
 1324SOL    HW115608   4.027   1.402   3.874  0.6672  1.1355 -0.9104
 1324SOL    HW215609   3.957   1.451   3.753  0.6019 -1.2209  0.0170
 1325SOL     OW15610   2.741   3.788   0.823  0.1124  0.3160 -0.3652
 1325SOL    HW115611   2.656   3.766   0.861 -0.7928 -0.2807 -2.7264
 1325SOL    HW215612   2.764   3.700   0.796 -1.7825 -0.2678 -0.0514
 1326SOL     OW15613   1.108   2.494   1.857  0.1923 -0.1358 -0.3313
 1326SOL    HW115614   1.179   2.529   1.803 -1.9434  1.8426 -1.8021
 1326SOL    HW215615   1.067   2.428   1.801  0.5889 -1.4678  0.9416
 1327SOL     OW15616   3.305   4.309   3.642  0.1945 -0.3885  0.1124
 1327SOL    HW115617   3.297   4.244   3.712  0.0482 -0.4658  0.0223
 1327SOL    HW215618   3.211   4.316   3.626  0.3492  2.6735  0.3908
 1328SOL     OW15619   1.631   4.333  10.212  0.0171  0.5986 -0.3773
 1328SOL    HW115620   1.607   4.246  10.180  0.5004  0.8644 -1.4537
 1328SOL    HW215621   1.693   4.308  10.281 -0.1520 -0.6823 -0.6862
 1329SOL     OW15622   2.417   1.789   8.152  0.0755  0.2602  0.1865
 1329SOL    HW115623   2.394   1.703   8.187 -1.5781  0.3148 -0.7667
 1329SOL    HW215624   2.342   1.847   8.164  3.0434  3.8095  1.6823
 1330SOL     OW15625   4.331   3.972  12.173 -0.7016  0.4264  0.4162
 1330SOL    HW115626   4.239   3.995  12.160 -0.8814 -0.9490 -0.7641
 1330SOL    HW215627   4.374   4.045  12.129 -0.9830  1.4315  1.7829
 1331SOL     OW15628   3.816   1.610   8.832  0.2696  0.8716 -0.6998
 1331SOL    HW115629   3.845   1.525   8.800  4.3409  2.1017 -0.2565
 1331SOL    HW215630   3.723   1.590   8.826  0.4035 -0.0032  0.0361
 1332SOL     OW15631   1.695   4.522   5.663  0.3262 -0.4947 -0.3688
 1332SOL    HW115632   1.732   4.583   5.599  2.9315 -0.0951  1.5234
 1332SOL    HW215633   1.646   4.589   5.712 -1.4090 -1.5561 -0.6617
 1333SOL     OW15634   0.956   3.981   3.992 -0.8638 -0.5385 -0.1465
 1333SOL    HW115635   0.908   4.062   3.978 -2.6249 -1.3766  1.0650
 1333SOL    HW215636   1.013   4.016   4.059  0.1697 -0.0478 -1.2932
 1334SOL     OW15637   2.415   2.110  11.830 -0.2435 -0.0263 -0.2263
 1334SOL    HW115638   2.383   2.199  11.812 -1.2766 -0.2136  0.6688
 1334SOL    HW215639   2.483   2.097  11.764  0.2686 -1.8039  0.6459
 1335SOL     OW15640   2.796   2.217   0.166 -0.0281  0.2803  0.4155
 1335SOL    HW115641   2.702   2.238   0.165 -0.0404  0.1399 -1.6015
 1335SOL    HW215642   2.797   2.125   0.193 -1.5772 -0.3763 -1.7458
 1336SOL     OW15643   4.058   1.415   4.839 -0.2018 -0.1437  0.2134
 1336SOL    HW115644   4.139   1.369   4.861 -0.9174 -2.2852 -1.6684
 1336SOL    HW215645   4.024   1.428   4.928 -0.6996  0.2378 -0.0333
 1337SOL     OW15646   0.285   4.112   9.380  0.2701 -0.1216  0.6924
 1337SOL    HW115647   0.373   4.086   9.409  0.4257 -1.1191 -0.6962
 1337SOL    HW215648   0.237   4.134   9.460 -1.3886 -2.1998  0.2701
 1338SOL     OW15649   2.631   4.351   1.161 -0.2351  0.5092 -0.4052
 1338SOL    HW115650   2.713   4.382   1.200 -0.1745  0.9028 -0.8361
 1338SOL    HW215651   2.655   4.338   1.069 -3.3003  0.3381 -1.1895
 1339SOL     OW15652   2.145   2.882  13.834  0.0882  0.4965 -0.3815
 1339SOL    HW115653   2.145   2.823  13.909  0.3294 -0.0694 -0.8212
 1339SOL    HW215654   2.235   2.862  13.808 -0.3344 -0.4639 -1.1389
 1340SOL     OW15655   2.766   3.220   6.472 -0.3811 -0.2478 -0.0338
 1340SOL    HW115656   2.738   3.194   6.384 -1.2718 -0.5830  0.3582
 1340SOL    HW215657   2.792   3.136   6.510  2.3974  0.6885  0.1578
 1341SOL     OW15658   4.388   0.890  17.641 -0.3173  0.0504  0.1507
 1341SOL    HW115659   4.408   0.832  17.714 -2.3424 -2.1127 -1.0147
 1341SOL    HW215660   4.416   0.826  17.576 -0.8460 -0.6590  0.6174
 1342SOL     OW15661   3.725   3.606   8.885  0.2081  0.3298  0.1622
 1342SOL    HW115662   3.793   3.582   8.947  0.5941  0.6994 -0.1217
 1342SOL    HW215663   3.658   3.548   8.922 -1.2910  0.8382 -1.7521
 1343SOL     OW15664   4.395   1.137  13.371  0.0617  0.3237  0.4584
 1343SOL    HW115665   4.368   1.171  13.457 -1.9821  0.6173 -0.2957
 1343SOL    HW215666   4.389   1.224  13.332 -0.2238  0.7685  1.4840
 1344SOL     OW15667   1.586   1.203   4.772  0.3440 -0.0513  0.0749
 1344SOL    HW115668   1.510   1.235   4.724 -1.3308 -0.7942  2.2280
 1344SOL    HW215669   1.615   1.285   4.813 -0.7062  0.5041 -0.3043
 1345SOL     OW15670   4.462   0.198   6.352 -0.0364 -0.0877  0.3774
 1345SOL    HW115671   4.377   0.233   6.326  0.2810  1.8294  1.9370
 1345SOL    HW215672   4.477   0.150   6.271 -3.3029  3.8280 -2.5334
 1346SOL     OW15673   1.482   4.336   3.494 -0.4666  0.7067  0.2017
 1346SOL    HW115674   1.421   4.392   3.542  0.5582  0.2067  2.0860
 1346SOL    HW215675   1.431   4.294   3.425  0.0593  3.4180 -1.8345
 1347SOL     OW15676   1.905   2.974  10.613 -0.0195  0.0275 -0.1904
 1347SOL    HW115677   1.906   3.038  10.542 -0.4027  1.4146  1.0479
 1347SOL    HW215678   1.984   2.998  10.662 -0.5773 -0.5233  0.9848
 1348SOL     OW15679   2.130   1.884   8.323  0.4371 -0.2084  0.4041
 1348SOL    HW115680   2.065   1.930   8.376  1.9142  0.8321  1.3362
 1348SOL    HW215681   2.168   1.831   8.394  1.6786  0.5735  0.3349
 1349SOL     OW15682   4.675   4.689   4.837 -0.8551 -0.6339  0.1434
 1349SOL    HW115683   4.606   4.634   4.799 -0.7578 -1.3059  0.9411
 1349SOL    HW215684   4.709   4.713   4.751  0.9512  0.3455  1.1296
 1350SOL     OW15685   3.344   1.656  12.947 -0.0540 -0.2726  0.1528
 1350SOL    HW115686   3.321   1.595  13.017  1.9025 -1.3291 -0.1275
 1350SOL    HW215687   3.409   1.705  12.997  0.0469  1.6339 -1.8551
 1351SOL     OW15688   0.424   4.691   3.592 -0.3767  0.1744 -0.5092
 1351SOL    HW115689   0.482   4.684   3.668  0.9194 -0.9600 -1.6113
 1351SOL    HW215690   0.343   4.684   3.643 -0.2330 -0.0732 -0.3119
 1352SOL     OW15691   0.536   3.078   8.349 -0.4491 -0.0919 -0.1051
 1352SOL    HW115692   0.617   3.070   8.400 -1.8686 -0.7721  2.0554
 1352SOL    HW215693   0.508   2.990   8.374  0.9770 -1.2059 -2.4111
 1353SOL     OW15694   1.219   0.613   2.584  0.1857 -0.2587 -0.9600
 1353SOL    HW115695   1.270   0.548   2.537  0.5730 -0.9401  0.4121
 1353SOL    HW215696   1.288   0.663   2.627 -0.7063 -0.9728  1.2693
 1354SOL     OW15697   3.579   1.018  10.911 -0.2393 -0.0024  0.1794
 1354SOL    HW115698   3.484   1.010  10.921 -0.1491 -0.7307  0.4172
 1354SOL    HW215699   3.605   0.982  10.995  2.0452 -1.2589 -1.0897
 1355SOL     OW15700   0.340   1.154  11.928 -0.8360 -0.3083  0.2102
 1355SOL    HW115701   0.410   1.098  11.894  0.3240 -0.0174  2.1205
 1355SOL    HW215702   0.388   1.192  12.002 -0.0243  1.0972 -1.0154
 1356SOL     OW15703   3.155   1.307  16.131 -0.0491 -0.3490 -0.4441
 1356SOL    HW115704   3.221   1.363  16.172 -0.0476 -0.0009 -0.9246
 1356SOL    HW215705   3.207   1.258  16.068 -0.7440 -1.7559  0.0820
 1357SOL     OW15706   1.940   2.778   3.102  0.1417 -0.4757 -0.1832
 1357SOL    HW115707   1.879   2.718   3.147 -2.9097  1.8963 -1.1369
 1357SOL    HW215708   1.890   2.780   3.020 -1.2130 -1.5075  0.5984
 1358SOL     OW15709   1.095   3.835   8.918 -0.0168 -0.0876  0.4771
 1358SOL    HW115710   1.145   3.755   8.935 -0.9351 -0.7215  0.1972
 1358SOL    HW215711   1.101   3.853   8.824 -0.7785  0.1780  0.4805
 1359SOL     OW15712   0.298   2.033   6.785 -0.0797  0.4258  0.5847
 1359SOL    HW115713   0.349   1.959   6.752  0.5375  0.5982  1.1385
 1359SOL    HW215714   0.302   2.014   6.879  1.5232 -0.1502  0.4082
 1360SOL     OW15715   2.271   0.265  10.702  0.0620 -0.4882 -0.3117
 1360SOL    HW115716   2.217   0.312  10.766 -0.6026 -1.8487  0.1115
 1360SOL    HW215717   2.215   0.263  10.625 -0.5061 -0.4909  0.0997
 1361SOL     OW15718   1.321   0.543   1.996 -0.3872  0.3962 -0.1494
 1361SOL    HW115719   1.369   0.460   1.992  1.0982  1.3145 -1.2155
 1361SOL    HW215720   1.246   0.516   1.942  0.9514 -0.2695 -1.6759
 1362SOL     OW15721   2.452   3.379   4.625  0.2745  0.2756 -0.5230
 1362SOL    HW115722   2.411   3.308   4.674 -2.3399  1.8493 -0.4282
 1362SOL    HW215723   2.412   3.463   4.645 -0.0279 -0.0619  0.2663
 1363SOL     OW15724   2.004   3.536  12.412  0.8675 -0.4341  0.5742
 1363SOL    HW115725   2.009   3.624  12.375 -0.6013  0.2535  2.0543
 1363SOL    HW215726   1.914   3.514  12.389  0.8562  0.9260 -0.7094
 1364SOL     OW15727   2.730   4.021   4.208 -0.1648 -0.0490  0.2218
 1364SOL    HW115728   2.782   3.947   4.178 -2.3669 -1.2670 -0.5431
 1364SOL    HW215729   2.705   3.987   4.294 -0.4354 -0.0946  0.1249
 1365SOL     OW15730   4.311   0.712   7.859 -0.0662  0.2267  0.5659
 1365SOL    HW115731   4.235   0.770   7.852  0.2073  0.7804  2.2595
 1365SOL    HW215732   4.377   0.767   7.901 -0.0653  0.6247  0.0505
 1366SOL     OW15733   2.717   2.700   3.214  0.2220 -0.2878 -0.5222
 1366SOL    HW115734   2.767   2.762   3.161  0.7459  0.3434  0.7355
 1366SOL    HW215735   2.784   2.632   3.214 -1.4545 -1.9857 -3.4753
 1367SOL     OW15736   3.961   3.795   8.696 -0.2101 -0.1467 -0.1334
 1367SOL    HW115737   3.878   3.805   8.743 -0.2980 -1.6595  0.0206
 1367SOL    HW215738   3.993   3.711   8.727 -1.8809 -0.6359  0.2517
 1368SOL     OW15739   2.412   2.801   2.009 -0.2334 -0.5544  0.1713
 1368SOL    HW115740   2.466   2.849   1.946 -1.9202 -0.2657 -1.0692
 1368SOL    HW215741   2.324   2.816   1.976  0.3158 -1.2652 -1.6045
 1369SOL     OW15742   1.616   0.823  12.990  0.3281  0.8759 -0.0992
 1369SOL    HW115743   1.677   0.889  13.022 -0.1073  0.6689  1.1498
 1369SOL    HW215744   1.591   0.869  12.909  0.8441  1.2835 -0.0307
 1370SOL     OW15745   4.319   0.970   9.437 -0.3168  0.0171  0.7510
 1370SOL    HW115746   4.354   1.033   9.374 -0.8014 -1.6327 -1.1582
 1370SOL    HW215747   4.262   1.029   9.486  0.0698  0.6387  0.4491
 1371SOL     OW15748   0.974   4.677   9.408  0.0676 -0.4695  0.6726
 1371SOL    HW115749   0.994   4.621   9.483 -1.1276  1.7552  2.6262
 1371SOL    HW215750   1.031   4.639   9.341  0.6449 -1.1182  1.5157
 1372SOL     OW15751   0.715   0.116   4.955 -0.2127  0.2054 -0.0851
 1372SOL    HW115752   0.640   0.063   4.981  0.3274 -0.2628  0.5262
 1372SOL    HW215753   0.678   0.178   4.892 -1.5047 -0.2121  0.2763
 1373SOL     OW15754   0.764   2.910   6.486 -0.0511  0.0691 -0.2123
 1373SOL    HW115755   0.706   2.964   6.540 -1.6539 -2.0194  0.1455
 1373SOL    HW215756   0.852   2.947   6.492  0.2533 -1.1903  2.8512
 1374SOL     OW15757   4.518   2.014   6.854  0.0062  0.3318 -0.0173
 1374SOL    HW115758   4.509   2.104   6.824 -0.5534  0.0375 -0.7222
 1374SOL    HW215759   4.440   2.018   6.909  0.7861  0.7752  1.0557
 1375SOL     OW15760   4.303   0.073   7.468 -0.5471  0.2956 -0.3372
 1375SOL    HW115761   4.289   4.715   7.489  0.3248  0.4900  1.0670
 1375SOL    HW215762   4.315   0.109   7.555 -1.7824 -0.2293  0.0536
 1376SOL     OW15763   0.917   1.370   0.791  0.4657  0.4620  0.4830
 1376SOL    HW115764   0.875   1.388   0.707  0.7827  1.1809  0.4795
 1376SOL    HW215765   1.009   1.384   0.769  0.5095 -0.5170  0.0393
 1377SOL     OW15766   4.207   0.284   1.972 -0.0704  0.3524 -0.6301
 1377SOL    HW115767   4.255   0.345   2.027  0.6872  0.2172 -1.1371
 1377SOL    HW215768   4.237   0.205   2.017 -2.9082 -0.6111 -0.4358
 1378SOL     OW15769   0.993   1.459   1.871 -0.0949 -0.1536 -0.2488
 1378SOL    HW115770   0.950   1.513   1.937 -0.0525 -0.7949  0.3115
 1378SOL    HW215771   1.025   1.383   1.920 -2.3091 -0.3620  0.8971
 1379SOL     OW15772   1.435   0.196   5.277 -0.3312 -0.4731 -0.3141
 1379SOL    HW115773   1.432   0.128   5.210  0.2863  1.3974 -2.2395
 1379SOL    HW215774   1.520   0.236   5.257  0.2677 -0.1603  2.8414
 1380SOL     OW15775   0.790   2.883   4.338  0.2666 -0.4325  0.0143
 1380SOL    HW115776   0.877   2.858   4.368  0.9613  0.1632 -1.4840
 1380SOL    HW215777   0.789   2.970   4.376  0.6390 -1.6202  2.7212
 1381SOL     OW15778   1.021   2.636   3.849  0.2167  0.2590 -0.6581
 1381SOL    HW115779   0.933   2.597   3.854  0.1077  0.3966 -1.4984
 1381SOL    HW215780   1.067   2.591   3.920 -0.5798 -1.7290 -1.4092
 1382SOL     OW15781   1.901   2.140  15.899  0.2636  0.4595 -0.4361
 1382SOL    HW115782   1.840   2.069  15.919  1.1266 -0.3461 -0.6369
 1382SOL    HW215783   1.982   2.093  15.877 -0.2944 -1.0923  0.7727
 1383SOL     OW15784   3.580   2.822   7.210  0.3273  0.4830  0.1731
 1383SOL    HW115785   3.566   2.814   7.304 -0.0818 -2.0846 -0.1278
 1383SOL    HW215786   3.666   2.865   7.210  1.1230 -1.1083  0.3178
 1384SOL     OW15787   2.493   2.229   1.088  0.6466 -0.0544 -0.1823
 1384SOL    HW115788   2.535   2.147   1.112 -0.4810 -0.6492 -0.2654
 1384SOL    HW215789   2.443   2.229   1.169  0.4039 -1.7694 -0.3518
 1385SOL     OW15790   0.769   1.137  14.356 -0.5524 -0.1152 -0.8060
 1385SOL    HW115791   0.860   1.110  14.345 -0.4675 -0.3536  0.5832
 1385SOL    HW215792   0.779   1.231  14.372 -0.1139  0.3155 -3.5256
 1386SOL     OW15793   3.167   3.548   2.267 -0.3387  0.2409  0.3266
 1386SOL    HW115794   3.078   3.576   2.245 -0.0481  0.5903 -0.3856
 1386SOL    HW215795   3.162   3.452   2.266  1.2448  0.2055 -2.2803
 1387SOL     OW15796   2.783   2.077   4.148  0.4738  0.2111  0.2761
 1387SOL    HW115797   2.760   2.159   4.104  2.8521 -0.4689 -2.1894
 1387SOL    HW215798   2.703   2.048   4.192 -1.3942  3.3989 -1.0205
 1388SOL     OW15799   2.561   1.027   5.817  0.3000  0.4594 -0.2851
 1388SOL    HW115800   2.605   1.002   5.736  2.3061 -1.2860  1.3597
 1388SOL    HW215801   2.522   1.105   5.776  0.5867  0.5056 -0.4695
 1389SOL     OW15802   0.677   0.897  11.986  0.2644 -0.1894 -0.1003
 1389SOL    HW115803   0.728   0.978  11.979 -0.1733  0.0415 -0.6113
 1389SOL    HW215804   0.629   0.904  11.904 -1.4238 -1.0024  0.8234
 1390SOL     OW15805   3.631   0.595   5.895 -0.0937  0.4263  0.1811
 1390SOL    HW115806   3.688   0.670   5.879  2.1256 -1.5156 -0.9461
 1390SOL    HW215807   3.546   0.638   5.897 -0.3144  0.0123 -0.3640
 1391SOL     OW15808   2.942   0.785  15.149 -0.4346  0.1376 -0.0043
 1391SOL    HW115809   2.861   0.738  15.128 -0.1550 -1.1605  1.8442
 1391SOL    HW215810   3.007   0.716  15.157 -0.0972  0.5710  1.0196
 1392SOL     OW15811   0.606   3.947   4.479  0.7086  0.1509  0.2676
 1392SOL    HW115812   0.695   3.982   4.477  1.3950 -1.4531  2.2087
 1392SOL    HW215813   0.555   4.006   4.423  0.3702  0.1947  0.6266
 1393SOL     OW15814   3.952   0.418   9.821  0.5863  0.2931 -0.2744
 1393SOL    HW115815   3.977   0.464   9.741  0.4712 -0.4147 -0.7170
 1393SOL    HW215816   3.871   0.468   9.835  0.0694  0.1129 -2.6700
 1394SOL     OW15817   0.058   4.450   0.821  0.4999 -0.4092  0.2446
 1394SOL    HW115818   0.069   4.415   0.733  1.4229  2.5918 -0.8346
 1394SOL    HW215819   0.110   4.530   0.820 -0.2067  0.0586  0.4240
 1395SOL     OW15820   1.568   4.559  13.030 -0.0481  0.2643  0.4746
 1395SOL    HW115821   1.503   4.622  13.000  0.5942  1.5222  1.7053
 1395SOL    HW215822   1.582   4.598  13.116  0.1766  1.3490 -0.0414
 1396SOL     OW15823   3.632   3.578   2.719 -0.1562  0.2304  0.5395
 1396SOL    HW115824   3.652   3.586   2.626 -2.2660 -0.0648  0.0598
 1396SOL    HW215825   3.688   3.638   2.768 -0.8202  2.2913 -1.2103
 1397SOL     OW15826   2.851   2.758  11.007  0.1565 -0.1523 -0.5412
 1397SOL    HW115827   2.823   2.737  10.918 -0.1148 -1.6852 -0.0929
 1397SOL    HW215828   2.889   2.845  10.998 -0.0258  0.1778  1.8229
 1398SOL     OW15829   2.361   4.445   3.094  0.2875  0.1803 -0.1250
 1398SOL    HW115830   2.398   4.530   3.069  0.6474  0.1696  0.3651
 1398SOL    HW215831   2.433   4.383   3.108  0.4064  0.5128  0.7186
 1399SOL     OW15832   2.101   1.973   5.089 -0.3005  0.6257  0.3757
 1399SOL    HW115833   2.097   1.924   5.171  0.1854 -0.4409 -0.2444
 1399SOL    HW215834   2.009   2.000   5.086  0.3229  2.7451  0.4421
 1400SOL     OW15835   1.229   2.777  11.706  0.0151 -0.3926  0.5127
 1400SOL    HW115836   1.175   2.719  11.759  1.0060 -3.3486 -1.7186
 1400SOL    HW215837   1.311   2.729  11.689  0.4094  0.4601  0.0094
 1401SOL     OW15838   0.865   2.190  11.663 -0.1924  0.2317 -0.4437
 1401SOL    HW115839   0.925   2.188  11.589  0.8390  2.0950  0.3450
 1401SOL    HW215840   0.809   2.112  11.657 -0.0186  0.2360 -1.9829
 1402SOL     OW15841   1.084   4.678   3.839  0.1306 -0.6340  0.6205
 1402SOL    HW115842   1.071   0.038   3.846 -1.7684 -0.9294  1.0624
 1402SOL    HW215843   1.084   4.651   3.931  2.9819  1.1555  1.1653
 1403SOL     OW15844   4.088   1.026   5.116  0.2253  0.2354  0.1614
 1403SOL    HW115845   4.021   0.969   5.154  1.4413 -1.7121 -0.6148
 1403SOL    HW215846   4.135   1.046   5.196 -0.8112 -2.6085  1.4667
 1404SOL     OW15847   2.584   1.602   2.373  0.3418 -0.2898  0.4041
 1404SOL    HW115848   2.633   1.683   2.389  1.1635 -0.6757 -0.1585
 1404SOL    HW215849   2.519   1.631   2.309 -0.2303 -1.5552  0.4053
 1405SOL     OW15850   3.999   2.035  14.110 -0.2771  0.9412  0.0446
 1405SOL    HW115851   4.059   2.094  14.156 -0.5702  0.9610  0.3982
 1405SOL    HW215852   4.036   2.039  14.021  1.1303 -0.9472  0.5350
 1406SOL     OW15853   3.760   4.202   5.960  0.0014  0.4632 -0.7291
 1406SOL    HW115854   3.774   4.119   5.915  1.1636  0.3652 -0.2113
 1406SOL    HW215855   3.721   4.173   6.043  0.8736 -1.5000 -0.9988
 1407SOL     OW15856   0.480   4.030   7.898 -0.3084  0.1200 -0.7067
 1407SOL    HW115857   0.414   3.963   7.877  2.3908 -2.6622 -0.3339
 1407SOL    HW215858   0.420   4.102   7.917 -0.7907 -0.2314 -0.8921
 1408SOL     OW15859   2.845   3.362   9.289  0.2224  0.3515  0.4274
 1408SOL    HW115860   2.797   3.375   9.371  0.4350  1.2991  0.3968
 1408SOL    HW215861   2.791   3.293   9.251 -0.7659  0.4649  1.6207
 1409SOL     OW15862   3.963   1.233   5.971 -0.5379  0.4238  0.1989
 1409SOL    HW115863   3.876   1.272   5.982 -0.8917 -0.2836 -0.1026
 1409SOL    HW215864   4.007   1.315   5.949 -0.5130  0.6330  1.0229
 1410SOL     OW15865   2.237   0.694   1.991  0.0914 -0.0850  0.0612
 1410SOL    HW115866   2.161   0.642   2.014  0.2116 -0.1834  0.2334
 1410SOL    HW215867   2.215   0.758   2.059 -1.4061 -0.1462 -0.3628
 1411SOL     OW15868   1.468   4.010  13.594  0.7020  0.1282 -0.1845
 1411SOL    HW115869   1.428   3.924  13.601  0.3143  0.2899 -0.3887
 1411SOL    HW215870   1.392   4.069  13.603  0.1887 -0.3138 -1.6560
 1412SOL     OW15871   1.872   3.493  17.111  0.1657  0.0023  0.0271
 1412SOL    HW115872   1.881   3.398  17.106 -1.5308 -0.1712  0.5137
 1412SOL    HW215873   1.799   3.509  17.171  0.3659 -0.3247  0.3567
 1413SOL     OW15874   1.027   0.488  13.304  0.1192 -0.2000  0.0644
 1413SOL    HW115875   1.006   0.401  13.270  3.1921 -0.4836 -1.1251
 1413SOL    HW215876   0.940   0.527  13.308 -0.2792 -1.3959  2.4681
 1414SOL     OW15877   2.830   2.509  14.778 -0.0328  0.0792 -0.5958
 1414SOL    HW115878   2.852   2.427  14.824  0.8303  1.8811  2.2078
 1414SOL    HW215879   2.735   2.494  14.775  0.1795 -1.2478 -0.9549
 1415SOL     OW15880   2.596   0.281   7.321  0.2141 -0.2207  0.4514
 1415SOL    HW115881   2.544   0.233   7.386  2.0917 -1.5927  0.9421
 1415SOL    HW215882   2.598   0.371   7.352 -0.1249 -0.0308 -0.0685
 1416SOL     OW15883   2.480   4.195   9.669 -0.0862 -0.7630  0.3309
 1416SOL    HW115884   2.396   4.150   9.678  0.9534 -2.7328  0.0272
 1416SOL    HW215885   2.533   4.148   9.605  0.7648 -0.6789  0.9787
 1417SOL     OW15886   3.527   3.816  10.140  0.3359  0.2832  0.8524
 1417SOL    HW115887   3.587   3.882  10.174 -1.0422  0.3250  3.1741
 1417SOL    HW215888   3.440   3.854  10.149  0.5707  1.3334 -1.1796
 1418SOL     OW15889   1.573   3.254  11.395 -0.4829 -0.4023 -0.0527
 1418SOL    HW115890   1.657   3.298  11.405  0.7778 -2.4865 -1.4718
 1418SOL    HW215891   1.519   3.328  11.367 -1.2666 -0.1924  1.9698
 1419SOL     OW15892   3.425   4.316  15.198 -0.0051 -0.3034  0.4182
 1419SOL    HW115893   3.383   4.231  15.188 -3.1817  1.2346  0.7368
 1419SOL    HW215894   3.380   4.356  15.272  2.5197 -0.9834  2.3340
 1420SOL     OW15895   4.508   1.600   9.615 -0.0079  0.6545 -0.1713
 1420SOL    HW115896   4.431   1.653   9.593  0.1109  1.1852  0.6928
 1420SOL    HW215897   4.499   1.594   9.710 -2.9518 -1.9928 -0.6197
 1421SOL     OW15898   3.513   4.400   3.246  0.0982 -0.0366 -0.3506
 1421SOL    HW115899   3.534   4.329   3.186 -0.2174  0.1800 -0.7194
 1421SOL    HW215900   3.425   4.428   3.219  0.3385 -1.1453 -2.2243
 1422SOL     OW15901   1.200   4.463   5.595  0.7471  0.3237 -0.9075
 1422SOL    HW115902   1.234   4.375   5.604 -0.3490  0.0785  0.8453
 1422SOL    HW215903   1.282   4.512   5.588 -0.7795  3.1892  0.8570
 1423SOL     OW15904   4.353   2.147   9.502  0.5168  0.9583 -0.0995
 1423SOL    HW115905   4.393   2.210   9.442  1.6502  0.4854  0.1525
 1423SOL    HW215906   4.264   2.181   9.504  0.9417  2.0283  0.8418
 1424SOL     OW15907   1.220   0.694   1.484  0.6597  0.0763  0.0327
 1424SOL    HW115908   1.136   0.729   1.455  0.1259 -2.5653 -1.6550
 1424SOL    HW215909   1.236   0.765   1.545 -1.0576  2.0208 -1.7946
 1425SOL     OW15910   1.859   3.739   2.661 -0.8280 -0.6776 -0.2567
 1425SOL    HW115911   1.934   3.725   2.602 -0.8365  1.8396 -0.8505
 1425SOL    HW215912   1.819   3.815   2.619 -0.6706  0.0955  1.0209
 1426SOL     OW15913   1.020   2.193   9.776 -0.5296  0.3313 -0.1708
 1426SOL    HW115914   1.073   2.213   9.853 -2.6961  2.7549  0.6877
 1426SOL    HW215915   0.952   2.259   9.791  0.2724  1.2270 -0.5155
 1427SOL     OW15916   0.446   0.434   2.554 -0.0661  0.0443  0.3205
 1427SOL    HW115917   0.422   0.526   2.565  1.0531  0.2808  0.8385
 1427SOL    HW215918   0.519   0.443   2.493 -0.7641  0.1569 -0.5011
 1428SOL     OW15919   3.990   2.798   3.406 -0.4331  0.4820  0.0586
 1428SOL    HW115920   3.980   2.703   3.409 -1.0133  0.4248 -3.3818
 1428SOL    HW215921   4.082   2.815   3.424 -1.1365  1.8740  2.3057
 1429SOL     OW15922   0.087   1.100  13.284  0.3059  0.1418  0.4408
 1429SOL    HW115923   4.733   1.082  13.254  1.2888 -1.4406 -1.5537
 1429SOL    HW215924   0.139   1.047  13.223  0.3418 -0.7703  1.2634
 1430SOL     OW15925   4.694   4.439   2.135  0.3538  0.2128  0.0170
 1430SOL    HW115926   4.661   4.517   2.181  2.1478  0.1636  1.4035
 1430SOL    HW215927   0.034   4.433   2.194 -0.7667  2.0293  1.6483
 1431SOL     OW15928   0.665   4.098  10.796  0.1376  0.0143 -0.1409
 1431SOL    HW115929   0.679   4.148  10.715  2.8008 -0.8667 -0.2391
 1431SOL    HW215930   0.707   4.013  10.783 -0.8767 -0.2133 -1.8587
 1432SOL     OW15931   0.015   2.779   9.121 -0.6683  0.1777  0.1884
 1432SOL    HW115932   4.662   2.809   9.100  0.1686  2.3787 -0.2146
 1432SOL    HW215933   0.001   2.702   9.175  0.8435 -0.0333  0.2804
 1433SOL     OW15934   1.697   3.412  13.811  0.1998  0.1041 -0.0746
 1433SOL    HW115935   1.671   3.394  13.721 -3.7539  2.9600  0.5063
 1433SOL    HW215936   1.691   3.505  13.833  1.1188  0.3682 -0.9801
 1434SOL     OW15937   2.986   2.247  11.801 -0.0371 -0.2358  0.9123
 1434SOL    HW115938   3.000   2.176  11.863 -0.9800 -0.2692  1.0823
 1434SOL    HW215939   3.065   2.302  11.800  0.3543 -0.8019  0.3529
 1435SOL     OW15940   4.584   1.465   2.100 -0.2943 -0.3809 -0.4573
 1435SOL    HW115941   4.665   1.417   2.079  1.1877  1.8540  0.1944
 1435SOL    HW215942   4.558   1.399   2.165  1.0926  1.1949  1.6882
 1436SOL     OW15943   0.711   0.785   9.226 -0.2546  0.2827 -0.2352
 1436SOL    HW115944   0.807   0.779   9.225 -0.1417  1.5987  2.7529
 1436SOL    HW215945   0.696   0.855   9.289 -1.7842  0.2315 -0.5371
 1437SOL     OW15946   3.502   1.862  16.927 -0.1680  0.0301  0.6121
 1437SOL    HW115947   3.453   1.906  16.858 -3.2118 -0.7597  2.2668
 1437SOL    HW215948   3.552   1.935  16.964  0.7514  1.3010 -3.1941
 1438SOL     OW15949   0.576   1.921   2.757  0.8401  0.0147  0.7564
 1438SOL    HW115950   0.641   1.986   2.782 -1.2621  2.2376  0.5134
 1438SOL    HW215951   0.600   1.894   2.669 -1.2317  0.4574  0.0451
 1439SOL     OW15952   0.563   1.292   4.429 -0.6377 -0.6527 -0.2182
 1439SOL    HW115953   0.615   1.331   4.358  0.2377 -0.6896  0.3979
 1439SOL    HW215954   0.635   1.273   4.489  1.1889  0.1703 -2.0987
 1440SOL     OW15955   4.595   3.199   4.852 -0.1623 -0.5174  0.4332
 1440SOL    HW115956   4.592   3.231   4.942 -0.2231 -0.6828  0.4889
 1440SOL    HW215957   4.598   3.105   4.866 -1.5492 -0.6005  0.1352
 1441SOL     OW15958   3.023   2.712   5.974 -0.4836 -0.5321  0.4074
 1441SOL    HW115959   3.000   2.632   6.022  0.7304 -0.9136  0.3698
 1441SOL    HW215960   3.094   2.681   5.917  1.9485  2.2463  1.8787
 1442SOL     OW15961   3.984   3.807   4.672  0.2531 -0.0213  0.1543
 1442SOL    HW115962   4.006   3.843   4.758  3.0404 -0.5988 -0.3296
 1442SOL    HW215963   3.980   3.884   4.615 -0.6715 -1.1776 -1.3386
 1443SOL     OW15964   1.885   0.694   5.649  0.5888 -0.2905  0.6274
 1443SOL    HW115965   1.864   0.787   5.660  0.6034  0.0412 -2.2342
 1443SOL    HW215966   1.972   0.705   5.612 -0.3401 -1.6934 -1.9818
 1444SOL     OW15967   4.352   0.067   7.968  0.4967 -0.5810 -0.6987
 1444SOL    HW115968   4.373   0.025   8.052 -1.0046  2.2300  1.0785
 1444SOL    HW215969   4.319   4.727   7.919 -0.6853 -0.0129 -0.7675
 1445SOL     OW15970   1.127   3.587  16.199  0.4783 -0.2704  0.0801
 1445SOL    HW115971   1.174   3.503  16.199 -1.7933 -1.5376 -1.0784
 1445SOL    HW215972   1.035   3.564  16.189  0.2416 -0.3386  2.5072
 1446SOL     OW15973   1.618   2.568  15.027 -0.4027  0.5000 -0.3883
 1446SOL    HW115974   1.695   2.611  15.065 -1.8026  1.5447  1.2744
 1446SOL    HW215975   1.562   2.600  15.097 -0.1859  0.7751 -0.3368
 1447SOL     OW15976   4.078   2.001  17.416  0.0113  0.1477  0.0764
 1447SOL    HW115977   3.996   2.046  17.437  0.0105 -0.9244  2.4395
 1447SOL    HW215978   4.142   2.066  17.389  0.5111  0.0390  1.0118
 1448SOL     OW15979   1.719   4.162   6.172  0.2500  0.8456  0.4214
 1448SOL    HW115980   1.688   4.213   6.247  3.1747  0.5872  1.8128
 1448SOL    HW215981   1.689   4.223   6.104  1.4752 -0.9148 -1.7097
 1449SOL     OW15982   0.472   2.452   1.907 -0.1226 -0.1743 -0.3442
 1449SOL    HW115983   0.512   2.535   1.880 -1.1884 -0.4533 -2.7597
 1449SOL    HW215984   0.535   2.388   1.875  1.5381  1.0141  0.5353
 1450SOL     OW15985   4.051   1.477   3.598  0.2737 -0.0184  0.7148
 1450SOL    HW115986   4.019   1.457   3.510 -0.1994 -0.6285  1.0268
 1450SOL    HW215987   4.146   1.476   3.586  0.2560  0.4352  0.5201
 1451SOL     OW15988   3.337   3.556   3.973  0.9260 -0.3186  0.6443
 1451SOL    HW115989   3.273   3.596   4.032 -1.8189 -1.3330 -1.6523
 1451SOL    HW215990   3.298   3.469   3.966  0.6061 -0.2870  1.9385
 1452SOL     OW15991   0.694   3.320  11.541 -0.3656 -0.4388 -0.1701
 1452SOL    HW115992   0.599   3.320  11.531 -0.5304 -1.6692  1.3351
 1452SOL    HW215993   0.714   3.230  11.565 -0.2710 -0.5365 -0.6231
 1453SOL     OW15994   2.796   1.220  16.994 -0.2699 -0.4375  0.0098
 1453SOL    HW115995   2.877   1.217  16.944 -1.5937  2.4510 -2.2811
 1453SOL    HW215996   2.800   1.301  17.046  1.0175 -1.3405  1.3245
 1454SOL     OW15997   1.329   2.201   1.713 -0.4381  0.1589  0.2479
 1454SOL    HW115998   1.369   2.227   1.630  0.6076 -0.8625  0.4244
 1454SOL    HW215999   1.338   2.106   1.720  0.2627  0.4040  2.6168
 1455SOL     OW16000   1.212   2.499  14.494 -0.3775  0.1270 -0.4119
 1455SOL    HW116001   1.132   2.460  14.531  0.4686 -0.2122  1.0548
 1455SOL    HW216002   1.225   2.441  14.418  1.6706 -0.3243  0.2862
 1456SOL     OW16003   2.273   3.194   1.285  0.3247  0.1607  0.5027
 1456SOL    HW116004   2.278   3.245   1.366  0.0554 -0.2925  0.7989
 1456SOL    HW216005   2.353   3.216   1.236  2.0263 -1.7914  2.4317
 1457SOL     OW16006   2.671   3.494   1.418 -0.1941  0.4782 -0.5505
 1457SOL    HW116007   2.734   3.534   1.358  1.4223  2.0530  2.2217
 1457SOL    HW216008   2.610   3.568   1.423  1.5342  1.8896 -0.4835
 1458SOL     OW16009   1.087   2.822   3.538  0.4359 -0.2126 -0.3402
 1458SOL    HW116010   0.998   2.827   3.504  0.6941 -0.3901 -1.0481
 1458SOL    HW216011   1.094   2.734   3.577 -1.5811 -0.3815 -0.3813
 1459SOL     OW16012   1.392   3.175   1.949  0.3096  0.3004  0.1942
 1459SOL    HW116013   1.324   3.109   1.935 -0.2601  0.8520  0.3230
 1459SOL    HW216014   1.374   3.169   2.042 -1.3593 -0.3392 -0.1717
 1460SOL     OW16015   2.586   0.002  12.460 -0.4684 -0.2548 -0.3455
 1460SOL    HW116016   2.606   4.643  12.456  2.0202  0.2738 -0.5817
 1460SOL    HW216017   2.539   0.020  12.378 -0.5072 -2.0839 -0.7220
 1461SOL     OW16018   3.128   1.921   8.399  0.0509 -0.1165  0.4745
 1461SOL    HW116019   3.149   1.939   8.307  2.4131 -1.9402  0.6466
 1461SOL    HW216020   3.211   1.933   8.445  0.8374 -0.8683 -0.7290
 1462SOL     OW16021   0.415   3.578  10.856 -0.4478 -0.2576  0.1064
 1462SOL    HW116022   0.366   3.610  10.932  0.1345 -1.6166  1.0419
 1462SOL    HW216023   0.456   3.655  10.817 -1.9172  0.4693  0.0084
 1463SOL     OW16024   4.638   1.459  13.538 -0.6865  0.1998 -0.6070
 1463SOL    HW116025   4.729   1.434  13.519 -0.5585 -0.1680  0.4705
 1463SOL    HW216026   4.601   1.497  13.459 -0.9164 -0.0016 -0.5943
 1464SOL     OW16027   3.416   4.465  13.439 -0.1197 -0.5188  0.5960
 1464SOL    HW116028   3.343   4.413  13.471 -0.2378 -1.3705 -1.0536
 1464SOL    HW216029   3.370   4.495  13.361  0.1933  0.7585  0.9015
 1465SOL     OW16030   2.793   2.826   7.042  0.5478  0.1135  0.5748
 1465SOL    HW116031   2.739   2.750   7.021  0.8454  0.2419 -0.6429
 1465SOL    HW216032   2.806   2.812   7.136  2.6183  2.3067  0.6257
 1466SOL     OW16033   4.022   1.941   7.350 -1.1532  0.0039  0.2098
 1466SOL    HW116034   4.114   1.912   7.357 -1.8481 -2.6203 -1.5761
 1466SOL    HW216035   3.989   1.869   7.296  0.8280 -0.6624 -0.1536
 1467SOL     OW16036   3.824   2.556   5.811  0.1022  0.1484 -0.0707
 1467SOL    HW116037   3.870   2.479   5.778  0.1028  0.3415 -0.5214
 1467SOL    HW216038   3.835   2.624   5.744 -2.7064 -1.2995 -1.9995
 1468SOL     OW16039   1.464   1.930   7.852  0.0118  0.4128 -0.0540
 1468SOL    HW116040   1.482   1.851   7.904  0.2607 -0.0130 -0.7799
 1468SOL    HW216041   1.465   1.997   7.920  0.9008 -0.5557  0.8927
 1469SOL     OW16042   3.548   2.302   6.551  0.0402 -0.3636 -0.5143
 1469SOL    HW116043   3.555   2.353   6.632  1.4485 -1.5322  0.0888
 1469SOL    HW216044   3.640   2.278   6.543  0.8198  2.1143  1.0590
 1470SOL     OW16045   1.286   2.302   6.765  0.5443  0.0410 -0.5111
 1470SOL    HW116046   1.317   2.212   6.779  0.9284  0.4069  1.0142
 1470SOL    HW216047   1.196   2.309   6.796  1.4194  1.0939  1.8016
 1471SOL     OW16048   4.163   4.688   6.485  0.5142  0.1655 -0.1911
 1471SOL    HW116049   4.202   0.007   6.554 -3.1753  1.7096  0.6867
 1471SOL    HW216050   4.236   4.659   6.430 -2.7632 -1.9597 -3.4195
 1472SOL     OW16051   0.200   4.440  12.233 -0.4750 -0.6844 -0.1277
 1472SOL    HW116052   0.198   4.376  12.303 -1.6593  1.1724  1.5188
 1472SOL    HW216053   0.261   4.502  12.273  0.6095 -3.3088  2.2553
 1473SOL     OW16054   1.929   4.555   3.423  0.3615 -0.0239  0.0852
 1473SOL    HW116055   1.994   4.520   3.483  0.6392  0.1625 -0.1062
 1473SOL    HW216056   1.882   4.609   3.488 -0.4489 -0.5283 -0.0866
 1474SOL     OW16057   3.734   1.624   5.926  0.3723 -0.4304 -0.2118
 1474SOL    HW116058   3.644   1.638   5.957 -0.0055 -1.4026 -0.8489
 1474SOL    HW216059   3.750   1.534   5.956 -3.1111 -0.6254  1.0723
 1475SOL     OW16060   0.192   0.549   9.014 -0.0179  0.0418  0.1801
 1475SOL    HW116061   0.130   0.531   9.084 -1.1438 -2.0039 -1.3282
 1475SOL    HW216062   0.209   0.641   9.035 -0.5754  0.0370  0.6427
 1476SOL     OW16063   0.809   1.196  13.499  0.4890  0.3107  0.4738
 1476SOL    HW116064   0.818   1.272  13.558 -0.2602  0.7644 -0.0030
 1476SOL    HW216065   0.855   1.124  13.542 -1.3709 -1.0588  0.1612
 1477SOL     OW16066   3.928   1.091   8.038  0.1722 -0.4678  0.0447
 1477SOL    HW116067   3.925   1.158   8.106 -1.8152  0.1758 -0.6741
 1477SOL    HW216068   3.893   1.131   7.958 -2.2754 -0.5172  1.0790
 1478SOL     OW16069   4.309   3.689  11.612  0.3809  0.5461  0.7686
 1478SOL    HW116070   4.287   3.779  11.587 -0.3408  0.6546  1.7863
 1478SOL    HW216071   4.290   3.693  11.706 -1.5008 -0.7039  0.4460
 1479SOL     OW16072   3.748   4.219   6.225 -0.2921  0.0996  0.1154
 1479SOL    HW116073   3.701   4.195   6.305  1.2544  0.1950  1.0460
 1479SOL    HW216074   3.837   4.202   6.254  0.1378 -0.0689 -1.3268
 1480SOL     OW16075   2.005   3.241   1.211 -0.0682  0.0832 -0.6215
 1480SOL    HW116076   2.093   3.219   1.240  0.6601  1.1901 -2.0216
 1480SOL    HW216077   2.007   3.318   1.154  1.4999 -1.2118 -2.3244
 1481SOL     OW16078   2.162   2.866  12.877  0.1361  0.1119 -0.5276
 1481SOL    HW116079   2.206   2.797  12.926 -0.1932 -0.2126 -0.6885
 1481SOL    HW216080   2.229   2.933  12.887 -0.6499  0.6610  1.1436
 1482SOL     OW16081   3.795   2.119   6.500  0.0807 -0.2014 -0.1254
 1482SOL    HW116082   3.880   2.133   6.459  0.0246 -0.9749 -0.5116
 1482SOL    HW216083   3.753   2.069   6.430  0.7230  1.7184 -1.8940
 1483SOL     OW16084   1.485   1.749  14.666 -0.5986 -0.0893  0.3762
 1483SOL    HW116085   1.393   1.723  14.672 -0.9983  1.2009 -0.2961
 1483SOL    HW216086   1.507   1.717  14.578 -0.3925  1.5121 -0.1473
 1484SOL     OW16087   0.662   2.886   7.938 -0.1158  0.3537 -0.0596
 1484SOL    HW116088   0.622   2.821   7.881 -2.5544  1.1982  0.6629
 1484SOL    HW216089   0.755   2.870   7.927  0.1089  0.5604  1.4588
 1485SOL     OW16090   0.846   1.172   5.818 -1.1232  0.3090  0.6934
 1485SOL    HW116091   0.795   1.252   5.804 -1.2277 -0.1657 -1.7625
 1485SOL    HW216092   0.894   1.205   5.894 -0.9280 -0.7107  1.0012
 1486SOL     OW16093   0.629   2.810   4.126 -0.5534 -0.2997 -0.6739
 1486SOL    HW116094   0.660   2.889   4.169 -2.0633 -1.6057  2.7382
 1486SOL    HW216095   0.674   2.743   4.178  0.4849  1.4302  0.6486
 1487SOL     OW16096   4.467   0.184   5.772  0.2765 -0.1084 -0.0843
 1487SOL    HW116097   4.391   0.238   5.794  1.5818  2.7058 -2.5324
 1487SOL    HW216098   4.533   0.242   5.733  1.3381  0.0321  1.9448
 1488SOL     OW16099   3.691   2.342   3.272 -0.2412  0.1543  0.4383
 1488SOL    HW116100   3.659   2.306   3.189  0.1753  1.8153 -0.4283
 1488SOL    HW216101   3.780   2.312   3.290 -0.1452 -0.0453 -0.3685
 1489SOL     OW16102   0.154   0.034   0.935  0.1020  0.2687 -0.6243
 1489SOL    HW116103   0.222   4.722   0.983 -0.5866 -0.4399 -0.3334
 1489SOL    HW216104   0.077   0.006   0.986  1.4072 -0.0781  1.1824
 1490SOL     OW16105   2.834   1.121   4.942 -0.4595 -0.8054 -0.5925
 1490SOL    HW116106   2.772   1.100   4.872 -1.0906 -0.1895 -0.2171
 1490SOL    HW216107   2.785   1.155   5.017  1.3368 -1.6492  0.9603
 1491SOL     OW16108   1.021   4.244  12.389  0.6052  0.0309  0.3948
 1491SOL    HW116109   1.105   4.265  12.348  0.4763  0.4020  0.3276
 1491SOL    HW216110   0.965   4.314  12.356  0.8340 -0.0349 -0.1325
 1492SOL     OW16111   1.413   0.861  10.503  0.6010 -0.5848  0.0654
 1492SOL    HW116112   1.337   0.809  10.531  0.0387 -0.2919 -0.9246
 1492SOL    HW216113   1.472   0.822  10.567 -1.1761 -2.6111  0.4736
 1493SOL     OW16114   0.835   1.519   6.607  0.3561 -0.4660  0.0214
 1493SOL    HW116115   0.867   1.567   6.531 -0.1150  0.0144  0.1301
 1493SOL    HW216116   0.875   1.580   6.670 -1.9200  1.4400 -0.3771
 1494SOL     OW16117   4.136   0.711   3.095 -0.3259  0.1861 -0.3538
 1494SOL    HW116118   4.154   0.778   3.161 -1.0235  0.6887 -0.6686
 1494SOL    HW216119   4.099   0.641   3.148  1.9596 -1.0713 -0.4117
 1495SOL     OW16120   4.574   1.814   8.403 -0.1037 -0.2343 -0.5462
 1495SOL    HW116121   4.495   1.856   8.436  1.4506  1.4067  1.0841
 1495SOL    HW216122   4.621   1.897   8.402 -3.9927  1.9881  0.1841
 1496SOL     OW16123   0.505   1.082   9.043  0.2237 -0.2311 -0.3201
 1496SOL    HW116124   0.600   1.070   9.037  0.5248  0.5792  3.1041
 1496SOL    HW216125   0.507   1.176   9.057 -1.0369 -0.0688 -1.1592
 1497SOL     OW16126   4.581   0.778   2.037  0.1709  0.3921 -0.4368
 1497SOL    HW116127   4.667   0.735   2.034 -0.3363 -0.6523 -0.0594
 1497SOL    HW216128   4.554   0.772   2.129  0.8815 -0.7071 -0.2954
 1498SOL     OW16129   2.151   4.381   9.592  0.0455  0.2549 -0.0608
 1498SOL    HW116130   2.153   4.286   9.580  3.7628  0.3660 -0.5222
 1498SOL    HW216131   2.172   4.389   9.685  0.6346 -2.6054  0.0458
 1499SOL     OW16132   4.066   1.095   1.731  0.2907  0.5095 -0.4494
 1499SOL    HW116133   4.123   1.086   1.807  0.2258  0.6152 -0.3885
 1499SOL    HW216134   4.036   1.005   1.719 -1.8451  1.2272 -0.4915
 1500SOL     OW16135   2.073   3.003   0.758  0.1361 -0.5532  0.1679
 1500SOL    HW116136   2.164   3.021   0.779  0.6663 -0.2942 -2.3221
 1500SOL    HW216137   2.041   3.080   0.712 -1.9760 -1.8173 -0.4721
 1501SOL     OW16138   3.685   1.495   1.294  0.5557 -0.1797 -0.2001
 1501SOL    HW116139   3.693   1.414   1.345  1.2196  1.0904  1.6980
 1501SOL    HW216140   3.624   1.547   1.346 -0.6111  0.2907 -2.0391
 1502SOL     OW16141   0.508   4.262   3.741  0.3846 -0.5286 -0.2292
 1502SOL    HW116142   0.454   4.322   3.793 -0.6129 -1.5665 -0.0663
 1502SOL    HW216143   0.455   4.277   3.663  0.0622 -0.2673  0.0411
 1503SOL     OW16144   0.802   0.733   5.931 -0.6541  0.3272 -0.2489
 1503SOL    HW116145   0.843   0.712   5.847  0.8239 -0.2565  0.6085
 1503SOL    HW216146   0.771   0.649   5.966  0.3733 -0.5470 -1.4123
 1504SOL     OW16147   0.446   4.544   9.843 -0.2539 -0.6303  0.6630
 1504SOL    HW116148   0.408   4.456   9.847  0.1248 -0.7678  1.2035
 1504SOL    HW216149   0.405   4.574   9.761 -0.5809  1.8888  1.7479
 1505SOL     OW16150   1.748   0.313   6.773  0.3327 -0.3690 -0.9815
 1505SOL    HW116151   1.755   0.398   6.817 -1.1411 -0.1611 -1.1243
 1505SOL    HW216152   1.691   0.267   6.835  0.4129  0.1399 -0.5277
 1506SOL     OW16153   1.924   1.439  14.098  0.2034 -0.1019 -0.2198
 1506SOL    HW116154   1.954   1.521  14.058  1.0358 -0.8386 -1.1076
 1506SOL    HW216155   1.877   1.469  14.176  0.4414 -0.0365 -0.0987
 1507SOL     OW16156   0.004   3.889  16.254 -1.0861 -0.7260 -0.4140
 1507SOL    HW116157   4.677   3.962  16.248  1.2978  1.2200 -1.3072
 1507SOL    HW216158   0.072   3.927  16.199 -0.6711 -1.5027 -0.4328
 1508SOL     OW16159   3.914   0.420   6.628 -0.2139  0.1921  0.0963
 1508SOL    HW116160   3.880   0.388   6.544  2.1998 -0.0192 -0.7860
 1508SOL    HW216161   3.985   0.357   6.637 -1.3382 -0.9742  0.8194
 1509SOL     OW16162   0.413   0.621   5.285 -0.0448 -0.2569  0.2822
 1509SOL    HW116163   0.435   0.709   5.254  1.9296 -1.1349 -0.8012
 1509SOL    HW216164   0.499   0.580   5.296 -0.3447 -1.7826 -3.0750
 1510SOL     OW16165   4.368   4.718   2.092  0.3448  0.2074 -0.2346
 1510SOL    HW116166   4.315   4.641   2.113 -0.9133  0.7721 -1.3283
 1510SOL    HW216167   4.332   0.048   2.152  3.2149 -0.8583  2.6434
 1511SOL     OW16168   0.776   2.457  14.776  0.4323  0.4798  0.1279
 1511SOL    HW116169   0.747   2.548  14.783  0.3382  0.3971  0.8173
 1511SOL    HW216170   0.720   2.421  14.845 -0.3654  0.1625 -0.6775
 1512SOL     OW16171   4.341   2.265   4.270  0.5244  0.0983 -0.3302
 1512SOL    HW116172   4.373   2.178   4.295 -1.7693  0.1729  3.0128
 1512SOL    HW216173   4.249   2.247   4.292  1.0336  2.1317  3.5914
 1513SOL     OW16174   2.597   1.407   7.742 -0.7170 -0.1802  0.0494
 1513SOL    HW116175   2.544   1.467   7.795 -0.5992 -0.7487  0.7953
 1513SOL    HW216176   2.593   1.463   7.664 -0.8024 -0.5219 -0.1881
 1514SOL     OW16177   0.285   0.295   7.507 -0.1150  0.2821  0.3745
 1514SOL    HW116178   0.323   0.370   7.461 -1.5015  0.6037 -0.2708
 1514SOL    HW216179   0.219   0.343   7.556  0.8796 -0.1070  2.0652
 1515SOL     OW16180   0.992   0.035   6.998  0.2426  0.1971  0.3827
 1515SOL    HW116181   1.028   0.046   6.910 -0.5975 -1.5413 -0.1975
 1515SOL    HW216182   0.928   0.106   7.003  1.0774  1.0788 -1.7283
 1516SOL     OW16183   1.608   1.622  10.161 -0.6998 -0.5802 -0.2372
 1516SOL    HW116184   1.528   1.673  10.175  0.3712  1.0595 -0.0795
 1516SOL    HW216185   1.597   1.562  10.235  2.9190  1.1305  1.7512
 1517SOL     OW16186   0.501   0.900  16.847 -0.2079  0.3626 -0.0527
 1517SOL    HW116187   0.448   0.972  16.814 -0.6589  0.9848  2.0037
 1517SOL    HW216188   0.513   0.939  16.934 -3.2241 -0.6402  0.8177
 1518SOL     OW16189   2.321   0.251   3.219  0.2657 -0.4688  0.1922
 1518SOL    HW116190   2.237   0.275   3.259  1.4192  2.4192  0.9175
 1518SOL    HW216191   2.329   0.306   3.142  2.6014  1.1770  1.6005
 1519SOL     OW16192   1.860   0.457   6.231  0.0313 -0.6971 -0.1383
 1519SOL    HW116193   1.907   0.526   6.278  0.1574 -0.6659 -0.3102
 1519SOL    HW216194   1.865   0.387   6.296  1.0405 -0.4894  0.0122
 1520SOL     OW16195   1.492   4.600  17.687 -0.3403  0.6012 -0.3449
 1520SOL    HW116196   1.408   4.644  17.680 -0.3964  0.6527  0.5596
 1520SOL    HW216197   1.560   4.667  17.678 -1.6461  1.7059 -1.8756
 1521SOL     OW16198   0.787   4.227   3.998  0.4445  0.0462  0.1933
 1521SOL    HW116199   0.787   4.313   4.040  0.1860  0.3047 -0.3360
 1521SOL    HW216200   0.815   4.252   3.910 -0.3864  1.0013  0.1908
 1522SOL     OW16201   2.516   3.274   1.186  0.1892 -0.3663 -0.3829
 1522SOL    HW116202   2.593   3.228   1.153 -0.2077 -2.0186  0.9980
 1522SOL    HW216203   2.546   3.335   1.254  0.3207 -0.7324 -0.1133
 1523SOL     OW16204   1.481   0.618   1.493 -0.3008 -0.1102 -0.0894
 1523SOL    HW116205   1.523   0.692   1.536  1.2334  0.5888 -2.7692
 1523SOL    HW216206   1.395   0.656   1.474  0.8088  2.2193 -0.5139
 1524SOL     OW16207   1.592   4.085   3.254 -0.6664 -0.4083  0.1262
 1524SOL    HW116208   1.582   4.064   3.162  1.6104 -1.2354  0.0875
 1524SOL    HW216209   1.511   4.133   3.275 -0.5839  1.5469 -3.9784
 1525SOL     OW16210   0.409   3.300  11.481  0.0443 -0.4435 -0.1464
 1525SOL    HW116211   0.377   3.388  11.462  1.9786  0.7969  2.2840
 1525SOL    HW216212   0.331   3.249  11.500 -0.1939  0.3595  0.9929
 1526SOL     OW16213   1.883   3.320  14.232 -0.2363 -0.4824  0.1599
 1526SOL    HW116214   1.838   3.376  14.295 -1.5315 -1.5129  0.1518
 1526SOL    HW216215   1.810   3.297  14.174 -0.4405  1.0079 -0.1670
 1527SOL     OW16216   3.198   3.961   7.334 -0.0835 -0.3879 -0.0219
 1527SOL    HW116217   3.189   4.056   7.323  0.7109 -0.3045  0.0304
 1527SOL    HW216218   3.124   3.942   7.276  0.7627 -1.9891 -0.5708
 1528SOL     OW16219   2.300   2.948   2.433  0.3569  0.0579 -0.2301
 1528SOL    HW116220   2.329   2.893   2.359  0.5352  1.5739 -1.2811
 1528SOL    HW216221   2.388   2.967   2.467  0.1573  0.8578 -0.1636
 1529SOL     OW16222   4.706   4.047  16.945 -0.2880  0.3528 -0.0677
 1529SOL    HW116223   4.729   4.137  16.923  2.8669 -0.4597 -0.1774
 1529SOL    HW216224   0.051   4.019  16.992 -0.3936  1.4165  0.7394
 1530SOL     OW16225   1.124   3.667  13.079 -0.3615  0.7823 -0.5618
 1530SOL    HW116226   1.103   3.740  13.138  0.3505 -0.3775  1.1394
 1530SOL    HW216227   1.108   3.590  13.134 -1.6324  1.0417 -0.5764
 1531SOL     OW16228   0.012   4.145   2.383 -0.5788 -0.1980 -0.7348
 1531SOL    HW116229   4.674   4.137   2.445  0.6043 -0.8289  0.5721
 1531SOL    HW216230   0.023   4.055   2.352 -1.0419 -0.9980  1.3950
 1532SOL     OW16231   1.284   1.333   1.723 -0.3794  0.1407  0.0019
 1532SOL    HW116232   1.262   1.424   1.703 -1.4261 -0.1508 -0.1628
 1532SOL    HW216233   1.356   1.362   1.780  1.6000 -2.7549 -1.0532
 1533SOL     OW16234   2.853   2.389   6.502  0.5323  0.3964 -0.5343
 1533SOL    HW116235   2.759   2.392   6.490  0.6185 -0.5741 -1.3748
 1533SOL    HW216236   2.850   2.407   6.596 -0.0195  0.4571 -0.5680
 1534SOL     OW16237   0.797   1.054   2.823  0.3433  0.1806 -0.6562
 1534SOL    HW116238   0.852   1.130   2.805 -1.2025  1.1815 -1.1826
 1534SOL    HW216239   0.716   1.097   2.851  0.6902 -0.1173  0.7624
 1535SOL     OW16240   4.303   2.837  16.100  0.1133 -0.3201  0.0128
 1535SOL    HW116241   4.325   2.795  16.184  0.9190  0.5563  0.2437
 1535SOL    HW216242   4.388   2.863  16.064 -0.3297  0.4045 -0.4775
 1536SOL     OW16243   4.636   1.325   4.154 -0.8194 -0.0595  0.1847
 1536SOL    HW116244   4.690   1.403   4.141 -0.5084 -0.2672  0.2272
 1536SOL    HW216245   4.549   1.355   4.182 -0.1442  2.8736 -0.8703
 1537SOL     OW16246   3.119   2.874   0.367 -0.0066 -0.5024 -0.2593
 1537SOL    HW116247   3.190   2.830   0.321 -1.3091 -0.3880 -2.3959
 1537SOL    HW216248   3.050   2.807   0.369 -1.6824  1.2944  2.1932
 1538SOL     OW16249   4.441   3.958  15.768 -0.6849  0.7740 -0.6367
 1538SOL    HW116250   4.409   4.046  15.788  0.0400  0.3821  2.1866
 1538SOL    HW216251   4.508   3.977  15.703  1.7902  1.5673  2.1664
 1539SOL     OW16252   1.296   3.820   8.274 -0.4313 -0.4916  0.0521
 1539SOL    HW116253   1.253   3.904   8.259 -0.8091 -0.8880 -1.1613
 1539SOL    HW216254   1.342   3.810   8.190 -3.7159 -2.1825 -1.5864
 1540SOL     OW16255   3.605   2.850   6.827 -0.0886 -0.7220  0.6301
 1540SOL    HW116256   3.657   2.906   6.884  0.7667 -1.3882  0.4986
 1540SOL    HW216257   3.555   2.797   6.890  1.1264 -0.7181  1.6025
 1541SOL     OW16258   0.798   3.627   3.770 -0.1028 -0.1603  0.6878
 1541SOL    HW116259   0.753   3.711   3.781  1.7181  0.8197  0.6840
 1541SOL    HW216260   0.817   3.622   3.677 -1.4988  0.7010  0.3583
 1542SOL     OW16261   0.664   2.896   6.820  0.0058 -0.4213 -0.1040
 1542SOL    HW116262   0.745   2.849   6.803  0.7958  0.8232  0.2079
 1542SOL    HW216263   0.598   2.827   6.821  1.0055 -1.3595  0.3110
 1543SOL     OW16264   0.366   4.680  17.179 -0.7056  0.3531 -0.5923
 1543SOL    HW116265   0.454   4.716  17.170  0.2264 -1.7172  0.0917
 1543SOL    HW216266   0.384   4.586  17.170  0.3169  0.6849 -1.8974
 1544SOL     OW16267   3.537   1.373  16.123 -0.2004  0.2990 -0.0401
 1544SOL    HW116268   3.627   1.393  16.148 -1.0300  2.2165  1.4841
 1544SOL    HW216269   3.487   1.454  16.131 -0.8548 -0.1765  0.6909
 1545SOL     OW16270   0.266   2.996  17.132  0.2047 -0.2998  0.4812
 1545SOL    HW116271   0.312   3.071  17.096 -0.1387  1.0597  2.8470
 1545SOL    HW216272   0.196   3.042  17.180  0.1549  2.5660 -2.3637
 1546SOL     OW16273   4.309   0.907  10.894 -0.1680 -0.1210 -0.3459
 1546SOL    HW116274   4.327   0.999  10.872  0.0179  0.2534  1.3861
 1546SOL    HW216275   4.399   0.874  10.903 -0.2556 -0.1179  0.5147
 1547SOL     OW16276   0.684   0.453   2.463 -0.3304 -0.3483 -0.7969
 1547SOL    HW116277   0.778   0.464   2.445  0.2963 -0.6147  2.2626
 1547SOL    HW216278   0.700   0.420   2.552  1.8354  0.7588 -0.7710
 1548SOL     OW16279   2.002   1.061   7.880  0.1794 -0.0893 -0.5923
 1548SOL    HW116280   1.993   0.973   7.916 -1.8343 -0.4311 -1.9411
 1548SOL    HW216281   1.947   1.051   7.803 -1.0180 -0.1310  0.2688
 1549SOL     OW16282   1.312   2.791   6.642 -0.4751  0.1975  0.3475
 1549SOL    HW116283   1.225   2.801   6.603 -0.5051  0.3150  0.4460
 1549SOL    HW216284   1.308   2.705   6.683 -0.1169 -0.4538 -0.9721
 1550SOL     OW16285   0.508   4.123   5.940 -0.4238 -0.3474 -0.0316
 1550SOL    HW116286   0.500   4.217   5.954  1.7443 -0.0312 -0.9595
 1550SOL    HW216287   0.514   4.093   6.031 -1.5600  0.1942  0.2357
 1551SOL     OW16288   2.270   2.954   7.016  0.3734  0.1232 -0.0087
 1551SOL    HW116289   2.315   2.919   6.939 -1.4874 -1.5036 -0.3497
 1551SOL    HW216290   2.188   2.992   6.984  0.5919 -0.0848 -0.8132
 1552SOL     OW16291   0.355   4.641   4.397  0.7156  0.4435 -0.1052
 1552SOL    HW116292   0.285   4.576   4.398 -0.8429  2.1471  1.3088
 1552SOL    HW216293   0.390   4.615   4.312 -1.1578  0.4695 -0.8801
 1553SOL     OW16294   3.019   1.225  10.569 -0.5354  0.1103  0.0575
 1553SOL    HW116295   3.041   1.133  10.554 -2.2008 -0.2909  0.1784
 1553SOL    HW216296   3.020   1.242  10.663 -2.6181 -1.6885  0.3970
 1554SOL     OW16297   3.473   1.045   7.142 -0.2792  0.3325  0.4158
 1554SOL    HW116298   3.392   1.045   7.090 -0.0114 -0.3000 -0.0090
 1554SOL    HW216299   3.457   1.128   7.186  1.3287 -0.7746  3.0748
 1555SOL     OW16300   1.699   2.467  15.377  0.2987 -0.3438 -0.0992
 1555SOL    HW116301   1.733   2.486  15.465 -1.3131  1.4515  0.1537
 1555SOL    HW216302   1.637   2.538  15.358 -0.0073 -1.3646 -2.8052
 1556SOL     OW16303   2.825   2.030   5.776  0.0377 -0.3387 -0.1585
 1556SOL    HW116304   2.810   2.040   5.870 -3.5919 -0.4172 -0.7103
 1556SOL    HW216305   2.820   1.935   5.769 -1.3978 -0.1618 -1.4942
 1557SOL     OW16306   2.334   0.100   5.795 -0.5447 -0.0397  0.4589
 1557SOL    HW116307   2.239   0.108   5.800 -0.2461  3.6641  0.4128
 1557SOL    HW216308   2.354   0.079   5.886  0.1610 -3.1256 -0.4263
 1558SOL     OW16309   0.391   1.533   7.169 -0.1987  0.1230  0.3332
 1558SOL    HW116310   0.343   1.614   7.151  0.4171  0.4739  0.2783
 1558SOL    HW216311   0.427   1.556   7.255 -1.6614 -2.1154  1.5663
 1559SOL     OW16312   4.051   1.759  13.050  0.5231  0.1310  0.1845
 1559SOL    HW116313   3.971   1.707  13.054  0.0903  0.7031 -1.2955
 1559SOL    HW216314   4.025   1.848  13.075 -0.3014  0.3733 -1.5426
 1560SOL     OW16315   1.411   4.180   0.230  0.1710 -0.5185  0.1781
 1560SOL    HW116316   1.382   4.264   0.196  1.5033 -0.0171  0.2741
 1560SOL    HW216317   1.505   4.198   0.238  0.2045 -0.9403  0.7387
 1561SOL     OW16318   1.897   3.234   6.685 -0.2828 -0.1082  0.1854
 1561SOL    HW116319   1.855   3.312   6.722  0.2829  1.4080 -2.4155
 1561SOL    HW216320   1.820   3.191   6.649  0.0813 -1.7345  1.3551
 1562SOL     OW16321   1.954   0.995  15.314 -0.3267 -0.1949  0.0411
 1562SOL    HW116322   1.978   0.949  15.395 -2.7475 -0.1251  0.7968
 1562SOL    HW216323   1.864   1.018  15.334  0.2004  1.5433  0.3726
 1563SOL     OW16324   0.274   4.689   5.485 -0.0450  0.2332 -0.2452
 1563SOL    HW116325   0.210   4.711   5.553  0.3016  2.2687 -0.5799
 1563SOL    HW216326   0.273   4.594   5.502  3.4737  0.7125  2.7300
 1564SOL     OW16327   4.576   1.448   7.434  0.7059 -0.0787 -0.6124
 1564SOL    HW116328   4.576   1.365   7.482  2.0011  0.8069  0.9533
 1564SOL    HW216329   4.662   1.490   7.441  0.7037  0.3376 -3.1015
 1565SOL     OW16330   1.318   0.759  10.250  0.6344  0.3237  0.1277
 1565SOL    HW116331   1.369   0.794  10.322  2.3881  2.0042 -1.9307
 1565SOL    HW216332   1.300   0.837  10.196 -1.6915  0.3123  0.8792
 1566SOL     OW16333   1.526   0.912   3.673 -0.0019 -0.3454  0.2174
 1566SOL    HW116334   1.535   1.007   3.674 -2.2533 -0.1358  0.9875
 1566SOL    HW216335   1.557   0.881   3.588 -0.1828 -1.8625  0.6918
 1567SOL     OW16336   3.736   3.331  12.810  0.1405  0.1827 -0.4437
 1567SOL    HW116337   3.679   3.403  12.783 -1.2161 -0.5147  0.5333
 1567SOL    HW216338   3.784   3.363  12.886 -2.6855 -0.2979  1.5316
 1568SOL     OW16339   4.676   1.988  15.055 -0.1988  0.2210 -0.2699
 1568SOL    HW116340   4.612   1.944  14.999  1.7311 -1.7577 -0.9373
 1568SOL    HW216341   4.625   2.011  15.133 -0.5627  0.3594 -0.5522
 1569SOL     OW16342   3.717   3.218  14.456  0.4069  0.2054 -0.1303
 1569SOL    HW116343   3.655   3.197  14.526  0.2679 -0.2699 -0.3960
 1569SOL    HW216344   3.764   3.291  14.496 -0.1114 -0.3368  1.4917
 1570SOL     OW16345   4.295   3.215   9.480  0.2073  0.2584  0.1200
 1570SOL    HW116346   4.248   3.248   9.557 -2.3386 -1.4862 -0.6814
 1570SOL    HW216347   4.386   3.221   9.509  0.0994  2.1632  0.0725
 1571SOL     OW16348   3.992   2.398   8.224  0.2811 -0.2843  0.3038
 1571SOL    HW116349   3.996   2.308   8.194  0.7869 -0.0730 -0.2572
 1571SOL    HW216350   3.909   2.425   8.186  0.3091  0.6013  0.8594
 1572SOL     OW16351   4.050   1.478   5.892 -0.5487 -0.1634 -0.0235
 1572SOL    HW116352   4.096   1.512   5.815  0.3057 -0.7505  0.2243
 1572SOL    HW216353   4.062   1.548   5.956  0.0166 -0.4431  0.1778
 1573SOL     OW16354   2.303   3.452   1.034 -0.0269  0.3236 -0.5124
 1573SOL    HW116355   2.388   3.484   1.005  0.7301 -1.1172  0.1008
 1573SOL    HW216356   2.310   3.430   1.127 -2.9461  0.1786 -0.3146
 1574SOL     OW16357   0.702   0.298   9.577  0.2593  0.3051  0.1909
 1574SOL    HW116358   0.653   0.225   9.614  3.6105 -1.3861  1.3090
 1574SOL    HW216359   0.788   0.256   9.572 -0.0061 -0.3875  1.6137
 1575SOL     OW16360   1.840   4.314   8.588  0.0719 -0.8962  0.2145
 1575SOL    HW116361   1.896   4.268   8.650  1.3362  0.8030  0.3012
 1575SOL    HW216362   1.843   4.405   8.616 -0.6468 -0.4152 -1.2834
 1576SOL     OW16363   3.719   0.872   5.438 -0.4457 -0.3839 -0.5567
 1576SOL    HW116364   3.732   0.900   5.528  3.1493 -1.6661 -0.6740
 1576SOL    HW216365   3.686   0.784   5.455 -0.5685  0.1206  1.7756
 1577SOL     OW16366   3.552   1.539  13.220  0.2570 -0.2886  0.1961
 1577SOL    HW116367   3.484   1.605  13.209 -0.6613 -1.0228  1.5338
 1577SOL    HW216368   3.507   1.483  13.283 -1.4203  0.4049 -0.4074
 1578SOL     OW16369   1.824   2.442   7.044 -0.3806  0.3017 -0.4885
 1578SOL    HW116370   1.778   2.366   7.009  1.6853 -0.4866 -1.4390
 1578SOL    HW216371   1.775   2.452   7.126  0.2752 -1.4849  0.1226
 1579SOL     OW16372   0.417   2.651   9.288  0.2567  0.3513  0.0133
 1579SOL    HW116373   0.441   2.642   9.196  2.8484 -1.0845  0.8242
 1579SOL    HW216374   0.362   2.574   9.303 -0.5804  1.0780  0.6669
 1580SOL     OW16375   2.495   2.631  11.109  0.0640 -0.1122  0.3433
 1580SOL    HW116376   2.482   2.658  11.199  0.9605  1.4600 -0.0029
 1580SOL    HW216377   2.438   2.555  11.098  0.3331  0.1709 -3.2781
 1581SOL     OW16378   3.325   4.265   1.139 -0.1747 -0.0093  0.4232
 1581SOL    HW116379   3.417   4.252   1.114 -0.4687 -0.6687 -0.3057
 1581SOL    HW216380   3.279   4.207   1.078  1.9024 -1.2673  0.0348
 1582SOL     OW16381   1.985   1.411  15.662 -0.1665  0.3175 -0.1764
 1582SOL    HW116382   2.042   1.441  15.733  2.0831  0.1132 -1.9218
 1582SOL    HW216383   2.020   1.470  15.596  0.8394  0.5785  0.5947
 1583SOL     OW16384   4.569   0.278   5.233  0.2015  0.8840  0.4871
 1583SOL    HW116385   4.612   0.193   5.247  3.0330  1.9496 -1.6806
 1583SOL    HW216386   4.562   0.320   5.319 -1.2852  0.0117  0.7931
 1584SOL     OW16387   0.200   0.347   2.063 -0.0928  0.4420  0.2490
 1584SOL    HW116388   0.115   0.358   2.106 -1.0357  1.0266 -1.7293
 1584SOL    HW216389   0.248   0.419   2.104  2.0740 -2.1075  2.1680
 1585SOL     OW16390   1.062   2.497  17.143  0.4538  0.5018 -0.2186
 1585SOL    HW116391   1.069   2.484  17.238 -0.4049 -0.0753 -0.2289
 1585SOL    HW216392   1.154   2.511  17.122  0.2189  0.1401 -1.5085
 1586SOL     OW16393   2.026   3.656  15.406 -0.4968  0.2833  0.0621
 1586SOL    HW116394   2.099   3.598  15.427 -1.2455 -0.4146  0.7105
 1586SOL    HW216395   2.008   3.628  15.317 -1.3490  0.1588  0.2784
 1587SOL     OW16396   2.627   0.651  12.972 -0.7554 -0.2274  0.5163
 1587SOL    HW116397   2.611   0.557  12.977  1.3523 -0.5129  1.9407
 1587SOL    HW216398   2.659   0.674  13.060  0.8733  2.4198 -0.7508
 1588SOL     OW16399   0.441   1.131  10.085 -0.8481 -0.1012  0.1163
 1588SOL    HW116400   0.508   1.161  10.024 -1.4607 -2.7885 -1.8663
 1588SOL    HW216401   0.444   1.185  10.164 -1.1544 -1.2713  0.9315
 1589SOL     OW16402   4.538   3.556   0.624 -0.4734  0.3495  0.0826
 1589SOL    HW116403   4.471   3.559   0.692  0.5121 -0.5291  1.0954
 1589SOL    HW216404   4.617   3.561   0.677  0.4230  0.1722 -1.2403
 1590SOL     OW16405   4.555   3.373   3.756  0.3068 -0.1971 -0.1736
 1590SOL    HW116406   4.529   3.314   3.827 -1.4060  0.5633 -0.1585
 1590SOL    HW216407   4.522   3.457   3.788 -0.5006 -0.4371 -0.3725
 1591SOL     OW16408   1.876   2.080   2.378  0.2167  0.5663  0.1971
 1591SOL    HW116409   1.921   2.127   2.447 -2.4204  0.2351  2.1357
 1591SOL    HW216410   1.903   1.991   2.400 -0.5529  0.7618  1.9435
 1592SOL     OW16411   4.572   0.778   6.630 -0.5356 -0.0996 -0.1378
 1592SOL    HW116412   4.541   0.690   6.653  0.2067 -0.6770 -1.3400
 1592SOL    HW216413   4.486   0.818   6.616  0.9382  2.5569 -1.5710
 1593SOL     OW16414   2.954   1.841   4.643 -0.0059  0.4896  0.0826
 1593SOL    HW116415   2.893   1.777   4.681  0.3165  0.3196  0.3191
 1593SOL    HW216416   3.039   1.807   4.670 -0.6931  1.5602  3.6635
 1594SOL     OW16417   4.702   0.206   9.454 -0.5413  0.9350 -0.0254
 1594SOL    HW116418   0.021   0.285   9.459  0.4186  0.4183 -2.2233
 1594SOL    HW216419   0.024   0.129   9.459 -0.9403  0.6617  0.2477
 1595SOL     OW16420   1.780   2.267   6.579 -0.5185 -0.7276 -0.0654
 1595SOL    HW116421   1.841   2.196   6.596  0.7135  0.6854  1.4033
 1595SOL    HW216422   1.714   2.245   6.645  0.1451 -2.1278  0.1079
 1596SOL     OW16423   0.511   3.955   0.949  0.2153 -0.1088  0.2333
 1596SOL    HW116424   0.592   3.904   0.958  1.4549  1.3668 -2.7378
 1596SOL    HW216425   0.515   3.968   0.855  0.9868  0.2538  0.3160
 1597SOL     OW16426   0.775   1.294   7.204  0.0944  0.2299 -0.7642
 1597SOL    HW116427   0.737   1.382   7.208 -2.0572 -0.6770 -1.1585
 1597SOL    HW216428   0.710   1.250   7.150  0.4678  0.7727 -1.6643
 1598SOL     OW16429   2.129   1.520   3.544  0.2490  0.7885  0.4899
 1598SOL    HW116430   2.098   1.431   3.529  2.0892  0.5185 -1.8287
 1598SOL    HW216431   2.159   1.545   3.457 -1.9059  1.3643 -0.0840
 1599SOL     OW16432   4.663   4.733   1.078 -0.2031 -0.1786 -0.2030
 1599SOL    HW116433   4.687   0.079   1.123 -1.2697 -0.8020  1.5048
 1599SOL    HW216434   4.569   0.005   1.093 -0.0538  0.1706  0.5881
 1600SOL     OW16435   4.310   4.151   8.923 -0.7435 -0.4130  0.4399
 1600SOL    HW116436   4.399   4.172   8.952 -0.3662 -1.0744 -0.2459
 1600SOL    HW216437   4.257   4.212   8.975 -0.1209 -0.2058  0.8454
 1601SOL     OW16438   3.036   2.514   4.844 -0.1587 -0.0871 -0.1723
 1601SOL    HW116439   2.961   2.463   4.875  0.3606 -1.9075 -1.9146
 1601SOL    HW216440   3.008   2.601   4.873 -2.0149 -1.3130  1.7179
 1602SOL     OW16441   0.477   1.618   2.987  0.1761 -0.1680  0.4221
 1602SOL    HW116442   0.464   1.578   2.901 -1.8449  1.1220  0.1305
 1602SOL    HW216443   0.415   1.567   3.040 -0.7212 -0.3843 -0.8343
 1603SOL     OW16444   1.629   0.830   5.878  0.6124 -0.2800  0.9253
 1603SOL    HW116445   1.676   0.911   5.856  0.6369 -0.2443  1.1064
 1603SOL    HW216446   1.657   0.819   5.969 -1.1993  1.6060  1.7076
 1604SOL     OW16447   3.752   4.367   1.926  0.1172 -0.0744 -0.1384
 1604SOL    HW116448   3.673   4.397   1.971 -0.0045 -0.8637  0.1672
 1604SOL    HW216449   3.794   4.453   1.915 -0.6777  0.1445 -1.4927
 1605SOL     OW16450   3.140   3.589  10.740 -0.8665 -0.6248 -0.1098
 1605SOL    HW116451   3.184   3.549  10.665  0.1074 -1.5704  0.9655
 1605SOL    HW216452   3.108   3.513  10.790 -1.5290 -0.5104 -0.3591
 1606SOL     OW16453   3.317   3.186  17.461  0.5633 -0.2021  0.0638
 1606SOL    HW116454   3.272   3.265  17.430 -0.6796 -1.2805 -0.8869
 1606SOL    HW216455   3.247   3.122  17.453  1.0697 -0.8917  1.1896
 1607SOL     OW16456   3.136   1.868   5.532  0.5123  0.2516  0.2082
 1607SOL    HW116457   3.194   1.808   5.578 -0.9039 -0.7864  0.6427
 1607SOL    HW216458   3.054   1.858   5.579  0.0734 -0.3451 -0.6791
 1608SOL     OW16459   4.060   4.484   1.719  0.2498  0.7674 -0.4575
 1608SOL    HW116460   4.022   4.447   1.640 -0.7433  1.0209 -0.1009
 1608SOL    HW216461   3.990   4.535   1.760  0.6410  0.0051  1.1958
 1609SOL     OW16462   4.669   0.216   3.090 -0.1282 -0.2880 -0.0359
 1609SOL    HW116463   0.019   0.185   3.120 -0.3867  0.3889  1.4188
 1609SOL    HW216464   4.679   0.309   3.111  1.6395 -0.2368 -1.1827
 1610SOL     OW16465   1.281   0.573   7.665 -0.0061 -0.4022  0.1973
 1610SOL    HW116466   1.330   0.509   7.717 -0.4289 -0.1462  0.9077
 1610SOL    HW216467   1.243   0.514   7.600 -2.3892 -1.0342  2.1487
 1611SOL     OW16468   1.894   2.802   4.692 -0.3306 -0.3472 -0.6393
 1611SOL    HW116469   1.923   2.834   4.777  0.3333 -1.2719 -0.5161
 1611SOL    HW216470   1.804   2.789   4.724 -0.7985 -1.1027 -2.2603
 1612SOL     OW16471   2.178   2.339   1.122  0.5144  0.5149 -0.7898
 1612SOL    HW116472   2.216   2.284   1.052 -0.3237  0.5662 -1.2892
 1612SOL    HW216473   2.246   2.328   1.188 -0.1522 -0.9426 -0.3332
 1613SOL     OW16474   4.033   1.406   3.316 -0.3239  0.5621  0.0638
 1613SOL    HW116475   4.030   1.345   3.243  2.5270  1.4893 -0.8488
 1613SOL    HW216476   4.121   1.441   3.304 -0.0037 -0.5782 -0.8290
 1614SOL     OW16477   1.243   2.153   4.744 -0.3730 -0.0931 -0.2882
 1614SOL    HW116478   1.336   2.132   4.748  0.0026  1.5217 -0.4795
 1614SOL    HW216479   1.216   2.061   4.746  1.5968 -0.6139  1.5324
 1615SOL     OW16480   3.864   2.538   2.200  0.4285 -0.1563  0.4832
 1615SOL    HW116481   3.799   2.484   2.155  0.2492  0.3831  0.0897
 1615SOL    HW216482   3.935   2.478   2.222  1.2679  0.0246 -1.7340
 1616SOL     OW16483   1.456   0.610   3.135  0.0947  0.1017 -0.6993
 1616SOL    HW116484   1.414   0.564   3.062 -1.4546 -0.1100  0.3318
 1616SOL    HW216485   1.518   0.543   3.164  1.3054  1.5235 -0.0173
 1617SOL     OW16486   2.867   1.125  11.891  0.7215  0.3200 -0.6082
 1617SOL    HW116487   2.950   1.140  11.846 -0.1853  0.2935 -2.2637
 1617SOL    HW216488   2.829   1.212  11.905  0.9374  0.2962  0.1148
 1618SOL     OW16489   0.242   3.285   7.997 -0.0732  0.1829  0.1055
 1618SOL    HW116490   0.266   3.210   8.051  1.2084  0.4314 -0.1044
 1618SOL    HW216491   0.211   3.229   7.926  1.0234  0.5243 -0.6552
 1619SOL     OW16492   4.225   2.206   2.524  0.1964 -0.3719  0.6364
 1619SOL    HW116493   4.151   2.193   2.583 -1.0655  3.9348  0.0645
 1619SOL    HW216494   4.297   2.180   2.581  2.3087 -1.7411 -2.6853
 1620SOL     OW16495   4.225   1.048   1.959  0.1864 -0.1640  0.3211
 1620SOL    HW116496   4.159   1.031   2.026  0.5948 -0.6885  0.5926
 1620SOL    HW216497   4.247   0.957   1.936  1.2067 -0.6280  3.0852
 1621SOL     OW16498   3.707   2.073  16.044 -0.2906  0.1369  0.3378
 1621SOL    HW116499   3.743   2.115  15.966 -1.4084  2.6980  1.2070
 1621SOL    HW216500   3.637   2.135  16.064 -2.5850 -1.5956 -2.3874
 1622SOL     OW16501   2.490   3.076   5.165 -0.3502 -0.0939  0.2748
 1622SOL    HW116502   2.439   3.114   5.235 -2.2415 -1.3506 -0.4351
 1622SOL    HW216503   2.558   3.143   5.159 -0.4488  0.0568  0.8969
 1623SOL     OW16504   2.804   1.624  11.423  0.0123 -0.5989  0.1915
 1623SOL    HW116505   2.824   1.695  11.362  0.1360 -0.2690  0.6203
 1623SOL    HW216506   2.879   1.635  11.481  0.7569 -2.7454 -0.3511
 1624SOL     OW16507   3.253   1.389   7.342 -0.4398 -1.1943  0.0929
 1624SOL    HW116508   3.185   1.374   7.276 -0.7796 -0.7042  0.3345
 1624SOL    HW216509   3.205   1.440   7.407  0.8111 -0.2253  0.2624
 1625SOL     OW16510   0.496   2.855   3.297 -0.0029 -0.3473 -0.5303
 1625SOL    HW116511   0.417   2.897   3.262 -0.9866  0.0073  2.0794
 1625SOL    HW216512   0.554   2.853   3.221  1.2541  0.8174  0.4030
 1626SOL     OW16513   3.333   4.616  16.996 -0.1066  0.6167 -0.2250
 1626SOL    HW116514   3.426   4.621  17.020 -0.2137 -1.1693  0.5862
 1626SOL    HW216515   3.279   4.622  17.075 -0.2567  1.8803 -0.4239
 1627SOL     OW16516   2.970   1.254  16.327 -0.3560 -0.7452 -0.4370
 1627SOL    HW116517   3.039   1.297  16.277 -1.6230 -0.3615 -1.8465
 1627SOL    HW216518   3.029   1.203  16.383  1.1128 -0.4587 -1.7378
 1628SOL     OW16519   3.125   1.012   4.063 -0.1448 -0.4391  0.7560
 1628SOL    HW116520   3.030   1.023   4.070 -0.1092  0.2385  0.2130
 1628SOL    HW216521   3.149   0.999   3.971 -0.6475  0.9838  0.4231
 1629SOL     OW16522   0.707   2.280   6.333  0.2451 -0.4107 -0.3377
 1629SOL    HW116523   0.708   2.360   6.279  0.6895  0.9451  1.6899
 1629SOL    HW216524   0.612   2.267   6.337 -0.0362  2.4319  1.9012
 1630SOL     OW16525   1.261   0.166   7.275 -0.7192 -0.1169  0.3508
 1630SOL    HW116526   1.288   0.126   7.192 -0.4592  1.0581 -0.1423
 1630SOL    HW216527   1.183   0.217   7.250  1.0983  3.1346  1.3160
 1631SOL     OW16528   0.031   3.423   4.509 -0.1726  0.3255 -0.7691
 1631SOL    HW116529   4.725   3.466   4.434 -0.4251  0.9576 -0.2669
 1631SOL    HW216530   4.698   3.365   4.542 -0.5130  0.0150 -2.0057
 1632SOL     OW16531   1.334   1.347   0.466  0.3920  0.0667 -0.3476
 1632SOL    HW116532   1.392   1.277   0.493 -0.9883 -0.2638  1.7325
 1632SOL    HW216533   1.399   1.415   0.447 -0.1582  0.7434  0.2142
 1633SOL     OW16534   1.696   0.233   7.135  0.4482 -0.0796 -0.1633
 1633SOL    HW116535   1.785   0.264   7.116  0.6054  0.5468  1.6222
 1633SOL    HW216536   1.661   0.309   7.181 -1.6789 -0.1518 -1.6604
 1634SOL     OW16537   0.257   2.049   3.025  0.2011  0.1321 -0.0783
 1634SOL    HW116538   0.184   2.005   2.982 -0.7891 -1.1688  2.9784
 1634SOL    HW216539   0.333   2.017   2.976  1.3642  0.3220  1.5752
 1635SOL     OW16540   4.114   3.421   4.279 -0.1378  0.2541  0.2378
 1635SOL    HW116541   4.087   3.486   4.344  2.6117 -1.4773  3.0852
 1635SOL    HW216542   4.191   3.389   4.325 -0.4435 -0.0714  0.5253
 1636SOL     OW16543   1.558   2.048   1.216 -0.4006 -0.1803 -0.2571
 1636SOL    HW116544   1.627   2.052   1.282 -1.6696  2.5314  0.9204
 1636SOL    HW216545   1.618   2.043   1.141 -0.5811  0.2437 -0.4327
 1637SOL     OW16546   1.137   0.638   7.954 -0.3322  0.4347 -0.2309
 1637SOL    HW116547   1.150   0.662   7.862 -0.0210 -1.8585 -0.7733
 1637SOL    HW216548   1.054   0.685   7.961 -1.3794 -0.8355 -4.1195
 1638SOL     OW16549   4.116   1.728   8.371 -0.7560  0.3845 -0.0479
 1638SOL    HW116550   4.152   1.641   8.351  0.4439  1.3908 -2.2854
 1638SOL    HW216551   4.039   1.719   8.314  0.0225 -0.4877 -0.9599
 1639SOL     OW16552   4.234   1.092   6.444 -0.1380 -0.1549 -0.2577
 1639SOL    HW116553   4.146   1.092   6.406  0.8733 -0.1689 -2.5780
 1639SOL    HW216554   4.204   1.119   6.532 -1.2516 -0.8832 -0.4100
 1640SOL     OW16555   3.659   1.140   1.700 -0.1892  0.0660 -0.2204
 1640SOL    HW116556   3.732   1.097   1.656  0.9691  0.0925  1.6891
 1640SOL    HW216557   3.698   1.173   1.781 -2.5640  0.0849  0.9241
 1641SOL     OW16558   4.524   3.105   4.285 -0.1077  0.2638 -0.0387
 1641SOL    HW116559   4.570   3.177   4.241 -0.3495 -1.4629 -3.1252
 1641SOL    HW216560   4.573   3.091   4.366  0.2102  1.9628  0.0714
 1642SOL     OW16561   1.960   0.622   8.459 -0.0808  0.1435  0.0179
 1642SOL    HW116562   1.886   0.652   8.512  0.7036 -1.3327  1.9702
 1642SOL    HW216563   1.925   0.636   8.371 -0.9193  1.1832  0.5141
 1643SOL     OW16564   2.881   4.148   3.798 -0.3358 -0.0179 -0.3917
 1643SOL    HW116565   2.931   4.069   3.820 -1.4760 -1.0033 -1.3301
 1643SOL    HW216566   2.850   4.166   3.886 -1.6190 -0.1283 -0.8177
 1644SOL     OW16567   2.851   2.791  12.448  0.0933 -0.2243  0.4952
 1644SOL    HW116568   2.831   2.724  12.513  1.4511  1.1941  2.3914
 1644SOL    HW216569   2.927   2.763  12.398 -0.3386 -0.2946 -0.1198
 1645SOL     OW16570   1.560   4.210   3.723  0.1932  0.2330  0.0364
 1645SOL    HW116571   1.527   4.240   3.638 -1.8508  0.8664  1.0316
 1645SOL    HW216572   1.472   4.199   3.759  0.3318  0.2414  0.3768
 1646SOL     OW16573   0.558   4.514   8.724  0.0087  0.0565  0.4515
 1646SOL    HW116574   0.595   4.529   8.637  2.7026 -0.8297  1.4294
 1646SOL    HW216575   0.500   4.440   8.706  1.8848 -0.9069 -1.7402
 1647SOL     OW16576   0.498   4.717   0.351  0.3331  0.1439 -0.7931
 1647SOL    HW116577   0.481   0.029   0.433  1.2066  1.3990 -1.3305
 1647SOL    HW216578   0.527   4.636   0.392 -2.2491 -0.0806  0.5932
 1648SOL     OW16579   3.607   2.432   6.257  0.2647  0.0945 -0.0385
 1648SOL    HW116580   3.640   2.483   6.183  0.4578  1.1572  0.7791
 1648SOL    HW216581   3.596   2.499   6.324 -3.2006  0.0894 -0.5799
 1649SOL     OW16582   2.346   2.542  14.501  0.2426  0.0658 -0.3650
 1649SOL    HW116583   2.300   2.621  14.528  0.0909 -0.4607  0.9316
 1649SOL    HW216584   2.295   2.471  14.541  3.1521 -1.1219  1.2495
 1650SOL     OW16585   3.163   3.820   7.694  0.1096  0.8692 -0.1428
 1650SOL    HW116586   3.117   3.904   7.689  0.2727  1.0615  1.7864
 1650SOL    HW216587   3.170   3.797   7.601 -0.2113  1.6213 -0.3521
 1651SOL     OW16588   2.663   1.556   1.467  0.2305  0.0950 -0.7281
 1651SOL    HW116589   2.591   1.521   1.519  0.1817  0.9176 -0.2396
 1651SOL    HW216590   2.713   1.599   1.537  0.5265 -1.7980  0.2058
 1652SOL     OW16591   1.644   1.854  11.302  0.0806 -0.0277  0.1576
 1652SOL    HW116592   1.696   1.785  11.343 -2.8925 -2.7017 -0.5321
 1652SOL    HW216593   1.656   1.931  11.358  0.9012  0.4056 -0.6230
 1653SOL     OW16594   3.537   3.631   7.856 -0.0216 -0.6544 -0.3134
 1653SOL    HW116595   3.611   3.663   7.805  0.1567  0.2216  0.5071
 1653SOL    HW216596   3.492   3.714   7.865  1.3696  0.0294  0.3329
 1654SOL     OW16597   1.576   3.841  10.735 -0.3957  0.2053 -0.3785
 1654SOL    HW116598   1.630   3.764  10.721 -2.5982 -1.1293 -1.6143
 1654SOL    HW216599   1.623   3.889  10.802 -1.4705 -0.2285  0.6923
 1655SOL     OW16600   0.514   0.427   7.103  0.2669  0.2905 -0.1171
 1655SOL    HW116601   0.510   0.387   7.190 -1.8096 -0.2210 -0.4293
 1655SOL    HW216602   0.425   0.462   7.094  0.2137  0.1380 -0.1825
 1656SOL     OW16603   2.779   3.203   0.814 -0.0189  0.1427 -0.2005
 1656SOL    HW116604   2.865   3.173   0.785 -0.4283 -0.4350 -0.8357
 1656SOL    HW216605   2.729   3.161   0.744 -0.9072  0.3806  0.2849
 1657SOL     OW16606   3.684   2.110   8.326  0.1854 -0.3182  0.3720
 1657SOL    HW116607   3.691   2.205   8.335 -0.6811  0.0215 -2.6668
 1657SOL    HW216608   3.612   2.107   8.263  0.9050 -1.1218 -0.4101
 1658SOL     OW16609   1.546   4.298  12.708  0.0515  0.3550  0.8011
 1658SOL    HW116610   1.598   4.224  12.677 -0.1446  1.0126 -1.0816
 1658SOL    HW216611   1.583   4.366  12.651  1.9617 -0.6009  0.9349
 1659SOL     OW16612   3.303   2.269   4.481  0.0406 -0.2692  0.9671
 1659SOL    HW116613   3.236   2.304   4.540 -1.1798 -1.0465  0.0721
 1659SOL    HW216614   3.304   2.173   4.483 -2.0443 -0.2884  1.0282
 1660SOL     OW16615   0.674   1.803   5.539  0.5960 -0.3851 -0.2393
 1660SOL    HW116616   0.661   1.708   5.549 -1.2571 -0.2810 -1.5101
 1660SOL    HW216617   0.613   1.804   5.465 -0.7092 -0.7818  0.8248
 1661SOL     OW16618   0.212   0.477   5.760  0.1839 -0.1690 -0.1155
 1661SOL    HW116619   0.280   0.410   5.772 -0.4432 -0.8517 -0.3870
 1661SOL    HW216620   0.250   0.524   5.685  1.3718  0.6003  0.9642
 1662SOL     OW16621   4.407   2.207  15.124  0.3406  0.3144  0.3932
 1662SOL    HW116622   4.493   2.247  15.122 -0.5426  2.1641 -1.6158
 1662SOL    HW216623   4.420   2.134  15.064  0.2714 -0.9325  1.9035
 1663SOL     OW16624   3.753   2.170  13.161 -0.2435 -0.2331 -0.0546
 1663SOL    HW116625   3.801   2.243  13.199 -1.4354  1.0223 -0.9772
 1663SOL    HW216626   3.682   2.159  13.224  1.9893 -1.8332  2.1943
 1664SOL     OW16627   0.163   0.275   3.297 -0.3004  0.6285 -0.0302
 1664SOL    HW116628   0.229   0.276   3.227  1.3632 -2.3769  1.4720
 1664SOL    HW216629   0.180   0.185   3.325 -2.5973 -0.3494 -1.8519
 1665SOL     OW16630   3.545   2.675   9.070  0.0037 -0.0498  0.0026
 1665SOL    HW116631   3.567   2.603   9.129  0.4863  0.8786  0.9704
 1665SOL    HW216632   3.515   2.736   9.137  0.3111 -1.5394  1.4932
 1666SOL     OW16633   1.271   4.347  16.837 -0.1266  0.1406  0.6938
 1666SOL    HW116634   1.276   4.398  16.918  0.9938  0.8654  0.1676
 1666SOL    HW216635   1.343   4.386  16.787 -0.1674 -1.1194 -0.3517
 1667SOL     OW16636   4.584   0.121   2.586 -0.2082 -0.0575  0.4724
 1667SOL    HW116637   4.575   0.034   2.549 -0.4627  0.1593  0.0287
 1667SOL    HW216638   4.586   0.101   2.680 -1.8718 -1.0702  0.2982
 1668SOL     OW16639   3.730   1.686   6.499 -0.0874  0.4389 -0.1883
 1668SOL    HW116640   3.692   1.675   6.586 -0.7665  0.4642 -0.4778
 1668SOL    HW216641   3.774   1.604   6.478  0.5852  0.5764  0.6956
 1669SOL     OW16642   2.660   0.726   4.732 -0.5462 -0.3611 -0.2787
 1669SOL    HW116643   2.746   0.768   4.722 -0.4423 -1.3544 -3.2309
 1669SOL    HW216644   2.602   0.798   4.756  1.2080  0.9053  0.2074
 1670SOL     OW16645   2.221   4.363   7.906 -0.0693 -0.7133 -0.0399
 1670SOL    HW116646   2.149   4.423   7.927 -0.0544  0.9078 -4.6131
 1670SOL    HW216647   2.290   4.392   7.966  1.1579 -1.2507 -1.1969
 1671SOL     OW16648   2.972   2.728  15.335 -0.5204 -0.1524 -0.1506
 1671SOL    HW116649   2.976   2.822  15.319  1.4592 -0.4746 -1.5408
 1671SOL    HW216650   2.942   2.697  15.250 -1.1194  0.3066 -0.1051
 1672SOL     OW16651   3.760   4.483   5.296 -0.0896  0.0649  0.3821
 1672SOL    HW116652   3.753   4.554   5.360 -0.2917  1.5581 -1.3122
 1672SOL    HW216653   3.670   4.464   5.273 -1.0112 -0.7070  4.5193
 1673SOL     OW16654   3.858   1.473   2.272 -0.3234 -0.3243 -0.3732
 1673SOL    HW116655   3.870   1.535   2.345 -1.0098  0.0509 -0.5857
 1673SOL    HW216656   3.827   1.395   2.317  0.1641 -0.0914  0.3823
 1674SOL     OW16657   0.415   0.144   7.695  0.1771 -0.1397  0.3174
 1674SOL    HW116658   0.407   0.167   7.788 -0.5701 -1.1417  0.5007
 1674SOL    HW216659   0.403   0.218   7.636 -1.1808 -0.8585 -0.2895
 1675SOL     OW16660   1.352   2.279   3.721 -0.1049 -0.0004 -0.2667
 1675SOL    HW116661   1.383   2.242   3.803  2.0738 -1.5295 -1.7791
 1675SOL    HW216662   1.257   2.285   3.723 -0.1423 -0.1009 -1.8047
 1676SOL     OW16663   0.943   4.259   2.451  0.4109  0.0859 -0.7010
 1676SOL    HW116664   0.941   4.355   2.449 -1.5525  0.0969  1.4687
 1676SOL    HW216665   0.868   4.239   2.508 -0.8359  3.1757 -1.2636
 1677SOL     OW16666   1.496   2.828   5.419  0.2674 -0.2255 -0.0594
 1677SOL    HW116667   1.591   2.813   5.420  0.1644 -0.8898 -0.2243
 1677SOL    HW216668   1.495   2.905   5.475 -0.3846  0.0602 -0.4649
 1678SOL     OW16669   3.445   1.486   5.044 -0.2953  0.1625 -0.0698
 1678SOL    HW116670   3.455   1.463   4.951  0.0451 -1.1244  0.2806
 1678SOL    HW216671   3.434   1.581   5.043 -3.2436 -0.1101  4.5753
 1679SOL     OW16672   4.719   4.062   4.703 -0.1990  0.0626 -0.5524
 1679SOL    HW116673   4.627   4.087   4.694  0.5396  2.2075 -2.1282
 1679SOL    HW216674   4.717   3.975   4.744 -0.4607 -0.5122 -1.7603
 1680SOL     OW16675   1.991   0.136   4.071 -0.3455  0.0923  0.0754
 1680SOL    HW116676   1.955   0.089   4.147  1.0502 -0.5754  0.3324
 1680SOL    HW216677   2.076   0.170   4.099  0.2207 -2.5054  1.5338
 1681SOL     OW16678   2.183   0.702   1.234  0.0364 -1.2506 -0.3087
 1681SOL    HW116679   2.192   0.753   1.314 -0.3393 -1.5679 -0.0690
 1681SOL    HW216680   2.112   0.644   1.261  0.0233 -1.8320 -1.5921
 1682SOL     OW16681   2.876   3.602   7.458  0.2353 -0.5060 -0.8069
 1682SOL    HW116682   2.874   3.515   7.417  1.9448 -1.1062  0.3636
 1682SOL    HW216683   2.887   3.661   7.383  2.0716  0.0865 -0.0764
 1683SOL     OW16684   0.415   0.115   7.982  0.1361 -0.3568  0.2626
 1683SOL    HW116685   0.351   0.143   8.048  0.9465  2.1058  0.0089
 1683SOL    HW216686   0.440   0.034   8.027 -0.4193 -0.6790 -0.0113
 1684SOL     OW16687   2.216   2.802   4.933 -0.1795  0.1543 -0.5378
 1684SOL    HW116688   2.131   2.830   4.967  0.8765  2.2909  0.3554
 1684SOL    HW216689   2.209   2.835   4.844 -0.9566  0.3941 -0.3915
 1685SOL     OW16690   1.525   1.556   0.742  0.2734 -0.4336 -0.1059
 1685SOL    HW116691   1.580   1.479   0.735 -1.5317 -2.0903  3.8877
 1685SOL    HW216692   1.500   1.562   0.650  3.3293 -0.4733 -0.9214
 1686SOL     OW16693   4.729   0.362   0.604  0.4188  0.5185 -0.1801
 1686SOL    HW116694   0.052   0.319   0.667 -1.1512 -1.4275 -0.0468
 1686SOL    HW216695   0.041   0.442   0.582  0.1212  0.4849 -0.9512
 1687SOL     OW16696   4.178   0.821   7.419  0.0691 -0.7204 -0.3861
 1687SOL    HW116697   4.184   0.877   7.497 -1.0141 -0.9117 -0.1562
 1687SOL    HW216698   4.091   0.850   7.391 -0.4497 -0.3552  1.5645
 1688SOL     OW16699   4.419   3.444   2.774  0.2814 -0.3186 -0.5020
 1688SOL    HW116700   4.470   3.523   2.758 -0.0330 -0.3817 -1.7875
 1688SOL    HW216701   4.481   3.383   2.815  0.7073  0.8629  0.6391
 1689SOL     OW16702   3.209   1.954   3.974  0.4004 -0.1596 -0.0688
 1689SOL    HW116703   3.200   1.881   3.913 -0.2022 -0.0645 -0.0947
 1689SOL    HW216704   3.159   1.913   4.045  1.3853  1.2280  1.4243
 1690SOL     OW16705   2.803   3.492   0.774  0.0152 -0.2286  0.1415
 1690SOL    HW116706   2.790   3.413   0.827 -0.0358 -1.2595 -1.4098
 1690SOL    HW216707   2.842   3.454   0.696 -5.1609 -1.5876 -1.7729
 1691SOL     OW16708   3.545   1.996  11.949  0.2123 -0.1169  0.1726
 1691SOL    HW116709   3.609   1.936  11.987 -0.9667 -1.6739 -0.2419
 1691SOL    HW216710   3.596   2.075  11.934  1.3879 -0.5715  1.7830
 1692SOL     OW16711   1.158   3.589   8.261  0.2168 -0.8481 -0.0036
 1692SOL    HW116712   1.176   3.570   8.353  1.0327  1.6214  0.3406
 1692SOL    HW216713   1.202   3.674   8.260 -2.0876  0.3438 -0.4301
 1693SOL     OW16714   0.058   1.203  10.180  0.1295  0.1638 -0.1903
 1693SOL    HW116715   0.105   1.279  10.144 -0.6443 -0.4439 -2.5318
 1693SOL    HW216716   4.714   1.208  10.127 -1.7550 -2.2650  2.4375
 1694SOL     OW16717   2.858   1.446   3.872 -0.3615 -0.1404 -0.3584
 1694SOL    HW116718   2.878   1.355   3.854 -0.2232 -0.5524  1.7973
 1694SOL    HW216719   2.892   1.446   3.962 -2.0321 -0.7593  0.2808
 1695SOL     OW16720   2.988   3.550   9.165  0.0741  0.6681 -0.2982
 1695SOL    HW116721   2.949   3.480   9.217  1.3155 -1.0945 -1.7321
 1695SOL    HW216722   3.078   3.516   9.162  0.3669  1.2825  1.4152
 1696SOL     OW16723   0.222   0.653  12.283  0.0165 -0.7956 -0.4148
 1696SOL    HW116724   0.296   0.695  12.240 -1.2021 -0.1784 -1.9152
 1696SOL    HW216725   0.151   0.700  12.239 -0.6081 -1.4675 -0.1378
 1697SOL     OW16726   0.694   0.214   4.632  0.6652  0.5941 -0.1189
 1697SOL    HW116727   0.638   0.265   4.690  0.2346  0.8724 -0.7707
 1697SOL    HW216728   0.644   0.132   4.626 -0.5716  1.4972 -2.0015
 1698SOL     OW16729   2.821   3.644   8.187  0.4621 -0.0614  0.1665
 1698SOL    HW116730   2.786   3.587   8.119 -1.4483 -1.0216  1.9499
 1698SOL    HW216731   2.835   3.575   8.252  0.7406  0.1870  0.3656
 1699SOL     OW16732   1.827   1.433   5.816 -0.8395 -0.0389 -0.3276
 1699SOL    HW116733   1.736   1.453   5.793 -0.2103  2.5359 -0.5047
 1699SOL    HW216734   1.827   1.401   5.906 -1.1480 -1.7559 -0.9291
 1700SOL     OW16735   4.583   2.410  15.656 -0.7156  0.1432 -0.1975
 1700SOL    HW116736   4.652   2.344  15.655 -0.9311 -0.0641 -0.9407
 1700SOL    HW216737   4.518   2.370  15.714 -0.8139  0.0293 -0.3869
 1701SOL     OW16738   2.030   3.659   6.324  0.5509  0.4882 -0.1681
 1701SOL    HW116739   2.034   3.699   6.411 -1.2841  2.9796 -1.2467
 1701SOL    HW216740   2.117   3.619   6.329 -0.1790 -1.0692  0.2501
 1702SOL     OW16741   0.000   4.600   1.330 -0.9936  0.1659 -0.0399
 1702SOL    HW116742   4.706   4.641   1.249 -3.0497 -1.0075  0.1142
 1702SOL    HW216743   0.084   4.642   1.349 -0.3959 -1.1026  0.1923
 1703SOL     OW16744   3.008   2.711  14.795 -0.0036  0.0573 -0.4988
 1703SOL    HW116745   2.953   2.768  14.740  0.6924  0.2851 -0.9517
 1703SOL    HW216746   2.948   2.637  14.802  0.3635 -0.3076 -1.2528
 1704SOL     OW16747   0.011   1.907  17.011  0.3157 -0.8038 -0.7230
 1704SOL    HW116748   0.078   1.942  16.953  0.3322  0.3402 -0.0015
 1704SOL    HW216749   4.673   1.892  16.951  1.0832 -1.9630 -1.3696
 1705SOL     OW16750   1.837   0.060   5.743 -0.6719 -0.6043 -0.0470
 1705SOL    HW116751   1.750   0.080   5.708 -0.3855 -1.4712 -1.2691
 1705SOL    HW216752   1.893   0.094   5.673 -1.3792  0.7924  0.0700
 1706SOL     OW16753   2.829   2.775   5.733 -0.1315 -0.1447  0.0340
 1706SOL    HW116754   2.881   2.761   5.654 -0.0621 -1.7034  0.3508
 1706SOL    HW216755   2.895   2.790   5.801 -1.2094 -0.4173  1.1255
 1707SOL     OW16756   1.147   2.492   4.817  0.0258 -0.1520  0.5069
 1707SOL    HW116757   1.186   2.404   4.819  0.5463  0.0515 -0.8151
 1707SOL    HW216758   1.164   2.519   4.907 -0.1530 -0.9432  0.7803
 1708SOL     OW16759   0.835   2.441  16.740  0.2512 -0.3550  0.2443
 1708SOL    HW116760   0.907   2.427  16.678  0.7307 -0.6306  0.8562
 1708SOL    HW216761   0.766   2.456  16.676  0.1293 -0.5025  0.3399
 1709SOL     OW16762   0.194   2.417   8.100 -0.5556 -0.5905  0.1546
 1709SOL    HW116763   0.210   2.371   8.018  2.0549  1.3230 -0.4059
 1709SOL    HW216764   0.099   2.407   8.095 -0.6475  0.4856 -0.4077
 1710SOL     OW16765   2.605   4.358   7.659 -0.1173  0.1938  0.2989
 1710SOL    HW116766   2.577   4.372   7.569  0.3595 -0.4157  0.0486
 1710SOL    HW216767   2.701   4.354   7.653  0.0370  4.4078  0.0788
 1711SOL     OW16768   0.301   2.994   2.713 -0.4025  0.3340 -0.6620
 1711SOL    HW116769   0.380   2.978   2.661  1.3093 -0.2693  2.1164
 1711SOL    HW216770   0.233   2.950   2.663 -1.0498 -0.6168  1.0352
 1712SOL     OW16771   3.864   0.252  16.838  0.2144  0.4270 -0.0101
 1712SOL    HW116772   3.885   0.316  16.906  1.9133  1.5082 -1.5648
 1712SOL    HW216773   3.769   0.246  16.840  0.3207 -0.9271  0.9004
 1713SOL     OW16774   3.400   3.447   3.612  0.5032  0.0630 -0.2325
 1713SOL    HW116775   3.446   3.530   3.619  0.2372  0.1920 -0.0155
 1713SOL    HW216776   3.383   3.453   3.518  2.6113 -0.2484 -0.6295
 1714SOL     OW16777   2.232   2.814  10.098 -0.0948 -0.0156  0.1922
 1714SOL    HW116778   2.171   2.887  10.108 -1.9398 -1.5963  0.5399
 1714SOL    HW216779   2.193   2.746  10.153 -0.9846  0.1162 -0.2858
 1715SOL     OW16780   0.128   1.666   9.781 -0.0332 -0.1318 -0.9282
 1715SOL    HW116781   0.159   1.632   9.697  2.0330 -1.2584  0.2859
 1715SOL    HW216782   0.094   1.751   9.755  0.7967  0.7766  0.9164
 1716SOL     OW16783   4.157   0.572  14.415 -0.8426  0.0107 -0.0053
 1716SOL    HW116784   4.229   0.633  14.406 -0.4117 -0.4511  0.3338
 1716SOL    HW216785   4.176   0.526  14.497 -1.6751  0.6982  0.5772
 1717SOL     OW16786   1.025   3.737   3.911  0.1752  0.2447 -0.1405
 1717SOL    HW116787   0.939   3.718   3.874  0.2307  1.6274 -0.9772
 1717SOL    HW216788   1.002   3.823   3.947 -0.2282  0.1486 -0.1710
 1718SOL     OW16789   2.215   1.771   2.862 -0.6603 -0.6771  0.1768
 1718SOL    HW116790   2.184   1.858   2.835 -1.4114 -0.5849  1.3382
 1718SOL    HW216791   2.279   1.744   2.796  0.3340  1.0022  0.4359
 1719SOL     OW16792   4.051   0.784  15.443 -0.2394 -0.2344  0.4455
 1719SOL    HW116793   3.998   0.843  15.388  0.3036 -0.8019 -0.6732
 1719SOL    HW216794   4.040   0.709  15.384  0.3536 -0.3016  0.4236
 1720SOL     OW16795   2.521   0.633   4.511 -0.1093 -0.2985  0.4460
 1720SOL    HW116796   2.447   0.669   4.463 -0.7493 -0.7719  1.0676
 1720SOL    HW216797   2.530   0.709   4.570  0.5333 -2.3322  2.9672
 1721SOL     OW16798   2.661   1.681   3.844 -0.0415  0.4942  0.2209
 1721SOL    HW116799   2.679   1.718   3.758 -1.0298 -0.1218 -0.2431
 1721SOL    HW216800   2.709   1.598   3.844 -0.9529 -0.0305 -2.3651
 1722SOL     OW16801   4.656   3.274   4.118 -0.0278  0.5306 -0.5015
 1722SOL    HW116802   4.732   3.251   4.172  1.0124  2.2690 -1.2495
 1722SOL    HW216803   4.656   3.366   4.093 -0.9187  0.4410 -0.8180
 1723SOL     OW16804   2.942   1.443  17.166 -0.0656  0.1152 -0.0264
 1723SOL    HW116805   2.871   1.456  17.229 -0.2223 -1.9211  0.2273
 1723SOL    HW216806   3.013   1.499  17.198  1.3175 -0.7293 -1.5807
 1724SOL     OW16807   1.036   1.576   6.010  0.6781 -0.1608 -0.1670
 1724SOL    HW116808   1.082   1.604   5.932  2.0486  0.2183  0.7876
 1724SOL    HW216809   1.113   1.573   6.067  0.6721 -0.3747 -0.1677
 1725SOL     OW16810   4.729   2.988   3.668 -0.1577 -0.5836 -0.1030
 1725SOL    HW116811   0.023   2.906   3.627 -2.4481 -2.3149  1.8032
 1725SOL    HW216812   0.068   3.022   3.719  1.0482 -1.6728 -1.1222
 1726SOL     OW16813   3.241   4.659   5.947  0.0190  0.5677  0.4532
 1726SOL    HW116814   3.327   4.688   5.977 -0.1384  0.1363  1.3323
 1726SOL    HW216815   3.250   4.690   5.857  0.6126  0.1830  0.3793
 1727SOL     OW16816   3.396   2.722   3.165 -0.6776  0.5122 -0.1994
 1727SOL    HW116817   3.311   2.765   3.151  0.4370  2.8457  0.1933
 1727SOL    HW216818   3.466   2.776   3.129  1.4215 -1.2954  1.1803
 1728SOL     OW16819   2.658   1.676   6.513  0.1290  0.5925 -0.1679
 1728SOL    HW116820   2.730   1.614   6.526  0.0937  0.9208  1.5143
 1728SOL    HW216821   2.687   1.756   6.557  2.7861  0.6894 -2.0625
 1729SOL     OW16822   0.306   4.163   1.302 -0.4414 -0.0973  0.3580
 1729SOL    HW116823   0.382   4.176   1.246 -0.4904  0.0976  0.3353
 1729SOL    HW216824   0.292   4.070   1.283 -1.7796 -0.1661  1.6395
 1730SOL     OW16825   4.013   0.312   4.721  0.6743  0.4122  0.0012
 1730SOL    HW116826   4.008   0.363   4.801 -0.0860  0.8674 -0.3397
 1730SOL    HW216827   3.947   0.244   4.736 -0.9857  2.2338  0.9621
 1731SOL     OW16828   3.116   0.959   2.438 -0.7638  0.2074  0.1175
 1731SOL    HW116829   3.069   0.954   2.355 -0.0646  0.0595 -0.2618
 1731SOL    HW216830   3.126   1.054   2.442 -0.1901  0.1707 -0.5006
 1732SOL     OW16831   4.345   0.665   2.806 -0.6611  0.2308 -0.6001
 1732SOL    HW116832   4.311   0.583   2.840  0.9183  0.9914  2.7907
 1732SOL    HW216833   4.373   0.644   2.717  0.0966 -0.3691 -0.2182
 1733SOL     OW16834   3.071   0.162  10.975 -0.5604  0.2832  0.0430
 1733SOL    HW116835   3.003   0.226  10.954 -1.3256 -1.1842 -1.9464
 1733SOL    HW216836   3.023   0.087  11.009  0.6985  0.6935  2.7175
 1734SOL     OW16837   2.383   1.947   7.131 -0.1896  0.3948  0.4538
 1734SOL    HW116838   2.318   2.007   7.094 -0.3510 -0.2825 -0.3849
 1734SOL    HW216839   2.316   1.908   7.187 -0.6556 -0.8073 -0.9413
 1735SOL     OW16840   4.032   3.070   5.330 -0.1850  0.2088  0.1382
 1735SOL    HW116841   4.040   3.136   5.399 -1.0227 -1.4914  1.8377
 1735SOL    HW216842   4.089   2.996   5.349 -1.4749 -0.8609 -0.1254
 1736SOL     OW16843   1.012   0.715  12.208 -0.4772  0.3511  0.2179
 1736SOL    HW116844   1.016   0.745  12.299 -0.9934  4.3190 -1.0627
 1736SOL    HW216845   1.038   0.624  12.225 -0.3623  0.2894 -0.2945
 1737SOL     OW16846   0.188   2.690  10.590 -0.2620  0.0738 -0.3010
 1737SOL    HW116847   0.101   2.729  10.601 -1.4664 -2.5262 -0.8089
 1737SOL    HW216848   0.180   2.641  10.508 -0.7235 -1.1580  0.4753
 1738SOL     OW16849   3.668   3.287   1.453 -0.1363  0.2636 -0.5133
 1738SOL    HW116850   3.583   3.263   1.488 -0.2212 -0.5701 -1.2984
 1738SOL    HW216851   3.703   3.198   1.460  1.3942  0.9596  0.7502
 1739SOL     OW16852   3.164   3.467   5.795 -0.1165 -0.3346 -0.7419
 1739SOL    HW116853   3.183   3.436   5.883  3.5332  0.9712 -1.0654
 1739SOL    HW216854   3.227   3.415   5.745  0.8097  0.9690 -0.9493
 1740SOL     OW16855   2.761   3.910   9.240  0.6839 -0.1154 -0.2798
 1740SOL    HW116856   2.799   3.859   9.312 -1.5963  0.6788  1.4935
 1740SOL    HW216857   2.667   3.905   9.257  0.6201  0.8704 -0.3759
 1741SOL     OW16858   3.149   2.990   5.042  0.3036  0.6552 -0.4312
 1741SOL    HW116859   3.087   3.032   4.982 -1.6732 -1.6080  0.0022
 1741SOL    HW216860   3.230   3.035   5.019 -0.0351  0.8112 -1.3320
 1742SOL     OW16861   4.412   0.476   3.449 -0.3390 -0.3196  0.0654
 1742SOL    HW116862   4.503   0.453   3.432 -0.5233 -1.4070  0.5712
 1742SOL    HW216863   4.367   0.456   3.367 -0.3670  0.6039 -0.1457
 1743SOL     OW16864   3.142   0.321  13.686 -0.2542  0.1832  0.0113
 1743SOL    HW116865   3.095   0.398  13.718  0.3589  0.1103  1.0881
 1743SOL    HW216866   3.233   0.347  13.677 -0.7990  1.4607 -1.7363
 1744SOL     OW16867   3.137   2.408  17.497  0.0685 -0.4453  0.2549
 1744SOL    HW116868   3.106   2.373  17.580  0.2262  0.4916  0.7047
 1744SOL    HW216869   3.156   2.330  17.444  0.8036 -1.2644  1.7392
 1745SOL     OW16870   3.196   3.461   6.916 -0.2502 -0.0468 -0.1616
 1745SOL    HW116871   3.241   3.502   6.842  2.0486 -0.6797  0.8828
 1745SOL    HW216872   3.264   3.395   6.929  0.7152  1.0273  0.2662
 1746SOL     OW16873   3.339   4.436   8.577 -0.3379 -0.4764 -0.4430
 1746SOL    HW116874   3.358   4.374   8.507 -0.0548  1.3349 -1.9503
 1746SOL    HW216875   3.285   4.381   8.634 -0.0590 -1.2848 -0.9548
 1747SOL     OW16876   4.026   4.044   7.406 -0.1733 -0.4433  0.0228
 1747SOL    HW116877   4.089   4.077   7.341 -0.3611  0.7312  0.4459
 1747SOL    HW216878   4.081   4.026   7.482 -1.2109  0.3938  0.9684
 1748SOL     OW16879   3.511   4.372   5.231  0.0471 -0.0458 -0.5977
 1748SOL    HW116880   3.460   4.438   5.278 -1.2303 -0.8595 -0.8364
 1748SOL    HW216881   3.473   4.395   5.145  1.0797 -3.5871 -1.9729
 1749SOL     OW16882   4.464   4.641   3.260  0.2216 -0.7369  0.5744
 1749SOL    HW116883   4.541   4.588   3.236  1.2787  1.2576 -0.4014
 1749SOL    HW216884   4.390   4.582   3.247 -0.3790 -0.1742  1.4499
 1750SOL     OW16885   1.682   0.134   3.660 -0.4521 -0.1349  0.4856
 1750SOL    HW116886   1.761   0.104   3.706 -0.4411  0.2271  0.7019
 1750SOL    HW216887   1.701   0.086   3.580 -0.5568  1.5121 -0.5284
 1751SOL     OW16888   1.841   0.569   3.298  0.0048 -0.2630 -0.5351
 1751SOL    HW116889   1.853   0.516   3.378 -0.6332  0.3628 -0.0298
 1751SOL    HW216890   1.751   0.546   3.275  0.5253  0.0933 -2.9653
 1752SOL     OW16891   1.778   3.120   4.640 -0.2319 -0.6245 -0.3257
 1752SOL    HW116892   1.734   3.204   4.626  1.3917  0.0453 -1.3605
 1752SOL    HW216893   1.868   3.153   4.638 -0.5630  0.1983 -1.7861
 1753SOL     OW16894   4.087   2.953   3.068  0.4861  0.1539  0.1448
 1753SOL    HW116895   4.067   3.004   3.147 -2.2364  1.3422 -1.3033
 1753SOL    HW216896   3.997   2.937   3.040  1.6107  1.7760 -4.3194
 1754SOL     OW16897   2.437   1.653   2.630  0.2775 -0.5653 -0.8328
 1754SOL    HW116898   2.361   1.678   2.577  0.1837  0.6885 -0.1209
 1754SOL    HW216899   2.501   1.653   2.560 -0.1801 -1.4393 -1.2523
 1755SOL     OW16900   3.392   0.033   6.436 -0.4724 -0.3404  0.2438
 1755SOL    HW116901   3.435   0.118   6.438 -1.2913  0.0433  1.5300
 1755SOL    HW216902   3.475   4.720   6.432 -1.5550 -2.4322  2.2276
 1756SOL     OW16903   0.510   0.278   8.938  0.0630 -0.1097 -0.2542
 1756SOL    HW116904   0.433   0.226   8.918 -1.0580  1.5566 -0.2513
 1756SOL    HW216905   0.518   0.262   9.032 -0.3777  1.2698  0.0074
 1757SOL     OW16906   3.225   3.890   4.173  0.0164 -0.1135 -0.0922
 1757SOL    HW116907   3.196   3.800   4.186  2.1266 -0.9245 -1.0650
 1757SOL    HW216908   3.161   3.943   4.220  0.7242  0.9125 -0.2921
 1758SOL     OW16909   3.768   3.434   4.900 -0.2957 -0.1266 -0.5715
 1758SOL    HW116910   3.860   3.459   4.900  0.2086 -2.0048 -1.3239
 1758SOL    HW216911   3.727   3.514   4.868 -0.3655  0.2553  0.4518
 1759SOL     OW16912   2.420   1.648   7.210 -0.6094 -0.1238  0.4089
 1759SOL    HW116913   2.482   1.707   7.254  1.0974 -0.0750 -2.0595
 1759SOL    HW216914   2.452   1.564   7.242 -1.4900 -0.2201  1.0444
 1760SOL     OW16915   0.217   1.984   8.730  0.3149 -0.3207 -0.4094
 1760SOL    HW116916   0.177   2.047   8.790 -0.7211 -2.1274  0.8013
 1760SOL    HW216917   0.218   1.905   8.784  2.7903  0.2773  0.3945
 1761SOL     OW16918   1.573   2.797   4.749  0.5569  0.4378 -0.2665
 1761SOL    HW116919   1.569   2.712   4.704  1.4398  0.1429  0.2198
 1761SOL    HW216920   1.585   2.862   4.679 -0.1118  0.8249 -0.0231
 1762SOL     OW16921   4.048   1.782   1.239  0.2074 -0.1536  0.5394
 1762SOL    HW116922   4.054   1.708   1.178  0.7819  0.5852 -0.2841
 1762SOL    HW216923   3.958   1.810   1.226  0.5607  0.7173 -0.0009
 1763SOL     OW16924   3.849   3.580  10.432 -0.0221 -0.4574  0.1661
 1763SOL    HW116925   3.793   3.647  10.471 -0.5591  0.0709 -1.5157
 1763SOL    HW216926   3.803   3.505  10.469  1.3797 -1.6907 -0.5636
 1764SOL     OW16927   4.235   3.085  11.819  0.7735  0.3590  0.1315
 1764SOL    HW116928   4.293   3.042  11.882  0.2315 -3.0237 -1.6914
 1764SOL    HW216929   4.159   3.085  11.876  0.7251  2.2042  0.0800
 1765SOL     OW16930   4.010   3.404   3.284  0.2847  0.0600 -0.2398
 1765SOL    HW116931   4.021   3.338   3.215 -1.6157 -0.9265  0.4095
 1765SOL    HW216932   4.093   3.398   3.331  1.1708 -0.3453 -1.8262
 1766SOL     OW16933   3.295   0.281   6.302  0.1398 -0.7888 -0.2002
 1766SOL    HW116934   3.362   0.249   6.241  0.0940  2.6180 -2.0690
 1766SOL    HW216935   3.213   0.248   6.267  0.0994 -0.7851 -0.1086
 1767SOL     OW16936   3.704   1.852  11.114 -0.2703 -0.1534  0.0706
 1767SOL    HW116937   3.612   1.825  11.109  0.2299 -1.8099 -0.2975
 1767SOL    HW216938   3.749   1.780  11.070  0.0612  0.6944 -0.9860
 1768SOL     OW16939   0.310   3.559  15.326 -0.2687  0.3984 -0.1926
 1768SOL    HW116940   0.321   3.616  15.250  1.5136  0.4613  0.1099
 1768SOL    HW216941   0.215   3.556  15.320 -0.3437  0.6895  0.7552
 1769SOL     OW16942   3.001   1.972   6.287 -0.2656 -0.2758  0.2394
 1769SOL    HW116943   3.021   1.958   6.379 -0.0161 -1.6664 -0.0253
 1769SOL    HW216944   3.076   1.930   6.244  0.0969  0.0831  0.5251
 1770SOL     OW16945   2.765   0.549   3.794 -0.5560  0.0258  0.2184
 1770SOL    HW116946   2.815   0.479   3.835 -0.9458  1.0217  2.3924
 1770SOL    HW216947   2.774   0.522   3.703  2.7486 -2.5241  1.3199
 1771SOL     OW16948   1.297   2.429   3.450  0.1628 -0.2143 -0.4357
 1771SOL    HW116949   1.241   2.428   3.528 -1.3947  0.2074 -1.5513
 1771SOL    HW216950   1.370   2.372   3.473  1.3476  0.7986 -1.7275
 1772SOL     OW16951   0.783   4.332   0.396  0.7048 -0.0540  0.4100
 1772SOL    HW116952   0.859   4.304   0.447  0.3162  0.4930  1.2899
 1772SOL    HW216953   0.791   4.426   0.384  0.1866 -0.2585 -1.6038
 1773SOL     OW16954   1.170   3.181   7.594 -0.3592 -0.1400 -0.4427
 1773SOL    HW116955   1.158   3.195   7.500 -1.2527 -0.1899 -0.3400
 1773SOL    HW216956   1.190   3.271   7.618 -0.7370 -0.2557  0.3211
 1774SOL     OW16957   1.472   0.299   9.910  0.1839  0.2693 -0.2012
 1774SOL    HW116958   1.475   0.382   9.958  1.1214  0.9404 -1.4496
 1774SOL    HW216959   1.504   0.319   9.822  2.2024 -2.8759 -0.1633
 1775SOL     OW16960   4.222   4.686   5.754  0.5073 -0.1352 -0.6473
 1775SOL    HW116961   4.229   0.030   5.807 -0.0153 -0.4819 -0.0602
 1775SOL    HW216962   4.164   4.709   5.681  0.5661 -0.2732 -0.7375
 1776SOL     OW16963   1.015   2.847   5.907 -0.5307  0.2844 -0.1613
 1776SOL    HW116964   0.969   2.829   5.990  0.3057  0.4342  0.3274
 1776SOL    HW216965   1.002   2.940   5.890 -0.5598  0.2953 -0.0808
 1777SOL     OW16966   1.052   1.126   1.776  0.7339  0.5097  0.0210
 1777SOL    HW116967   1.065   1.217   1.802  0.3386  0.5870 -0.0589
 1777SOL    HW216968   1.107   1.132   1.698 -0.0105 -0.2030 -0.5624
 1778SOL     OW16969   4.624   3.113   2.525 -0.0006  0.1352 -0.0669
 1778SOL    HW116970   4.623   3.186   2.586 -1.2167  1.2008 -1.3714
 1778SOL    HW216971   4.530   3.110   2.504 -0.4462 -1.0566  2.1218
 1779SOL     OW16972   4.222   0.734   3.860  0.3268  0.0415 -0.2608
 1779SOL    HW116973   4.184   0.704   3.778 -1.1222  2.7151 -0.5718
 1779SOL    HW216974   4.225   0.829   3.848  0.0497 -0.4042 -3.6390
 1780SOL     OW16975   0.828   2.302   2.625 -0.7625  0.6110 -0.3076
 1780SOL    HW116976   0.805   2.381   2.576  0.6882  0.1048 -1.8262
 1780SOL    HW216977   0.905   2.272   2.577  0.0657 -0.3572  1.6061
 1781SOL     OW16978   3.902   4.481   5.065 -0.0565  0.3222 -0.0041
 1781SOL    HW116979   3.980   4.530   5.090 -0.0982  0.8814 -0.9549
 1781SOL    HW216980   3.846   4.493   5.142  1.7380  0.2673  1.3141
 1782SOL     OW16981   1.257   1.711   5.095 -0.1578 -0.1366 -0.0030
 1782SOL    HW116982   1.227   1.629   5.058  2.5430 -1.1633  0.1099
 1782SOL    HW216983   1.187   1.709   5.160 -0.0006  1.0585  0.2170
 1783SOL     OW16984   3.336   3.199   5.618  0.3096  0.0641 -0.9782
 1783SOL    HW116985   3.413   3.168   5.570  1.7553  1.8255  0.2041
 1783SOL    HW216986   3.349   3.293   5.607  1.5695  0.1400  1.0537
 1784SOL     OW16987   2.936   2.268   7.454  0.3957 -0.2021  0.6312
 1784SOL    HW116988   2.998   2.219   7.400  1.2121  1.7512 -0.1939
 1784SOL    HW216989   2.999   2.313   7.510 -2.7742  3.4412  1.2413
 1785SOL     OW16990   2.851   3.157   4.171  0.0137 -0.1242 -0.2491
 1785SOL    HW116991   2.812   3.074   4.142 -0.2181  0.0363 -0.3963
 1785SOL    HW216992   2.807   3.213   4.107 -2.4552 -0.2384  1.3491
 1786SOL     OW16993   3.764   2.953   6.218  0.0815 -0.3901  0.4853
 1786SOL    HW116994   3.739   3.044   6.204  0.1378 -0.5027 -0.3263
 1786SOL    HW216995   3.765   2.919   6.128 -1.4245 -0.7073  0.5869
 1787SOL     OW16996   2.762   0.402   8.063  0.1052 -0.5655  0.5239
 1787SOL    HW116997   2.789   0.445   7.982 -1.5417  3.6404  2.2143
 1787SOL    HW216998   2.826   0.333   8.081 -0.4790 -0.9209  1.2595
 1788SOL     OW16999   3.864   1.585   9.116  0.3897  0.7321  0.1355
 1788SOL    HW117000   3.944   1.540   9.142 -0.3794 -0.2907  0.7238
 1788SOL    HW217001   3.863   1.563   9.023  1.0251  1.4825 -0.0509
 1789SOL     OW17002   1.011   2.273   5.508 -0.7425 -0.0335 -0.0283
 1789SOL    HW117003   1.013   2.216   5.586  0.1415 -1.1160 -0.8386
 1789SOL    HW217004   0.980   2.358   5.538 -0.3275  0.2538 -0.4296
 1790SOL     OW17005   0.698   1.731   4.562 -0.1728 -0.2087  0.3468
 1790SOL    HW117006   0.737   1.788   4.496  0.1268 -0.5536  0.2272
 1790SOL    HW217007   0.607   1.710   4.538 -0.3319 -0.4216  1.1307
 1791SOL     OW17008   2.346   2.863   5.880  0.0887  0.3194 -0.1397
 1791SOL    HW117009   2.346   2.837   5.788  3.1299 -2.3384  0.6227
 1791SOL    HW217010   2.416   2.806   5.910 -0.1296  0.4296  0.5702
 1792SOL     OW17011   3.949   2.371  13.257 -0.5339  0.2015  0.1356
 1792SOL    HW117012   4.027   2.379  13.203  0.0983  1.9304  1.2974
 1792SOL    HW217013   3.987   2.352  13.343  0.5433  2.3858  0.1489
 1793SOL     OW17014   4.527   3.321   4.596 -0.1332  0.1737  0.1236
 1793SOL    HW117015   4.563   3.274   4.672  3.2881  1.9342 -0.4425
 1793SOL    HW217016   4.466   3.257   4.560 -0.8797  1.2627 -0.5473
 1794SOL     OW17017   0.927   1.834   3.140 -0.2437  0.1289  0.6291
 1794SOL    HW117018   0.956   1.923   3.157 -0.8010  0.9869 -2.8966
 1794SOL    HW217019   0.848   1.852   3.089 -0.2383  1.2391  1.0212
 1795SOL     OW17020   3.118   3.009  16.418  0.2574  0.0853  0.6109
 1795SOL    HW117021   3.140   3.092  16.374 -1.2848 -0.1330 -0.5601
 1795SOL    HW217022   3.132   2.951  16.343  0.2124  1.3741 -0.3995
 1796SOL     OW17023   1.417   3.628  13.736 -0.3049  0.1801  0.2480
 1796SOL    HW117024   1.373   3.544  13.744  1.0365 -0.6173 -0.6075
 1796SOL    HW217025   1.360   3.693  13.696  0.5656  0.6908 -0.1868
 1797SOL     OW17026   1.068   2.631  14.025  0.2521  0.1583  0.0485
 1797SOL    HW117027   0.996   2.577  14.057 -0.2719  1.9939  1.9909
 1797SOL    HW217028   1.049   2.624  13.931  1.0116  1.9703 -0.2471
 1798SOL     OW17029   3.493   1.325   9.103  0.2269  0.0040  0.2697
 1798SOL    HW117030   3.424   1.260   9.105 -0.1329  0.3428 -1.1482
 1798SOL    HW217031   3.555   1.286   9.165 -0.6537  1.5548  2.1390
 1799SOL     OW17032   1.172   0.206   4.185  0.0806 -0.1150  0.5259
 1799SOL    HW117033   1.150   0.203   4.278 -0.2283  0.6788  0.4789
 1799SOL    HW217034   1.265   0.227   4.188  0.1166 -1.0463  5.8114
 1800SOL     OW17035   2.993   3.843   1.972 -0.2765  0.1426  0.0975
 1800SOL    HW117036   3.023   3.789   1.899 -0.6033 -2.4165  1.8463
 1800SOL    HW217037   2.932   3.786   2.019 -0.5594 -0.0259 -0.4815
 1801SOL     OW17038   0.986   2.692  17.610  0.1487 -0.6750  0.0391
 1801SOL    HW117039   1.053   2.638  17.651 -0.8438 -0.7719  1.5639
 1801SOL    HW217040   0.943   2.625  17.557 -0.8160  0.6368 -0.8404
 1802SOL     OW17041   3.821   3.539   1.134 -0.3730  0.0506 -0.2234
 1802SOL    HW117042   3.732   3.518   1.162 -0.6520  2.4012  0.6550
 1802SOL    HW217043   3.870   3.462   1.164  1.0642  0.2164 -2.1273
 1803SOL     OW17044   2.120   3.107   2.556 -0.0569  0.1273  0.2204
 1803SOL    HW117045   2.083   3.025   2.589 -0.6616 -0.6970 -2.5560
 1803SOL    HW217046   2.179   3.073   2.489 -0.5541  1.0333 -0.6680
 1804SOL     OW17047   4.016   2.499   8.474  0.0392 -0.5392  0.2005
 1804SOL    HW117048   4.020   2.478   8.381 -1.4290 -0.7859  0.1864
 1804SOL    HW217049   3.944   2.440   8.499 -1.5710  1.4438  0.2354
 1805SOL     OW17050   1.701   0.183   9.252  0.2154  0.5630  0.5515
 1805SOL    HW117051   1.714   0.113   9.316 -1.8561 -1.1892 -0.9315
 1805SOL    HW217052   1.666   0.131   9.179 -2.7705  1.2061  1.4962
 1806SOL     OW17053   1.288   2.886   5.009  0.0049 -0.2162 -0.4602
 1806SOL    HW117054   1.218   2.879   4.944  0.5800  0.0221 -1.1046
 1806SOL    HW217055   1.323   2.968   4.976  1.0642 -0.0434  1.1415
 1807SOL     OW17056   1.782   1.767   0.139 -0.5132  0.0370  0.7126
 1807SOL    HW117057   1.865   1.741   0.178 -1.0264  1.2323  2.6360
 1807SOL    HW217058   1.799   1.800   0.051 -0.1274  0.0668  0.7988
 1808SOL     OW17059   2.800   0.591   0.801  0.6050  0.3409  0.8632
 1808SOL    HW117060   2.791   0.640   0.882 -0.1945  1.7394 -0.0701
 1808SOL    HW217061   2.880   0.623   0.759  0.1777  1.1211  0.6377
 1809SOL     OW17062   2.531   1.507   9.490  0.0331  0.2746  0.2723
 1809SOL    HW117063   2.623   1.485   9.482 -0.5592 -2.1384  0.1235
 1809SOL    HW217064   2.521   1.592   9.534 -3.6927 -0.4823  0.9249
 1810SOL     OW17065   4.378   3.485   8.826  0.2018  0.1949 -0.0800
 1810SOL    HW117066   4.448   3.453   8.884  1.2218  3.9276  0.7287
 1810SOL    HW217067   4.329   3.542   8.886 -0.6929 -0.8545  0.1949
 1811SOL     OW17068   1.596   2.716   5.015 -0.3386 -0.0096 -0.0547
 1811SOL    HW117069   1.585   2.730   4.921  1.1412  2.2156  0.0817
 1811SOL    HW217070   1.513   2.674   5.038  0.9109 -2.3624  0.1848
 1812SOL     OW17071   1.205   3.240   7.048 -0.4694  0.3599 -0.1342
 1812SOL    HW117072   1.157   3.305   6.996 -1.5476 -0.4336 -0.1393
 1812SOL    HW217073   1.224   3.171   6.985  0.6301 -0.8576  1.5174
 1813SOL     OW17074   4.545   1.200  13.891 -0.0241  0.4828 -0.1347
 1813SOL    HW117075   4.622   1.217  13.837  0.5898  0.3472  0.6858
 1813SOL    HW217076   4.591   1.181  13.973  0.0923  2.7072  0.3117
 1814SOL     OW17077   1.049   3.413   8.114 -0.3029 -0.5344 -0.4688
 1814SOL    HW117078   0.968   3.403   8.163 -0.3267  0.4009 -0.3160
 1814SOL    HW217079   1.091   3.480   8.168 -0.8372  1.2823 -2.2974
 1815SOL     OW17080   1.723   4.609   6.657  0.3458  0.0256  0.4079
 1815SOL    HW117081   1.791   4.642   6.599 -0.8504  1.0092 -0.4372
 1815SOL    HW217082   1.683   4.690   6.689  0.2381  0.6144 -1.2475
 1816SOL     OW17083   4.538   0.619  16.704 -0.1536  0.5855 -0.2233
 1816SOL    HW117084   4.562   0.546  16.762 -2.1044  0.4570  0.4217
 1816SOL    HW217085   4.558   0.695  16.758  0.5278 -0.0779  0.4602
 1817SOL     OW17086   3.820   3.214  16.826 -0.3240 -0.2107 -0.0544
 1817SOL    HW117087   3.786   3.130  16.859 -1.0217  0.6470  1.4329
 1817SOL    HW217088   3.899   3.230  16.878 -1.8197  1.3881  1.7373
 1818SOL     OW17089   1.124   0.076  16.235  0.3808  0.0084 -0.2048
 1818SOL    HW117090   1.073   0.004  16.272  1.4130 -1.3768 -1.4755
 1818SOL    HW217091   1.064   0.150  16.249  4.6164  3.0367  1.6551
 1819SOL     OW17092   2.823   2.840   8.586 -0.0289 -0.0899 -0.1596
 1819SOL    HW117093   2.796   2.769   8.528 -0.4657  0.6702 -0.8879
 1819SOL    HW217094   2.741   2.879   8.614  1.0659  0.5206  2.1664
 1820SOL     OW17095   2.256   0.952   9.127 -0.0135  0.6047  0.2403
 1820SOL    HW117096   2.327   0.889   9.127 -0.7832 -0.2749  2.7781
 1820SOL    HW217097   2.309   1.031   9.122  0.2286  0.2404 -2.6297
 1821SOL     OW17098   4.672   3.583   4.303 -0.1765 -0.1225  0.0643
 1821SOL    HW117099   4.723   3.573   4.223  0.3014 -0.7989  0.4564
 1821SOL    HW217100   4.583   3.561   4.273 -1.3107  0.1403  3.2891
 1822SOL     OW17101   1.880   1.720   8.013  0.3298  0.2551 -0.0492
 1822SOL    HW117102   1.878   1.627   7.991  3.5547  0.3405 -0.7489
 1822SOL    HW217103   1.973   1.740   8.000  0.8101 -0.3659  2.4675
 1823SOL     OW17104   0.518   4.219   7.624  0.7929  0.3383 -0.0327
 1823SOL    HW117105   0.428   4.210   7.656  1.4759  1.4939  2.2305
 1823SOL    HW217106   0.529   4.141   7.569 -2.2832  1.5382 -2.3515
 1824SOL     OW17107   0.146   0.083  13.018 -0.0298  0.3333  0.7395
 1824SOL    HW117108   0.052   0.099  13.011 -0.0017  0.8591  1.5644
 1824SOL    HW217109   0.142   4.725  13.040 -2.7664  0.9696  2.8292
 1825SOL     OW17110   4.650   3.148   8.457  0.2916  0.0782 -0.1889
 1825SOL    HW117111   4.594   3.226   8.467 -2.0644 -1.1933 -3.3756
 1825SOL    HW217112   4.697   3.176   8.379 -0.4144 -1.4798 -1.1659
 1826SOL     OW17113   1.106   4.341   0.833 -0.0176  0.6017 -1.0553
 1826SOL    HW117114   1.194   4.340   0.795  0.0407  2.9165 -0.9661
 1826SOL    HW217115   1.115   4.287   0.911 -0.2089 -0.5556 -1.8356
 1827SOL     OW17116   3.677   3.210   3.997  0.2000  0.4786  0.1177
 1827SOL    HW117117   3.645   3.266   3.926 -1.1825 -0.1552  0.2411
 1827SOL    HW217118   3.619   3.232   4.069  0.2398 -1.4820  0.7569
 1828SOL     OW17119   1.514   2.882   6.894 -0.2187  0.1272 -0.1496
 1828SOL    HW117120   1.590   2.832   6.862  0.5512 -0.8152  3.1772
 1828SOL    HW217121   1.522   2.956   6.834 -0.3334  1.9300  2.0587
 1829SOL     OW17122   4.033   2.071   5.492 -0.2524  0.3162 -0.0873
 1829SOL    HW117123   3.959   2.053   5.434 -0.1433 -0.6930  0.0803
 1829SOL    HW217124   4.031   1.988   5.540  0.3340  0.8579  0.8578
 1830SOL     OW17125   2.166   1.688  14.882  0.5488 -0.5156 -0.5128
 1830SOL    HW117126   2.085   1.643  14.907  2.8483 -4.9553 -0.8706
 1830SOL    HW217127   2.235   1.634  14.920 -0.6524 -0.3478  1.8945
 1831SOL     OW17128   1.998   0.288   1.905 -0.3201  0.3297  0.0144
 1831SOL    HW117129   2.017   0.274   1.998  1.2929 -0.7764 -0.4736
 1831SOL    HW217130   2.063   0.223   1.877 -0.3740  0.1816  0.2301
 1832SOL     OW17131   1.912   4.456   6.350  0.1878  0.2402  0.0198
 1832SOL    HW117132   1.868   4.418   6.427  1.2632 -0.2900  0.3765
 1832SOL    HW217133   1.928   4.542   6.389  0.6999  0.2835 -0.2904
 1833SOL     OW17134   3.850   1.823   4.287  0.2929  0.5138 -0.0984
 1833SOL    HW117135   3.789   1.774   4.342  0.2040  0.4423 -0.2614
 1833SOL    HW217136   3.848   1.768   4.208  1.1292  1.0249 -0.4791
 1834SOL     OW17137   0.270   0.794   9.076  0.0511  0.2121 -0.0853
 1834SOL    HW117138   0.305   0.835   9.155  0.9586 -0.5818 -0.0786
 1834SOL    HW217139   0.301   0.860   9.013  1.5617 -1.3438 -0.9817
 1835SOL     OW17140   2.804   1.438   6.189  0.4999 -0.1643  0.3817
 1835SOL    HW117141   2.809   1.380   6.114 -2.3265  1.0810 -0.7432
 1835SOL    HW217142   2.878   1.497   6.176  1.4587 -0.7430  3.0794
 1836SOL     OW17143   0.552   4.466   3.451 -0.4701 -0.3059  0.5492
 1836SOL    HW117144   0.473   4.418   3.475  0.1411 -1.7847 -0.4143
 1836SOL    HW217145   0.529   4.558   3.461  0.9619  0.1232  0.0190
 1837SOL     OW17146   2.536   3.310   0.889 -0.4708 -0.6486 -0.0868
 1837SOL    HW117147   2.628   3.283   0.886 -0.2481  0.2146 -0.8352
 1837SOL    HW217148   2.520   3.291   0.981  0.2312 -1.9895 -0.2307
 1838SOL     OW17149   3.893   1.927   6.738 -0.0720 -0.1794 -0.4403
 1838SOL    HW117150   3.875   1.993   6.805 -2.3998 -1.0711 -0.2055
 1838SOL    HW217151   3.869   1.954   6.650  1.8232  1.1712 -0.5495
 1839SOL     OW17152   2.490   0.936   3.438 -0.4126 -0.0509  0.0833
 1839SOL    HW117153   2.463   1.024   3.414  1.7437  0.5552 -0.1506
 1839SOL    HW217154   2.417   0.911   3.494 -0.0993  1.2481  1.0827
 1840SOL     OW17155   2.699   4.171  14.648  0.2072 -0.3057 -0.3620
 1840SOL    HW117156   2.734   4.086  14.621  0.4532  0.1565 -1.5154
 1840SOL    HW217157   2.693   4.212  14.562  2.1762  0.3450 -0.1894
 1841SOL     OW17158   3.808   0.427   3.195  0.4558  0.0547 -0.2360
 1841SOL    HW117159   3.729   0.437   3.142  0.1344  1.2049  0.4622
 1841SOL    HW217160   3.780   0.468   3.277  1.3630  1.4688 -0.6297
 1842SOL     OW17161   2.917   3.461   1.581  0.1999 -0.2243 -0.0743
 1842SOL    HW117162   2.854   3.421   1.521  0.3384 -0.1163 -0.2948
 1842SOL    HW217163   2.910   3.413   1.663 -0.6560 -2.4404 -1.4371
 1843SOL     OW17164   1.789   1.921  14.488 -0.2814  0.5108 -0.0311
 1843SOL    HW117165   1.744   1.929  14.573 -0.4574 -0.5866 -0.0197
 1843SOL    HW217166   1.880   1.929  14.516 -0.4862  1.0299  0.4996
 1844SOL     OW17167   4.436   1.240   5.437  0.3586  0.0917 -0.3105
 1844SOL    HW117168   4.411   1.297   5.364  0.7333  1.0040  0.2762
 1844SOL    HW217169   4.512   1.192   5.403 -0.7990 -1.7562 -0.2633
 1845SOL     OW17170   4.504   1.821  13.171 -0.5088 -0.1051  0.3485
 1845SOL    HW117171   4.557   1.901  13.175 -0.1598 -0.2882 -0.7761
 1845SOL    HW217172   4.449   1.832  13.094  0.5307  1.1632 -0.2252
 1846SOL     OW17173   2.155   0.773   8.127  0.5926  0.6167 -0.1399
 1846SOL    HW117174   2.063   0.788   8.146  0.0952 -2.9452  0.2860
 1846SOL    HW217175   2.149   0.730   8.041  0.1791 -0.4623  0.4331
 1847SOL     OW17176   1.169   3.088   9.472 -0.5704  0.5435  0.5755
 1847SOL    HW117177   1.160   3.108   9.565  0.8802  0.3241  0.7750
 1847SOL    HW217178   1.170   2.992   9.476 -1.4534  0.4757 -1.0439
 1848SOL     OW17179   0.454   2.940   6.216 -0.0496  0.5805  0.1943
 1848SOL    HW117180   0.452   2.981   6.129  1.7229 -1.0056 -0.5813
 1848SOL    HW217181   0.499   3.007   6.268 -1.4313  0.8188  1.0860
 1849SOL     OW17182   1.611   0.590   8.839 -0.2198  0.5930  0.0578
 1849SOL    HW117183   1.526   0.614   8.875  0.7122  1.8284  1.4406
 1849SOL    HW217184   1.591   0.502   8.806  1.8486  1.1320 -2.6199
 1850SOL     OW17185   4.639   2.114   7.151 -0.2126 -0.5312  0.2124
 1850SOL    HW117186   4.545   2.130   7.141  0.0895  1.4316  0.4418
 1850SOL    HW217187   4.671   2.196   7.113  0.7383 -1.8561 -1.8577
 1851SOL     OW17188   1.505   0.571   4.995 -0.3879 -0.1810 -0.1974
 1851SOL    HW117189   1.583   0.620   5.021  0.1776 -1.6185  0.7918
 1851SOL    HW217190   1.446   0.580   5.070 -0.3693 -0.7657 -0.1114
 1852SOL     OW17191   2.937   0.952   7.874 -0.1458 -0.9852  0.1928
 1852SOL    HW117192   2.947   0.935   7.780  1.8922  0.5678  0.1452
 1852SOL    HW217193   2.904   1.042   7.879 -1.0399 -1.3260  0.4328
 1853SOL     OW17194   1.528   3.714   4.886 -0.0381 -0.2853 -0.3607
 1853SOL    HW117195   1.583   3.787   4.860  0.7450  0.2452  2.7523
 1853SOL    HW217196   1.462   3.768   4.929 -0.7857  0.0669 -1.9541
 1854SOL     OW17197   3.203   4.549   2.859 -0.2168 -0.2938  0.1961
 1854SOL    HW117198   3.128   4.541   2.800  0.5237  1.5700 -0.9829
 1854SOL    HW217199   3.242   4.636   2.851 -1.1961  0.3482  2.4650
 1855SOL     OW17200   0.433   2.390   7.392  0.4418  0.3098 -0.0501
 1855SOL    HW117201   0.513   2.339   7.406 -0.3443 -0.6665  0.7886
 1855SOL    HW217202   0.446   2.414   7.300 -1.2515 -3.1858 -1.1840
 1856SOL     OW17203   4.262   2.745   7.513  0.4274  0.1722  0.2216
 1856SOL    HW117204   4.255   2.796   7.432 -0.9785  1.0106  0.8741
 1856SOL    HW217205   4.357   2.749   7.515  0.4306  0.3898 -0.2231
 1857SOL     OW17206   0.528   1.457  15.930  0.6278 -0.1537  0.1622
 1857SOL    HW117207   0.537   1.551  15.913  0.0328  0.0465  0.9743
 1857SOL    HW217208   0.610   1.421  15.897 -0.4657 -0.0744 -2.6834
 1858SOL     OW17209   2.642   2.587   7.022  0.6785 -0.2621 -0.0761
 1858SOL    HW117210   2.555   2.626   7.028  1.3738  1.0807  1.2137
 1858SOL    HW217211   2.634   2.561   6.930  0.2822 -0.3633 -0.0125
 1859SOL     OW17212   3.776   0.593   3.407  0.2521  0.5593 -0.5161
 1859SOL    HW117213   3.859   0.578   3.451 -0.8099  0.8662  1.5970
 1859SOL    HW217214   3.777   0.683   3.438 -2.7834 -0.1638  1.6917
 1860SOL     OW17215   2.266   0.514   3.516  0.2048 -0.0889 -0.6185
 1860SOL    HW117216   2.270   0.537   3.424  0.8647  2.0305 -0.0558
 1860SOL    HW217217   2.205   0.578   3.552 -2.6529 -2.4104 -1.3723
 1861SOL     OW17218   1.759   2.268   8.330  0.3754 -0.7416 -0.5606
 1861SOL    HW117219   1.672   2.255   8.294  0.9820 -2.1602 -1.4765
 1861SOL    HW217220   1.762   2.196   8.393 -0.1946 -0.6010 -0.3686
 1862SOL     OW17221   0.096   2.825   4.473 -0.2168  0.1176  0.3982
 1862SOL    HW117222   0.061   2.736   4.477 -0.4159  0.2121  0.7343
 1862SOL    HW217223   0.169   2.825   4.410 -0.7923 -0.0659 -0.2649
 1863SOL     OW17224   1.178   4.202  14.769 -0.4064 -0.2718  0.2959
 1863SOL    HW117225   1.136   4.275  14.725  1.0416 -0.6374 -1.6777
 1863SOL    HW217226   1.261   4.200  14.722 -1.1875  0.6358 -1.1223
 1864SOL     OW17227   1.122   1.633  14.996  0.1872  1.2095  0.0014
 1864SOL    HW117228   1.036   1.597  15.017  0.5250  0.0579 -0.6052
 1864SOL    HW217229   1.146   1.676  15.078  1.5768 -1.7546  1.1196
 1865SOL     OW17230   3.886   4.182   8.613  0.4250  0.1832  0.0009
 1865SOL    HW117231   3.830   4.180   8.691  0.2417 -1.0422 -0.1594
 1865SOL    HW217232   3.912   4.273   8.629  0.8686 -0.1830  1.3982
 1866SOL     OW17233   1.944   0.798  16.820 -0.1035 -0.0235 -0.0029
 1866SOL    HW117234   1.877   0.735  16.793  0.3325 -0.8174  0.7683
 1866SOL    HW217235   2.027   0.754  16.802 -1.3153 -2.7223  0.9171
 1867SOL     OW17236   0.237   1.672   9.405  0.2680 -0.3425  0.3795
 1867SOL    HW117237   0.249   1.703   9.316 -0.3381 -0.0316  0.4092
 1867SOL    HW217238   0.143   1.656   9.411  0.3501  0.0079  2.7967
 1868SOL     OW17239   4.551   0.145   3.339  0.6091 -0.2021  0.1118
 1868SOL    HW117240   4.599   0.174   3.262  1.2798 -1.0236  0.2129
 1868SOL    HW217241   4.520   0.059   3.312  0.1164 -0.7679  2.4450
 1869SOL     OW17242   2.575   1.752  16.037  0.5411 -0.1616  0.3685
 1869SOL    HW117243   2.670   1.744  16.049  0.4029 -0.1934  1.4737
 1869SOL    HW217244   2.554   1.811  16.110  1.5958  1.9553 -1.0478
 1870SOL     OW17245   2.272   1.992   4.279  0.2252 -0.2834 -1.1714
 1870SOL    HW117246   2.253   1.922   4.341 -0.7751  0.7007 -0.3648
 1870SOL    HW217247   2.184   2.029   4.269 -0.2248 -1.2234 -0.6610
 1871SOL     OW17248   0.739   0.603   0.543  0.2785  0.1585  0.2107
 1871SOL    HW117249   0.710   0.538   0.607 -0.2673  0.1727 -0.0239
 1871SOL    HW217250   0.715   0.679   0.597  0.4944  0.3051  0.0969
 1872SOL     OW17251   3.678   0.544   5.414  0.0709  0.2297 -0.3138
 1872SOL    HW117252   3.612   0.562   5.347  0.4747 -1.3781 -1.1393
 1872SOL    HW217253   3.629   0.555   5.495  1.1520  1.8582  0.1167
 1873SOL     OW17254   4.439   2.003  16.138  0.1526  0.4108  0.1548
 1873SOL    HW117255   4.354   2.045  16.145  0.2312  0.7511 -0.9252
 1873SOL    HW217256   4.413   1.926  16.188  0.7708  0.2222  0.1941
 1874SOL     OW17257   0.807   4.050  15.349 -1.2489 -0.1759  0.0887
 1874SOL    HW117258   0.892   4.089  15.329 -1.4051  0.3068  0.3617
 1874SOL    HW217259   0.760   4.127  15.317 -0.9800 -0.4599 -0.9975
 1875SOL     OW17260   2.784   4.483   5.171 -0.2335  0.1182  0.0425
 1875SOL    HW117261   2.787   4.477   5.075 -0.1061 -0.1310  0.0626
 1875SOL    HW217262   2.698   4.522   5.183  0.2433  1.7015 -1.6557
 1876SOL     OW17263   2.883   4.626   3.803 -0.1489  0.6190 -0.0188
 1876SOL    HW117264   2.894   4.584   3.717  0.6800  0.9363 -0.0769
 1876SOL    HW217265   2.789   4.617   3.819 -0.0614  0.0009  0.1382
 1877SOL     OW17266   4.573   4.132  15.573  0.5688  0.5003  0.8346
 1877SOL    HW117267   4.484   4.148  15.541  0.2445  1.3095  2.1559
 1877SOL    HW217268   4.600   4.081  15.496 -0.3631 -0.0587  0.8781
 1878SOL     OW17269   2.101   0.332  11.545  0.0719  0.3360  0.1204
 1878SOL    HW117270   2.163   0.275  11.591  3.2582  2.9294 -0.8921
 1878SOL    HW217271   2.134   0.322  11.456  3.4996 -0.9240  1.5211
 1879SOL     OW17272   2.105   3.007   6.275 -0.1681 -0.1576 -0.2790
 1879SOL    HW117273   2.158   3.086   6.277 -0.5595  0.1199 -0.9966
 1879SOL    HW217274   2.119   2.982   6.183  0.8805  2.5408 -0.8607
 1880SOL     OW17275   4.659   0.534   3.083  0.5528 -0.3241  0.2127
 1880SOL    HW117276   4.627   0.502   3.168  0.6420 -0.6982  0.1050
 1880SOL    HW217277   0.014   0.549   3.110  0.5237 -0.3580  0.3302
 1881SOL     OW17278   0.276   4.686  12.786 -0.0835 -0.3055 -0.9446
 1881SOL    HW117279   0.254   0.025  12.843  0.4135  0.0822 -1.2549
 1881SOL    HW217280   0.271   4.613  12.848 -2.0347  0.3970 -0.2710
 1882SOL     OW17281   3.144   0.468  11.793  0.4957  0.7254  0.6032
 1882SOL    HW117282   3.094   0.540  11.831 -1.7766 -0.6444  0.1386
 1882SOL    HW217283   3.165   0.418  11.872  2.3035  0.7688  0.1688
 1883SOL     OW17284   2.416   0.008   3.051 -0.7815 -0.2600 -0.2147
 1883SOL    HW117285   2.375   0.074   3.107  0.1027  1.2250 -1.3070
 1883SOL    HW217286   2.508   0.031   3.065 -1.2849  1.0379  0.9184
 1884SOL     OW17287   3.176   1.495   4.089  0.0963  0.0070 -0.0116
 1884SOL    HW117288   3.118   1.419   4.094 -0.6240  0.3952 -2.3540
 1884SOL    HW217289   3.129   1.549   4.152 -0.5872 -3.0050  2.0479
 1885SOL     OW17290   2.108   3.781   3.846 -0.4140 -0.2507 -0.0165
 1885SOL    HW117291   2.089   3.824   3.929 -0.5953 -4.2228  2.0174
 1885SOL    HW217292   2.186   3.739   3.882  0.7821  2.1053  0.1511
 1886SOL     OW17293   0.654   0.774   8.255 -0.0151 -0.0439 -0.4506
 1886SOL    HW117294   0.611   0.756   8.172  1.1309  1.0198 -1.2664
 1886SOL    HW217295   0.731   0.829   8.240  0.6654 -0.4792  1.4480
 1887SOL     OW17296   1.237   0.435   7.450  0.0646  0.3065  0.1300
 1887SOL    HW117297   1.303   0.367   7.436  1.9570  2.4394 -1.2846
 1887SOL    HW217298   1.166   0.423   7.388  0.4287  1.4274 -0.5004
 1888SOL     OW17299   1.796   0.958   6.592 -0.9278  0.0994  0.2409
 1888SOL    HW117300   1.798   1.053   6.603  0.0297 -0.1171  1.9258
 1888SOL    HW217301   1.780   0.929   6.682 -1.7301 -1.2027 -0.3152
 1889SOL     OW17302   1.191   0.025   4.984 -0.2264 -0.1007 -0.2772
 1889SOL    HW117303   1.152   4.723   5.063  0.5229  0.8875  0.5542
 1889SOL    HW217304   1.177   0.115   5.014  0.8633 -0.8357  2.3657
 1890SOL     OW17305   3.657   2.755  12.554 -0.0840 -0.2503 -0.0305
 1890SOL    HW117306   3.615   2.682  12.598 -0.1858 -1.0817 -1.4833
 1890SOL    HW217307   3.720   2.707  12.500  1.3505 -0.2313  1.6379
 1891SOL     OW17308   0.209   0.231   4.820 -0.8312 -0.1023 -0.2043
 1891SOL    HW117309   0.182   0.313   4.862  0.3963  0.5007 -0.6043
 1891SOL    HW217310   0.186   0.248   4.728  2.7320  0.1711 -1.0261
 1892SOL     OW17311   3.218   2.477  11.800  0.2606  0.4267 -0.1866
 1892SOL    HW117312   3.161   2.550  11.826 -0.4995  0.2548 -1.3777
 1892SOL    HW217313   3.289   2.521  11.755  0.2467  0.0304 -0.5999
 1893SOL     OW17314   0.214   2.957   7.195 -0.0044 -0.0031 -0.2608
 1893SOL    HW117315   0.223   2.986   7.105 -0.0519  2.0657  0.3957
 1893SOL    HW217316   0.276   3.019   7.234  0.6831 -1.3658  0.8190
 1894SOL     OW17317   3.520   1.414  10.521 -0.5980 -0.5158 -0.3756
 1894SOL    HW117318   3.602   1.431  10.475 -1.1650  0.7987 -0.9064
 1894SOL    HW217319   3.550   1.338  10.572 -1.5537 -0.1649  0.7004
 1895SOL     OW17320   3.681   2.129   9.894  0.1517 -0.3620 -0.1002
 1895SOL    HW117321   3.591   2.097   9.890  0.3096 -0.8517  0.3010
 1895SOL    HW217322   3.666   2.205   9.838 -0.3617 -1.8932 -2.0202
 1896SOL     OW17323   3.271   2.133  11.722 -0.3405  0.0576  0.1190
 1896SOL    HW117324   3.272   2.045  11.760  2.9456 -0.2180 -0.5936
 1896SOL    HW217325   3.234   2.107  11.638 -0.5041  1.8392 -0.3534
 1897SOL     OW17326   4.626   4.281  15.801  0.6800  0.4297  0.3605
 1897SOL    HW117327   4.590   4.220  15.865  1.0185 -0.7786 -0.5982
 1897SOL    HW217328   4.613   4.234  15.719  1.0684 -0.3055  0.7219
 1898SOL     OW17329   3.178   0.271   3.492 -0.5513 -0.5422 -0.2570
 1898SOL    HW117330   3.218   0.199   3.540  0.2794 -0.5301 -0.9242
 1898SOL    HW217331   3.201   0.255   3.400  0.7398 -0.5612  0.0721
 1899SOL     OW17332   0.901   4.028   9.580  0.2977  0.6562 -0.2994
 1899SOL    HW117333   0.868   4.110   9.616 -1.7422 -1.1943  2.0427
 1899SOL    HW217334   0.915   4.049   9.488 -1.4335  1.7176 -0.3159
 1900SOL     OW17335   1.323   1.740   1.840 -0.2873  0.2891 -0.4557
 1900SOL    HW117336   1.348   1.826   1.806  0.6926  0.6892  1.2515
 1900SOL    HW217337   1.251   1.707   1.786 -1.0189 -0.3018  0.8757
 1901SOL     OW17338   0.173   2.558   4.149 -0.2056  0.2125  0.1161
 1901SOL    HW117339   0.264   2.531   4.146 -0.5438 -0.8647 -0.7356
 1901SOL    HW217340   0.165   2.627   4.214  2.0921  0.0935  0.5108
 1902SOL     OW17341   2.236   2.908   0.455  0.1948  0.0360  0.3616
 1902SOL    HW117342   2.142   2.892   0.470  0.0216  0.2407 -0.5019
 1902SOL    HW217343   2.236   2.921   0.360  1.1616  0.2793  0.4000
 1903SOL     OW17344   1.852   0.344  17.538  0.4488 -0.3306  0.1773
 1903SOL    HW117345   1.913   0.272  17.552 -0.7515 -1.4533 -0.3130
 1903SOL    HW217346   1.904   0.422  17.557 -0.8478  0.1171  1.8690
 1904SOL     OW17347   4.228   1.957   1.053 -0.9268 -0.0460  0.2025
 1904SOL    HW117348   4.158   1.934   1.115  0.3840 -1.3414  1.1974
 1904SOL    HW217349   4.278   2.021   1.103 -0.0087 -0.0992 -0.6653
 1905SOL     OW17350   3.426   3.196  13.594  0.3370  0.4030 -0.0940
 1905SOL    HW117351   3.479   3.245  13.657 -2.0429  2.6696  0.1644
 1905SOL    HW217352   3.447   3.107  13.621 -0.9329 -0.2182 -1.1470
 1906SOL     OW17353   4.306   0.049  12.836  0.3042  0.1136  0.6430
 1906SOL    HW117354   4.254   0.078  12.761  0.8822  0.0609  0.2232
 1906SOL    HW217355   4.256   4.711  12.872 -0.0570  0.7570  1.4460
 1907SOL     OW17356   2.358   1.926   7.832  0.4719  0.8114 -0.1014
 1907SOL    HW117357   2.349   1.904   7.739 -1.4966  1.4966 -0.0716
 1907SOL    HW217358   2.443   1.889   7.856 -0.2559  0.5297  2.0170
 1908SOL     OW17359   1.413   2.374   4.895 -0.2724 -0.4327 -0.2280
 1908SOL    HW117360   1.408   2.459   4.940  0.1061 -0.5937  0.1093
 1908SOL    HW217361   1.478   2.332   4.950 -0.7117 -0.6535  0.1193
 1909SOL     OW17362   4.448   1.467  16.967 -0.4632 -0.4581 -0.3612
 1909SOL    HW117363   4.482   1.432  17.050  2.0526  3.4416  0.2217
 1909SOL    HW217364   4.388   1.394  16.951  0.0016 -0.6304 -1.2726
 1910SOL     OW17365   0.333   4.297   6.682  0.1721 -0.2320  0.0600
 1910SOL    HW117366   0.308   4.211   6.649 -0.1744  0.2427 -0.9128
 1910SOL    HW217367   0.411   4.276   6.734  0.4312  0.4508 -0.0505
 1911SOL     OW17368   2.558   2.455   0.303  0.2162 -0.1211 -0.1544
 1911SOL    HW117369   2.522   2.372   0.271 -1.5279  0.8940 -0.8480
 1911SOL    HW217370   2.533   2.450   0.396  0.7214 -0.7741 -0.0519
 1912SOL     OW17371   1.023   2.303   6.844 -0.6670  0.1993  0.0683
 1912SOL    HW117372   0.986   2.230   6.795 -1.7512  0.3988  0.5995
 1912SOL    HW217373   0.945   2.353   6.865  1.8732  4.0926  0.1556
 1913SOL     OW17374   0.259   1.005   3.788  0.6015 -0.1762 -0.1848
 1913SOL    HW117375   0.247   0.972   3.699 -0.7327  1.3878 -0.5796
 1913SOL    HW217376   0.325   1.071   3.768  2.0026 -1.1540  1.1304
 1914SOL     OW17377   2.187   1.072   9.535  0.6987  0.3484 -0.4670
 1914SOL    HW117378   2.179   0.982   9.505  1.3206  0.4762 -1.0308
 1914SOL    HW217379   2.247   1.099   9.465  1.7750 -2.2791 -0.5663
 1915SOL     OW17380   1.299   0.965   5.699  0.4922 -0.2447 -0.8150
 1915SOL    HW117381   1.236   0.944   5.630 -0.9759 -1.9337  1.0541
 1915SOL    HW217382   1.354   0.887   5.693 -1.5030 -1.7908  0.9912
 1916SOL     OW17383   2.048   0.280  15.822  0.1115 -0.1897 -0.3918
 1916SOL    HW117384   2.083   0.257  15.908 -0.3681 -1.8615 -0.6515
 1916SOL    HW217385   1.959   0.308  15.839 -0.0100  0.0510 -1.4125
 1917SOL     OW17386   3.236   3.030   6.947  0.3070  0.1009 -0.4467
 1917SOL    HW117387   3.237   3.049   6.853  3.7275  1.4409 -0.1260
 1917SOL    HW217388   3.310   3.073   6.989  0.8754 -0.1961 -1.1400
 1918SOL     OW17389   4.299   1.140   5.898 -0.2933  0.7438 -0.1910
 1918SOL    HW117390   4.325   1.156   5.989  0.1849  0.0325 -0.2082
 1918SOL    HW217391   4.236   1.211   5.885 -1.6433 -0.7231 -1.6003
 1919SOL     OW17392   2.406   2.258   1.796  0.1287  0.5471  0.2200
 1919SOL    HW117393   2.443   2.286   1.712 -0.4965  0.9361  0.0712
 1919SOL    HW217394   2.351   2.337   1.805 -1.1045 -0.0581 -1.9621
 1920SOL     OW17395   0.789   3.578   6.384  0.1084  0.5192  0.0333
 1920SOL    HW117396   0.715   3.611   6.435  1.1035 -0.4132  2.1111
 1920SOL    HW217397   0.809   3.660   6.339 -1.6319  0.0266 -1.6278
 1921SOL     OW17398   3.562   2.710   1.251 -0.3753 -0.6242  0.3114
 1921SOL    HW117399   3.489   2.746   1.300  0.8740 -0.5669  2.1420
 1921SOL    HW217400   3.638   2.724   1.308  0.6769  0.3409 -1.3349
 1922SOL     OW17401   2.433   3.133   5.764 -0.5057 -0.4744 -0.3124
 1922SOL    HW117402   2.342   3.102   5.766 -0.6583  0.0947  2.8683
 1922SOL    HW217403   2.475   3.055   5.730  1.0822  0.6025 -0.8007
 1923SOL     OW17404   2.500   2.643   6.002 -0.2838 -0.5496  0.1478
 1923SOL    HW117405   2.540   2.581   5.941  2.0900  0.8224  0.3299
 1923SOL    HW217406   2.575   2.695   6.030 -1.2180  1.2054 -0.5976
 1924SOL     OW17407   3.459   0.694   5.322 -0.0024  0.3364 -0.2054
 1924SOL    HW117408   3.411   0.777   5.313  1.6974  1.2868 -0.5333
 1924SOL    HW217409   3.399   0.654   5.386  0.6408 -0.5083 -0.1336
 1925SOL     OW17410   0.579   3.861  13.569  0.0421 -0.0648  0.2315
 1925SOL    HW117411   0.623   3.881  13.652 -1.2035 -0.8306  1.0647
 1925SOL    HW217412   0.606   3.769  13.565  2.9376  0.7130  1.6320
 1926SOL     OW17413   3.003   1.358   9.751 -0.5710 -0.0056  0.2883
 1926SOL    HW117414   3.067   1.422   9.722 -0.8552 -0.2109 -0.8080
 1926SOL    HW217415   3.013   1.289   9.685 -0.1456 -0.5002  0.8715
 1927SOL     OW17416   0.959   3.770   7.705 -0.4789 -0.3014 -0.4503
 1927SOL    HW117417   0.869   3.742   7.725  0.0980 -0.5284  1.8210
 1927SOL    HW217418   1.005   3.732   7.780  0.0897  1.7661  0.2521
 1928SOL     OW17419   4.269   0.425   1.443 -0.1850  0.2039  0.7473
 1928SOL    HW117420   4.326   0.401   1.517 -0.3029 -1.9116  0.1672
 1928SOL    HW217421   4.328   0.424   1.368 -0.8376  3.3310  0.2188
 1929SOL     OW17422   2.776   2.257  10.150  0.7103  0.5232  0.0579
 1929SOL    HW117423   2.686   2.275  10.178  0.6553  1.0504 -0.4506
 1929SOL    HW217424   2.817   2.217  10.226  1.8456  0.8726 -0.3678
 1930SOL     OW17425   2.059   3.225   0.221  0.2069 -0.2914  0.2408
 1930SOL    HW117426   2.022   3.236   0.133  0.8527 -2.2371 -0.2694
 1930SOL    HW217427   2.005   3.153   0.253 -0.2116  0.4906  1.2854
 1931SOL     OW17428   2.084   0.723  12.249  0.0015  0.2851 -0.6652
 1931SOL    HW117429   2.104   0.790  12.315  0.3396 -0.0475 -0.4290
 1931SOL    HW217430   2.115   0.781  12.179  2.9131  0.1430  0.4960
 1932SOL     OW17431   0.790   2.399   3.382  0.4740 -0.4001  0.4955
 1932SOL    HW117432   0.826   2.379   3.296 -3.1085  0.5986 -1.2525
 1932SOL    HW217433   0.721   2.463   3.366 -0.2758 -1.4358 -0.4186
 1933SOL     OW17434   0.155   2.035  12.600  0.3189 -0.8054  0.6229
 1933SOL    HW117435   0.160   1.943  12.576 -3.2194 -1.3135  1.8486
 1933SOL    HW217436   0.061   2.047  12.613 -0.0214 -1.5288 -1.3018
 1934SOL     OW17437   0.670   4.559  10.261 -0.3419 -0.2942 -0.5927
 1934SOL    HW117438   0.681   4.533  10.352  1.2789  0.1022 -0.6704
 1934SOL    HW217439   0.690   4.652  10.267  1.5605 -0.8412  1.7553
 1935SOL     OW17440   3.148   3.278  17.124  0.5621  0.0616 -0.1546
 1935SOL    HW117441   3.163   3.186  17.145  1.4969  1.1344  3.8545
 1935SOL    HW217442   3.172   3.271  17.032 -1.2559  1.3227 -0.7205
 1936SOL     OW17443   0.411   2.847  12.384  0.3565 -0.1703 -0.0748
 1936SOL    HW117444   0.459   2.768  12.408 -0.8454 -1.1243 -0.8671
 1936SOL    HW217445   0.405   2.836  12.289 -1.2183 -3.8446  0.4804
 1937SOL     OW17446   1.181   2.272   6.237  0.0084 -0.0010 -0.2356
 1937SOL    HW117447   1.215   2.310   6.318 -1.1486 -0.4732  0.4648
 1937SOL    HW217448   1.255   2.222   6.202  0.5389  1.1712 -0.7890
 1938SOL     OW17449   2.556   2.871   8.611  0.4445  0.0716  0.1393
 1938SOL    HW117450   2.479   2.826   8.576  0.0109  0.2664  0.8429
 1938SOL    HW217451   2.538   2.965   8.619 -2.7868 -0.6096  1.0743
 1939SOL     OW17452   1.692   3.486   7.602 -0.0254  0.3549  0.1812
 1939SOL    HW117453   1.770   3.528   7.565 -0.8407  0.0800 -1.8633
 1939SOL    HW217454   1.675   3.422   7.533  2.1221 -0.1352  0.0971
 1940SOL     OW17455   3.802   1.435   8.543  0.3072 -0.2085  0.3578
 1940SOL    HW117456   3.729   1.374   8.552  1.0901 -1.2900 -0.6546
 1940SOL    HW217457   3.878   1.382   8.566  0.0145 -1.0251 -0.5261
 1941SOL     OW17458   4.030   3.831   6.522 -0.0456 -0.1473 -0.0122
 1941SOL    HW117459   3.935   3.831   6.515  0.0425  0.4541 -1.0827
 1941SOL    HW217460   4.060   3.767   6.457 -1.1815 -1.7559  1.0502
 1942SOL     OW17461   0.940   0.071   8.212  0.1837 -0.3726 -0.0976
 1942SOL    HW117462   0.924   0.140   8.276 -0.2731 -0.1310 -0.4692
 1942SOL    HW217463   0.850   0.054   8.182  0.2991 -0.8043 -0.1925
 1943SOL     OW17464   4.191   4.453   8.749 -0.1627 -0.1368  0.0153
 1943SOL    HW117465   4.142   4.536   8.741  0.5047  0.2266 -0.3173
 1943SOL    HW217466   4.149   4.396   8.685  2.7313  0.2288 -2.2184
 1944SOL     OW17467   2.049   4.504  13.670  0.2170 -0.3194  0.3724
 1944SOL    HW117468   1.969   4.550  13.692  1.0873  0.8073  1.1851
 1944SOL    HW217469   2.066   4.465  13.755 -3.1741 -3.8367 -0.5801
 1945SOL     OW17470   0.582   3.153  17.349  0.0455 -0.1355  0.4669
 1945SOL    HW117471   0.526   3.104  17.410  0.7394 -0.6380  0.7047
 1945SOL    HW217472   0.527   3.227  17.324  1.3433  0.8359  0.4677
 1946SOL     OW17473   4.491   2.733   8.986  0.0531 -0.1240  0.2938
 1946SOL    HW117474   4.432   2.681   8.931 -1.0563  1.4923 -0.0180
 1946SOL    HW217475   4.470   2.820   8.952 -3.6032 -1.8608 -1.9298
 1947SOL     OW17476   2.483   1.256  15.897 -0.6064 -0.1560 -0.7253
 1947SOL    HW117477   2.450   1.227  15.982 -0.2644  1.8296  0.0901
 1947SOL    HW217478   2.443   1.343  15.890  0.2692  0.3310  0.2969
 1948SOL     OW17479   4.067   4.140   1.653 -0.3214 -0.2969 -0.2379
 1948SOL    HW117480   3.989   4.161   1.703 -0.6563 -2.3921  0.1202
 1948SOL    HW217481   4.130   4.100   1.713 -2.7677  0.9531  3.1049
 1949SOL     OW17482   0.401   0.292   5.661 -0.4242 -0.1156 -0.4453
 1949SOL    HW117483   0.353   0.276   5.580 -0.9848 -0.8190  0.0248
 1949SOL    HW217484   0.492   0.288   5.633 -0.5218  0.2046 -0.8030
 1950SOL     OW17485   2.267   2.969   7.400  0.3218  0.0038  0.2025
 1950SOL    HW117486   2.198   3.022   7.360  1.4790 -0.2603 -2.1017
 1950SOL    HW217487   2.297   3.028   7.470 -0.3436  1.3435 -0.6475
 1951SOL     OW17488   4.062   3.559   8.743 -0.3157  0.7649  0.4155
 1951SOL    HW117489   4.130   3.552   8.810 -1.4645  0.2608  1.5288
 1951SOL    HW217490   4.048   3.466   8.726  0.5428  0.6430  0.3648
 1952SOL     OW17491   1.764   0.753  15.188  0.2431 -0.1666  0.2436
 1952SOL    HW117492   1.816   0.725  15.113  1.5034  2.8876 -0.0610
 1952SOL    HW217493   1.798   0.843  15.184 -1.0371  0.3035  0.0599
 1953SOL     OW17494   0.749   0.855   0.643  0.8801  0.2001  0.2978
 1953SOL    HW117495   0.825   0.912   0.648 -0.0026  1.3028  1.1595
 1953SOL    HW217496   0.695   0.897   0.710  1.5487  0.8628  0.4226
 1954SOL     OW17497   0.942   2.533  11.409  0.7966  0.1717 -0.0963
 1954SOL    HW117498   1.001   2.533  11.484 -1.4282 -2.1236  1.6709
 1954SOL    HW217499   0.917   2.441  11.415 -4.0721  1.5693  1.2828
 1955SOL     OW17500   3.965   2.171   3.930 -0.1056 -0.4943  0.2036
 1955SOL    HW117501   3.978   2.077   3.921  0.4431 -0.1954 -2.1732
 1955SOL    HW217502   4.040   2.202   3.879  0.1961 -1.1103  0.2768
 1956SOL     OW17503   3.577   0.407   7.722  0.3173  0.2394 -0.3046
 1956SOL    HW117504   3.623   0.330   7.688 -0.8983  0.0870 -1.6026
 1956SOL    HW217505   3.498   0.411   7.668  0.3600 -1.0405 -0.4580
 1957SOL     OW17506   4.186   1.198   2.436  0.1147  0.6963  0.3829
 1957SOL    HW117507   4.197   1.159   2.523  0.8391  0.5319  0.2201
 1957SOL    HW217508   4.143   1.281   2.458  2.7212  1.8782  0.9443
 1958SOL     OW17509   2.606   2.357   2.210 -0.3427 -0.3144 -0.0709
 1958SOL    HW117510   2.626   2.281   2.156 -0.1279  0.5859 -1.2411
 1958SOL    HW217511   2.658   2.426   2.169  0.2689 -0.9420 -0.3450
 1959SOL     OW17512   3.177   1.719   4.771  0.1121 -0.1733 -0.0995
 1959SOL    HW117513   3.170   1.727   4.867  1.0337 -1.3701  0.0705
 1959SOL    HW217514   3.112   1.655   4.743 -2.0055  1.6311  0.6697
 1960SOL     OW17515   2.327   4.511   2.489 -0.8849 -0.2198  1.1764
 1960SOL    HW117516   2.262   4.501   2.419  0.4082 -0.2766 -0.0203
 1960SOL    HW217517   2.279   4.483   2.567 -2.6778  0.1100  0.1997
 1961SOL     OW17518   0.964   0.430  11.951 -0.2476  0.2474  0.1059
 1961SOL    HW117519   0.927   0.517  11.939  0.2076  0.2666 -1.2113
 1961SOL    HW217520   0.977   0.430  12.046  0.1360  3.9645  0.0373
 1962SOL     OW17521   0.721   1.607   3.257 -0.2855 -0.2694 -0.9032
 1962SOL    HW117522   0.642   1.594   3.309  0.8860  1.5085  1.3501
 1962SOL    HW217523   0.736   1.700   3.274 -0.4752 -0.7495  1.8462
 1963SOL     OW17524   4.374   0.485   3.968 -0.3124  0.1969  0.0815
 1963SOL    HW117525   4.451   0.526   4.006 -1.0065  0.8907  0.7275
 1963SOL    HW217526   4.323   0.556   3.929 -2.0276 -0.0847  1.8414
 1964SOL     OW17527   2.275   0.751   4.412  0.1235  0.3159 -0.6239
 1964SOL    HW117528   2.218   0.678   4.387  0.2857  0.0659 -0.2713
 1964SOL    HW217529   2.217   0.815   4.453  1.5966  0.9717  0.4436
 1965SOL     OW17530   2.324   0.352   8.046 -0.2972 -0.1712  0.3223
 1965SOL    HW117531   2.349   0.396   8.128  2.2141 -0.9871 -0.0258
 1965SOL    HW217532   2.257   0.293   8.081 -0.3543 -0.6473 -0.5997
 1966SOL     OW17533   1.968   4.649   1.899  0.9871 -0.5023 -0.1284
 1966SOL    HW117534   1.964   4.673   1.992 -0.7508 -0.5716 -0.1809
 1966SOL    HW217535   2.060   4.646   1.877  1.3776  1.2977  1.2345
 1967SOL     OW17536   0.528   0.383   7.892  0.4945 -0.0496 -0.3689
 1967SOL    HW117537   0.462   0.321   7.922  0.9164  0.2838  1.2417
 1967SOL    HW217538   0.601   0.342   7.938  1.1451  0.1239 -1.2490
 1968SOL     OW17539   4.487   0.352   7.948 -0.3524  0.4374 -0.3617
 1968SOL    HW117540   4.509   0.263   7.920 -0.2322  0.6572 -0.9731
 1968SOL    HW217541   4.404   0.363   7.901  0.4505  1.5365 -1.5366
 1969SOL     OW17542   0.215   3.456   3.177  0.2574  1.0753 -0.8674
 1969SOL    HW117543   0.145   3.480   3.238  0.5738  0.0992 -0.1119
 1969SOL    HW217544   0.232   3.365   3.201 -0.3424  0.7699 -1.5843
 1970SOL     OW17545   1.949   2.089   1.884  0.1053 -0.3132 -0.0106
 1970SOL    HW117546   2.039   2.114   1.901 -0.0406  0.2492 -0.0653
 1970SOL    HW217547   1.929   2.048   1.968 -0.3758  3.4025  1.6770
 1971SOL     OW17548   4.246   2.319   5.787  0.0871 -0.3652 -0.0777
 1971SOL    HW117549   4.271   2.386   5.851 -1.0304 -0.4490  0.4597
 1971SOL    HW217550   4.318   2.256   5.790  1.8435  1.7431  1.9789
 1972SOL     OW17551   1.829   2.863   2.068 -0.1651 -0.0425  0.1135
 1972SOL    HW117552   1.795   2.822   2.147  1.0870  0.0251  0.6931
 1972SOL    HW217553   1.920   2.833   2.075 -0.6149 -1.2595  0.6782
 1973SOL     OW17554   1.345   3.991   8.777  0.0208 -0.0894 -0.3564
 1973SOL    HW117555   1.406   4.021   8.709 -1.6903 -0.1853 -1.9499
 1973SOL    HW217556   1.278   3.944   8.726  0.8028  0.2016 -1.6470
 1974SOL     OW17557   0.336   0.066   9.215  0.2317  0.6876  0.3091
 1974SOL    HW117558   0.307   0.064   9.124  1.3700  0.3182 -0.0429
 1974SOL    HW217559   0.423   0.103   9.202 -0.2163  0.7186 -2.5264
 1975SOL     OW17560   4.003   0.261   8.543 -0.0953  0.2555  0.0924
 1975SOL    HW117561   3.945   0.261   8.467  2.2703  0.6066 -1.7357
 1975SOL    HW217562   3.942   0.243   8.615 -1.0730 -2.2802 -1.3502
 1976SOL     OW17563   0.346   4.581   2.756 -0.4016  0.1544  0.1922
 1976SOL    HW117564   0.329   4.502   2.704  0.1628  0.5621 -0.5972
 1976SOL    HW217565   0.397   4.640   2.701  1.9073 -1.8655  0.1586
 1977SOL     OW17566   4.643   0.542   1.537  0.4752 -0.4504  0.0513
 1977SOL    HW117567   4.586   0.472   1.568  2.0687 -0.7189  2.3589
 1977SOL    HW217568   4.692   0.566   1.616 -0.8131  0.5082  0.5704
 1978SOL     OW17569   2.033   0.301   9.697 -0.5768  0.1277 -0.2093
 1978SOL    HW117570   1.946   0.277   9.728 -0.2259  1.6602  1.9608
 1978SOL    HW217571   2.089   0.276   9.771 -0.3601  0.0199 -0.4088
 1979SOL     OW17572   4.358   1.610   7.499  0.1998 -0.2291  0.0699
 1979SOL    HW117573   4.445   1.573   7.494  0.9487  1.5659 -0.3189
 1979SOL    HW217574   4.345   1.648   7.412 -2.0119 -0.1715  0.4037
 1980SOL     OW17575   2.682   4.542   8.191 -0.2694  0.4841 -0.0532
 1980SOL    HW117576   2.619   4.493   8.244 -0.5186  1.3349  0.4370
 1980SOL    HW217577   2.753   4.477   8.191 -0.4387  0.2889  0.6329
 1981SOL     OW17578   3.185   3.136   0.947  0.4159 -0.0179  0.4316
 1981SOL    HW117579   3.098   3.142   0.907 -0.0393 -0.8497  1.3040
 1981SOL    HW217580   3.211   3.229   0.943 -0.8214  0.4500  3.2678
 1982SOL     OW17581   1.241   0.278   2.789  0.0446 -0.4336  0.0885
 1982SOL    HW117582   1.166   0.261   2.731  0.4876  0.5492 -0.7657
 1982SOL    HW217583   1.209   0.251   2.875 -1.3777 -1.6618 -0.8252
 1983SOL     OW17584   1.067   1.811   4.414  0.3250  0.0299 -0.1167
 1983SOL    HW117585   1.092   1.720   4.400 -0.1628  0.1938 -2.1099
 1983SOL    HW217586   1.122   1.845   4.344 -0.3618 -2.3659 -1.8344
 1984SOL     OW17587   4.048   3.293   5.482  0.0594 -0.1547 -0.1136
 1984SOL    HW117588   4.116   3.292   5.550  0.0325  2.0800 -0.0613
 1984SOL    HW217589   4.053   3.381   5.445 -1.9883  0.5584  1.2897
 1985SOL     OW17590   3.830   1.758   3.567 -0.0224  0.3409 -0.3329
 1985SOL    HW117591   3.829   1.691   3.499 -0.1977  0.6930 -0.6759
 1985SOL    HW217592   3.739   1.763   3.595 -0.3025  0.2865 -1.2527
 1986SOL     OW17593   3.966   2.797   7.113  0.0647  0.1941  0.4177
 1986SOL    HW117594   4.007   2.710   7.114  2.4227  1.2835 -0.8920
 1986SOL    HW217595   3.935   2.806   7.023  1.5415 -1.0991 -0.2281
 1987SOL     OW17596   3.847   1.541   4.091  0.2760  0.5387 -0.6277
 1987SOL    HW117597   3.902   1.484   4.144 -0.1410 -0.2412 -1.0341
 1987SOL    HW217598   3.865   1.510   4.002  0.8342 -1.6355  0.2542
 1988SOL     OW17599   4.215   2.371  13.143  0.3671  0.3684  0.3338
 1988SOL    HW117600   4.237   2.403  13.056 -2.5502  1.8011  0.1208
 1988SOL    HW217601   4.289   2.316  13.168  0.7407  0.0780 -1.4835
 1989SOL     OW17602   2.673   2.781  16.572 -0.0204  0.1753 -0.0199
 1989SOL    HW117603   2.704   2.760  16.484 -0.7935 -0.8332 -0.0568
 1989SOL    HW217604   2.754   2.807  16.615  0.6876 -2.1759  0.0465
 1990SOL     OW17605   1.961   3.047   0.411  0.3917  0.5598 -0.0685
 1990SOL    HW117606   1.950   2.974   0.351 -1.0739  0.4805  0.2943
 1990SOL    HW217607   1.882   3.027   0.461 -0.2998  1.3963 -0.8354
 1991SOL     OW17608   2.262   1.906   4.786 -0.4150 -0.0631 -0.0700
 1991SOL    HW117609   2.344   1.954   4.775 -0.7986  1.4804  3.7890
 1991SOL    HW217610   2.214   1.947   4.858  0.6450  1.7072 -0.3632
 1992SOL     OW17611   0.536   4.246   0.481  0.4202  0.0060 -0.1659
 1992SOL    HW117612   0.565   4.315   0.421 -1.7759  0.6731 -0.4769
 1992SOL    HW217613   0.594   4.177   0.448 -1.7420 -1.7086 -0.3944
 1993SOL     OW17614   0.559   0.152  15.538 -0.0641  0.1746  0.8255
 1993SOL    HW117615   0.549   0.108  15.622  0.7317  0.0860  0.8790
 1993SOL    HW217616   0.631   0.216  15.542 -0.1530  0.3226  0.0762
 1994SOL     OW17617   1.090   0.465  16.142  0.5401  0.0230  0.5621
 1994SOL    HW117618   1.139   0.546  16.156 -0.3837  0.6874  0.0152
 1994SOL    HW217619   1.003   0.495  16.115  1.3586  0.4179 -1.6940
 1995SOL     OW17620   1.387   3.089   2.602  0.0025  0.1859  0.1571
 1995SOL    HW117621   1.337   3.145   2.544  0.6616 -0.4595 -1.0256
 1995SOL    HW217622   1.438   3.158   2.643 -1.1948  1.4981 -0.5798
 1996SOL     OW17623   0.212   2.115   5.550 -0.2199 -0.3569 -0.1678
 1996SOL    HW117624   0.135   2.099   5.605 -1.2004  2.9744 -0.5014
 1996SOL    HW217625   0.254   2.031   5.533 -0.7362 -0.4135 -1.1763
 1997SOL     OW17626   4.469   3.317   8.563  0.8502 -0.3868 -0.4909
 1997SOL    HW117627   4.427   3.381   8.506 -3.9111 -2.2490  0.9555
 1997SOL    HW217628   4.397   3.291   8.620 -0.3055  1.0341 -1.3027
 1998SOL     OW17629   2.730   0.224   4.662 -0.1524  0.1436 -0.1906
 1998SOL    HW117630   2.807   0.255   4.710 -0.2905 -1.4568  1.1091
 1998SOL    HW217631   2.773   0.175   4.592 -0.4320  0.7310 -0.7714
 1999SOL     OW17632   0.593   2.292   9.030 -0.7753 -0.4317  0.1102
 1999SOL    HW117633   0.501   2.316   9.021 -0.3691  1.1000  0.1219
 1999SOL    HW217634   0.598   2.207   8.986 -0.7916 -1.4623  2.0654
 2000SOL     OW17635   2.402   3.441   8.192 -0.1211 -0.1349 -0.3110
 2000SOL    HW117636   2.449   3.389   8.257  0.7470  0.7527 -0.2194
 2000SOL    HW217637   2.348   3.501   8.243  0.1318 -0.9150  0.8750
 2001SOL     OW17638   2.649   4.460   6.775 -0.1337 -0.1802 -0.0736
 2001SOL    HW117639   2.730   4.410   6.786 -0.3071 -0.6151 -0.7779
 2001SOL    HW217640   2.588   4.398   6.815  0.2578  0.4112  1.4119
 2002SOL     OW17641   1.145   3.673   4.459 -0.0265  0.5146 -0.5946
 2002SOL    HW117642   1.144   3.578   4.454  0.3399  0.6156 -2.5695
 2002SOL    HW217643   1.113   3.699   4.373  2.4004  2.5772 -0.8908
 2003SOL     OW17644   1.089   4.219   5.254  0.2320  0.0104 -0.0431
 2003SOL    HW117645   1.178   4.250   5.237 -0.0361  1.0474  0.3970
 2003SOL    HW217646   1.097   4.124   5.253 -0.2350 -0.0202 -0.8119
 2004SOL     OW17647   2.719   0.208  16.823 -0.3237  0.2990  0.2771
 2004SOL    HW117648   2.697   0.301  16.821 -0.6176  0.2000 -1.1279
 2004SOL    HW217649   2.632   0.166  16.817  0.2981 -0.8449 -0.8600
 2005SOL     OW17650   0.285   1.601   3.928 -0.1455  0.1476 -0.5223
 2005SOL    HW117651   0.318   1.600   3.838 -0.6220 -0.0682 -0.6996
 2005SOL    HW217652   0.305   1.693   3.944 -1.3460  0.4571 -0.7792
 2006SOL     OW17653   0.323   3.615  17.333  0.8032 -0.4378 -0.5589
 2006SOL    HW117654   0.377   3.651  17.263 -2.2984  0.2152 -2.6380
 2006SOL    HW217655   0.375   3.543  17.368 -1.6848 -1.0830  1.8172
 2007SOL     OW17656   1.840   4.102   4.976  0.6735 -0.2072  0.3690
 2007SOL    HW117657   1.890   4.158   5.036 -1.2482  1.8320  0.0648
 2007SOL    HW217658   1.750   4.136   4.979 -0.5867 -3.4080 -0.7870
 2008SOL     OW17659   1.462   2.346  14.392  0.6393 -0.3655 -0.2128
 2008SOL    HW117660   1.471   2.337  14.487  0.1929  2.9703  0.1731
 2008SOL    HW217661   1.475   2.439  14.371 -0.3750 -0.0697  0.4762
 2009SOL     OW17662   2.405   1.584  10.416 -0.1202 -0.0051  0.1703
 2009SOL    HW117663   2.476   1.570  10.354 -0.4761  1.6616 -0.6038
 2009SOL    HW217664   2.411   1.499  10.461 -2.0183  0.0063  0.4459
 2010SOL     OW17665   3.230   3.517  13.223  0.3853 -0.3588 -0.7931
 2010SOL    HW117666   3.274   3.600  13.206  0.1882 -0.2918 -0.9779
 2010SOL    HW217667   3.191   3.497  13.138 -0.3840  3.4655 -1.3391
 2011SOL     OW17668   4.426   2.270  12.653  0.0438  0.4997  0.3050
 2011SOL    HW117669   4.430   2.341  12.589  0.3915  1.0636  0.9514
 2011SOL    HW217670   4.428   2.318  12.736  0.0018  0.0143  0.5852
 2012SOL     OW17671   1.048   3.939   7.451  0.2932 -0.5550 -0.4169
 2012SOL    HW117672   1.126   3.919   7.400  0.5537 -0.9698  0.1411
 2012SOL    HW217673   0.984   3.970   7.387  0.8942  1.2864 -0.1209
 2013SOL     OW17674   4.096   1.427   9.148 -0.0480  0.2489  0.1643
 2013SOL    HW117675   4.157   1.401   9.079 -0.8865 -0.4941 -0.2955
 2013SOL    HW217676   4.094   1.347   9.200 -0.7598 -0.7310 -1.3596
 2014SOL     OW17677   3.056   1.068   5.141 -0.1384  0.5538  0.7555
 2014SOL    HW117678   3.129   1.083   5.081  1.9071 -0.8635  2.8639
 2014SOL    HW217679   2.984   1.069   5.078 -0.4901 -1.3981  1.1303
 2015SOL     OW17680   1.749   2.920   5.108  0.2124 -0.8414 -0.2840
 2015SOL    HW117681   1.672   2.974   5.126  1.0965  1.0684 -2.2993
 2015SOL    HW217682   1.699   2.843   5.082 -1.3828  0.2811 -0.5274
 2016SOL     OW17683   4.532   3.848   2.184 -0.8002  0.3196 -0.2782
 2016SOL    HW117684   4.484   3.779   2.139  1.1209  0.3998 -2.4284
 2016SOL    HW217685   4.533   3.925   2.127 -0.9793 -0.5172 -1.3948
 2017SOL     OW17686   0.373   0.577   4.357 -0.0594 -0.1912 -0.0123
 2017SOL    HW117687   0.322   0.499   4.339 -0.3297 -0.1786  0.6917
 2017SOL    HW217688   0.312   0.649   4.343  0.0203  0.0400  0.7822
 2018SOL     OW17689   0.539   2.593   3.375  0.1864 -0.0885 -1.1578
 2018SOL    HW117690   0.495   2.540   3.308 -2.0302 -0.8756  0.9122
 2018SOL    HW217691   0.514   2.681   3.345  1.0641 -0.0986 -1.9173
 2019SOL     OW17692   0.475   1.359   9.059 -0.7505  0.0016 -0.2873
 2019SOL    HW117693   0.450   1.430   9.118  2.4856 -0.7564  2.0129
 2019SOL    HW217694   0.448   1.387   8.972  1.2795  0.0734 -0.8881
 2020SOL     OW17695   3.292   0.581   0.288 -0.3000  0.3536 -0.1552
 2020SOL    HW117696   3.275   0.627   0.370  0.6785  0.5359 -0.0549
 2020SOL    HW217697   3.225   0.609   0.226  0.4748 -0.1450 -1.2233
 2021SOL     OW17698   0.031   3.423   6.917 -0.2739 -0.8257  0.6492
 2021SOL    HW117699   4.674   3.410   6.942 -0.3677  0.0588  0.7706
 2021SOL    HW217700   0.067   3.430   7.005  0.0176 -0.7348  0.5212
 2022SOL     OW17701   0.090   3.490   2.605 -0.1524 -0.0497 -0.0625
 2022SOL    HW117702   0.121   3.580   2.614  1.1673 -0.3809 -1.1402
 2022SOL    HW217703   0.103   3.462   2.696 -1.5342  0.6035  0.3348
 2023SOL     OW17704   2.427   3.346  13.220  0.0899 -0.2060  0.3349
 2023SOL    HW117705   2.431   3.441  13.230 -0.9352 -0.3881  2.4728
 2023SOL    HW217706   2.436   3.340  13.125 -0.2824 -0.8318  0.3400
 2024SOL     OW17707   0.032   1.047   8.998 -0.2316 -0.5479  0.0871
 2024SOL    HW117708   0.009   1.138   9.015  3.1377  0.1970  0.5205
 2024SOL    HW217709   0.069   1.023   9.083 -0.1306  1.6047  0.6271
 2025SOL     OW17710   0.250   0.139   4.493  0.4535 -0.4973  0.1692
 2025SOL    HW117711   0.274   0.051   4.464  0.8401 -0.2540 -0.2577
 2025SOL    HW217712   0.163   0.120   4.528  1.0948 -0.6614  1.6678
 2026SOL     OW17713   4.272   0.334   4.620 -0.1348 -0.0289 -0.4167
 2026SOL    HW117714   4.265   0.427   4.598  2.3763  0.2807  0.0579
 2026SOL    HW217715   4.179   0.318   4.634 -0.0565  0.1967  0.3523
 2027SOL     OW17716   1.794   1.742  17.410 -0.6131  0.2467 -0.0300
 2027SOL    HW117717   1.829   1.756  17.322 -0.4188 -0.8929 -0.1337
 2027SOL    HW217718   1.708   1.700  17.395 -1.5470  1.5607  1.6384
 2028SOL     OW17719   3.563   3.074   6.474 -0.1877  0.1605  0.9680
 2028SOL    HW117720   3.657   3.059   6.483 -0.1540  0.7632  1.6868
 2028SOL    HW217721   3.561   3.137   6.402  1.0255  0.4928  1.2327
 2029SOL     OW17722   4.497   0.138   7.288  0.0512 -0.3868 -0.2890
 2029SOL    HW117723   4.544   0.193   7.351  0.0044 -1.3868  0.6158
 2029SOL    HW217724   4.423   0.111   7.342  0.4595  0.3346  0.6365
 2030SOL     OW17725   1.989   1.825   3.316  0.0259 -0.1058 -0.0999
 2030SOL    HW117726   2.067   1.811   3.369  0.2750 -1.3833 -0.7880
 2030SOL    HW217727   1.962   1.735   3.337 -0.7975  0.5381  1.5272
 2031SOL     OW17728   2.796   2.162  17.522  0.0756 -0.0754  0.3012
 2031SOL    HW117729   2.732   2.231  17.508 -0.5920 -0.9305 -0.8166
 2031SOL    HW217730   2.840   2.198  17.599 -0.9819  2.8570 -0.4509
 2032SOL     OW17731   3.543   3.904   5.789 -0.8629  0.0813 -0.2552
 2032SOL    HW117732   3.466   3.961   5.783 -1.1846 -0.4123 -0.8317
 2032SOL    HW217733   3.588   3.940   5.866  0.2773 -0.8820 -0.4708
 2033SOL     OW17734   0.270   1.609   3.244  0.4853 -0.3435 -0.6386
 2033SOL    HW117735   0.315   1.534   3.283  0.1362  0.4660  1.3317
 2033SOL    HW217736   0.201   1.570   3.190 -0.6206 -0.8108  1.1253
 2034SOL     OW17737   3.337   1.300   2.985 -0.0103  0.1975 -0.9735
 2034SOL    HW117738   3.310   1.233   2.922 -0.9326 -1.6963  1.4274
 2034SOL    HW217739   3.276   1.290   3.059  2.0771 -2.7553  0.3460
 2035SOL     OW17740   3.246   0.314   5.962  0.2104  0.1176  0.5970
 2035SOL    HW117741   3.205   0.285   5.880  1.8314 -0.0877 -0.1470
 2035SOL    HW217742   3.199   0.260   6.025  0.3427  0.0995  0.6805
 2036SOL     OW17743   2.288   3.351   5.115  0.7345 -0.3036  0.0434
 2036SOL    HW117744   2.231   3.377   5.042 -0.3794 -0.8838  0.6945
 2036SOL    HW217745   2.373   3.366   5.075  0.4542  0.7086 -0.1808
 2037SOL     OW17746   3.727   3.730   7.704  0.0047 -1.0067 -0.5612
 2037SOL    HW117747   3.757   3.801   7.761  0.2877 -1.7151  0.1739
 2037SOL    HW217748   3.762   3.753   7.618  2.0074 -0.0889  0.5044
 2038SOL     OW17749   0.436   3.923  16.286  0.1571  0.3803 -0.2327
 2038SOL    HW117750   0.419   3.960  16.199 -1.7264  0.1196  0.0115
 2038SOL    HW217751   0.445   3.834  16.251 -2.6705  0.2775 -0.6957
 2039SOL     OW17752   2.443   0.352  12.252 -0.6203 -0.1493 -0.1245
 2039SOL    HW117753   2.395   0.409  12.312  3.9400  1.0132  2.3822
 2039SOL    HW217754   2.454   0.416  12.182 -0.7923  0.6624  0.5925
 2040SOL     OW17755   0.054   3.551  15.377  0.0738 -0.5773 -0.0443
 2040SOL    HW117756   0.036   3.469  15.424 -0.5870 -0.6633 -0.4494
 2040SOL    HW217757   4.705   3.597  15.373  0.5156  0.1639 -0.7146
 2041SOL     OW17758   0.351   3.944   1.174  0.0415  0.0588 -0.1070
 2041SOL    HW117759   0.421   3.960   1.111  0.5680  0.0095  0.4633
 2041SOL    HW217760   0.380   3.856   1.198 -0.0820  0.4162  1.3505
 2042SOL     OW17761   4.347   0.809   6.420  0.7030 -0.0321 -0.6163
 2042SOL    HW117762   4.315   0.794   6.331  0.1923  0.3593 -0.4968
 2042SOL    HW217763   4.309   0.895   6.436  1.6190  0.1724  0.4250
 2043SOL     OW17764   2.754   1.684   4.730 -0.5972  0.5141 -0.0089
 2043SOL    HW117765   2.695   1.734   4.786  0.6585 -0.3010  2.0462
 2043SOL    HW217766   2.705   1.696   4.648  2.1623  1.0587 -1.5639
 2044SOL     OW17767   3.251   0.316   0.585  0.3468 -0.4005  0.3190
 2044SOL    HW117768   3.307   0.269   0.646 -0.2709 -2.1742 -0.4819
 2044SOL    HW217769   3.279   0.403   0.612  2.0135 -0.6635 -0.6045
 2045SOL     OW17770   3.578   0.723   2.674  0.8193  0.3054 -0.1089
 2045SOL    HW117771   3.537   0.765   2.599 -0.3450 -1.9572 -0.7506
 2045SOL    HW217772   3.667   0.736   2.641  0.3706  0.8929 -1.0776
 2046SOL     OW17773   4.630   2.560  13.039  0.1406 -0.5680  0.1575
 2046SOL    HW117774   4.616   2.568  13.134 -1.5701 -1.5307 -0.0124
 2046SOL    HW217775   4.659   2.649  13.019  1.7665 -0.8882  1.1033
 2047SOL     OW17776   1.327   0.891   5.314 -0.1816 -0.4294 -0.1202
 2047SOL    HW117777   1.336   0.987   5.315  0.0062 -0.4421 -0.5202
 2047SOL    HW217778   1.257   0.880   5.378  0.1311  1.7763  0.6115
 2048SOL     OW17779   4.006   2.572  13.966  0.1220 -0.4836 -0.5750
 2048SOL    HW117780   4.081   2.593  13.910 -1.1154  1.1792 -1.6035
 2048SOL    HW217781   4.036   2.572  14.056  0.4533  0.3731 -0.6868
 2049SOL     OW17782   0.002   3.496   1.186  0.7108 -0.9702  0.2208
 2049SOL    HW117783   4.646   3.471   1.201  0.3047  0.9845  1.0285
 2049SOL    HW217784   0.002   3.568   1.123 -0.4654 -0.2479  1.0542
 2050SOL     OW17785   2.119   0.755   8.952 -0.2917  0.5165  0.2156
 2050SOL    HW117786   2.045   0.809   8.980 -0.4204  2.0863 -3.2148
 2050SOL    HW217787   2.192   0.801   8.993  0.9477 -1.8874  0.7319
 2051SOL     OW17788   4.123   4.369   8.374  0.3503  0.0888  0.0417
 2051SOL    HW117789   4.055   4.388   8.438  1.2484 -1.6092  1.5209
 2051SOL    HW217790   4.120   4.273   8.371  2.4456  0.0847 -2.1852
 2052SOL     OW17791   1.161   2.693   0.206  0.3188 -0.0890  0.0181
 2052SOL    HW117792   1.149   2.731   0.293  0.0131  0.0935 -0.1066
 2052SOL    HW217793   1.255   2.675   0.207  0.0823 -1.3448  1.0124
 2053SOL     OW17794   2.454   3.993   1.384  0.1223  0.3947  0.4201
 2053SOL    HW117795   2.433   4.052   1.311  0.0779  0.9464  0.8788
 2053SOL    HW217796   2.369   3.985   1.426 -0.2614 -1.4033 -0.7025
 2054SOL     OW17797   1.103   4.240   3.344 -0.2712  0.2214 -0.6516
 2054SOL    HW117798   1.050   4.166   3.314 -0.4600  0.3804 -0.7120
 2054SOL    HW217799   1.092   4.219   3.437 -0.6986  2.2488 -0.2490
 2055SOL     OW17800   4.111   3.089   8.204  0.2547  0.2092  0.1825
 2055SOL    HW117801   4.051   3.138   8.148  2.0787  2.0008 -0.1979
 2055SOL    HW217802   4.097   2.998   8.177 -1.9906  0.9805 -1.1720
 2056SOL     OW17803   0.528   3.715   6.159  0.1381 -0.5932 -0.1268
 2056SOL    HW117804   0.484   3.637   6.126  0.4514 -0.9439  0.2803
 2056SOL    HW217805   0.542   3.770   6.082 -0.4398 -1.6474 -0.9919
 2057SOL     OW17806   3.829   0.054   4.831  0.1915 -0.0602  0.3315
 2057SOL    HW117807   3.767   0.037   4.759 -1.0321 -0.4233  1.4697
 2057SOL    HW217808   3.874   4.705   4.823  0.2296 -0.0743  0.6907
 2058SOL     OW17809   1.576   0.986   8.027  0.3860 -0.1018 -0.1638
 2058SOL    HW117810   1.625   0.910   7.995  1.5646  0.5853 -0.0026
 2058SOL    HW217811   1.487   0.957   8.010  0.2067  0.6907 -0.5837
 2059SOL     OW17812   3.626   1.329   3.985  0.1315  0.3522  0.5618
 2059SOL    HW117813   3.542   1.292   3.959 -0.1035 -0.4814  2.5729
 2059SOL    HW217814   3.652   1.379   3.907  1.5762 -1.1559  0.0668
 2060SOL     OW17815   2.709   0.790   4.255  0.0460 -0.0061 -0.0663
 2060SOL    HW117816   2.784   0.736   4.231  0.8848  1.2484 -0.2635
 2060SOL    HW217817   2.637   0.758   4.200  0.7338  1.6725 -1.9348
 2061SOL     OW17818   2.210   3.898   7.752  0.1890  0.3865  0.6719
 2061SOL    HW117819   2.239   3.973   7.804 -1.4168  0.7643  1.0174
 2061SOL    HW217820   2.280   3.840   7.782  1.3632  1.1117 -0.6607
 2062SOL     OW17821   1.242   0.700  10.634  0.4611  0.0630  0.1628
 2062SOL    HW117822   1.258   0.623  10.688 -3.5037  0.8826  2.4772
 2062SOL    HW217823   1.205   0.752  10.705  0.2716  0.0670  0.0601
 2063SOL     OW17824   1.001   1.900   1.372  0.4335 -0.5354  0.7385
 2063SOL    HW117825   0.978   1.988   1.403  0.5978 -0.9801  2.1488
 2063SOL    HW217826   1.072   1.880   1.432 -1.1387 -0.4151  2.6545
 2064SOL     OW17827   3.145   1.588   3.173  0.7625  0.2915 -0.4264
 2064SOL    HW117828   3.074   1.653   3.177  0.8224  0.3169  0.2263
 2064SOL    HW217829   3.145   1.561   3.081  0.8221 -0.3948 -0.2262
 2065SOL     OW17830   2.436   4.149   5.893  0.1859  0.6976  0.5243
 2065SOL    HW117831   2.516   4.200   5.881  1.8442 -1.2078  3.5924
 2065SOL    HW217832   2.377   4.220   5.920 -1.0864 -0.9628  2.1061
 2066SOL     OW17833   2.462   1.014   4.456  0.5007  0.5757  0.5186
 2066SOL    HW117834   2.374   0.991   4.425  0.9309 -0.2468 -0.0733
 2066SOL    HW217835   2.458   1.106   4.429 -1.3122 -0.0772 -1.4450
 2067SOL     OW17836   1.121   0.900   5.490 -0.6004 -0.0252  0.2600
 2067SOL    HW117837   1.043   0.954   5.500 -0.1876  0.5769  0.2700
 2067SOL    HW217838   1.082   0.813   5.483 -0.4565 -0.1891  1.3654
 2068SOL     OW17839   1.612   0.924   6.358 -0.0781 -0.1654  0.6915
 2068SOL    HW117840   1.681   0.942   6.422  0.2067 -2.5296  1.0522
 2068SOL    HW217841   1.655   0.915   6.273  0.0046 -0.4984  0.7686
 2069SOL     OW17842   2.505   3.339   9.372 -0.4680 -0.4459  0.3384
 2069SOL    HW117843   2.479   3.247   9.374 -1.1992 -0.2811 -3.4268
 2069SOL    HW217844   2.555   3.348   9.291 -0.9070 -0.5654  0.0595
 2070SOL     OW17845   2.303   2.676   7.377  0.0358  0.6892  0.5695
 2070SOL    HW117846   2.284   2.768   7.358 -0.3290  0.6558  0.7621
 2070SOL    HW217847   2.218   2.637   7.356  0.9601 -1.9093  1.6478
 2071SOL     OW17848   1.204   1.584   4.776  0.4544  0.1370 -0.2976
 2071SOL    HW117849   1.272   1.636   4.733 -0.6403  0.5920 -1.4690
 2071SOL    HW217850   1.253   1.508   4.807 -1.2172 -0.7052  0.2698
 2072SOL     OW17851   4.227   1.543  16.662 -0.1455 -0.2991 -0.0097
 2072SOL    HW117852   4.287   1.605  16.704  0.9055 -1.1142 -0.3091
 2072SOL    HW217853   4.175   1.520  16.740  1.1490 -1.6075  0.4724
 2073SOL     OW17854   4.629   2.013   9.228  0.0723 -0.0779  0.2105
 2073SOL    HW117855   4.547   2.033   9.182 -1.1908 -1.4541  1.8548
 2073SOL    HW217856   4.641   1.925   9.191 -2.3445 -0.0770 -0.6099
 2074SOL     OW17857   0.258   3.961  12.574 -0.3559 -0.2754 -0.7888
 2074SOL    HW117858   0.308   4.009  12.641  0.3862 -2.4091  0.1841
 2074SOL    HW217859   0.327   3.903  12.542  0.1326  0.3343 -0.8416
 2075SOL     OW17860   4.543   3.491   5.057  0.0263 -0.1703  0.4034
 2075SOL    HW117861   4.576   3.409   5.093  0.2306 -0.7058 -1.0460
 2075SOL    HW217862   4.453   3.472   5.084 -0.1115  1.4417  1.0884
 2076SOL     OW17863   0.790   4.040   4.751 -0.0772  0.1017  0.5233
 2076SOL    HW117864   0.860   3.986   4.787  1.9450  2.4397  0.0185
 2076SOL    HW217865   0.714   4.028   4.807 -0.4455 -2.3483 -0.4891
 2077SOL     OW17866   1.106   4.296   7.772  0.0788  0.0437  0.2857
 2077SOL    HW117867   1.112   4.200   7.765  0.3740  0.1690 -1.0725
 2077SOL    HW217868   1.144   4.316   7.686 -2.7217 -0.0856 -0.9914
 2078SOL     OW17869   2.166   3.956   0.173 -0.5760 -0.3502  0.5376
 2078SOL    HW117870   2.116   3.876   0.189  1.1440 -1.0943  2.1854
 2078SOL    HW217871   2.235   3.937   0.237  0.6235 -1.5737 -1.1459
 2079SOL     OW17872   3.794   2.616   1.113 -0.4603  0.2441  0.4244
 2079SOL    HW117873   3.706   2.641   1.085 -1.5701 -2.3586  1.5988
 2079SOL    HW217874   3.789   2.522   1.099  1.9485  0.1693  0.0656
 2080SOL     OW17875   3.513   2.384   8.094 -0.4122  0.0870  0.1661
 2080SOL    HW117876   3.596   2.422   8.121 -1.5663  1.7550  1.3689
 2080SOL    HW217877   3.487   2.447   8.028 -1.9354 -1.6425 -0.8900
 2081SOL     OW17878   0.989   1.282   7.359 -0.3885 -0.2220 -0.1875
 2081SOL    HW117879   0.951   1.244   7.438  1.3352  1.5348  1.4578
 2081SOL    HW217880   0.919   1.284   7.293  0.0905 -1.6612 -0.7335
 2082SOL     OW17881   1.707   1.206   2.692  0.6262  0.4639 -0.7283
 2082SOL    HW117882   1.791   1.209   2.738  0.5077 -0.8398 -0.4297
 2082SOL    HW217883   1.696   1.296   2.660 -1.0648  0.4380 -0.1906
 2083SOL     OW17884   4.700   1.718   6.215 -0.0309 -0.1265 -0.0259
 2083SOL    HW117885   4.636   1.653   6.187 -0.8529  1.3864 -1.6472
 2083SOL    HW217886   0.036   1.708   6.152  0.8656 -0.3700  1.0206
 2084SOL     OW17887   1.751   4.347   6.579 -0.1994 -0.1929  0.0605
 2084SOL    HW117888   1.720   4.430   6.615  2.8952  0.6844  0.6903
 2084SOL    HW217889   1.692   4.317   6.509  0.2246  0.6519 -0.6591
 2085SOL     OW17890   4.233   2.345   6.675 -0.2443  0.6224  0.0142
 2085SOL    HW117891   4.208   2.397   6.598 -4.8163 -2.1406 -0.3888
 2085SOL    HW217892   4.179   2.379   6.746 -0.5453 -1.7773  0.9061
 2086SOL     OW17893   4.648   2.973  14.767 -0.1321 -0.3265 -0.0955
 2086SOL    HW117894   4.725   3.021  14.734  0.2197  0.1796  1.4652
 2086SOL    HW217895   4.637   3.018  14.850 -0.4731  0.3100 -0.4839
 2087SOL     OW17896   4.176   2.017   9.131 -0.1149 -0.0216 -0.2688
 2087SOL    HW117897   4.248   1.967   9.093 -0.3324 -0.4171 -0.1539
 2087SOL    HW217898   4.170   1.980   9.219 -0.2208  2.1172  0.6345
 2088SOL     OW17899   0.965   1.441   8.983  0.3106  0.3900  0.3250
 2088SOL    HW117900   0.874   1.470   8.983  0.1747 -0.0517  1.7397
 2088SOL    HW217901   0.995   1.518   9.032  0.9740  1.3293 -1.5469
 2089SOL     OW17902   3.908   2.337   6.296 -0.3537  0.2926 -0.0989
 2089SOL    HW117903   3.821   2.373   6.315  1.1228  3.4766  0.7476
 2089SOL    HW217904   3.892   2.279   6.222 -1.8432 -0.4844  0.8310
 2090SOL     OW17905   1.083   4.393   9.412  0.3534 -0.0405 -0.5263
 2090SOL    HW117906   0.999   4.390   9.456  0.7024 -0.3127  0.1239
 2090SOL    HW217907   1.138   4.363   9.485 -0.2960 -1.9607 -0.8336
 2091SOL     OW17908   1.453   1.239   8.486 -0.5531  0.4039 -0.2083
 2091SOL    HW117909   1.490   1.221   8.400 -0.2544 -2.1255  0.4478
 2091SOL    HW217910   1.440   1.152   8.523 -2.8011 -0.2561 -2.5669
 2092SOL     OW17911   2.922   0.024   1.891  0.4652  0.3115  0.3192
 2092SOL    HW117912   2.948   0.021   1.799 -1.0576 -1.7260 -0.0555
 2092SOL    HW217913   2.941   4.667   1.912  0.2781  0.2471  0.2108
 2093SOL     OW17914   3.068   0.279   4.137 -0.1537 -0.3445 -0.4249
 2093SOL    HW117915   3.159   0.253   4.151 -0.3619 -1.1859 -0.6130
 2093SOL    HW217916   3.050   0.214   4.068  0.2053 -2.3980  1.4084
 2094SOL     OW17917   1.027   2.125  16.207 -0.0950  0.5507  0.1095
 2094SOL    HW117918   1.018   2.219  16.187 -0.4711  0.5828  0.4244
 2094SOL    HW217919   0.993   2.079  16.131  0.4897 -0.9053  0.7386
 2095SOL     OW17920   2.131   4.253  12.362 -0.4964 -0.1975 -0.2414
 2095SOL    HW117921   2.178   4.180  12.402 -0.5169  0.6770  1.3558
 2095SOL    HW217922   2.205   4.313  12.367 -1.2017  0.7857 -1.5428
 2096SOL     OW17923   1.681   1.630   8.411  0.2926  0.2337 -0.4681
 2096SOL    HW117924   1.695   1.537   8.393 -1.6731 -0.6602  2.5789
 2096SOL    HW217925   1.729   1.643   8.492 -1.4056  0.5531  0.4943
 2097SOL     OW17926   1.397   0.159   2.602 -0.2111 -0.2214  0.3376
 2097SOL    HW117927   1.355   0.073   2.609 -0.7467 -0.0157 -0.3740
 2097SOL    HW217928   1.353   0.207   2.673 -2.2829 -0.8156 -0.5525
 2098SOL     OW17929   4.284   1.794   2.590 -0.5368  0.1776 -0.1115
 2098SOL    HW117930   4.224   1.849   2.641 -1.1743 -2.4874  2.0108
 2098SOL    HW217931   4.295   1.721   2.651  3.0927  1.0781  0.3195
 2099SOL     OW17932   0.143   1.397   0.467  0.5357  0.6518  0.3967
 2099SOL    HW117933   0.201   1.340   0.518  0.0793 -0.5372 -0.4347
 2099SOL    HW217934   0.128   1.471   0.525  0.3408 -0.5813  1.9156
 2100SOL     OW17935   0.338   2.579   2.134 -0.0509 -0.3630  0.2311
 2100SOL    HW117936   0.259   2.612   2.092 -0.1258 -2.0440 -0.9644
 2100SOL    HW217937   0.382   2.536   2.061  0.2568 -0.1148  0.2675
 2101SOL     OW17938   4.339   2.610  16.796  0.4500 -0.2003  0.5853
 2101SOL    HW117939   4.365   2.645  16.881 -2.9732 -0.4704  1.7212
 2101SOL    HW217940   4.252   2.581  16.824  1.6846 -4.3302  0.1953
 2102SOL     OW17941   2.320   3.246   8.453  0.0407  0.2089 -0.1875
 2102SOL    HW117942   2.260   3.316   8.480 -0.3352 -0.3953  0.5234
 2102SOL    HW217943   2.400   3.296   8.436  2.0447 -1.9892  2.9096
 2103SOL     OW17944   4.633   4.651   8.023 -0.2050 -0.0617  0.4852
 2103SOL    HW117945   4.701   4.653   8.090  1.3594 -0.4443 -1.0753
 2103SOL    HW217946   4.553   4.639   8.074  0.5991  0.6645  1.9229
 2104SOL     OW17947   2.183   2.975   1.102 -0.0793 -0.0958  0.7364
 2104SOL    HW117948   2.208   3.033   1.029  0.7262 -0.8722  0.3987
 2104SOL    HW217949   2.133   3.035   1.157 -1.8271 -0.4341 -0.4540
 2105SOL     OW17950   4.512   3.383   8.228 -0.4019 -0.3002  0.2567
 2105SOL    HW117951   4.470   3.297   8.230  2.4947 -1.6959  1.4713
 2105SOL    HW217952   4.603   3.358   8.241 -0.1336  0.3143 -0.4524
 2106SOL     OW17953   3.270   3.199   3.662 -0.3201 -0.0492  0.5751
 2106SOL    HW117954   3.319   3.281   3.649  0.0533 -0.3767 -0.1060
 2106SOL    HW217955   3.254   3.216   3.754 -0.3405  4.2925 -0.2356
 2107SOL     OW17956   0.634   4.462   1.295  1.0673  0.8428  0.8536
 2107SOL    HW117957   0.647   4.370   1.316  3.4300  0.5666 -1.7946
 2107SOL    HW217958   0.718   4.481   1.254  0.2405  0.6394 -0.9424
 2108SOL     OW17959   0.384   1.214   5.081  0.1313 -0.4101 -0.2697
 2108SOL    HW117960   0.365   1.243   5.170  1.5889 -1.7220  0.4749
 2108SOL    HW217961   0.399   1.120   5.089 -0.1738 -0.2192  2.6378
 2109SOL     OW17962   0.820   3.425  13.756  0.3000 -0.3304  0.0600
 2109SOL    HW117963   0.734   3.465  13.772 -0.3609 -1.3174 -1.1187
 2109SOL    HW217964   0.808   3.372  13.678 -0.9561 -0.3340  0.2554
 2110SOL     OW17965   4.709   3.921   6.838  0.2075  0.1497  0.3133
 2110SOL    HW117966   0.056   3.908   6.791 -0.5007 -0.1925 -0.8110
 2110SOL    HW217967   4.668   3.835   6.836 -0.2830  0.3188  2.3621
 2111SOL     OW17968   2.754   3.397   8.061 -0.0215  0.0104  0.1174
 2111SOL    HW117969   2.839   3.368   8.030  1.4467 -0.1424  4.2701
 2111SOL    HW217970   2.719   3.314   8.093 -1.6300  0.1917 -1.1479
 2112SOL     OW17971   2.252   2.692  13.067  0.1358 -0.1345  0.4110
 2112SOL    HW117972   2.166   2.682  13.108  1.1097  0.1541  2.5143
 2112SOL    HW217973   2.301   2.723  13.143 -0.0885 -2.0697  1.3507
 2113SOL     OW17974   3.955   0.056  11.876  0.5802 -0.1098  0.7823
 2113SOL    HW117975   3.989   4.702  11.872  2.6339  0.6338  1.5128
 2113SOL    HW217976   3.890   0.053  11.947 -0.7833  1.1075 -0.4252
 2114SOL     OW17977   3.991   0.466   4.962  0.4502  0.0231 -0.0878
 2114SOL    HW117978   4.039   0.547   4.978 -0.1647  0.0520  1.6369
 2114SOL    HW217979   3.898   0.483   4.982  0.3149 -0.9718  0.1371
 2115SOL     OW17980   1.304   0.069   2.275 -0.0917 -0.2488 -0.5083
 2115SOL    HW117981   1.341   0.093   2.191  1.5523  0.3018  0.3757
 2115SOL    HW217982   1.228   0.018   2.246 -1.1256  0.7582  0.4428
 2116SOL     OW17983   2.567   0.283   8.794 -0.7719  0.4280  0.2154
 2116SOL    HW117984   2.490   0.275   8.850  0.2573 -0.5042  1.5101
 2116SOL    HW217985   2.581   0.192   8.768 -0.2310  0.7649 -0.6751
 2117SOL     OW17986   4.366   1.610   4.508  0.2238  0.3518 -0.5654
 2117SOL    HW117987   4.333   1.699   4.519  0.6956  0.1018  2.7438
 2117SOL    HW217988   4.294   1.551   4.530  0.3311 -0.6019 -2.7465
 2118SOL     OW17989   1.744   4.365   7.762 -0.0686  0.1512  0.0311
 2118SOL    HW117990   1.717   4.333   7.675  1.0099  1.3393 -0.7362
 2118SOL    HW217991   1.668   4.419   7.787  1.2197  1.2264  1.5693
 2119SOL     OW17992   0.774   4.405  17.121  0.0544 -0.2599 -0.0983
 2119SOL    HW117993   0.857   4.373  17.156  0.0890  1.5102  1.4728
 2119SOL    HW217994   0.784   4.384  17.028 -0.2765  2.9505 -0.8508
 2120SOL     OW17995   0.736   2.112   3.224 -0.3633  0.4679 -0.0520
 2120SOL    HW117996   0.705   2.156   3.145 -1.0510 -1.7328 -1.0272
 2120SOL    HW217997   0.831   2.102   3.219 -0.3800  0.7557 -1.0314
 2121SOL     OW17998   4.591   3.272   9.823  0.1293 -0.4223  0.2750
 2121SOL    HW117999   4.680   3.245   9.800  0.5197  1.3361 -0.2537
 2121SOL    HW218000   4.604   3.366   9.808 -0.6324 -0.1253  1.4681
 2122SOL     OW18001   2.457   0.068  12.233 -0.3736 -0.1235 -0.1792
 2122SOL    HW118002   2.478   0.161  12.244 -1.5164  0.0872  0.2413
 2122SOL    HW218003   2.370   0.069  12.192 -0.6465 -2.5313  0.3644
 2123SOL     OW18004   4.146   3.470   5.913 -0.1644  0.0269  0.4156
 2123SOL    HW118005   4.099   3.550   5.935 -1.1907 -0.2964 -0.6029
 2123SOL    HW218006   4.160   3.421   5.994  2.6769  0.8565  0.4472
 2124SOL     OW18007   3.143   1.288   8.884 -0.5498 -0.1558  0.2399
 2124SOL    HW118008   3.171   1.258   8.797 -2.3825  0.4809 -0.5660
 2124SOL    HW218009   3.129   1.207   8.934  2.0627  0.3396  1.7846
 2125SOL     OW18010   3.354   4.709  12.928  0.4841  0.2082  0.3645
 2125SOL    HW118011   3.380   0.057  12.967 -1.3026  0.7728  0.3941
 2125SOL    HW218012   3.336   4.731  12.837 -1.0225  0.6453  0.7579
 2126SOL     OW18013   2.481   1.843  12.332  0.0268 -0.2937  0.2138
 2126SOL    HW118014   2.510   1.919  12.282  2.0552 -1.7796 -0.8622
 2126SOL    HW218015   2.561   1.817  12.378 -0.0387 -2.0702 -0.6338
 2127SOL     OW18016   3.537   2.728   5.048 -0.8709 -0.4772 -0.0842
 2127SOL    HW118017   3.584   2.673   5.112  0.1367  2.1241  1.4310
 2127SOL    HW218018   3.601   2.735   4.977  1.3409 -1.6488  1.7571
 2128SOL     OW18019   2.192   0.988  13.328  0.4330  0.2510 -0.1432
 2128SOL    HW118020   2.148   1.035  13.399 -1.2966  1.3873 -1.9810
 2128SOL    HW218021   2.146   1.018  13.250 -0.5881 -0.1764  0.2956
 2129SOL     OW18022   0.243   0.939  13.136  0.2988  0.2486 -0.1006
 2129SOL    HW118023   0.271   1.017  13.087 -0.2194  2.0906  2.5168
 2129SOL    HW218024   0.306   0.872  13.110  1.0062  0.4303  1.1689
 2130SOL     OW18025   0.302   4.503   9.228 -0.0999 -0.3428  0.2964
 2130SOL    HW118026   0.350   4.466   9.301 -1.0811 -1.3078  0.4555
 2130SOL    HW218027   0.312   4.597   9.243 -1.6172  0.1575 -1.7065
 2131SOL     OW18028   2.856   4.419   4.911  0.3783 -0.1190 -0.3571
 2131SOL    HW118029   2.948   4.401   4.927  0.2347 -0.0934  0.4680
 2131SOL    HW218030   2.832   4.336   4.868  0.3650  0.1402 -0.8529
 2132SOL     OW18031   1.512   1.848   7.367  0.2790  0.5054  0.4919
 2132SOL    HW118032   1.442   1.894   7.322  0.3361  0.0135 -0.1044
 2132SOL    HW218033   1.509   1.898   7.448 -1.1267  4.0312 -1.7368
 2133SOL     OW18034   3.729   1.238   3.175 -0.0349  0.1172 -0.0501
 2133SOL    HW118035   3.643   1.254   3.213 -0.5604 -3.4267  0.2951
 2133SOL    HW218036   3.731   1.298   3.100  3.1074 -3.5669 -2.9294
 2134SOL     OW18037   0.834   0.514  14.880  0.0317 -0.9487  0.1886
 2134SOL    HW118038   0.923   0.549  14.889  0.5516 -2.1348 -0.2454
 2134SOL    HW218039   0.835   0.443  14.944  1.6077 -0.4046  0.7739
 2135SOL     OW18040   4.724   1.549   5.662 -0.0117  0.1278 -0.6939
 2135SOL    HW118041   0.039   1.479   5.704  0.9348 -0.0223 -2.0916
 2135SOL    HW218042   0.060   1.601   5.624  0.0974  1.5265  1.4462
 2136SOL     OW18043   0.769   4.217  12.949 -0.4468 -0.6595 -0.2784
 2136SOL    HW118044   0.767   4.140  12.892  3.6050 -0.4209 -0.7399
 2136SOL    HW218045   0.693   4.263  12.914  1.1067  1.9948 -0.1704
 2137SOL     OW18046   0.563   4.449   0.932 -0.0537  0.2644 -0.1450
 2137SOL    HW118047   0.546   4.383   0.865  2.3575 -0.8895  0.3736
 2137SOL    HW218048   0.651   4.479   0.909 -0.1246  1.0553  0.6109
 2138SOL     OW18049   3.357   1.040  10.546 -0.1078 -0.1156 -0.1104
 2138SOL    HW118050   3.326   1.051  10.635  0.4779  3.8720 -0.3883
 2138SOL    HW218051   3.426   0.976  10.562 -0.6498 -0.4227  0.9723
 2139SOL     OW18052   2.277   3.610   4.660 -0.1246 -0.4067  0.1203
 2139SOL    HW118053   2.191   3.569   4.651 -0.5927  0.2731  1.5880
 2139SOL    HW218054   2.288   3.657   4.577  0.4267  0.1081  0.4890
 2140SOL     OW18055   2.608   1.846   8.829 -0.0632  0.7501  0.3328
 2140SOL    HW118056   2.572   1.848   8.917  0.4171 -0.2015  0.5422
 2140SOL    HW218057   2.614   1.942   8.822 -0.4792  0.9265  2.3744
 2141SOL     OW18058   3.460   0.477   6.881 -1.0181 -0.0230 -0.3547
 2141SOL    HW118059   3.513   0.484   6.802  0.6304  2.0049  0.9066
 2141SOL    HW218060   3.434   0.386   6.874 -0.6348 -0.1988  0.5572
 2142SOL     OW18061   0.770   0.776   4.999  0.5629 -0.2281 -0.1235
 2142SOL    HW118062   0.831   0.775   4.926  1.3343 -0.8237  0.5318
 2142SOL    HW218063   0.837   0.775   5.068  1.4551 -0.3837 -0.9984
 2143SOL     OW18064   0.437   0.132   0.878  0.3637  0.3659  0.9581
 2143SOL    HW118065   0.385   0.211   0.858 -0.0520 -0.3843 -0.9809
 2143SOL    HW218066   0.452   0.096   0.791 -0.2311  1.7633  0.2658
 2144SOL     OW18067   3.925   1.937   2.799 -0.3913 -0.0521 -0.0340
 2144SOL    HW118068   3.856   1.978   2.851  1.7276 -1.5720  4.0158
 2144SOL    HW218069   3.937   1.995   2.724 -0.9839  0.5388  0.3317
 2145SOL     OW18070   2.270   4.714   4.090 -0.0668  0.7152 -0.4483
 2145SOL    HW118071   2.286   0.072   4.105  0.9654  0.4664 -0.0396
 2145SOL    HW218072   2.361   4.685   4.085 -0.7417 -1.1878 -1.7659
 2146SOL     OW18073   4.450   0.461   8.926 -0.2532 -0.4461  0.4934
 2146SOL    HW118074   4.538   0.434   8.897 -0.7736 -0.5263 -1.0208
 2146SOL    HW218075   4.451   0.436   9.018 -2.2381  1.7236  1.0944
 2147SOL     OW18076   1.169   3.085   6.037 -0.0940 -0.6539 -0.2563
 2147SOL    HW118077   1.169   3.181   6.036  2.9138 -0.6498  1.0463
 2147SOL    HW218078   1.248   3.062   5.989  0.8958 -0.9312  1.5137
 2148SOL     OW18079   4.687   0.753   6.256 -0.5750 -0.0917  0.2182
 2148SOL    HW118080   4.693   0.683   6.321  1.7219  0.3639  0.5240
 2148SOL    HW218081   0.037   0.742   6.213 -1.7464 -1.6656 -1.6603
 2149SOL     OW18082   3.540   0.624   7.469  0.0586  0.4147  0.4729
 2149SOL    HW118083   3.528   0.673   7.389  1.7100  0.7541  0.4371
 2149SOL    HW218084   3.488   0.546   7.450  0.4913  0.2543 -0.0509
 2150SOL     OW18085   2.211   2.024   2.640  0.5089  0.0238 -0.3555
 2150SOL    HW118086   2.272   1.973   2.587  1.8996  0.6065  0.6752
 2150SOL    HW218087   2.276   2.088   2.669 -1.4929  1.7417  0.3450
 2151SOL     OW18088   3.294   1.518   9.981 -0.0278  0.1496 -0.3765
 2151SOL    HW118089   3.234   1.455  10.021 -1.5672  0.7724 -1.7320
 2151SOL    HW218090   3.372   1.466   9.964 -1.1080 -0.9955 -1.8169
 2152SOL     OW18091   4.391   4.550   5.351  0.0262 -0.3171  0.1072
 2152SOL    HW118092   4.316   4.521   5.404 -0.2637 -0.9202 -0.6318
 2152SOL    HW218093   4.375   4.643   5.335 -2.5547 -0.4889  1.6338
 2153SOL     OW18094   1.159   0.353   7.981 -0.3106 -0.9304  1.0678
 2153SOL    HW118095   1.238   0.300   7.994 -1.4272 -3.1563 -1.1108
 2153SOL    HW218096   1.192   0.439   7.958  0.6833 -1.2732  1.2150
 2154SOL     OW18097   0.755   2.119  13.742  1.1920 -0.0815  0.2679
 2154SOL    HW118098   0.759   2.030  13.775  1.6190 -0.3510 -0.5060
 2154SOL    HW218099   0.707   2.112  13.659 -2.0093  3.5039  1.8054
 2155SOL     OW18100   3.311   4.110   5.772  0.7189 -0.0714  0.6055
 2155SOL    HW118101   3.273   4.121   5.685  1.4738 -0.1529  0.2675
 2155SOL    HW218102   3.354   4.195   5.778  1.5402 -0.6892  3.2234
 2156SOL     OW18103   1.918   0.399  16.380  0.0855 -0.0854  0.0326
 2156SOL    HW118104   1.997   0.431  16.337 -0.2768 -3.7684 -3.3025
 2156SOL    HW218105   1.857   0.474  16.382  1.6427  1.2313 -1.8076
 2157SOL     OW18106   0.977   4.440   8.904 -0.2362 -0.1491 -0.0764
 2157SOL    HW118107   0.993   4.517   8.849  1.2486 -1.8210 -2.0025
 2157SOL    HW218108   0.977   4.368   8.841  1.1895 -0.2653  0.0690
 2158SOL     OW18109   2.508   0.381   6.131  0.0243  1.1655  0.1330
 2158SOL    HW118110   2.529   0.298   6.174 -2.1513  0.2042 -0.6309
 2158SOL    HW218111   2.595   0.405   6.100 -0.5367  0.9969 -1.5446
 2159SOL     OW18112   2.833   1.372   1.678  0.4113 -0.1668 -0.2496
 2159SOL    HW118113   2.921   1.345   1.702  0.0193 -0.3829  0.9268
 2159SOL    HW218114   2.844   1.467   1.670 -0.0787  0.0920  2.0732
 2160SOL     OW18115   2.755   0.024   6.533 -0.5711  0.3152 -0.3041
 2160SOL    HW118116   2.827   0.052   6.476 -0.8860 -1.4251 -1.5496
 2160SOL    HW218117   2.717   0.109   6.553 -0.0825 -0.4078  3.7671
 2161SOL     OW18118   1.097   4.565   7.836 -0.3683  0.2644 -0.1271
 2161SOL    HW118119   1.080   4.471   7.833  0.0453  0.2312 -1.5897
 2161SOL    HW218120   1.183   4.571   7.796  0.5775 -0.8900  1.7208
 2162SOL     OW18121   2.168   0.040   7.921 -0.1105 -0.0261  0.5576
 2162SOL    HW118122   2.130   0.088   7.995 -0.2824 -0.0097  0.4576
 2162SOL    HW218123   2.111   4.699   7.931 -0.6341  0.3967  0.8466
 2163SOL     OW18124   0.219   0.740   4.880 -0.8063  0.3812  0.5875
 2163SOL    HW118125   0.312   0.753   4.901 -0.7400 -1.3375  1.3051
 2163SOL    HW218126   0.209   0.645   4.885 -1.0550  0.5693  3.3336
 2164SOL     OW18127   3.842   1.431   6.491 -0.0087 -0.0403 -0.1090
 2164SOL    HW118128   3.914   1.421   6.553 -0.4290 -0.5015  0.3044
 2164SOL    HW218129   3.883   1.397   6.411  0.1616  0.6924 -0.3321
 2165SOL     OW18130   2.932   1.321  12.105 -0.2510  0.4263 -0.2663
 2165SOL    HW118131   2.883   1.339  12.025  1.5984  0.8225 -1.2965
 2165SOL    HW218132   2.912   1.403  12.150 -2.2859  0.8169 -1.8709
 2166SOL     OW18133   0.080   4.454   1.817  0.3348  0.4475 -0.3551
 2166SOL    HW118134   0.136   4.430   1.891  0.6455  1.0866 -0.3900
 2166SOL    HW218135   0.129   4.513   1.760  0.1631 -2.0642 -3.1380
 2167SOL     OW18136   1.724   2.748  15.801  0.2136 -0.4623  0.4304
 2167SOL    HW118137   1.790   2.814  15.780 -1.0209  0.3856 -0.7873
 2167SOL    HW218138   1.656   2.811  15.825 -0.9123 -0.7152 -2.1926
 2168SOL     OW18139   1.092   2.621  11.200 -0.0482 -0.3892  0.3678
 2168SOL    HW118140   1.035   2.590  11.271  0.6674  1.3266  1.6977
 2168SOL    HW218141   1.089   2.714  11.226 -0.2370 -0.4292  0.4966
 2169SOL     OW18142   1.683   3.376  13.547 -0.3675  0.1742 -0.0869
 2169SOL    HW118143   1.646   3.363  13.460 -0.5648 -1.3909  0.2188
 2169SOL    HW218144   1.709   3.468  13.549  2.5415 -0.6726  0.7547
 2170SOL     OW18145   4.224   1.250   5.599 -0.5362  0.7251  0.1807
 2170SOL    HW118146   4.245   1.330   5.649  0.7869  0.2961  0.3176
 2170SOL    HW218147   4.307   1.235   5.554 -1.3271  0.0841 -1.0423
 2171SOL     OW18148   3.702   2.394   8.364  1.1593 -0.1746 -0.5466
 2171SOL    HW118149   3.718   2.454   8.291 -0.6411  1.7450  0.6052
 2171SOL    HW218150   3.624   2.430   8.407  1.7922  1.2651 -0.5913
 2172SOL     OW18151   4.531   3.800   7.193 -0.8246  0.1582  0.5518
 2172SOL    HW118152   4.522   3.860   7.119  1.1256 -2.1351 -1.5335
 2172SOL    HW218153   4.626   3.801   7.208 -0.9106 -1.8017  1.1852
 2173SOL     OW18154   3.008   0.935   6.091  0.0667  0.2830 -0.1297
 2173SOL    HW118155   3.093   0.899   6.114  0.2255 -0.4258 -1.8033
 2173SOL    HW218156   2.961   0.851   6.088 -1.7873  1.3976 -2.7111
 2174SOL     OW18157   3.662   2.979   4.520 -0.2373 -0.4831  0.2509
 2174SOL    HW118158   3.733   3.036   4.549 -0.6063 -0.8490  1.8385
 2174SOL    HW218159   3.626   2.938   4.598 -0.4588 -0.4159  0.1850
 2175SOL     OW18160   4.214   3.297   2.699 -0.4593  0.3753 -0.5464
 2175SOL    HW118161   4.288   3.344   2.736 -0.8609  1.1156 -0.6955
 2175SOL    HW218162   4.174   3.361   2.640  0.1451  0.5143 -0.8005
 2176SOL     OW18163   1.150   0.854  11.003 -0.3829 -0.2832  0.2618
 2176SOL    HW118164   1.221   0.884  10.946  0.0252  0.9881  1.4443
 2176SOL    HW218165   1.073   0.891  10.961 -1.7529 -1.4182  1.7880
 2177SOL     OW18166   0.893   1.755   8.026 -0.0381  0.3859  0.1606
 2177SOL    HW118167   0.962   1.755   8.093 -0.4504 -1.9303  0.5776
 2177SOL    HW218168   0.932   1.719   7.947 -1.3768 -1.2089  0.2291
 2178SOL     OW18169   0.454   3.830  15.088  0.4057 -0.0889  0.2804
 2178SOL    HW118170   0.513   3.766  15.126  1.7010  1.1281  0.2925
 2178SOL    HW218171   0.499   3.845  15.005  0.9780  0.0971  0.6274
 2179SOL     OW18172   4.686   1.659  13.733  0.2076  0.1827  0.1701
 2179SOL    HW118173   4.660   1.589  13.673 -1.8082  1.1100 -0.0517
 2179SOL    HW218174   0.012   1.702  13.673 -0.4314  2.5247  1.1786
 2180SOL     OW18175   1.150   0.202   3.044  0.5520  0.4735 -0.3796
 2180SOL    HW118176   1.124   0.238   3.129 -0.4186  0.4081 -0.6496
 2180SOL    HW218177   1.238   0.173   3.068  0.7413  1.7928  0.5352
 2181SOL     OW18178   1.280   3.085   6.859  0.4500  0.1946  0.0593
 2181SOL    HW118179   1.266   2.994   6.833  1.5687  0.3742 -1.1556
 2181SOL    HW218180   1.372   3.106   6.842 -0.4522  2.7704 -1.5863
 2182SOL     OW18181   2.089   3.988  13.056 -0.0753  0.3035 -0.6130
 2182SOL    HW118182   2.062   3.937  13.132  0.3638  1.2991  0.2035
 2182SOL    HW218183   2.075   4.078  13.084 -1.1798 -0.7047  2.0101
 2183SOL     OW18184   1.812   2.389   6.326  0.8869  0.3245  0.0756
 2183SOL    HW118185   1.816   2.360   6.417  0.4834 -2.3984 -0.7707
 2183SOL    HW218186   1.734   2.443   6.326 -0.4870 -1.6636 -0.0448
 2184SOL     OW18187   1.202   3.021   1.813  0.5128 -0.5560 -1.0669
 2184SOL    HW118188   1.130   3.062   1.764  0.5293  1.0708  0.2720
 2184SOL    HW218189   1.156   2.978   1.884 -0.2742 -1.1342 -1.9186
 2185SOL     OW18190   4.306   0.673   8.644 -0.4418 -0.4364 -0.0207
 2185SOL    HW118191   4.227   0.723   8.623  0.0800 -0.1534 -1.2816
 2185SOL    HW218192   4.365   0.743   8.672 -2.4047  1.0377  0.4492
 2186SOL     OW18193   0.491   0.273   4.850  0.0166  0.1804 -0.1323
 2186SOL    HW118194   0.402   0.252   4.822 -0.9307  1.7133  1.7472
 2186SOL    HW218195   0.472   0.308   4.937  3.2319  1.3054  0.1236
 2187SOL     OW18196   3.937   3.392   1.465  0.1617 -0.0271 -0.2111
 2187SOL    HW118197   3.842   3.379   1.465  0.2335 -0.5492  0.1480
 2187SOL    HW218198   3.939   3.487   1.478  1.2859  0.1013 -1.3203
 2188SOL     OW18199   1.289   3.161  11.183  0.8540  0.3816 -0.2506
 2188SOL    HW118200   1.209   3.213  11.193  0.2294 -0.8286  1.1107
 2188SOL    HW218201   1.308   3.160  11.277  0.9550 -0.5855 -0.2806
 2189SOL     OW18202   0.759   1.139   2.047 -0.7313 -0.0083  0.7493
 2189SOL    HW118203   0.771   1.044   2.049 -0.4898  0.0526  2.8880
 2189SOL    HW218204   0.751   1.149   1.952  0.1029 -0.2629  0.6529
 2190SOL     OW18205   2.383   0.753  14.214  0.3822  0.1816 -0.4428
 2190SOL    HW118206   2.478   0.750  14.223  0.2230 -0.1870  1.1193
 2190SOL    HW218207   2.356   0.796  14.295  0.5010 -0.8158  0.1247
 2191SOL     OW18208   0.969   0.593   2.944 -0.0568  0.8577  0.2646
 2191SOL    HW118209   0.951   0.599   2.850  0.2895  1.3547  0.2277
 2191SOL    HW218210   0.953   0.684   2.969 -0.5835  0.5811  0.9234
 2192SOL     OW18211   2.041   0.786   5.122  0.3926  0.5203  0.1645
 2192SOL    HW118212   2.006   0.874   5.136  0.1762  0.5454 -0.5331
 2192SOL    HW218213   2.100   0.784   5.197 -0.0724  0.7526  0.5382
 2193SOL     OW18214   3.745   3.056   8.822 -0.3157 -0.1978 -0.0485
 2193SOL    HW118215   3.716   2.979   8.773  1.1640 -0.1228 -1.0443
 2193SOL    HW218216   3.708   3.037   8.908 -0.5776 -1.4327 -0.4300
 2194SOL     OW18217   1.074   2.563   5.070  0.0794 -0.3725 -0.1410
 2194SOL    HW118218   1.029   2.481   5.048  1.1189 -0.2952 -2.5276
 2194SOL    HW218219   1.030   2.600   5.147  1.1307 -0.6568  0.5897
 2195SOL     OW18220   0.190   4.325  16.526 -0.8327 -0.0257  0.1524
 2195SOL    HW118221   0.136   4.401  16.503  0.3615  1.0462  0.8638
 2195SOL    HW218222   0.210   4.294  16.438 -0.3876  0.9058 -0.0769
 2196SOL     OW18223   4.722   2.549   5.631 -0.8327  0.9473 -0.2020
 2196SOL    HW118224   0.067   2.602   5.630  0.4615 -1.0169 -2.9450
 2196SOL    HW218225   4.695   2.546   5.540 -0.4641  0.5054 -0.3011
 2197SOL     OW18226   1.935   1.208   4.240  0.5809  0.1071  1.1852
 2197SOL    HW118227   1.849   1.245   4.220  1.0190 -0.9781 -2.6639
 2197SOL    HW218228   1.966   1.174   4.156  0.9526  0.6742  1.0946
 2198SOL     OW18229   4.666   4.195   6.666 -0.1457 -0.0792  0.5883
 2198SOL    HW118230   4.645   4.152   6.750 -3.0699 -1.9677 -1.1304
 2198SOL    HW218231   0.024   4.220   6.669 -0.3160  0.7047 -0.8862
 2199SOL     OW18232   3.273   2.394   4.025  0.3215  0.1301  0.0408
 2199SOL    HW118233   3.197   2.412   4.081  0.1992 -2.5041  0.7250
 2199SOL    HW218234   3.317   2.479   4.022  1.8002 -0.5952  1.1599
 2200SOL     OW18235   1.734   0.526   0.369  0.0780 -0.3206 -0.0554
 2200SOL    HW118236   1.707   0.541   0.459 -1.3204  0.4491 -0.6043
 2200SOL    HW218237   1.708   0.609   0.329 -0.6339  1.0209  3.2332
 2201SOL     OW18238   4.654   0.394   1.925  0.5598 -0.2095 -0.2097
 2201SOL    HW118239   4.615   0.481   1.930  2.5542  0.7182 -0.7177
 2201SOL    HW218240   0.005   0.404   1.884  0.2552  1.9387 -0.3197
 2202SOL     OW18241   4.532   2.633   3.518 -0.7084 -0.1894  0.0051
 2202SOL    HW118242   4.442   2.604   3.534  0.0255 -2.4135  0.1724
 2202SOL    HW218243   4.580   2.578   3.581  0.3574 -0.3004 -0.8975
 2203SOL     OW18244   4.717   4.589  12.154 -0.7588  0.5123  0.1995
 2203SOL    HW118245   4.651   4.524  12.178  0.0819 -0.3503  0.1356
 2203SOL    HW218246   0.060   4.549  12.191 -0.8297 -0.5143 -0.7523
 2204SOL     OW18247   1.615   3.901   2.024  0.1287 -0.4035 -0.2179
 2204SOL    HW118248   1.542   3.950   1.988 -0.0042 -1.5274 -1.4583
 2204SOL    HW218249   1.691   3.943   1.983 -1.4799  0.7297 -2.0097
 2205SOL     OW18250   2.735   2.179   5.547 -0.1698 -0.3840 -0.3684
 2205SOL    HW118251   2.779   2.150   5.627 -0.5613  2.4935  0.8575
 2205SOL    HW218252   2.644   2.161   5.572  0.3404 -1.0002  1.0473
 2206SOL     OW18253   3.344   3.873   1.477  0.7535  0.6638  0.1340
 2206SOL    HW118254   3.272   3.829   1.431  0.4139  1.3794 -0.0168
 2206SOL    HW218255   3.302   3.958   1.488  0.5628  0.4772  0.8200
 2207SOL     OW18256   3.736   2.556   8.122 -0.8639 -0.1617 -0.3484
 2207SOL    HW118257   3.750   2.650   8.118  0.9944 -0.3979  1.2305
 2207SOL    HW218258   3.748   2.535   8.029 -2.1700 -2.8530  0.0731
 2208SOL     OW18259   1.466   0.618  13.563  0.0204 -0.1089  0.2871
 2208SOL    HW118260   1.514   0.623  13.480 -2.4046  0.6891 -1.0624
 2208SOL    HW218261   1.512   0.553  13.617  1.5776  0.9459  0.2123
 2209SOL     OW18262   0.717   1.987   3.989 -0.0097 -0.1811 -0.1719
 2209SOL    HW118263   0.753   1.964   4.075 -0.7138  2.4139  0.8014
 2209SOL    HW218264   0.665   1.908   3.973  0.5326 -0.6411  0.3497
 2210SOL     OW18265   0.980   0.750  13.081 -0.4657 -0.1475 -0.2529
 2210SOL    HW118266   0.897   0.703  13.074  0.0018 -1.0912  0.5030
 2210SOL    HW218267   1.036   0.673  13.090  1.4279  1.5114  2.2084
 2211SOL     OW18268   0.846   4.625   6.627 -0.2720 -0.6077 -0.0343
 2211SOL    HW118269   0.877   4.645   6.539 -0.0676  2.3341  0.6894
 2211SOL    HW218270   0.911   4.674   6.678 -0.4010  0.8031 -1.2429
 2212SOL     OW18271   1.346   2.016   6.526 -0.4126 -0.1877  0.0625
 2212SOL    HW118272   1.348   2.010   6.621 -2.7487 -2.7329 -0.0579
 2212SOL    HW218273   1.427   2.058   6.496 -0.0270 -0.3469  0.8805
 2213SOL     OW18274   2.197   1.734  17.594  0.4745 -0.3913 -0.5919
 2213SOL    HW118275   2.120   1.682  17.576  0.5747 -0.5626 -0.5256
 2213SOL    HW218276   2.199   1.776  17.508  1.2360 -0.5618 -0.6620
 2214SOL     OW18277   2.497   0.546   5.671 -0.6020  0.0955 -0.2869
 2214SOL    HW118278   2.404   0.520   5.666 -0.7957  0.7336 -0.0178
 2214SOL    HW218279   2.491   0.634   5.633 -0.8438 -1.0007 -2.7646
 2215SOL     OW18280   4.451   0.957  14.106  0.1548 -0.2511 -0.1017
 2215SOL    HW118281   4.493   1.015  14.169 -0.2118  0.6702 -0.7139
 2215SOL    HW218282   4.389   0.915  14.165  0.3249  0.3515  0.4974
 2216SOL     OW18283   4.567   2.375   7.709  0.3611 -0.1494  0.0031
 2216SOL    HW118284   4.621   2.305   7.675  1.3460 -0.2958  1.9229
 2216SOL    HW218285   4.562   2.434   7.633  1.1408  0.0959  0.1463
 2217SOL     OW18286   2.832   0.352   8.995  0.3128  0.5470 -0.2446
 2217SOL    HW118287   2.814   0.342   8.901 -0.9100  4.5308 -0.3870
 2217SOL    HW218288   2.873   0.438   9.003  1.8240 -0.1269 -0.6882
 2218SOL     OW18289   4.600   2.620   7.185  0.6983 -0.4933  0.4471
 2218SOL    HW118290   4.650   2.539   7.175  0.1027 -0.7440 -0.4596
 2218SOL    HW218291   4.639   2.685   7.126  1.0008  2.1382  3.5282
 2219SOL     OW18292   4.487   4.683   8.860  0.2883  0.4716  0.1047
 2219SOL    HW118293   4.427   4.720   8.795 -0.2347  0.4956  0.6009
 2219SOL    HW218294   4.501   4.598   8.819 -0.4528 -0.0325  0.8732
 2220SOL     OW18295   1.117   3.807  14.426 -0.4955  0.3101  0.1433
 2220SOL    HW118296   1.037   3.821  14.377 -0.3006 -0.6557 -0.4288
 2220SOL    HW218297   1.132   3.892  14.469 -0.3695  0.3920 -0.0632
 2221SOL     OW18298   3.485   1.401  17.628  0.6897 -0.7542 -0.1671
 2221SOL    HW118299   3.480   1.410  17.723 -2.2687  1.6060 -0.5437
 2221SOL    HW218300   3.511   1.309  17.626 -1.3373 -1.3118 -0.6576
 2222SOL     OW18301   3.802   2.417   3.807  0.4120  0.1565  0.0973
 2222SOL    HW118302   3.859   2.452   3.875  0.0828  0.9624 -0.0366
 2222SOL    HW218303   3.746   2.350   3.846 -1.0080  1.7601  0.7747
 2223SOL     OW18304   1.852   4.563   4.033 -0.6948  0.0235 -0.6390
 2223SOL    HW118305   1.770   4.605   4.008  0.1123  3.0210  1.7809
 2223SOL    HW218306   1.877   4.604   4.115  0.5100 -3.3350  0.7033
 2224SOL     OW18307   4.615   0.625   4.016  0.0533  0.4082  0.3750
 2224SOL    HW118308   4.665   0.587   3.944  1.8183  0.0617  1.7830
 2224SOL    HW218309   4.629   0.718   3.997  1.2786 -0.0186 -0.8028
 2225SOL     OW18310   0.758   4.622   0.094  0.4080  0.4254  0.3621
 2225SOL    HW118311   0.760   4.582   0.181  1.4826  0.6247  0.4202
 2225SOL    HW218312   0.832   4.681   0.103 -0.2893  1.2627  0.6285
 2226SOL     OW18313   3.489   2.763  11.450  0.0346  0.2813  0.3861
 2226SOL    HW118314   3.582   2.763  11.428 -0.6774  2.8429 -2.7486
 2226SOL    HW218315   3.453   2.845  11.414 -1.4066  0.3479  1.9830
 2227SOL     OW18316   1.872   4.455  17.649  0.0730  0.6558 -0.1557
 2227SOL    HW118317   1.900   4.523  17.710 -1.8974  0.7917  0.6025
 2227SOL    HW218318   1.859   4.507  17.569  1.7420 -1.8279 -2.0339
 2228SOL     OW18319   0.762   1.576   1.976  0.0757  0.0817 -0.0412
 2228SOL    HW118320   0.730   1.497   2.021 -0.1886  2.4671  3.9577
 2228SOL    HW218321   0.736   1.643   2.039  2.0837  1.5118 -0.7350
 2229SOL     OW18322   3.235   3.711   8.263  0.7706 -0.4649  0.0807
 2229SOL    HW118323   3.190   3.627   8.250  0.3962 -0.6677  2.6508
 2229SOL    HW218324   3.277   3.693   8.347  1.8378 -1.2420 -0.6261
 2230SOL     OW18325   1.956   4.152   5.687 -0.0547 -0.5986  1.0527
 2230SOL    HW118326   1.945   4.187   5.598 -1.2088  0.0458  1.4518
 2230SOL    HW218327   2.046   4.118   5.688  0.1203 -0.1451  0.7741
 2231SOL     OW18328   4.448   1.520  12.591 -0.0654 -0.0043  0.5719
 2231SOL    HW118329   4.400   1.557  12.516 -1.5142 -0.8202  1.0960
 2231SOL    HW218330   4.506   1.463  12.541 -0.8602 -0.3020 -0.0167
 2232SOL     OW18331   2.815   0.677  14.804  0.1867 -0.0493 -0.3067
 2232SOL    HW118332   2.899   0.632  14.797 -0.9991 -2.1039 -1.3339
 2232SOL    HW218333   2.783   0.648  14.889 -0.8480 -1.4851 -1.1881
 2233SOL     OW18334   3.880   1.144   9.388 -0.1921  0.1423  0.2027
 2233SOL    HW118335   3.963   1.133   9.342 -0.4070 -1.8580  0.2708
 2233SOL    HW218336   3.819   1.131   9.315  0.2470 -0.7556 -0.0112
 2234SOL     OW18337   1.646   1.499   4.534 -0.0274  0.6640 -0.0773
 2234SOL    HW118338   1.621   1.532   4.448  1.5176  0.4832 -0.6001
 2234SOL    HW218339   1.566   1.493   4.586 -0.0295 -0.5962 -0.2218
 2235SOL     OW18340   2.430   4.447   6.290 -0.1728 -0.5384 -0.0562
 2235SOL    HW118341   2.503   4.508   6.305 -0.1040 -0.2130 -1.6702
 2235SOL    HW218342   2.369   4.510   6.249  2.5885  1.3326 -1.3112
 2236SOL     OW18343   0.128   3.836   3.217 -0.2391  0.1753  0.0354
 2236SOL    HW118344   0.090   3.910   3.171 -2.7756 -1.1781 -0.0436
 2236SOL    HW218345   0.087   3.858   3.301 -0.0198 -2.5615  0.8555
 2237SOL     OW18346   3.783   0.614   7.642 -0.1864  0.0450 -0.5471
 2237SOL    HW118347   3.725   0.564   7.700  0.7016 -0.3470  0.0030
 2237SOL    HW218348   3.716   0.625   7.575 -0.5044  1.4986  0.0079
 2238SOL     OW18349   0.231   1.454   6.709  0.6344 -0.6216 -0.1392
 2238SOL    HW118350   0.271   1.539   6.728  2.7323 -2.1477  2.1880
 2238SOL    HW218351   0.201   1.476   6.621  1.4599  0.4743 -0.1480
 2239SOL     OW18352   0.731   1.792   7.684  0.7459 -0.2720  0.0254
 2239SOL    HW118353   0.734   1.822   7.774 -0.8604 -0.1950  0.0419
 2239SOL    HW218354   0.641   1.817   7.664 -1.0787 -5.8982  1.3060
 2240SOL     OW18355   1.709   0.675  12.173 -0.1117  0.2816  0.2912
 2240SOL    HW118356   1.796   0.686  12.212  0.8240  0.3938 -1.8194
 2240SOL    HW218357   1.725   0.612  12.103  2.3631  1.2961 -0.0737
 2241SOL     OW18358   2.897   2.474   8.630  0.0738  0.1097  0.0264
 2241SOL    HW118359   2.903   2.498   8.722  0.4207 -0.4073  0.1416
 2241SOL    HW218360   2.864   2.384   8.632  0.7791 -0.1546 -0.0513
 2242SOL     OW18361   1.740   0.293   0.232  0.1150 -0.1268  0.9051
 2242SOL    HW118362   1.831   0.270   0.251  0.1175  1.0033  2.2407
 2242SOL    HW218363   1.729   0.374   0.282  1.7370  0.4200  0.3548
 2243SOL     OW18364   4.702   4.240   6.373  0.4381  0.5423  0.0757
 2243SOL    HW118365   0.059   4.261   6.355  0.5020 -0.1527 -0.4095
 2243SOL    HW218366   4.671   4.315   6.424  1.4731  0.7101  0.4792
 2244SOL     OW18367   2.994   4.409   5.300 -0.1793  0.1658 -0.0398
 2244SOL    HW118368   2.969   4.392   5.391  2.1372  1.4273  0.8207
 2244SOL    HW218369   2.909   4.437   5.266  0.7507  1.6231 -1.1768
 2245SOL     OW18370   2.522   4.318   4.885  0.0960  0.4885  0.6821
 2245SOL    HW118371   2.601   4.306   4.938  0.2381 -0.6712  0.2064
 2245SOL    HW218372   2.538   4.402   4.842 -1.3658 -0.4046 -1.6113
 2246SOL     OW18373   0.272   0.976   4.043  0.5486  0.0376  0.0250
 2246SOL    HW118374   0.198   1.007   4.095  0.1094  0.5508 -0.9060
 2246SOL    HW218375   0.247   1.001   3.954  0.9657  2.5367  0.6212
 2247SOL     OW18376   4.690   0.202   8.319  0.4788 -0.2126 -1.0121
 2247SOL    HW118377   0.006   0.271   8.360  0.1902 -0.3947 -0.3515
 2247SOL    HW218378   4.606   0.235   8.286  0.3002  0.9872  0.6503
 2248SOL     OW18379   3.314   2.890   8.657 -0.3735 -0.1860  0.2670
 2248SOL    HW118380   3.298   2.796   8.663  4.1754 -0.9073  1.3667
 2248SOL    HW218381   3.225   2.923   8.648 -0.4405 -0.0110  1.6537
 2249SOL     OW18382   3.467   1.795   9.337  0.7194  0.3453  0.0226
 2249SOL    HW118383   3.532   1.753   9.281  1.5544  1.4069  0.1978
 2249SOL    HW218384   3.415   1.850   9.280 -0.6532 -0.9054  0.0469
 2250SOL     OW18385   1.413   3.034   6.409 -0.6647  1.3975 -0.4800
 2250SOL    HW118386   1.336   3.028   6.352 -0.0211  0.4059 -1.2533
 2250SOL    HW218387   1.392   2.969   6.475 -1.7879  3.2169  0.9437
 2251SOL     OW18388   0.821   0.394   3.510  0.0770  0.0655  0.2717
 2251SOL    HW118389   0.799   0.328   3.575  1.1742 -0.2356  0.3428
 2251SOL    HW218390   0.766   0.465   3.543 -0.2383 -0.3495  0.6385
 2252SOL     OW18391   2.622   0.137   5.069 -0.2015  0.4648  0.2530
 2252SOL    HW118392   2.593   0.050   5.098 -0.3030  0.9367  1.5870
 2252SOL    HW218393   2.703   0.111   5.025  0.5984  1.0644  1.3764
 2253SOL     OW18394   1.626   0.513   2.567 -0.1384 -0.0284 -0.1836
 2253SOL    HW118395   1.551   0.490   2.513 -0.5195  0.2756  0.2130
 2253SOL    HW218396   1.692   0.462   2.521  0.5975  0.8532 -0.1066
 2254SOL     OW18397   4.265   0.822   1.828  0.1074  0.3043  0.3443
 2254SOL    HW118398   4.354   0.805   1.798  0.0877  1.2999 -0.2556
 2254SOL    HW218399   4.212   0.777   1.763  1.0513  0.3788 -0.4832
 2255SOL     OW18400   0.888   2.459  14.124  0.4215  0.6448  0.0707
 2255SOL    HW118401   0.861   2.541  14.164 -0.4610 -0.5187  1.8619
 2255SOL    HW218402   0.862   2.396  14.192 -0.2081 -0.7148 -1.4217
 2256SOL     OW18403   2.299   2.066   8.242 -0.0343  0.3638  0.0966
 2256SOL    HW118404   2.222   2.010   8.251  0.0893  0.3076  0.8678
 2256SOL    HW218405   2.285   2.113   8.160  0.2693 -0.6553 -0.5366
 2257SOL     OW18406   1.050   0.059   5.653 -0.0332  0.2958 -0.3309
 2257SOL    HW118407   1.124   0.077   5.595  1.9422 -1.8322  1.5472
 2257SOL    HW218408   1.009   4.718   5.611  0.2664  0.4508 -0.9083
 2258SOL     OW18409   1.224   3.534   6.285  0.1455 -0.1722 -0.1798
 2258SOL    HW118410   1.183   3.617   6.259 -0.0858 -0.6017 -1.2017
 2258SOL    HW218411   1.269   3.564   6.363  1.1938  2.5020 -1.8001
 2259SOL     OW18412   4.317   2.668   7.201  0.0821  0.3430  0.1798
 2259SOL    HW118413   4.412   2.660   7.194 -0.1169 -1.0688 -0.9024
 2259SOL    HW218414   4.302   2.760   7.180 -2.4531  0.2384  1.5769
 2260SOL     OW18415   0.056   1.645  17.013 -0.2564  0.5435  0.0291
 2260SOL    HW118416   0.060   1.740  17.006 -1.1589  0.6950  1.6580
 2260SOL    HW218417   0.028   1.635  17.104 -2.7696 -0.2434 -0.8195
 2261SOL     OW18418   1.410   3.976   6.236 -0.8605  0.2221 -0.3207
 2261SOL    HW118419   1.437   3.986   6.145  0.4955 -0.0004  0.0507
 2261SOL    HW218420   1.355   4.054   6.245  1.1653  1.4486  1.6400
 2262SOL     OW18421   4.410   1.085  11.857  0.2635 -0.0640  0.2008
 2262SOL    HW118422   4.494   1.067  11.899 -1.4407 -1.5345  2.9495
 2262SOL    HW218423   4.352   1.066  11.930 -0.7909  1.6442 -0.2069
 2263SOL     OW18424   0.955   0.862   7.938  0.1877 -0.4370 -0.2319
 2263SOL    HW118425   0.920   0.940   7.896 -1.0608 -1.5198 -1.2232
 2263SOL    HW218426   0.893   0.863   8.011 -0.6591 -0.6011 -0.9450
 2264SOL     OW18427   2.848   3.734  12.523 -0.2158  0.2021  0.3436
 2264SOL    HW118428   2.855   3.688  12.607  1.5630 -2.3778 -1.2472
 2264SOL    HW218429   2.767   3.784  12.538 -0.2731 -0.0320  0.8236
 2265SOL     OW18430   0.919   2.121  14.446 -0.6318  0.3268  0.0943
 2265SOL    HW118431   0.839   2.138  14.397 -0.4718  1.7170  0.3378
 2265SOL    HW218432   0.926   2.029  14.420 -1.7133  0.4966 -0.7781
 2266SOL     OW18433   1.743   4.511   7.406  0.3102 -0.4260 -0.2245
 2266SOL    HW118434   1.710   4.593   7.442  1.5429 -0.4522  0.9730
 2266SOL    HW218435   1.830   4.538   7.378  0.4523 -2.0476 -1.3319
 2267SOL     OW18436   1.857   1.260   4.546 -0.5461 -0.1184 -0.5296
 2267SOL    HW118437   1.788   1.326   4.550 -1.3329 -1.0581  1.1882
 2267SOL    HW218438   1.929   1.310   4.507 -0.3865 -0.3056 -0.4734
 2268SOL     OW18439   1.987   1.134  10.697 -0.2587  0.3823  0.1611
 2268SOL    HW118440   1.969   1.040  10.706 -0.1374  0.5791  2.3045
 2268SOL    HW218441   1.997   1.146  10.602  2.4717  1.8756  0.6289
 2269SOL     OW18442   0.187   4.193   2.766  0.1417 -0.1060 -0.4330
 2269SOL    HW118443   0.117   4.143   2.723 -0.7153  0.6608  0.0754
 2269SOL    HW218444   0.151   4.281   2.772  0.2254 -0.1258  0.2847
 2270SOL     OW18445   1.754   0.727   8.623 -0.1552  0.0706  0.3097
 2270SOL    HW118446   1.724   0.659   8.682  1.9127 -0.0384  1.2611
 2270SOL    HW218447   1.753   0.805   8.679  1.7182 -1.8760  3.0787
 2271SOL     OW18448   3.792   2.245   7.548  0.2394  0.1234  0.2764
 2271SOL    HW118449   3.874   2.199   7.530  1.0721  1.2066  1.2719
 2271SOL    HW218450   3.824   2.310   7.611  1.1025 -0.9071  0.8873
 2272SOL     OW18451   1.301   4.559   4.804  0.1770  0.2028 -0.0001
 2272SOL    HW118452   1.239   4.573   4.733  0.0755 -0.1318  0.0226
 2272SOL    HW218453   1.265   4.625   4.863  0.3927  1.5677 -1.3920
 2273SOL     OW18454   1.441   0.533   8.228 -0.6610  0.1640  0.3957
 2273SOL    HW118455   1.352   0.570   8.231 -1.3943 -1.5266 -0.6803
 2273SOL    HW218456   1.470   0.544   8.318 -1.6334  0.6952  0.6454
 2274SOL     OW18457   3.544   3.831   4.992  0.3433  0.4050  0.1377
 2274SOL    HW118458   3.627   3.877   5.007 -0.4390  2.0558 -0.5972
 2274SOL    HW218459   3.548   3.763   5.059  1.2776  0.6178  0.3081
 2275SOL     OW18460   3.741   2.820   1.876  0.6169 -0.4914 -0.3353
 2275SOL    HW118461   3.819   2.862   1.841  0.7262 -0.7304 -0.3810
 2275SOL    HW218462   3.700   2.790   1.795  0.8953  1.3823 -1.1571
 2276SOL     OW18463   3.250   0.806   2.876 -0.7906  0.1206  0.0312
 2276SOL    HW118464   3.301   0.726   2.867  1.9173  1.7317  0.9973
 2276SOL    HW218465   3.221   0.799   2.967  0.0006  0.7152  0.3293
 2277SOL     OW18466   2.831   0.954   6.642  0.0544 -0.7306 -0.0258
 2277SOL    HW118467   2.792   0.933   6.557  2.1147 -0.9088 -0.9397
 2277SOL    HW218468   2.784   1.032   6.670  1.2426 -0.1395  0.3334
 2278SOL     OW18469   0.303   2.870   1.912  0.5346 -0.3164 -0.5288
 2278SOL    HW118470   0.304   2.924   1.833 -1.3289 -0.5444 -0.7133
 2278SOL    HW218471   0.211   2.875   1.938  0.2779 -1.0617 -1.2797
 2279SOL     OW18472   2.446   3.243  12.580 -0.0621 -0.1180 -0.1105
 2279SOL    HW118473   2.465   3.275  12.492  2.7254  3.4487  1.7511
 2279SOL    HW218474   2.374   3.304  12.597  1.2848  1.6397 -0.6179
 2280SOL     OW18475   1.513   2.616   2.846 -0.3378 -0.3285  0.1954
 2280SOL    HW118476   1.514   2.638   2.939 -0.3438 -0.1243  0.1457
 2280SOL    HW218477   1.510   2.706   2.816 -1.1808 -0.0594  1.0945
 2281SOL     OW18478   3.676   2.932   3.997  0.2915  0.4846  0.0150
 2281SOL    HW118479   3.658   2.910   4.089 -0.7388 -1.9143 -0.7468
 2281SOL    HW218480   3.690   3.027   3.997  1.8942  0.2358 -1.9857
 2282SOL     OW18481   2.003   2.454   2.829 -0.0825 -0.1289  0.0110
 2282SOL    HW118482   2.058   2.532   2.833 -2.3385  1.3859  1.1733
 2282SOL    HW218483   1.921   2.493   2.798  0.3943  0.8872  0.0442
 2283SOL     OW18484   0.595   4.592   6.606 -0.3729  0.2200  0.5883
 2283SOL    HW118485   0.580   4.502   6.576 -0.4685  0.0880  1.0338
 2283SOL    HW218486   0.688   4.606   6.625  0.2024  0.2361 -2.2855
 2284SOL     OW18487   4.014   3.057   2.554  0.6283  0.1631 -0.4435
 2284SOL    HW118488   3.972   3.142   2.568 -0.4662 -0.5092  0.3427
 2284SOL    HW218489   4.070   3.051   2.632  2.4182  1.0313 -1.6531
 2285SOL     OW18490   3.105   2.339  12.168 -0.7299 -0.1271  0.5186
 2285SOL    HW118491   3.097   2.373  12.257 -0.3764 -3.2654  1.7845
 2285SOL    HW218492   3.016   2.306  12.164 -0.9379  0.5093 -0.0270
 2286SOL     OW18493   2.704   3.517   3.365  0.6516 -0.4928 -0.5778
 2286SOL    HW118494   2.734   3.433   3.400  1.5201  0.4232  0.8994
 2286SOL    HW218495   2.616   3.529   3.400  1.1613 -0.8243  0.8352
 2287SOL     OW18496   0.926   2.557   0.195  0.1488  0.1911  0.6560
 2287SOL    HW118497   0.922   2.584   0.287 -1.3023 -3.1920  1.6004
 2287SOL    HW218498   1.001   2.610   0.168  0.0452 -2.0922 -4.2251
 2288SOL     OW18499   3.126   2.548   3.718 -0.3997  0.0506 -0.0301
 2288SOL    HW118500   3.049   2.492   3.719 -2.1970  2.5499 -0.3969
 2288SOL    HW218501   3.089   2.625   3.676  0.5810  0.5279 -0.0225
 2289SOL     OW18502   0.411   2.641   9.020  0.0331 -0.0879 -0.8195
 2289SOL    HW118503   0.369   2.725   9.032 -0.8093 -0.7995  1.2570
 2289SOL    HW218504   0.468   2.650   8.944  0.5553 -1.1543 -0.5683
 2290SOL     OW18505   3.882   0.770   7.435 -0.2433  0.3514 -0.1812
 2290SOL    HW118506   3.880   0.714   7.513 -1.2026  0.3186 -0.2284
 2290SOL    HW218507   3.888   0.696   7.374  3.0527  0.7850 -0.3840
 2291SOL     OW18508   2.631   0.062   5.723 -0.1969  0.2974  0.6226
 2291SOL    HW118509   2.685   0.137   5.702 -0.9147  0.6414  0.0114
 2291SOL    HW218510   2.545   0.105   5.720 -0.3609  0.0190  1.1625
 2292SOL     OW18511   0.159   4.332   4.938 -0.6429  0.5147  0.0425
 2292SOL    HW118512   0.249   4.301   4.932 -0.5855  0.7630 -0.3948
 2292SOL    HW218513   0.152   4.336   5.034 -0.0441 -1.4473  0.1681
 2293SOL     OW18514   3.357   4.503   2.602  0.5734  0.4946  0.0860
 2293SOL    HW118515   3.452   4.491   2.608  0.6050 -0.6922 -2.8854
 2293SOL    HW218516   3.337   4.556   2.679 -1.8631  0.2901 -0.4125
 2294SOL     OW18517   0.612   4.506   0.539 -0.3412 -0.4015 -0.4976
 2294SOL    HW118518   0.692   4.494   0.589  1.2912  2.5241 -2.3834
 2294SOL    HW218519   0.554   4.537   0.609 -0.1357 -1.8206  0.2968
 2295SOL     OW18520   4.024   2.243  16.925 -0.0817 -0.4120 -0.1901
 2295SOL    HW118521   4.111   2.222  16.892 -0.6318 -2.6801 -0.1914
 2295SOL    HW218522   3.980   2.158  16.919 -2.2100  0.6798 -0.1891
 2296SOL     OW18523   3.691   1.063   3.786  0.2431  0.2840  0.1777
 2296SOL    HW118524   3.733   1.142   3.821  1.6150 -1.0925  1.6198
 2296SOL    HW218525   3.722   1.073   3.696 -1.6513 -0.9469 -0.5920
 2297SOL     OW18526   3.505   4.096   8.834  0.4660  0.2864 -0.4111
 2297SOL    HW118527   3.493   4.191   8.841  0.9248  0.3744 -0.8374
 2297SOL    HW218528   3.414   4.070   8.821  0.8479 -1.5424  0.6376
 2298SOL     OW18529   0.621   4.662   3.781  0.3802  0.2766  1.0625
 2298SOL    HW118530   0.678   4.590   3.754  1.8412  1.7428  0.2414
 2298SOL    HW218531   0.669   4.694   3.857 -1.5376  0.6019  2.1379
 2299SOL     OW18532   1.537   2.106  14.845  0.1929 -0.1269 -0.0745
 2299SOL    HW118533   1.451   2.063  14.844  0.2511 -0.2603  0.6544
 2299SOL    HW218534   1.531   2.169  14.916 -2.5040  0.3194 -0.6886
 2300SOL     OW18535   0.745   0.798   2.684 -0.3105  0.3307  0.2688
 2300SOL    HW118536   0.789   0.861   2.742 -0.9530  1.7625 -0.7878
 2300SOL    HW218537   0.808   0.732   2.657 -1.7828  0.1472 -2.7521
 2301SOL     OW18538   0.474   1.444   3.381  0.1603 -0.0165 -0.2937
 2301SOL    HW118539   0.478   1.367   3.325 -0.3116  0.9792 -1.6994
 2301SOL    HW218540   0.519   1.410   3.458 -0.6540 -1.1871 -0.3270
 2302SOL     OW18541   2.517   4.421  12.543  0.2350  0.1051  0.0133
 2302SOL    HW118542   2.477   4.400  12.628 -0.4784 -0.2498 -0.4022
 2302SOL    HW218543   2.435   4.411  12.494 -0.1928  2.2246  0.3117
 2303SOL     OW18544   4.238   2.204  16.538  0.0129  0.1287 -0.4041
 2303SOL    HW118545   4.143   2.214  16.547  0.2603  1.3532  0.7360
 2303SOL    HW218546   4.246   2.126  16.592 -0.4642  1.2943  1.3220
 2304SOL     OW18547   0.791   3.958  12.853 -0.0084  0.0377 -0.0880
 2304SOL    HW118548   0.766   3.947  12.944  1.0447 -2.6935 -0.1015
 2304SOL    HW218549   0.853   3.884  12.853 -0.5798 -0.4433 -0.1723
 2305SOL     OW18550   4.369   3.746   7.397 -0.2808  0.5564 -0.4602
 2305SOL    HW118551   4.292   3.756   7.340 -0.4115 -1.0151 -0.5730
 2305SOL    HW218552   4.432   3.744   7.325  1.1527  2.2578  0.7777
 2306SOL     OW18553   3.613   1.383   6.651  0.5521 -0.5277  0.3273
 2306SOL    HW118554   3.686   1.404   6.593  1.5523 -2.3828  0.9026
 2306SOL    HW218555   3.585   1.467   6.685  0.4200  0.3461 -1.9416
 2307SOL     OW18556   3.330   0.575   5.997 -1.1411  0.4073  0.6435
 2307SOL    HW118557   3.301   0.484   5.989  0.1442  0.0589  0.0039
 2307SOL    HW218558   3.362   0.569   6.087 -0.2501 -0.6198  0.2729
 2308SOL     OW18559   0.784   0.868   1.229  0.1685 -0.1852  0.6562
 2308SOL    HW118560   0.800   0.958   1.201  1.1510 -0.6505 -0.2731
 2308SOL    HW218561   0.722   0.854   1.158  0.7221 -0.6127  0.2615
 2309SOL     OW18562   2.605   2.754   5.481  0.2247  0.5828  0.2802
 2309SOL    HW118563   2.566   2.699   5.414  1.7644 -0.0716 -0.0610
 2309SOL    HW218564   2.527   2.805   5.506 -0.6240 -1.7275  2.3702
 2310SOL     OW18565   4.074   0.147   1.461  0.5188  0.2814 -0.7042
 2310SOL    HW118566   4.120   0.162   1.543 -0.5960 -0.0231 -0.0238
 2310SOL    HW218567   4.149   0.142   1.402  0.5235 -1.0933 -0.5981
 2311SOL     OW18568   2.123   0.722   5.860 -0.6537 -0.4523 -0.4533
 2311SOL    HW118569   2.041   0.676   5.880 -1.1906  0.7265  0.0650
 2311SOL    HW218570   2.178   0.649   5.832 -0.3829 -0.3017 -0.3173
 2312SOL     OW18571   2.581   1.646   2.880  0.1161 -0.0327 -0.5929
 2312SOL    HW118572   2.656   1.666   2.824 -0.4563 -0.8779 -1.6744
 2312SOL    HW218573   2.517   1.629   2.810  0.7527  0.0695 -1.2020
 2313SOL     OW18574   4.073   2.571   7.619  0.5854  0.5746  1.3798
 2313SOL    HW118575   4.135   2.623   7.568 -0.3443  1.3867  1.0762
 2313SOL    HW218576   3.998   2.629   7.626  0.6379  0.8819 -0.5722
 2314SOL     OW18577   0.868   2.665   8.531 -0.4866  0.4577  0.2527
 2314SOL    HW118578   0.825   2.737   8.577 -0.6598  0.8055 -0.4531
 2314SOL    HW218579   0.827   2.666   8.444  0.7950  0.2571 -0.3522
 2315SOL     OW18580   1.321   2.798  15.321  0.3911  0.1887  0.6433
 2315SOL    HW118581   1.306   2.886  15.284  0.0937 -0.2493 -0.2762
 2315SOL    HW218582   1.235   2.775  15.357  0.3228 -0.4882  0.0332
 2316SOL     OW18583   3.956   1.478   2.033  0.5180  0.2596  0.2206
 2316SOL    HW118584   3.926   1.472   2.123 -1.3315  3.1369 -0.2254
 2316SOL    HW218585   4.052   1.476   2.042  0.3763 -0.0715  1.5917
 2317SOL     OW18586   0.293   1.878  15.666  0.5179 -0.1074  0.3082
 2317SOL    HW118587   0.255   1.895  15.580 -2.1414 -1.5258  1.2016
 2317SOL    HW218588   0.347   1.802  15.647 -2.1749 -1.7763 -0.6233
 2318SOL     OW18589   2.935   1.764   9.015 -0.2083  0.5820  0.2976
 2318SOL    HW118590   2.953   1.782   8.922  3.1786  0.3674  0.8793
 2318SOL    HW218591   2.937   1.669   9.006  2.9414  0.7680 -1.3365
 2319SOL     OW18592   3.099   4.046   1.192  0.0615  0.5196  0.3035
 2319SOL    HW118593   3.122   4.006   1.276 -1.4889 -0.6905  0.1432
 2319SOL    HW218594   3.033   4.110   1.221  0.8755  1.5494 -0.1437
 2320SOL     OW18595   2.910   3.703   1.747 -0.8195  0.0482  0.1367
 2320SOL    HW118596   2.911   3.631   1.683 -2.0580 -2.3751  2.8544
 2320SOL    HW218597   2.886   3.774   1.687  1.2783  0.4981 -0.1599
 2321SOL     OW18598   1.284   1.288  17.488 -0.1612 -0.1383  0.1878
 2321SOL    HW118599   1.348   1.247  17.546  1.2181  0.8016 -0.6504
 2321SOL    HW218600   1.264   1.219  17.425  0.2722  0.9052 -1.1073
 2322SOL     OW18601   3.593   1.107   8.124 -0.2044  0.5950 -0.3036
 2322SOL    HW118602   3.576   1.096   8.030  0.0359  0.7377 -0.3626
 2322SOL    HW218603   3.601   1.016   8.152 -1.1899  0.3333 -0.8866
 2323SOL     OW18604   3.891   0.872   6.706  0.6998  0.2583 -0.2049
 2323SOL    HW118605   3.899   0.813   6.632  0.0780 -0.8419  0.6048
 2323SOL    HW218606   3.863   0.950   6.657 -0.3714  0.2635  0.4002
 2324SOL     OW18607   1.728   1.360   8.488  0.5708  0.6146 -0.4334
 2324SOL    HW118608   1.639   1.336   8.513  1.3571 -2.6999 -0.7698
 2324SOL    HW218609   1.770   1.325   8.566 -1.1653 -1.0740 -0.2415
 2325SOL     OW18610   4.198   1.056  13.218  0.2301 -0.0331  0.0200
 2325SOL    HW118611   4.279   1.076  13.266  1.0532 -2.0779 -0.5351
 2325SOL    HW218612   4.127   1.077  13.279 -1.1024  1.5753 -2.0742
 2326SOL     OW18613   2.689   3.494   2.670 -0.2565 -0.3283 -0.0438
 2326SOL    HW118614   2.677   3.572   2.616 -0.9177 -1.0554 -0.9399
 2326SOL    HW218615   2.643   3.524   2.748  0.8118 -1.5466  1.0574
 2327SOL     OW18616   3.194   4.360  12.678  0.2855 -0.4918 -0.3539
 2327SOL    HW118617   3.228   4.278  12.713  1.9803 -0.6518 -2.3936
 2327SOL    HW218618   3.130   4.391  12.742  1.6189 -0.1751  0.8069
 2328SOL     OW18619   3.914   1.825   8.558  0.4605 -0.0308  0.1662
 2328SOL    HW118620   3.937   1.827   8.651 -0.8216 -1.7301  0.5036
 2328SOL    HW218621   3.994   1.788   8.521  0.0520 -0.7628  0.0318
 2329SOL     OW18622   4.236   3.647  14.793  0.1094 -0.1765 -0.0130
 2329SOL    HW118623   4.321   3.656  14.836 -0.3829  2.2724  0.4674
 2329SOL    HW218624   4.266   3.661  14.703  1.7014  1.3574  0.7540
 2330SOL     OW18625   0.779   0.597  13.333 -0.2162 -0.4721  0.0991
 2330SOL    HW118626   0.707   0.625  13.389 -0.7686 -0.1531 -0.7921
 2330SOL    HW218627   0.752   0.628  13.247  1.4400  0.4951 -0.0847
 2331SOL     OW18628   0.080   4.192  13.410 -0.6779 -0.2834 -0.6772
 2331SOL    HW118629   0.042   4.153  13.488  0.1089 -1.7778 -1.0395
 2331SOL    HW218630   0.012   4.177  13.345 -0.3438 -2.1220 -0.6083
 2332SOL     OW18631   2.940   2.818  16.727  0.2747  0.0722 -0.1006
 2332SOL    HW118632   2.974   2.907  16.715 -0.7393  0.1198 -2.5229
 2332SOL    HW218633   3.016   2.769  16.695  0.6884  0.3144  0.5213
 2333SOL     OW18634   3.840   3.086   2.369 -0.3440 -0.6497 -0.1219
 2333SOL    HW118635   3.779   3.045   2.431  0.2927 -3.0152 -1.0382
 2333SOL    HW218636   3.920   3.072   2.420 -0.3045 -0.7055 -0.1990
 2334SOL     OW18637   1.385   4.555   4.131 -0.0730 -0.3513 -0.2393
 2334SOL    HW118638   1.359   4.466   4.106 -1.2930 -0.5628  1.7737
 2334SOL    HW218639   1.298   4.593   4.140  0.9142  1.6011  1.1657
 2335SOL     OW18640   3.943   1.776   3.944 -0.1162  0.3866  0.5645
 2335SOL    HW118641   4.012   1.793   4.009 -0.8285  2.4989  0.7726
 2335SOL    HW218642   3.888   1.704   3.975  2.9208 -1.2499  2.1635
 2336SOL     OW18643   4.619   1.873   5.875 -0.4888  0.0690  0.9031
 2336SOL    HW118644   4.682   1.928   5.921  0.9556 -2.7875  2.3339
 2336SOL    HW218645   4.661   1.791   5.900 -0.0268 -0.4022 -1.4324
 2337SOL     OW18646   3.536   2.184   7.513 -0.1862 -0.2681 -0.3600
 2337SOL    HW118647   3.618   2.218   7.549  0.1989  1.1193 -2.5323
 2337SOL    HW218648   3.569   2.186   7.423 -1.5915 -2.8201 -0.9136
 2338SOL     OW18649   2.044   4.593   4.980  0.4477 -0.6438 -0.3071
 2338SOL    HW118650   2.068   4.664   5.039 -2.1815 -1.5199  1.8286
 2338SOL    HW218651   1.957   4.617   4.951  0.1669 -1.1526  0.1071
 2339SOL     OW18652   3.605   1.637   9.168 -0.3085 -0.0365 -0.4061
 2339SOL    HW118653   3.699   1.619   9.169 -0.1745  0.6846  0.3962
 2339SOL    HW218654   3.571   1.559   9.124  1.9223 -1.4637  0.4183
 2340SOL     OW18655   1.916   2.273  17.190  0.1026 -0.1577  0.6076
 2340SOL    HW118656   1.908   2.243  17.281 -1.7567  2.4371  1.3155
 2340SOL    HW218657   1.954   2.360  17.175  0.4046 -0.7906 -2.2468
 2341SOL     OW18658   0.854   3.869   4.236 -0.3238 -1.1097  0.0990
 2341SOL    HW118659   0.826   3.946   4.285  1.8948  0.9121 -1.7936
 2341SOL    HW218660   0.907   3.914   4.169  0.7363 -0.8354  1.1162
 2342SOL     OW18661   4.341   2.203   0.904 -0.0323 -0.1686 -0.3896
 2342SOL    HW118662   4.326   2.109   0.910 -0.0822 -0.2321 -1.4613
 2342SOL    HW218663   4.342   2.220   0.810 -0.8924 -0.7933 -0.5023
 2343SOL     OW18664   0.408   2.607   7.581  0.2510 -0.6335 -0.1285
 2343SOL    HW118665   0.356   2.662   7.523 -0.0872 -0.0842  0.6793
 2343SOL    HW218666   0.397   2.522   7.541 -2.5039 -0.3384  0.0091
 2344SOL     OW18667   3.763   1.112   2.361  0.6177  0.1725 -0.2150
 2344SOL    HW118668   3.754   1.088   2.268  0.7602 -0.2086 -0.1274
 2344SOL    HW218669   3.672   1.113   2.390  0.2837 -2.1653 -1.1716
 2345SOL     OW18670   1.187   4.245   8.741  0.1309  0.0753 -0.1804
 2345SOL    HW118671   1.164   4.164   8.788  0.0782  0.2168  0.0369
 2345SOL    HW218672   1.282   4.253   8.732  0.2597 -0.4721  0.6733
 2346SOL     OW18673   0.194   1.156   8.079 -0.1202  0.5072 -0.1159
 2346SOL    HW118674   0.259   1.199   8.134  0.0198  1.4291 -1.0129
 2346SOL    HW218675   0.176   1.070   8.117 -1.0081  0.6299 -0.2594
 2347SOL     OW18676   1.264   0.181   1.783  0.0901  0.1414 -0.1567
 2347SOL    HW118677   1.220   0.098   1.761 -2.1996  1.5959 -0.9942
 2347SOL    HW218678   1.195   0.240   1.812 -0.4262 -0.2273 -0.6260
 2348SOL     OW18679   4.233   2.632   1.927 -0.1361 -0.1588 -0.3928
 2348SOL    HW118680   4.232   2.722   1.894 -0.3806 -0.0181 -0.0098
 2348SOL    HW218681   4.251   2.584   1.846  0.6829 -2.3239  1.0689
 2349SOL     OW18682   0.585   2.063   7.322  0.1386  0.2657 -0.9859
 2349SOL    HW118683   0.610   2.150   7.354 -0.1974  0.1637 -0.4300
 2349SOL    HW218684   0.670   2.038   7.287 -0.2979 -0.6596 -1.3844
 2350SOL     OW18685   4.122   0.693   1.592 -0.1877 -0.7385 -0.0085
 2350SOL    HW118686   4.164   0.678   1.507  2.7754 -2.3909  1.7516
 2350SOL    HW218687   4.158   0.624   1.647 -1.6538 -0.6127  1.1116
 2351SOL     OW18688   2.554   4.623   4.079 -0.2208  0.2984  0.1979
 2351SOL    HW118689   2.594   4.624   3.992 -0.9413 -1.0176 -0.1379
 2351SOL    HW218690   2.614   4.683   4.124  2.9985 -1.6192 -1.5258
 2352SOL     OW18691   2.459   2.942   1.169 -0.7089 -0.4473  0.1464
 2352SOL    HW118692   2.484   2.927   1.078  0.0899 -0.9034  0.4357
 2352SOL    HW218693   2.370   2.976   1.167 -0.2732  0.7305  0.6007
 2353SOL     OW18694   1.357   4.221   5.598  0.6530 -0.6501 -0.0193
 2353SOL    HW118695   1.352   4.220   5.694  0.3177  3.3071  0.0424
 2353SOL    HW218696   1.450   4.203   5.591  0.6696 -0.0895 -1.2732
 2354SOL     OW18697   2.672   1.104   4.719 -0.3846 -0.1134  0.0891
 2354SOL    HW118698   2.663   1.043   4.646 -0.2263 -0.0358  0.0039
 2354SOL    HW218699   2.597   1.162   4.704 -1.6070 -2.0056 -1.0632
 2355SOL     OW18700   0.628   2.046   9.862 -0.4067  0.5331 -0.0900
 2355SOL    HW118701   0.542   2.041   9.904  0.9115  0.1431  2.6170
 2355SOL    HW218702   0.651   2.138   9.875 -1.5174  0.9136 -0.7677
 2356SOL     OW18703   0.050   1.068   2.203 -0.0970 -0.0095  0.3366
 2356SOL    HW118704   0.090   1.107   2.281  1.4760  1.7384 -1.3547
 2356SOL    HW218705   4.708   1.030   2.245  0.7093 -0.7147  1.1680
 2357SOL     OW18706   4.360   4.259  13.591  0.7505 -0.2079 -0.2986
 2357SOL    HW118707   4.308   4.286  13.515  0.3001 -0.1238  0.0437
 2357SOL    HW218708   4.389   4.176  13.555  0.5080  0.4088 -1.9298
 2358SOL     OW18709   0.109   0.485   8.755 -0.0685 -0.3305  0.3408
 2358SOL    HW118710   0.133   0.475   8.847 -0.6561  0.6307  0.5995
 2358SOL    HW218711   0.153   0.566   8.729 -0.9244  0.0100 -0.0439
 2359SOL     OW18712   4.426   1.635   2.438  0.7761  0.1586 -0.3607
 2359SOL    HW118713   4.366   1.700   2.473  0.5228  0.6214 -1.6624
 2359SOL    HW218714   4.393   1.561   2.490 -0.7432 -0.2070 -1.8524
 2360SOL     OW18715   4.546   4.369   6.966  0.0258 -0.0700 -0.5078
 2360SOL    HW118716   4.527   4.303   7.033  0.8505 -1.8503 -2.0306
 2360SOL    HW218717   4.635   4.384   6.999 -0.8403 -0.1417  1.8320
 2361SOL     OW18718   1.059   0.734   7.536  0.0007  1.0439 -0.1313
 2361SOL    HW118719   1.030   0.647   7.564  0.5029  1.0798  0.5009
 2361SOL    HW218720   1.135   0.744   7.593 -0.9052 -0.9425  1.4393
 2362SOL     OW18721   3.028   1.549   4.615 -0.3720  0.0029  0.2450
 2362SOL    HW118722   2.937   1.517   4.616  0.2721 -1.8394 -2.0507
 2362SOL    HW218723   3.075   1.470   4.589  1.8310  1.0966  0.8821
 2363SOL     OW18724   4.424   2.838   3.333 -0.1528  0.1860 -0.1180
 2363SOL    HW118725   4.460   2.755   3.366 -1.6159 -0.1674  0.6061
 2363SOL    HW218726   4.366   2.871   3.402  0.3219  1.6068 -0.4029
 2364SOL     OW18727   2.315   2.250   2.387  0.2177  0.1329  0.0384
 2364SOL    HW118728   2.386   2.198   2.424 -1.6832 -0.6025  2.6352
 2364SOL    HW218729   2.292   2.301   2.465 -2.1795 -0.2231 -0.4328
 2365SOL     OW18730   4.031   4.602   2.861  0.6351  0.3731  0.4350
 2365SOL    HW118731   3.970   4.674   2.845  0.3585 -0.4597 -2.1855
 2365SOL    HW218732   3.978   4.523   2.853  2.6891 -1.1446  1.5987
 2366SOL     OW18733   0.326   3.473   8.931  0.0900  0.2523  0.6925
 2366SOL    HW118734   0.337   3.560   8.969  2.8027  0.8291 -1.3834
 2366SOL    HW218735   0.409   3.473   8.883 -0.3757 -0.4906 -0.1318
 2367SOL     OW18736   0.874   4.211   7.944  0.0199 -0.2560  0.2645
 2367SOL    HW118737   0.922   4.267   7.883 -1.0105 -0.1713 -0.4689
 2367SOL    HW218738   0.803   4.264   7.980 -1.9150 -3.3441  1.0151
 2368SOL     OW18739   2.050   1.209   6.961  0.4621 -0.4268 -0.0367
 2368SOL    HW118740   2.063   1.243   6.872 -1.6882  0.5370  0.0116
 2368SOL    HW218741   2.092   1.126   6.939  2.1359  0.7586 -1.3058
 2369SOL     OW18742   3.625   0.441   3.741  0.3074  0.0392  0.1137
 2369SOL    HW118743   3.645   0.422   3.833 -0.7402  1.2460  0.5858
 2369SOL    HW218744   3.599   0.532   3.753 -0.4169  0.0702 -1.7424
 2370SOL     OW18745   1.546   1.031   8.886 -0.2837  0.4647 -0.0865
 2370SOL    HW118746   1.537   1.013   8.793 -2.6228 -0.2705  0.2979
 2370SOL    HW218747   1.518   0.956   8.939  0.8844 -0.1594 -0.3320
 2371SOL     OW18748   0.772   0.528  12.396 -0.4232  0.0757 -0.6319
 2371SOL    HW118749   0.736   0.503  12.311  0.2251  0.0960 -0.9190
 2371SOL    HW218750   0.836   0.457  12.410 -0.6288 -0.7779 -4.0683
 2372SOL     OW18751   0.817   0.954   7.027  0.1942  0.2294 -0.1465
 2372SOL    HW118752   0.772   0.875   7.058 -0.5786 -0.0287 -1.9440
 2372SOL    HW218753   0.748   1.019   7.038 -0.2855 -0.2807 -0.1084
 2373SOL     OW18754   3.711   0.299   3.518  0.0085  0.2465 -0.0480
 2373SOL    HW118755   3.713   0.334   3.608 -4.4202  0.7302 -0.1333
 2373SOL    HW218756   3.689   0.383   3.478  3.4725  1.8401  1.4597
 2374SOL     OW18757   3.882   0.222   7.224 -0.7938  0.0637 -0.1347
 2374SOL    HW118758   3.905   0.166   7.298  2.3334 -1.0122 -1.9278
 2374SOL    HW218759   3.931   0.183   7.152  0.7972 -2.1471  2.1397
 2375SOL     OW18760   3.887   1.441   5.482 -0.2739 -0.2430 -0.0206
 2375SOL    HW118761   3.886   1.440   5.387 -0.7882 -1.3126 -0.0006
 2375SOL    HW218762   3.849   1.354   5.492 -2.9737  0.7361 -1.8085
 2376SOL     OW18763   2.231   2.271   5.042  0.4381  0.8316 -0.1078
 2376SOL    HW118764   2.187   2.188   5.058  1.8929  0.2008  0.6164
 2376SOL    HW218765   2.158   2.330   5.021 -1.2118 -1.1961 -0.0639
 2377SOL     OW18766   3.529   3.970  17.194  0.1769 -0.1864  0.1493
 2377SOL    HW118767   3.605   3.915  17.177 -0.2851 -0.8127  0.0966
 2377SOL    HW218768   3.450   3.918  17.178 -0.9373  1.5410 -0.0820
 2378SOL     OW18769   0.279   4.337   3.195 -0.0860 -0.4166  0.1917
 2378SOL    HW118770   0.374   4.328   3.192 -0.1613 -0.2307 -3.1683
 2378SOL    HW218771   0.255   4.251   3.228  1.8212 -0.1436  2.2458
 2379SOL     OW18772   1.120   3.916  14.821  0.1289 -0.2449  0.1383
 2379SOL    HW118773   1.085   3.898  14.908  1.4881  0.0998  0.7532
 2379SOL    HW218774   1.153   4.006  14.823  2.2399 -1.0469  1.7226
 2380SOL     OW18775   2.526   4.305   8.350  0.1959  0.6982 -0.0333
 2380SOL    HW118776   2.436   4.292   8.318 -1.2420  3.2532  2.9232
 2380SOL    HW218777   2.562   4.218   8.335  0.7809  0.6778  1.4286
 2381SOL     OW18778   2.382   2.684   7.091  0.2784 -0.1104 -0.1063
 2381SOL    HW118779   2.413   2.720   7.174 -1.6896 -0.9823  1.0014
 2381SOL    HW218780   2.342   2.764   7.056 -1.6322 -0.2591  1.7538
 2382SOL     OW18781   2.622   3.996   4.450 -0.1532  0.4485  0.5540
 2382SOL    HW118782   2.591   4.004   4.540 -0.8420 -0.9637  0.4428
 2382SOL    HW218783   2.568   4.064   4.409 -1.0247 -2.0169 -2.3660
 2383SOL     OW18784   1.991   3.634   5.139  0.5474  1.1960 -0.2597
 2383SOL    HW118785   2.001   3.581   5.217 -0.1321  1.9102  0.3049
 2383SOL    HW218786   2.062   3.694   5.163  0.1822  1.0996  1.0293
 2384SOL     OW18787   2.277   3.643   8.329  0.5024 -0.2086  0.1369
 2384SOL    HW118788   2.193   3.675   8.361 -0.6879 -2.2540 -0.9612
 2384SOL    HW218789   2.330   3.717   8.301  0.6831  1.0363  3.7886
 2385SOL     OW18790   4.193   0.244   5.791 -0.1670 -0.0557  0.5777
 2385SOL    HW118791   4.138   0.274   5.718 -0.5448 -0.3650  0.7306
 2385SOL    HW218792   4.121   0.238   5.854  1.1201 -1.6824  1.8929
 2386SOL     OW18793   0.777   3.840  10.801  0.3875  0.8057  0.7993
 2386SOL    HW118794   0.792   3.801  10.887 -1.4721  2.4411  1.8758
 2386SOL    HW218795   0.850   3.796  10.757 -1.5738 -2.4894  0.8033
 2387SOL     OW18796   1.662   0.106   4.831 -0.0050  0.0437  0.3013
 2387SOL    HW118797   1.652   0.178   4.893  2.3735 -0.5449  1.3802
 2387SOL    HW218798   1.624   0.145   4.752 -0.3203  1.9549  1.4059
 2388SOL     OW18799   4.668   0.609  15.770  0.4479  0.0359 -0.4844
 2388SOL    HW118800   4.728   0.640  15.702  1.7485 -2.5993 -0.5416
 2388SOL    HW218801   4.586   0.615  15.720  0.3050 -0.4182 -0.3065
 2389SOL     OW18802   0.650   2.567   1.634 -0.4201 -0.3330  0.1897
 2389SOL    HW118803   0.658   2.528   1.721  1.4961  1.2439  0.7253
 2389SOL    HW218804   0.693   2.652   1.646  1.1526 -0.9730 -0.8664
 2390SOL     OW18805   0.366   4.732   6.711 -0.1881 -0.3845  0.0292
 2390SOL    HW118806   0.401   0.084   6.694 -0.0605 -0.6000 -0.8323
 2390SOL    HW218807   0.445   4.680   6.698 -0.0354 -0.9564  3.1778
 2391SOL     OW18808   3.547   3.333   8.170  0.1288 -0.2835  0.7194
 2391SOL    HW118809   3.550   3.407   8.231 -1.0197 -1.1121  1.7799
 2391SOL    HW218810   3.602   3.367   8.099 -0.5695  0.5661  0.5793
 2392SOL     OW18811   1.978   2.758  16.860  0.1300 -0.4727  0.4529
 2392SOL    HW118812   1.941   2.671  16.878 -0.0644 -0.4648  0.0921
 2392SOL    HW218813   1.976   2.755  16.764 -0.4175 -0.7329  0.4749
 2393SOL     OW18814   4.281   1.017   8.052  0.5051  0.4783 -0.2696
 2393SOL    HW118815   4.337   1.039   7.978 -1.6354  1.1057 -1.7233
 2393SOL    HW218816   4.193   1.000   8.019 -0.0968 -0.4720  1.8161
 2394SOL     OW18817   0.965   0.221   2.187  0.4930  0.0812 -0.0832
 2394SOL    HW118818   0.999   0.135   2.162 -0.8070 -0.4964  0.1156
 2394SOL    HW218819   1.023   0.246   2.259 -2.1473 -0.8163  2.3694
 2395SOL     OW18820   4.243   3.181   4.623  0.3423 -0.5441  0.5001
 2395SOL    HW118821   4.215   3.226   4.703 -0.2309 -1.0412  0.5760
 2395SOL    HW218822   4.228   3.247   4.555 -1.2330  0.9845  2.3319
 2396SOL     OW18823   0.902   4.144   8.319 -0.0494  0.5321 -0.2344
 2396SOL    HW118824   0.831   4.202   8.346  0.3030  0.1781  1.4533
 2396SOL    HW218825   0.970   4.193   8.365 -0.4025  0.5869  0.2310
 2397SOL     OW18826   1.190   1.222  11.012 -0.0734  0.4820  0.1443
 2397SOL    HW118827   1.244   1.301  11.020 -0.2822  0.6843 -0.4406
 2397SOL    HW218828   1.248   1.156  10.974  0.2506  1.5774 -1.2754
 2398SOL     OW18829   3.420   2.923  14.871  0.0953 -0.0667  0.5665
 2398SOL    HW118830   3.382   2.884  14.792  0.3922 -1.1772  0.9650
 2398SOL    HW218831   3.474   2.850  14.903 -0.4117  0.9498  3.7714
 2399SOL     OW18832   1.911   3.247   1.904  0.6774  0.1889 -0.0305
 2399SOL    HW118833   1.816   3.253   1.907  0.5697 -1.5832  0.0064
 2399SOL    HW218834   1.912   3.272   1.812  2.5399  0.5009  0.0667
 2400SOL     OW18835   2.051   4.190   6.217 -0.6438 -0.0309 -0.1502
 2400SOL    HW118836   1.994   4.198   6.293 -0.5951  0.6648 -0.1861
 2400SOL    HW218837   1.999   4.129   6.164  0.6174 -1.5328  0.3441
 2401SOL     OW18838   0.523   3.224  16.757 -0.4808 -0.1098 -0.1031
 2401SOL    HW118839   0.576   3.291  16.800  1.3598  0.2033 -2.8456
 2401SOL    HW218840   0.562   3.142  16.784 -1.3745 -0.7791 -0.8400
 2402SOL     OW18841   0.586   4.251  10.997  0.1618 -0.0399  0.0775
 2402SOL    HW118842   0.612   4.199  10.921  1.0445 -0.4395  0.6680
 2402SOL    HW218843   0.630   4.335  10.983  0.3696 -0.1781 -0.0803
 2403SOL     OW18844   0.906   1.837  17.369  0.2939 -0.0631 -0.2972
 2403SOL    HW118845   0.969   1.765  17.373  1.4574  0.8003 -2.7554
 2403SOL    HW218846   0.867   1.825  17.455 -0.6024  3.0096 -0.2819
 2404SOL     OW18847   0.576   2.223   5.678  0.4403 -0.8271  0.3125
 2404SOL    HW118848   0.636   2.297   5.691 -2.3477  1.7056 -1.1205
 2404SOL    HW218849   0.493   2.262   5.705  1.3259  0.4313  1.2448
 2405SOL     OW18850   3.229   3.175  10.604 -0.1222  0.6968  0.1594
 2405SOL    HW118851   3.149   3.167  10.655 -1.6993  0.8661 -2.2771
 2405SOL    HW218852   3.204   3.235  10.534  2.3437  0.4507 -0.9484
 2406SOL     OW18853   3.017   3.197   8.477 -0.1835 -0.0454 -0.2474
 2406SOL    HW118854   3.005   3.148   8.395 -0.3159 -1.1240  0.4236
 2406SOL    HW218855   3.066   3.133   8.529 -2.3657  0.1064  1.9634
 2407SOL     OW18856   3.154   3.278  11.137 -0.0288 -0.2464 -0.2579
 2407SOL    HW118857   3.153   3.241  11.225 -2.5961  0.1101 -0.1384
 2407SOL    HW218858   3.155   3.372  11.152 -1.0337 -0.1104 -1.0290
 2408SOL     OW18859   3.996   2.802   2.435  0.2034 -0.3288 -0.1987
 2408SOL    HW118860   4.000   2.885   2.484  0.5331  0.3560 -1.3970
 2408SOL    HW218861   3.930   2.840   2.376 -0.4155  0.8627  1.2410
 2409SOL     OW18862   4.590   4.120  16.294  0.4674  0.3033 -0.0459
 2409SOL    HW118863   4.525   4.191  16.297 -3.1103 -2.9298 -1.0179
 2409SOL    HW218864   4.614   4.107  16.385 -0.5283 -0.5129  0.1029
 2410SOL     OW18865   2.712   0.622   5.351 -0.3195 -0.1684 -0.3014
 2410SOL    HW118866   2.702   0.527   5.350  0.6623 -0.2663 -0.1016
 2410SOL    HW218867   2.721   0.658   5.263  0.9666  1.3091  0.4351
 2411SOL     OW18868   2.575   4.678   9.428 -0.1042  0.3728  0.1039
 2411SOL    HW118869   2.491   4.643   9.398 -0.3917  0.7193  0.5080
 2411SOL    HW218870   2.639   4.615   9.394 -0.3565  0.0043  0.3008
 2412SOL     OW18871   1.359   3.254   8.060 -0.2092 -0.0581 -0.2663
 2412SOL    HW118872   1.347   3.325   7.998  0.2278 -0.9888 -1.4208
 2412SOL    HW218873   1.451   3.267   8.082 -0.6036 -0.0078  1.3924
 2413SOL     OW18874   0.082   2.841   0.829  0.3447 -0.5057 -0.6369
 2413SOL    HW118875   0.069   2.836   0.924  2.6180 -0.8159 -0.3439
 2413SOL    HW218876   0.177   2.828   0.830  0.3061 -0.6865  1.9226
 2414SOL     OW18877   0.265   1.858   4.438 -0.6155 -0.5104 -0.1857
 2414SOL    HW118878   0.300   1.911   4.510 -0.2241 -2.2943  0.9361
 2414SOL    HW218879   0.330   1.788   4.447  0.1399 -0.0484 -2.0808
 2415SOL     OW18880   2.536   2.615  16.888  0.5330  0.0666  0.3434
 2415SOL    HW118881   2.529   2.587  16.979 -0.7514 -0.3585  0.1158
 2415SOL    HW218882   2.629   2.636  16.894  0.6026 -0.2351  0.3378
 2416SOL     OW18883   4.285   3.383   1.842 -0.0614 -0.4020  0.1589
 2416SOL    HW118884   4.291   3.462   1.788  4.0516 -1.1724 -0.5099
 2416SOL    HW218885   4.377   3.356   1.839 -0.1446 -0.6577 -0.2735
 2417SOL     OW18886   0.080   2.264   6.292  0.5057  0.7654  0.5566
 2417SOL    HW118887   0.052   2.356   6.290  2.9102  1.5439  2.9275
 2417SOL    HW218888   0.148   2.267   6.225 -0.5941  1.0629 -0.5635
 2418SOL     OW18889   2.435   2.252   7.043 -0.0316 -0.0767  0.4796
 2418SOL    HW118890   2.434   2.230   7.136 -0.6329 -0.5348  0.3627
 2418SOL    HW218891   2.369   2.321   7.041 -0.5988 -0.6326  0.1454
 2419SOL     OW18892   2.039   0.941   3.598  0.5807  0.0922  0.4346
 2419SOL    HW118893   2.015   0.895   3.517  1.5811  0.4112 -0.0445
 2419SOL    HW218894   2.062   0.868   3.655 -1.3972  0.5272  1.7778
 2420SOL     OW18895   0.322   1.981  14.577  0.1195  0.4086  0.0674
 2420SOL    HW118896   0.359   2.053  14.627 -1.2857  1.0193  0.2398
 2420SOL    HW218897   0.241   2.029  14.560 -0.6205 -0.5087  0.9923
 2421SOL     OW18898   3.184   2.353   6.235 -0.6041 -0.1088 -0.1210
 2421SOL    HW118899   3.256   2.409   6.206 -0.7626 -0.5252 -1.2884
 2421SOL    HW218900   3.206   2.326   6.324 -0.1600  0.6305 -0.0082
 2422SOL     OW18901   2.553   2.939   3.068  0.0704 -0.1687  0.5963
 2422SOL    HW118902   2.586   3.021   3.032 -0.1299 -0.4568 -0.2503
 2422SOL    HW218903   2.467   2.934   3.025 -0.2138 -2.7726  1.4650
 2423SOL     OW18904   4.630   0.430   5.961  0.0734 -0.4477  0.3211
 2423SOL    HW118905   4.536   0.449   5.960  0.0380 -0.6387  0.0588
 2423SOL    HW218906   4.665   0.515   5.985 -0.7612 -0.1180  0.3886
 2424SOL     OW18907   1.979   1.115   2.786  0.2950 -0.9497  0.3356
 2424SOL    HW118908   2.072   1.129   2.802  0.8323 -2.1752 -1.6307
 2424SOL    HW218909   1.984   1.048   2.718 -0.1175  0.9636 -1.5770
 2425SOL     OW18910   2.427   3.016   6.205 -0.0979 -0.2177 -0.1481
 2425SOL    HW118911   2.477   3.083   6.251  0.1202  0.1685 -0.9499
 2425SOL    HW218912   2.447   3.049   6.117 -0.1267  1.8431  0.5993
 2426SOL     OW18913   2.886   3.673   4.360  0.5041  0.0780  0.5879
 2426SOL    HW118914   2.914   3.726   4.434  0.1552  1.3724 -0.2120
 2426SOL    HW218915   2.866   3.589   4.402 -1.3935  0.9992  1.5005
 2427SOL     OW18916   2.145   0.349   3.919 -0.0840 -0.4134 -0.5722
 2427SOL    HW118917   2.081   0.281   3.897  0.3396 -1.4164  1.2377
 2427SOL    HW218918   2.203   0.350   3.843  0.0547 -0.1688 -0.4615
 2428SOL     OW18919   3.988   4.303   6.493  0.2319 -0.6344 -0.2871
 2428SOL    HW118920   3.991   4.394   6.466 -1.9672 -0.6971 -0.7623
 2428SOL    HW218921   3.924   4.308   6.563  0.4596  0.5827 -0.1638
 2429SOL     OW18922   2.783   2.411   2.839  0.5031 -0.0054 -0.0432
 2429SOL    HW118923   2.749   2.445   2.756  0.0997 -0.5295 -0.0885
 2429SOL    HW218924   2.828   2.489   2.873 -1.3771  1.4710 -0.9370
 2430SOL     OW18925   4.167   0.070   9.676  0.2528  0.2740 -0.4056
 2430SOL    HW118926   4.140   4.713   9.677  0.9965  0.0357 -1.6589
 2430SOL    HW218927   4.111   0.103   9.606 -0.8439 -0.4977  0.1078
 2431SOL     OW18928   0.991   0.734   4.815 -0.1267 -0.4663  1.1026
 2431SOL    HW118929   1.001   0.783   4.734  2.2649 -2.7334  0.0591
 2431SOL    HW218930   1.056   0.777   4.871 -1.2310  0.2780  1.8254
 2432SOL     OW18931   2.428   3.839   1.085 -0.0205  0.3587 -0.6069
 2432SOL    HW118932   2.428   3.883   1.000 -1.3148  2.2978  0.4069
 2432SOL    HW218933   2.355   3.879   1.132 -0.9442 -1.3827 -0.5755
 2433SOL     OW18934   2.597   0.335   9.185  0.0267 -0.5827  0.0206
 2433SOL    HW118935   2.631   0.344   9.096 -0.4249  0.0983 -0.0836
 2433SOL    HW218936   2.526   0.272   9.172 -0.6127  0.0991  0.2241
 2434SOL     OW18937   4.469   1.094   6.850 -0.1898  0.4517  0.0635
 2434SOL    HW118938   4.455   1.106   6.756  0.2200  1.1117  0.0874
 2434SOL    HW218939   4.420   1.012   6.852  1.1659 -0.3659 -0.8857
 2435SOL     OW18940   1.097   3.900  13.217  0.3058  0.3222 -0.1238
 2435SOL    HW118941   1.140   3.975  13.259 -1.7834  1.1102  0.5820
 2435SOL    HW218942   1.010   3.927  13.189 -0.9579 -1.4895  2.0352
 2436SOL     OW18943   4.511   2.717   3.031  0.6025  0.3829 -0.5935
 2436SOL    HW118944   4.420   2.716   3.059  0.7300  0.9604 -0.1459
 2436SOL    HW218945   4.504   2.716   2.935 -0.8146  1.6254 -0.5089
 2437SOL     OW18946   0.809   1.733  13.626  0.6945  0.1901 -0.0898
 2437SOL    HW118947   0.751   1.685  13.567 -1.2151  2.0915  0.2246
 2437SOL    HW218948   0.788   1.825  13.607  0.6467 -0.0350 -1.1065
 2438SOL     OW18949   2.815   1.612   2.696  0.1300 -0.5797 -0.7689
 2438SOL    HW118950   2.787   1.670   2.626 -1.1263  0.3810  0.5191
 2438SOL    HW218951   2.852   1.539   2.647  1.2722  0.6686 -1.7767
 2439SOL     OW18952   0.693   2.881   1.404  0.7107  0.0751  0.6574
 2439SOL    HW118953   0.765   2.857   1.346 -0.1463 -2.2626  0.5607
 2439SOL    HW218954   0.730   2.865   1.490  0.8331  2.8743  1.1268
 2440SOL     OW18955   2.850   3.536   4.047 -0.0683  0.1271 -0.0620
 2440SOL    HW118956   2.786   3.464   4.046  0.0074  0.0499  0.9563
 2440SOL    HW218957   2.926   3.500   4.093 -0.4795  0.8948  1.2030
 2441SOL     OW18958   2.806   2.638   1.161  0.4911 -0.8688 -0.5995
 2441SOL    HW118959   2.829   2.630   1.253 -0.0926 -0.6981 -0.4394
 2441SOL    HW218960   2.713   2.662   1.171  1.4907  0.5874  5.0862
 2442SOL     OW18961   2.324   2.382  11.078  0.5074 -0.2038 -0.5253
 2442SOL    HW118962   2.390   2.313  11.072  0.3034 -0.3628 -0.9475
 2442SOL    HW218963   2.285   2.365  11.164 -0.3446  0.1643 -0.8370
 2443SOL     OW18964   4.667   3.505   9.370 -0.7850 -0.4951  0.2694
 2443SOL    HW118965   4.646   3.591   9.406  0.0838 -0.6152  1.0686
 2443SOL    HW218966   4.724   3.532   9.298 -2.6334  2.0203 -0.2663
 2444SOL     OW18967   0.913   0.293   6.815  0.1529 -0.2395 -0.1641
 2444SOL    HW118968   0.822   0.289   6.842  0.5942 -0.7696  1.2738
 2444SOL    HW218969   0.941   0.383   6.835  0.6739 -0.4374  0.0200
 2445SOL     OW18970   3.968   1.827   7.929  0.4153 -0.0987 -0.2650
 2445SOL    HW118971   4.031   1.899   7.917  1.1955 -0.8875 -0.8619
 2445SOL    HW218972   3.927   1.845   8.014  3.1477  0.8183  0.8717
 2446SOL     OW18973   4.670   4.056   2.749 -0.3570  0.2299  0.2643
 2446SOL    HW118974   4.648   4.079   2.659 -0.8113  2.5486  0.9658
 2446SOL    HW218975   4.593   4.091   2.794 -1.1318 -0.4164 -0.5763
 2447SOL     OW18976   2.396   2.167  12.788  0.2963 -0.0774 -0.0540
 2447SOL    HW118977   2.330   2.139  12.851 -0.7606  2.4113 -0.0570
 2447SOL    HW218978   2.432   2.082  12.764  0.2976  0.4314 -1.8066
 2448SOL     OW18979   4.585   3.530   6.566 -0.7847 -0.0494  0.2139
 2448SOL    HW118980   4.649   3.509   6.498  0.4428  2.3050  0.6413
 2448SOL    HW218981   4.534   3.594   6.517 -1.0166 -0.0804  0.4139
 2449SOL     OW18982   2.550   2.221  16.656 -0.6398 -0.8655 -0.5101
 2449SOL    HW118983   2.632   2.267  16.635 -1.8226  0.7347 -1.5871
 2449SOL    HW218984   2.498   2.242  16.579 -0.2224  0.9368 -0.3117
 2450SOL     OW18985   1.788   0.538   0.955 -0.1437  1.1828  0.3762
 2450SOL    HW118986   1.724   0.469   0.970 -1.4072  1.4088 -3.9618
 2450SOL    HW218987   1.834   0.505   0.878 -0.8914 -0.6296  0.7110
 2451SOL     OW18988   3.638   0.225   2.446 -0.6028 -0.0544 -0.3705
 2451SOL    HW118989   3.571   0.292   2.456  0.2393  0.7271 -0.0013
 2451SOL    HW218990   3.635   0.208   2.352 -1.6679 -3.0504  0.1750
 2452SOL     OW18991   1.903   1.370   3.896  0.2064 -0.0139 -1.1579
 2452SOL    HW118992   1.917   1.279   3.869 -0.4503 -0.1587 -1.0014
 2452SOL    HW218993   1.989   1.413   3.895  0.9299 -1.4295 -1.0312
 2453SOL     OW18994   0.080   4.072   4.447 -0.2622 -0.0202  0.3043
 2453SOL    HW118995   0.050   3.982   4.439 -2.1048  0.7312 -1.2563
 2453SOL    HW218996   0.058   4.101   4.535  0.1857 -3.4209  1.5367
 2454SOL     OW18997   1.039   1.662   9.081 -0.0299  0.2855  0.1465
 2454SOL    HW118998   1.114   1.705   9.039 -0.1911  0.8239  0.4201
 2454SOL    HW218999   0.986   1.736   9.110 -2.4336 -1.4159  0.0211
 2455SOL     OW19000   4.544   1.071   5.782  0.1451 -0.5298 -0.4053
 2455SOL    HW119001   4.556   1.164   5.762 -0.2845  0.2200  2.8635
 2455SOL    HW219002   4.455   1.079   5.818 -0.8234 -1.2130 -2.6356
 2456SOL     OW19003   1.002   0.730   9.247 -0.3228 -0.0256 -0.4152
 2456SOL    HW119004   1.047   0.677   9.181 -0.0251 -0.5214  0.1949
 2456SOL    HW219005   1.010   0.673   9.322 -0.9501 -1.2645 -1.2886
 2457SOL     OW19006   4.231   3.235  11.438  0.2214 -0.3906  0.2974
 2457SOL    HW119007   4.177   3.226  11.359 -0.1382  0.6131  0.4349
 2457SOL    HW219008   4.172   3.221  11.512 -0.8365  2.4028 -0.0512
 2458SOL     OW19009   2.660   4.638   9.089 -0.6349  0.2805  0.0226
 2458SOL    HW119010   2.714   4.701   9.137  1.2352 -0.3365 -1.2697
 2458SOL    HW219011   2.709   4.557   9.101 -1.5988 -0.2865  0.0638
 2459SOL     OW19012   1.134   1.940   2.052 -0.0324 -0.3073  0.0969
 2459SOL    HW119013   1.105   1.938   1.961  0.7609  0.4848 -0.1831
 2459SOL    HW219014   1.186   2.021   2.053 -0.9333  0.2793 -0.4494
 2460SOL     OW19015   1.221   0.890   6.838  0.3893 -0.1965 -0.5705
 2460SOL    HW119016   1.158   0.946   6.791  0.5635  1.0562  0.6903
 2460SOL    HW219017   1.201   0.926   6.924 -0.3658  1.1000 -1.2750
 2461SOL     OW19018   2.024   2.034  12.864  0.5366  0.4167  0.4657
 2461SOL    HW119019   2.029   1.948  12.907  0.8306 -0.1309 -0.6827
 2461SOL    HW219020   2.093   2.086  12.906 -0.3383  0.9100  1.3214
 2462SOL     OW19021   2.839   1.769   3.218 -0.1895 -0.5379 -0.4246
 2462SOL    HW119022   2.815   1.826   3.145 -1.3473  0.0547  0.4197
 2462SOL    HW219023   2.777   1.695   3.212 -1.5827  0.4648  1.8998
 2463SOL     OW19024   3.893   2.811   3.898  0.2503 -0.3489 -0.0601
 2463SOL    HW119025   3.929   2.889   3.856 -0.4342 -0.0726 -0.1229
 2463SOL    HW219026   3.815   2.852   3.935  0.5650  0.2324 -0.0398
 2464SOL     OW19027   1.019   4.537   2.448 -0.0782 -0.0140 -0.9486
 2464SOL    HW119028   0.936   4.561   2.489 -0.8651 -0.9105 -2.0075
 2464SOL    HW219029   1.068   4.534   2.530 -4.0712 -1.9791  1.4321
 2465SOL     OW19030   3.341   2.349   2.388 -0.4477  0.1417 -0.5293
 2465SOL    HW119031   3.356   2.399   2.307  0.1933 -1.1886 -1.2372
 2465SOL    HW219032   3.345   2.419   2.453  0.9517 -1.5356  1.1727
 2466SOL     OW19033   3.944   0.437   8.976 -0.1298  0.6045 -0.8938
 2466SOL    HW119034   3.988   0.488   9.044 -0.2752 -0.8276  0.2709
 2466SOL    HW219035   3.928   0.353   9.019 -1.7706  0.6778 -1.3284
 2467SOL     OW19036   0.936   0.667   8.421 -0.3198  0.0573 -0.0851
 2467SOL    HW119037   0.861   0.612   8.398 -1.0754 -0.1019  2.7659
 2467SOL    HW219038   0.933   0.665   8.517  0.4776 -1.3593 -0.0932
 2468SOL     OW19039   0.365   1.149   3.573  0.5463 -0.3653  0.2373
 2468SOL    HW119040   0.380   1.062   3.537  1.4492 -0.0136 -0.2644
 2468SOL    HW219041   0.453   1.186   3.559  0.2495  0.6049  0.9373
 2469SOL     OW19042   3.554   1.541  10.147 -0.0725 -0.3569  0.7128
 2469SOL    HW119043   3.523   1.613  10.201 -0.2920  0.8240 -0.9724
 2469SOL    HW219044   3.611   1.494  10.208  0.9470  0.8141  0.6855
 2470SOL     OW19045   4.462   0.821   3.633 -0.5321 -0.2315 -0.0020
 2470SOL    HW119046   4.449   0.804   3.726 -1.7831 -0.5986 -0.2482
 2470SOL    HW219047   4.386   0.765   3.617 -0.9666  0.7107 -1.2447
 2471SOL     OW19048   2.015   4.206   4.741  0.2606  0.2545  0.4376
 2471SOL    HW119049   2.089   4.209   4.801 -0.1006 -0.1127  0.9041
 2471SOL    HW219050   1.953   4.217   4.813 -0.5214 -0.3504 -0.1338
 2472SOL     OW19051   2.547   2.817   7.256  0.2796  0.7999 -0.5804
 2472SOL    HW119052   2.513   2.840   7.342 -1.0471 -0.5656 -0.7247
 2472SOL    HW219053   2.536   2.899   7.208  1.2971  0.5179 -1.3117
 2473SOL     OW19054   3.823   4.442   2.836 -0.7809 -0.4341  0.2537
 2473SOL    HW119055   3.774   4.445   2.918 -1.6166 -1.0608 -0.2259
 2473SOL    HW219056   3.820   4.350   2.810  0.5746 -0.3553 -0.1577
 2474SOL     OW19057   4.350   1.038  10.126  0.1598  0.0614  0.8599
 2474SOL    HW119058   4.310   1.104  10.070  0.2094 -0.3379  0.3555
 2474SOL    HW219059   4.437   1.075  10.134 -0.9208  2.9217 -0.7617
 2475SOL     OW19060   3.121   2.395  15.011  0.2321  0.3642  0.8466
 2475SOL    HW119061   3.151   2.350  15.091  3.0980  0.2935 -0.2781
 2475SOL    HW219062   3.164   2.480  15.018 -0.3726  0.7118  0.2056
 2476SOL     OW19063   3.980   0.149   4.163  0.0843  0.3600  0.0256
 2476SOL    HW119064   4.069   0.114   4.162 -0.1487 -0.2575  2.1504
 2476SOL    HW219065   4.007   0.239   4.184  0.7795 -0.1526  1.3160
 2477SOL     OW19066   3.125   0.167  10.106  0.3665  0.0841  0.0068
 2477SOL    HW119067   3.219   0.179  10.121  0.1283 -0.3911  1.8002
 2477SOL    HW219068   3.090   0.207  10.186  0.0222  0.2823 -0.2415
 2478SOL     OW19069   1.827   1.126   6.137  0.4720  0.1916  0.5433
 2478SOL    HW119070   1.888   1.123   6.211  0.2764 -1.4552  0.6399
 2478SOL    HW219071   1.847   1.208   6.091  0.2639  0.7018  1.3532
 2479SOL     OW19072   0.688   4.251   3.283  0.1391  0.0864  0.1515
 2479SOL    HW119073   0.722   4.170   3.320  0.4993  1.2815  2.4330
 2479SOL    HW219074   0.626   4.271   3.353 -1.7242 -0.3155 -1.3980
 2480SOL     OW19075   1.331   2.495  14.126  0.5367  0.5997  0.0446
 2480SOL    HW119076   1.244   2.524  14.096 -0.2524  0.7903  2.5519
 2480SOL    HW219077   1.304   2.432  14.192  1.8665 -0.8546 -0.7850
 2481SOL     OW19078   4.678   2.274   1.704  0.1164 -0.4256 -0.2571
 2481SOL    HW119079   4.659   2.286   1.611  0.4814  0.0475 -0.2720
 2481SOL    HW219080   0.032   2.308   1.712 -0.6856  1.1201  2.0259
 2482SOL     OW19081   2.551   4.531   4.497 -0.3372 -0.1507  0.3839
 2482SOL    HW119082   2.635   4.515   4.454 -0.5640 -1.8778  0.5772
 2482SOL    HW219083   2.581   4.536   4.587  0.4683  3.6236 -0.0854
 2483SOL     OW19084   1.573   4.206   4.967 -0.4344  0.3738 -0.4745
 2483SOL    HW119085   1.522   4.287   4.973 -1.0537 -0.0110 -0.5574
 2483SOL    HW219086   1.576   4.199   4.872  0.4579 -0.8092 -0.3565
 2484SOL     OW19087   0.830   0.927   5.654 -0.5308 -0.2097  0.0920
 2484SOL    HW119088   0.858   0.999   5.710  3.1035 -1.5168 -0.0077
 2484SOL    HW219089   0.884   0.853   5.683 -2.0586 -1.0876  0.6580
 2485SOL     OW19090   2.914   1.251   8.589  0.2791  0.3346  0.1591
 2485SOL    HW119091   2.932   1.198   8.666  1.5456  0.1654 -0.2521
 2485SOL    HW219092   2.864   1.320   8.633 -0.0881 -0.0015  0.2656
 2486SOL     OW19093   0.139   3.995   5.931  0.1511  0.0080  0.0174
 2486SOL    HW119094   0.173   3.976   6.019 -1.2785 -1.2317  0.3013
 2486SOL    HW219095   0.089   4.075   5.947  0.1819  0.4779 -2.2037
 2487SOL     OW19096   3.157   0.955   0.242  0.1178  0.1762 -0.5100
 2487SOL    HW119097   3.235   0.970   0.188  0.7103  0.3768  0.4129
 2487SOL    HW219098   3.105   0.905   0.179 -1.9355  0.8963  0.6408
 2488SOL     OW19099   3.944   0.458   5.669 -0.3201  0.0305 -0.0759
 2488SOL    HW119100   4.006   0.531   5.669 -0.8756  0.5056  0.7548
 2488SOL    HW219101   3.944   0.450   5.764 -4.0707  1.1189  0.0298
 2489SOL     OW19102   4.469   3.952   4.965 -0.0299  0.0026 -0.4888
 2489SOL    HW119103   4.508   4.031   4.927  0.1333  0.7135  1.1650
 2489SOL    HW219104   4.445   3.915   4.880 -1.1124  0.7926 -0.5282
 2490SOL     OW19105   3.827   3.195   4.620  0.4938 -0.7868 -0.0267
 2490SOL    HW119106   3.882   3.134   4.670  1.2791 -0.0526  0.0157
 2490SOL    HW219107   3.887   3.213   4.548  0.0659 -1.5893 -0.5748
 2491SOL     OW19108   1.903   3.976   6.082 -0.5779 -0.2644  0.3412
 2491SOL    HW119109   1.827   4.021   6.118  0.0458  1.1817 -0.1632
 2491SOL    HW219110   1.871   3.968   5.992 -1.5134 -0.4259  0.6893
 2492SOL     OW19111   1.782   1.936   7.516  0.0071 -0.3892  0.0501
 2492SOL    HW119112   1.753   2.026   7.525 -1.2736 -1.0005  2.2260
 2492SOL    HW219113   1.747   1.902   7.599 -3.2366  0.8672 -0.8410
 2493SOL     OW19114   3.869   2.323  12.355  0.8564  0.0434  0.0055
 2493SOL    HW119115   3.918   2.299  12.277  0.4919 -1.6078  0.2872
 2493SOL    HW219116   3.783   2.296  12.322  0.4980  0.7921  0.3045
 2494SOL     OW19117   2.959   1.235  15.903 -0.1151 -0.8892 -0.3525
 2494SOL    HW119118   3.004   1.253  15.985  0.8901 -0.7177 -0.9369
 2494SOL    HW219119   2.872   1.269  15.921 -0.4671  0.0034 -3.5675
 2495SOL     OW19120   4.720   4.485  12.640 -0.6257 -0.0469 -0.2025
 2495SOL    HW119121   4.649   4.458  12.699 -1.6369  0.4988 -1.1746
 2495SOL    HW219122   0.042   4.408  12.643  0.0873  0.5555  1.9032
 2496SOL     OW19123   4.431   2.917   5.866  0.0578  0.0051 -0.2404
 2496SOL    HW119124   4.396   2.942   5.781  1.9423 -0.8853 -1.2677
 2496SOL    HW219125   4.498   2.854   5.843  0.6375 -0.5062  2.8026
 2497SOL     OW19126   4.602   3.989   6.483 -0.3364 -0.4002 -0.3662
 2497SOL    HW119127   4.656   4.066   6.467  1.7057 -0.8325  4.3010
 2497SOL    HW219128   4.522   4.031   6.516  0.4025 -1.2962  2.6071
 2498SOL     OW19129   1.367   3.482  14.361 -0.0008 -0.7096 -0.0147
 2498SOL    HW119130   1.450   3.450  14.398  0.2395  1.0452  0.9825
 2498SOL    HW219131   1.409   3.526  14.287 -1.6326  0.5773 -0.1486
 2499SOL     OW19132   2.090   1.860   0.067 -0.2713 -0.8103 -0.1200
 2499SOL    HW119133   2.015   1.876   0.010  0.3138 -1.3741 -1.0455
 2499SOL    HW219134   2.150   1.823   0.003 -1.6986 -1.2437 -1.1926
 2500SOL     OW19135   0.319   1.960   9.631 -0.0038 -0.4607 -0.6821
 2500SOL    HW119136   0.264   1.995   9.701  1.4918 -0.9583  0.7327
 2500SOL    HW219137   0.394   1.933   9.684 -0.6140 -3.3958 -1.3063
 2501SOL     OW19138   3.515   1.078   3.373 -0.6608  0.8594  0.5106
 2501SOL    HW119139   3.494   1.171   3.363 -2.7008  0.2623 -0.7034
 2501SOL    HW219140   3.582   1.065   3.307 -0.6198  1.3956  0.4423
 2502SOL     OW19141   3.055   3.183  12.937  0.0305 -0.1993  0.7250
 2502SOL    HW119142   3.001   3.111  12.970  1.5164 -1.6548 -0.0698
 2502SOL    HW219143   3.133   3.189  12.992  0.5233  1.7220 -0.1662
 2503SOL     OW19144   4.135   0.623   4.594  0.0745 -0.2209  0.1424
 2503SOL    HW119145   4.174   0.646   4.678  1.7541 -0.0620 -0.6800
 2503SOL    HW219146   4.124   0.713   4.562 -0.4864 -0.3070  0.0952
 2504SOL     OW19147   0.691   1.710   8.415 -0.4966 -0.5514  0.0705
 2504SOL    HW119148   0.755   1.780   8.426  0.3787 -1.3660  0.1510
 2504SOL    HW219149   0.713   1.661   8.494 -2.6993 -0.8557  0.4836
 2505SOL     OW19150   2.893   2.087   2.737  0.2479 -0.1811  0.4640
 2505SOL    HW119151   2.967   2.130   2.780 -0.7535  0.5203  1.4987
 2505SOL    HW219152   2.892   2.001   2.780 -1.4083 -1.1473 -1.5398
 2506SOL     OW19153   3.436   0.497   8.385  0.1333  0.0784  0.0223
 2506SOL    HW119154   3.382   0.550   8.443  0.2570 -0.6768  0.8223
 2506SOL    HW219155   3.391   0.515   8.303  2.5323  0.4313 -1.2183
 2507SOL     OW19156   3.399   3.881   2.480 -0.4178 -0.3238 -0.0096
 2507SOL    HW119157   3.485   3.850   2.452  0.0708  1.0997 -0.1246
 2507SOL    HW219158   3.362   3.793   2.478 -0.2153 -0.3170 -3.7229
 2508SOL     OW19159   1.159   3.310  14.179  0.2796  0.4393 -0.4905
 2508SOL    HW119160   1.089   3.326  14.242 -0.3765  3.6798 -2.0819
 2508SOL    HW219161   1.233   3.306  14.241 -1.5837 -0.0751  1.7120
 2509SOL     OW19162   2.613   4.310   9.311  0.9634  0.2653  0.4024
 2509SOL    HW119163   2.595   4.241   9.375  2.9618 -1.0377 -0.4469
 2509SOL    HW219164   2.545   4.367   9.348 -0.2273 -0.4455 -0.6849
 2510SOL     OW19165   0.718   1.833   0.837  0.3432 -0.3640 -0.0621
 2510SOL    HW119166   0.810   1.820   0.861  0.7149 -1.5710 -2.1686
 2510SOL    HW219167   0.702   1.927   0.833 -0.2642 -0.5583 -2.2554
 2511SOL     OW19168   1.355   1.717   2.352  0.4139  0.8349  0.3039
 2511SOL    HW119169   1.294   1.652   2.316 -0.8691  3.3537 -2.1012
 2511SOL    HW219170   1.289   1.772   2.395  1.4122  1.9042  0.4699
 2512SOL     OW19171   4.219   3.291  10.177  0.0709  0.4407 -0.2651
 2512SOL    HW119172   4.165   3.327  10.246 -0.5219  1.4724 -1.2643
 2512SOL    HW219173   4.301   3.273  10.223  0.1080  0.9335 -0.1345
 2513SOL     OW19174   3.000   4.641   9.191  0.4561 -0.0116  0.6667
 2513SOL    HW119175   2.974   4.590   9.268  1.3248 -1.9826 -0.3334
 2513SOL    HW219176   2.937   4.713   9.191 -0.8106 -1.1160  2.0626
 2514SOL     OW19177   3.678   3.812   6.498  0.7350 -0.4338  0.2014
 2514SOL    HW119178   3.732   3.811   6.420  0.3372 -0.6136 -0.0711
 2514SOL    HW219179   3.649   3.903   6.505 -0.9492 -0.9880  0.4677
 2515SOL     OW19180   0.290   2.714   6.195  0.4425 -0.1413  0.2260
 2515SOL    HW119181   0.348   2.788   6.178 -0.0598  0.3599  0.6839
 2515SOL    HW219182   0.354   2.648   6.219 -0.2506 -0.4761  1.1776
 2516SOL     OW19183   2.762   4.153   8.438  0.3887 -0.2790  0.7687
 2516SOL    HW119184   2.736   4.211   8.366 -1.4921 -1.6891  0.3233
 2516SOL    HW219185   2.789   4.077   8.386  0.1730 -0.0670  0.3472
 2517SOL     OW19186   4.551   4.570   2.649  0.3667 -0.5051  0.2456
 2517SOL    HW119187   4.470   4.537   2.688 -0.4106 -2.2680 -2.8583
 2517SOL    HW219188   4.536   4.564   2.555  0.0266 -1.0253  0.3311
 2518SOL     OW19189   0.232   2.783   2.541  0.0326 -0.0428 -0.4568
 2518SOL    HW119190   0.140   2.808   2.541 -0.7003 -2.7345 -0.9927
 2518SOL    HW219191   0.232   2.689   2.527 -2.4791 -0.1626  0.3955
 2519SOL     OW19192   4.630   1.610  15.946 -0.3550  0.8048 -0.4443
 2519SOL    HW119193   4.562   1.677  15.951 -0.5586  0.3309  3.0525
 2519SOL    HW219194   4.627   1.596  16.041  2.0870  2.2829 -0.1648
 2520SOL     OW19195   2.717   2.487   9.356 -0.5520 -0.1920 -0.1106
 2520SOL    HW119196   2.637   2.445   9.386 -0.3903 -2.4654 -2.8517
 2520SOL    HW219197   2.750   2.485   9.446 -2.0407  2.7557  0.4993
 2521SOL     OW19198   2.239   2.237   6.766 -0.1393 -0.1275  0.0285
 2521SOL    HW119199   2.187   2.316   6.750 -0.5717 -0.0675  1.7929
 2521SOL    HW219200   2.324   2.276   6.789 -0.7799  1.0837  0.3232
 2522SOL     OW19201   1.304   1.162   5.325  0.1659  0.3605  0.3205
 2522SOL    HW119202   1.233   1.219   5.353 -0.9057 -0.3657 -0.9129
 2522SOL    HW219203   1.383   1.192   5.370 -0.2914  0.6338  0.9428
 2523SOL     OW19204   0.376   4.488   3.830  0.1722 -0.0708  0.1897
 2523SOL    HW119205   0.292   4.520   3.798  1.9019  3.0681 -1.2713
 2523SOL    HW219206   0.406   4.552   3.895  1.9598 -0.3496 -0.3658
 2524SOL     OW19207   1.557   1.194   5.929 -0.7242  0.3227 -0.6617
 2524SOL    HW119208   1.533   1.265   5.869 -2.2114 -0.3963 -0.9110
 2524SOL    HW219209   1.644   1.171   5.896 -1.1792  2.4317 -3.4178
 2525SOL     OW19210   3.569   0.799   8.064 -0.3397 -0.2530  0.4986
 2525SOL    HW119211   3.603   0.743   8.133 -2.1024 -1.3374  0.4785
 2525SOL    HW219212   3.482   0.760   8.056 -0.4034  0.4203 -2.2778
 2526SOL     OW19213   3.920   2.102   9.085  0.0646 -0.2673 -0.0611
 2526SOL    HW119214   3.999   2.049   9.095 -0.4241 -1.2808 -1.5219
 2526SOL    HW219215   3.879   2.072   9.166 -0.6601  0.4975 -0.1408
 2527SOL     OW19216   2.986   2.995   7.296  0.3702 -0.3838  0.5107
 2527SOL    HW119217   3.006   3.051   7.221  1.2613 -0.1670  0.9125
 2527SOL    HW219218   3.050   3.020   7.363  0.5187 -2.6427  1.2004
 2528SOL     OW19219   1.521   2.279   2.572 -0.3344  0.1603  0.2011
 2528SOL    HW119220   1.495   2.248   2.659 -1.4161  1.1342  0.2284
 2528SOL    HW219221   1.615   2.281   2.588  0.1089 -2.0309 -2.0963
 2529SOL     OW19222   0.884   0.481   4.860 -0.4324 -0.5506 -0.7924
 2529SOL    HW119223   0.793   0.510   4.866 -0.1320  0.2998 -0.3413
 2529SOL    HW219224   0.928   0.566   4.858 -1.4689 -0.0002 -0.1822
 2530SOL     OW19225   4.206   1.545  13.129  0.3550  0.2569 -0.1828
 2530SOL    HW119226   4.166   1.629  13.107 -2.2915 -0.4957  1.7545
 2530SOL    HW219227   4.128   1.495  13.149 -0.0744  1.5035  1.3302
 2531SOL     OW19228   3.188   3.557   3.389 -0.0407  0.1397  0.1743
 2531SOL    HW119229   3.146   3.633   3.347  2.8494  3.1560  2.7465
 2531SOL    HW219230   3.272   3.597   3.414  0.3162 -0.2463 -0.4300
 2532SOL     OW19231   2.030   0.446  15.484  0.1795 -0.4738 -0.1840
 2532SOL    HW119232   1.982   0.422  15.563  1.9677  0.3216  1.1514
 2532SOL    HW219233   2.003   0.376  15.424  0.3917 -2.0496  1.5217
 2533SOL     OW19234   3.886   0.482   8.068  0.1467  0.3035 -0.5976
 2533SOL    HW119235   3.907   0.548   8.002 -0.0447 -0.2620 -1.2189
 2533SOL    HW219236   3.915   0.399   8.030  0.1330  0.5767 -1.2144
 2534SOL     OW19237   0.041   1.424   9.278 -0.3809 -0.3147 -0.0792
 2534SOL    HW119238   0.015   1.424   9.370 -2.1441  0.0154 -0.5755
 2534SOL    HW219239   0.047   1.329   9.263  0.7726 -0.0046 -1.6292
 2535SOL     OW19240   1.034   0.002   2.854 -0.1316  0.1047  0.3305
 2535SOL    HW119241   1.083   0.052   2.919  2.2019  1.2404 -2.3200
 2535SOL    HW219242   0.967   4.694   2.907  0.1256  0.5563  1.0190
 2536SOL     OW19243   4.556   1.533   9.875  0.3105  0.0108  0.0270
 2536SOL    HW119244   4.638   1.508   9.916 -0.0626 -2.0107 -0.4622
 2536SOL    HW219245   4.517   1.446   9.875 -2.4349  1.2168 -0.2346
 2537SOL     OW19246   0.019   0.414   2.244  0.2982 -0.7526  0.3393
 2537SOL    HW119247   4.699   0.343   2.277 -0.8453  0.1630  0.4428
 2537SOL    HW219248   0.011   0.478   2.315 -0.0774  0.6036 -0.9303
 2538SOL     OW19249   0.747   2.975  16.261 -0.0600  0.4709 -0.5684
 2538SOL    HW119250   0.822   2.916  16.255 -0.5954 -0.2530 -0.1469
 2538SOL    HW219251   0.770   3.026  16.183  1.1684 -0.1730 -0.6363
 2539SOL     OW19252   3.423   3.404  14.627 -0.3116 -0.2755  0.0740
 2539SOL    HW119253   3.480   3.357  14.688 -1.7503 -0.0911  1.5553
 2539SOL    HW219254   3.361   3.420  14.698  0.9653  0.1303  1.1030
 2540SOL     OW19255   4.446   2.023   5.339 -0.1923  0.3736  0.3881
 2540SOL    HW119256   4.361   2.062   5.319 -2.0588 -1.6119  4.4988
 2540SOL    HW219257   4.440   2.001   5.432 -2.4464 -1.3544 -0.2009
 2541SOL     OW19258   3.153   3.171  13.621 -0.0463 -0.1944  0.2426
 2541SOL    HW119259   3.245   3.194  13.617  0.2703 -1.0435  2.8221
 2541SOL    HW219260   3.121   3.249  13.667 -0.0313 -0.4080  0.6126
 2542SOL     OW19261   2.497   1.533  14.206 -0.1545  0.2916 -0.2329
 2542SOL    HW119262   2.550   1.612  14.193 -1.4306  1.2610  0.4869
 2542SOL    HW219263   2.421   1.536  14.148  0.1809 -0.4132 -0.6991
 2543SOL     OW19264   4.191   0.758   9.350 -0.7403  0.0235  0.4930
 2543SOL    HW119265   4.231   0.830   9.399 -1.7806 -0.0647  1.4589
 2543SOL    HW219266   4.247   0.690   9.388 -3.7904 -2.8001 -0.0664
 2544SOL     OW19267   3.066   0.108  14.349 -0.9122 -0.8991  0.0635
 2544SOL    HW119268   2.982   0.151  14.366 -0.8708 -0.3383 -1.1438
 2544SOL    HW219269   3.115   0.114  14.432 -2.0732  0.4369  0.6516
 2545SOL     OW19270   3.023   4.336   3.665  0.0721 -0.4214 -0.2404
 2545SOL    HW119271   2.944   4.291   3.696 -0.9646  0.3095 -1.8454
 2545SOL    HW219272   2.992   4.393   3.594  0.5063 -1.4176 -1.2348
 2546SOL     OW19273   1.855   1.271   6.425  0.0475 -0.4244  0.3774
 2546SOL    HW119274   1.815   1.280   6.512 -1.3147 -0.1818 -0.2767
 2546SOL    HW219275   1.805   1.312   6.355 -2.3883  0.0813  2.3821
 2547SOL     OW19276   0.546   3.312   5.882  0.3012  0.0857 -0.3764
 2547SOL    HW119277   0.552   3.279   5.793 -1.2297 -1.0895 -0.0423
 2547SOL    HW219278   0.573   3.404   5.881 -0.8908  0.4334 -0.3675
 2548SOL     OW19279   3.493   0.475   5.073 -0.2869 -0.6521  0.5291
 2548SOL    HW119280   3.495   0.435   4.987  2.2483 -0.0444  0.2992
 2548SOL    HW219281   3.411   0.524   5.067 -0.4401 -1.0098 -0.2160
 2549SOL     OW19282   3.638   1.672   3.336  0.1033  0.0159 -0.0311
 2549SOL    HW119283   3.559   1.637   3.294  0.0904 -1.1565  0.9825
 2549SOL    HW219284   3.603   1.746   3.384 -1.6412 -1.7120  1.3384
 2550SOL     OW19285   1.163   3.583   7.250  0.7041  0.1769 -0.2524
 2550SOL    HW119286   1.173   3.673   7.219  0.2660  1.1555  2.4072
 2550SOL    HW219287   1.149   3.591   7.345  0.6234 -2.2701 -0.0564
 2551SOL     OW19288   0.134   4.341  11.973  0.0607 -0.2262  0.2520
 2551SOL    HW119289   0.168   4.424  11.938 -0.9245 -0.2072 -0.6391
 2551SOL    HW219290   0.174   4.356  12.059 -2.3773  0.0335  1.3374
 2552SOL     OW19291   0.165   3.603   1.370 -0.1209 -0.1585  0.4776
 2552SOL    HW119292   0.100   3.553   1.321  0.3118 -1.6759  1.4503
 2552SOL    HW219293   0.132   3.685   1.332  0.1220 -0.5194 -0.5079
 2553SOL     OW19294   0.136   3.171   4.843  0.3111  0.2303  0.4214
 2553SOL    HW119295   0.129   3.161   4.938  2.4984 -1.1694  0.4351
 2553SOL    HW219296   0.045   3.185   4.818  0.3353 -0.6638 -0.1704
 2554SOL     OW19297   3.792   3.741   4.328  0.5828  0.7156 -0.1199
 2554SOL    HW119298   3.881   3.762   4.299  1.1474 -0.2075  0.9404
 2554SOL    HW219299   3.773   3.671   4.265 -0.4109 -0.2940  1.2872
 2555SOL     OW19300   2.967   1.323   6.750 -0.4429 -0.4021 -0.1363
 2555SOL    HW119301   2.891   1.309   6.807 -0.6511  1.7907  0.1125
 2555SOL    HW219302   2.928   1.350   6.667  0.6499  2.7151  0.3643
 2556SOL     OW19303   4.279   4.115   2.202  0.2311  0.3953 -0.2491
 2556SOL    HW119304   4.362   4.149   2.167  0.9394 -1.2857 -0.1821
 2556SOL    HW219305   4.230   4.197   2.204 -0.2392  0.1069  0.0086
 2557SOL     OW19306   4.483   2.351  15.387 -0.1781  0.1619  0.2662
 2557SOL    HW119307   4.550   2.342  15.319 -0.0393 -2.0069  0.6925
 2557SOL    HW219308   4.537   2.380  15.461  0.3341 -0.4019  0.1121
 2558SOL     OW19309   4.389   4.587   6.889  0.5137  0.2562  0.4552
 2558SOL    HW119310   4.443   4.621   6.960  0.2846  0.5685  0.4779
 2558SOL    HW219311   4.444   4.513   6.862  1.0308  0.4156  1.0826
 2559SOL     OW19312   3.704   3.019  12.520 -0.3737 -0.1352 -0.4736
 2559SOL    HW119313   3.761   3.045  12.593 -2.4679  3.3091 -0.0456
 2559SOL    HW219314   3.695   2.924  12.530 -1.3938 -0.0940 -1.0065
 2560SOL     OW19315   0.932   2.175   7.750  0.1541  0.5193  0.0413
 2560SOL    HW119316   0.921   2.082   7.732  1.6795  0.1949  0.8085
 2560SOL    HW219317   1.026   2.178   7.764  0.4217 -0.3522 -1.5748
 2561SOL     OW19318   1.755   3.155   7.757 -0.4861 -0.5180 -0.4464
 2561SOL    HW119319   1.696   3.223   7.725  1.1633  0.8606 -0.5377
 2561SOL    HW219320   1.758   3.084   7.693  0.2292 -0.6909 -0.2266
 2562SOL     OW19321   3.347   0.502  13.520  0.0878 -0.5029 -0.4248
 2562SOL    HW119322   3.349   0.562  13.594 -2.0914  1.4131 -1.9338
 2562SOL    HW219323   3.408   0.541  13.457  1.4801  2.7841  2.9428
 2563SOL     OW19324   2.611   0.215  12.637 -0.2825  0.4145 -0.7512
 2563SOL    HW119325   2.529   0.174  12.667  0.3725 -1.1230 -1.0429
 2563SOL    HW219326   2.636   0.157  12.565  1.7295 -2.7934  2.4724
 2564SOL     OW19327   4.158   3.443   2.245  0.0529  0.5381 -0.4018
 2564SOL    HW119328   4.063   3.429   2.239  0.0019  1.0466 -0.7813
 2564SOL    HW219329   4.160   3.502   2.169 -1.4265 -0.0041 -0.8719
 2565SOL     OW19330   1.764   2.830   3.426 -0.1376  0.0708 -0.3710
 2565SOL    HW119331   1.736   2.909   3.380 -1.3357 -0.8697 -1.2896
 2565SOL    HW219332   1.836   2.864   3.478 -1.3086  1.5070  0.3266
 2566SOL     OW19333   3.806   2.012  15.178 -0.2797 -0.6748 -0.1670
 2566SOL    HW119334   3.898   1.990  15.171  0.1444  0.7670  0.8585
 2566SOL    HW219335   3.777   1.962  15.102  0.5823 -0.6210 -0.5266
 2567SOL     OW19336   2.778   0.274   3.565 -0.1996  0.0536 -0.0367
 2567SOL    HW119337   2.693   0.315   3.552  0.0420 -0.0331 -1.8076
 2567SOL    HW219338   2.842   0.315   3.508 -1.3490  3.0486  0.8182
 2568SOL     OW19339   3.298   0.315  11.057  0.0769 -0.3482  0.4268
 2568SOL    HW119340   3.213   0.285  11.026  0.8777  0.5451 -2.5706
 2568SOL    HW219341   3.292   0.298  11.151  2.3579 -0.6515  0.5347
 2569SOL     OW19342   3.379   1.794   4.622 -0.4406  0.1208 -0.0805
 2569SOL    HW119343   3.357   1.761   4.535 -1.8512 -0.1949  0.4025
 2569SOL    HW219344   3.299   1.765   4.666 -0.3336 -1.4373 -0.9012
 2570SOL     OW19345   4.376   3.580   4.832 -0.0114 -0.2594  0.2323
 2570SOL    HW119346   4.329   3.594   4.915 -2.2639  0.5718 -1.1634
 2570SOL    HW219347   4.463   3.557   4.863 -0.4363  0.6071  2.1371
 2571SOL     OW19348   3.330   1.488   5.960 -0.0266 -0.3385  0.2986
 2571SOL    HW119349   3.372   1.495   5.874 -0.5597  1.1489  0.1737
 2571SOL    HW219350   3.398   1.528   6.013  0.8905  0.9369 -1.8440
 2572SOL     OW19351   0.656   1.003   4.575 -0.2380  0.1444 -0.4793
 2572SOL    HW119352   0.699   1.041   4.498 -0.3028  1.4032  0.1240
 2572SOL    HW219353   0.705   1.046   4.644 -0.0824 -1.5039  0.4447
 2573SOL     OW19354   0.114   2.050   2.297 -0.2898  0.2435  0.1613
 2573SOL    HW119355   0.065   2.112   2.350 -1.0761  0.4276 -0.7829
 2573SOL    HW219356   0.059   2.038   2.219  0.2555 -1.8193  0.0972
 2574SOL     OW19357   4.546   2.080   8.313  0.0143 -0.3526 -0.6149
 2574SOL    HW119358   4.459   2.118   8.309  0.2790  0.5936  2.2797
 2574SOL    HW219359   4.594   2.128   8.380  0.3768 -0.4532 -0.8019
 2575SOL     OW19360   1.549   0.959   8.351 -0.0678 -0.2223 -0.0981
 2575SOL    HW119361   1.636   0.983   8.319  0.3250 -2.1051 -0.4746
 2575SOL    HW219362   1.491   0.980   8.278 -0.6729 -1.4706  0.0113
 2576SOL     OW19363   1.739   4.054  13.151 -0.5943  0.0789 -0.5409
 2576SOL    HW119364   1.801   4.026  13.218 -1.2275 -2.6746 -1.0925
 2576SOL    HW219365   1.663   4.034  13.205 -1.9610 -0.9789 -2.8503
 2577SOL     OW19366   0.988   0.683  11.685  0.2512  0.2161 -0.7683
 2577SOL    HW119367   0.975   0.671  11.779  0.4303 -1.0370 -0.8918
 2577SOL    HW219368   1.004   0.777  11.685  1.5772 -0.0071 -0.3351
 2578SOL     OW19369   4.377   3.844   5.183 -0.0061 -0.4849  0.1558
 2578SOL    HW119370   4.406   3.878   5.098  0.4928 -1.5292 -0.0868
 2578SOL    HW219371   4.456   3.860   5.235  1.1032  1.2812 -2.0787
 2579SOL     OW19372   4.542   3.402   5.426  0.0303 -0.0055 -0.2313
 2579SOL    HW119373   4.503   3.434   5.345  1.3054  0.7315 -0.5672
 2579SOL    HW219374   4.472   3.433   5.483  0.7542  2.0359 -0.4224
 2580SOL     OW19375   0.564   0.210   6.703 -0.0756 -0.3684 -0.1546
 2580SOL    HW119376   0.548   0.304   6.706  0.1240 -0.3126 -0.7960
 2580SOL    HW219377   0.657   0.199   6.683  0.0305  0.8200 -0.3165
 2581SOL     OW19378   3.324   0.250   8.249 -0.3407 -0.1312  0.0590
 2581SOL    HW119379   3.254   0.239   8.313 -0.0973  0.1023  0.3703
 2581SOL    HW219380   3.397   0.242   8.311  0.8052 -0.3608 -1.3144
 2582SOL     OW19381   2.780   4.229   4.030 -0.1320  0.3733  0.2025
 2582SOL    HW119382   2.770   4.158   4.093  0.0195  0.0993 -0.0775
 2582SOL    HW219383   2.690   4.250   4.007 -0.8235 -3.0639 -0.1882
 2583SOL     OW19384   4.562   2.617  14.532  0.3923  0.4885 -0.4342
 2583SOL    HW119385   4.567   2.571  14.448  2.8173  0.8986 -0.5042
 2583SOL    HW219386   4.468   2.620  14.549  0.6467  1.1665  0.8437
 2584SOL     OW19387   0.945   4.421   8.230  0.2176 -0.3252  0.2586
 2584SOL    HW119388   0.923   4.512   8.209  1.0611  0.1936  1.6482
 2584SOL    HW219389   0.856   4.388   8.217  1.0186 -1.9172 -1.1069
 2585SOL     OW19390   4.229   0.436   8.478  0.1396  0.4147  0.0877
 2585SOL    HW119391   4.149   0.460   8.431 -0.6055  0.3511  1.3408
 2585SOL    HW219392   4.280   0.399   8.406  0.8603  1.3010  0.1506
 2586SOL     OW19393   2.286   1.086   2.759 -0.4226 -0.7720 -0.3544
 2586SOL    HW119394   2.295   1.079   2.664  1.1129  0.4552 -0.2986
 2586SOL    HW219395   2.354   1.152   2.770 -0.8821 -0.4021  0.3075
 2587SOL     OW19396   0.326   2.250   6.622 -0.3921 -0.2072 -0.1849
 2587SOL    HW119397   0.325   2.176   6.683  0.1619  3.1185  3.8972
 2587SOL    HW219398   0.239   2.233   6.586 -0.8811  1.0431  0.3720
 2588SOL     OW19399   1.812   2.891   6.201  0.2384 -0.0819 -0.5284
 2588SOL    HW119400   1.729   2.911   6.157  0.1349 -0.5954 -0.5671
 2588SOL    HW219401   1.803   2.936   6.284  1.1218  0.6431 -0.8328
 2589SOL     OW19402   3.757   0.813   1.060 -0.1137  0.1293  0.4753
 2589SOL    HW119403   3.675   0.764   1.068  0.7812 -1.5291 -0.4511
 2589SOL    HW219404   3.748   0.872   0.986  3.3211 -0.5666 -0.4879
 2590SOL     OW19405   1.364   4.394   2.963 -0.3909 -0.5341 -0.0229
 2590SOL    HW119406   1.279   4.435   2.946 -0.2328  0.1258  0.8022
 2590SOL    HW219407   1.416   4.474   2.965  1.2631 -1.6514  2.1816
 2591SOL     OW19408   0.529   3.828   7.517 -0.4054  0.0888  0.4898
 2591SOL    HW119409   0.624   3.827   7.523 -0.4773  0.5401  1.9022
 2591SOL    HW219410   0.504   3.918   7.494 -0.9826 -0.4366 -0.9023
 2592SOL     OW19411   1.306   0.874   3.839  0.1324  0.2554  0.1891
 2592SOL    HW119412   1.383   0.873   3.781  0.4832  1.8772  0.6036
 2592SOL    HW219413   1.269   0.960   3.818  0.4658  0.3208 -0.1504
 2593SOL     OW19414   2.424   2.944   3.983 -0.0465 -0.0109 -0.2550
 2593SOL    HW119415   2.377   2.985   4.055  0.8115  1.0089 -0.2661
 2593SOL    HW219416   2.421   3.014   3.917 -1.4520  1.2987  1.1961
 2594SOL     OW19417   1.405   3.247   4.634 -0.7475 -0.0036  0.2659
 2594SOL    HW119418   1.461   3.261   4.557 -0.3804 -1.0845  0.3385
 2594SOL    HW219419   1.428   3.326   4.683  0.5357  0.5170 -1.1467
 2595SOL     OW19420   4.086   4.062  12.151  0.1938 -0.0436 -0.3796
 2595SOL    HW119421   4.130   4.145  12.131  2.0710 -0.8109  0.5285
 2595SOL    HW219422   4.014   4.104  12.199 -0.5334  0.4855 -1.9351
 2596SOL     OW19423   0.565   1.463   6.356  0.0610 -0.2935  0.2875
 2596SOL    HW119424   0.624   1.462   6.432 -1.4785  0.6267  1.4891
 2596SOL    HW219425   0.622   1.472   6.280 -2.7741  1.0852 -1.6693
 2597SOL     OW19426   3.258   1.780   9.522 -0.0843 -0.2439 -0.0359
 2597SOL    HW119427   3.332   1.783   9.461  2.1382  0.0692  2.6773
 2597SOL    HW219428   3.301   1.757   9.604  0.1189 -0.1023 -0.1042
 2598SOL     OW19429   2.006   3.852   4.347  0.4547  1.0958 -0.5468
 2598SOL    HW119430   1.912   3.872   4.346 -0.1047 -1.4107  1.2917
 2598SOL    HW219431   2.047   3.901   4.419  0.6912  0.5965 -0.3390
 2599SOL     OW19432   2.397   1.294  13.630  0.3245 -0.4936  0.0020
 2599SOL    HW119433   2.460   1.363  13.651  0.7723 -1.3226  1.4017
 2599SOL    HW219434   2.316   1.326  13.671 -0.5029 -1.6421 -0.7525
 2600SOL     OW19435   1.679   0.454  17.710 -0.1667  0.3712  0.4686
 2600SOL    HW119436   1.701   0.417   0.057  2.1275  0.9239  0.1267
 2600SOL    HW219437   1.723   0.396  17.648 -0.3573 -0.6824  1.3071
 2601SOL     OW19438   4.373   4.061   0.770 -0.3227  0.1742  0.1442
 2601SOL    HW119439   4.310   4.106   0.827  1.5891  2.8776  0.1113
 2601SOL    HW219440   4.427   4.135   0.742 -0.3299  0.7812  1.7581
 2602SOL     OW19441   0.585   2.096   6.963 -0.8336  0.7312 -0.3271
 2602SOL    HW119442   0.589   2.173   6.908 -1.4602  0.2600 -1.0364
 2602SOL    HW219443   0.665   2.102   7.015 -1.8025 -1.2430  1.4377
 2603SOL     OW19444   3.339   2.406   5.757  0.6071 -0.0150 -0.2753
 2603SOL    HW119445   3.307   2.324   5.719  0.9768 -0.4680  0.4015
 2603SOL    HW219446   3.387   2.443   5.683 -1.6338  0.1135 -1.6616
 2604SOL     OW19447   0.476   4.606   2.015 -0.0863 -0.0423 -0.2128
 2604SOL    HW119448   0.462   4.568   2.102 -0.6991 -0.5147 -0.5092
 2604SOL    HW219449   0.391   4.647   2.001  0.5017  0.4378 -2.3783
 2605SOL     OW19450   2.691   0.947   1.415 -0.1971 -0.0699 -0.1040
 2605SOL    HW119451   2.743   1.027   1.423 -0.3402  0.0704 -0.5617
 2605SOL    HW219452   2.639   0.947   1.495  1.4313  1.3435  0.9700
 2606SOL     OW19453   4.148   3.035   2.785  0.5566 -0.0929  0.5346
 2606SOL    HW119454   4.160   3.011   2.877  0.0029 -2.3095  0.0245
 2606SOL    HW219455   4.168   3.128   2.791 -0.0206  0.1907 -1.9631
 2607SOL     OW19456   2.843   4.243  15.129  0.3104  0.1190 -0.3987
 2607SOL    HW119457   2.857   4.242  15.034  0.6014 -1.5439 -0.3321
 2607SOL    HW219458   2.791   4.323  15.143 -0.3154 -0.2341 -0.6968
 2608SOL     OW19459   0.589   1.544  13.591  0.4136  0.3797  0.1555
 2608SOL    HW119460   0.511   1.597  13.607  0.8108  2.0717 -3.4254
 2608SOL    HW219461   0.604   1.595  13.511  0.2280  0.2305  0.0254
 2609SOL     OW19462   0.555   3.758   0.252 -0.3692 -0.5287 -0.1736
 2609SOL    HW119463   0.474   3.773   0.204 -1.7584 -1.5049  1.8535
 2609SOL    HW219464   0.559   3.838   0.304  0.3274 -1.4493  1.1969
 2610SOL     OW19465   3.447   2.901   9.980 -0.6883 -0.6394 -0.7830
 2610SOL    HW119466   3.453   2.891  10.075 -1.9451  1.0088 -0.5216
 2610SOL    HW219467   3.357   2.932   9.965 -0.4898 -1.3048 -3.3460
 2611SOL     OW19468   1.223   1.361   6.687 -0.0047  0.4621  0.4228
 2611SOL    HW119469   1.204   1.326   6.774 -1.3322  2.2865  0.8768
 2611SOL    HW219470   1.252   1.278   6.649 -0.3351  0.2118  0.7244
 2612SOL     OW19471   3.003   1.746   0.841 -0.5487  0.1273  0.0916
 2612SOL    HW119472   3.048   1.749   0.757 -0.4188 -2.2842  0.0823
 2612SOL    HW219473   3.073   1.776   0.898 -2.6047  3.8320  0.6894
 2613SOL     OW19474   4.346   4.349   7.632 -0.1822 -0.0175 -0.5200
 2613SOL    HW119475   4.261   4.344   7.678 -0.0819  0.6941 -0.2658
 2613SOL    HW219476   4.357   4.254   7.627  1.1867  0.0221  1.3880
 2614SOL     OW19477   1.470   1.442   8.942 -0.5610  0.1968 -0.3958
 2614SOL    HW119478   1.393   1.437   8.999  0.2791  0.9661  0.8018
 2614SOL    HW219479   1.535   1.403   9.000 -0.2760  0.1317 -0.7591
 2615SOL     OW19480   1.561   3.742  15.919 -0.2311 -0.2235  0.6565
 2615SOL    HW119481   1.465   3.733  15.925 -0.3078 -0.8262 -1.3737
 2615SOL    HW219482   1.569   3.819  15.976 -0.0533 -0.1272  0.4997
 2616SOL     OW19483   2.636   3.652   5.713 -0.4648 -0.0892 -0.2982
 2616SOL    HW119484   2.724   3.690   5.713 -0.8399  0.7822 -0.9665
 2616SOL    HW219485   2.582   3.731   5.714  0.3828  0.4790  0.0353
 2617SOL     OW19486   3.816   4.669   4.086  0.4468  0.3408  0.2367
 2617SOL    HW119487   3.857   4.636   4.006  0.3597  2.5955 -0.7558
 2617SOL    HW219488   3.883   4.723   4.127 -0.3718  2.2028 -0.8564
 2618SOL     OW19489   3.316   3.189   9.185  0.5358 -0.6573 -0.2220
 2618SOL    HW119490   3.399   3.195   9.232  0.0626 -0.5817  0.5972
 2618SOL    HW219491   3.329   3.111   9.131  0.0681 -1.9407  1.5259
 2619SOL     OW19492   3.801   1.855  14.409 -0.1152  0.2630  0.5157
 2619SOL    HW119493   3.849   1.936  14.424  0.6352 -0.4821  2.0862
 2619SOL    HW219494   3.803   1.849  14.313  1.5813  3.0411  0.3947
 2620SOL     OW19495   0.817   1.356   1.065 -0.3558  0.7639 -0.3168
 2620SOL    HW119496   0.860   1.362   0.980 -0.4808  1.0047 -0.3629
 2620SOL    HW219497   0.725   1.365   1.042  0.0901 -0.6938 -2.7232
 2621SOL     OW19498   2.477   3.919  12.328 -0.2991  0.7397 -0.1969
 2621SOL    HW119499   2.452   3.854  12.394 -2.3743  1.3177 -0.3994
 2621SOL    HW219500   2.523   3.864  12.265 -1.2845 -1.2533  0.8284
 2622SOL     OW19501   3.608   1.477   2.115  0.3899 -0.3687  0.7883
 2622SOL    HW119502   3.629   1.528   2.036 -0.5333 -0.6066  0.3932
 2622SOL    HW219503   3.690   1.490   2.163  1.5887 -3.0024 -0.5971
 2623SOL     OW19504   1.714   2.183   7.732  0.7087  0.2644 -0.0559
 2623SOL    HW119505   1.652   2.177   7.804  2.2982  0.5114  1.3352
 2623SOL    HW219506   1.795   2.205   7.778  0.7634 -0.1940  0.0697
 2624SOL     OW19507   1.934   2.895   4.936  0.1542 -0.3075 -0.7948
 2624SOL    HW119508   1.974   2.977   4.966 -2.0251  0.4881 -0.0080
 2624SOL    HW219509   1.864   2.897   5.001  0.1878  1.1148 -0.7913
 2625SOL     OW19510   4.425   3.587   3.890 -0.0404 -0.3387  0.6106
 2625SOL    HW119511   4.330   3.589   3.880 -0.0076 -0.5184  0.2439
 2625SOL    HW219512   4.445   3.680   3.899  1.5356 -0.6460  0.3483
 2626SOL     OW19513   1.203   1.085  15.906  0.2877  0.1654  0.1934
 2626SOL    HW119514   1.146   1.015  15.873 -0.4112  0.2684  1.1671
 2626SOL    HW219515   1.148   1.133  15.968  1.5482  1.0061  0.6521
 2627SOL     OW19516   2.385   0.228   5.132 -0.2404 -0.0615 -0.2586
 2627SOL    HW119517   2.414   0.295   5.070 -2.7071 -0.3598 -1.7596
 2627SOL    HW219518   2.469   0.185   5.116  0.1936  0.4191  0.7677
 2628SOL     OW19519   4.188   1.995   6.603  0.1943 -0.1290 -1.1213
 2628SOL    HW119520   4.142   2.050   6.540  1.1049  2.4087  0.4139
 2628SOL    HW219521   4.278   2.028   6.591  0.5839 -0.8454 -0.1493
 2629SOL     OW19522   4.280   3.567   6.884  0.0217  0.4406  0.2699
 2629SOL    HW119523   4.251   3.648   6.842  1.2189  0.6099 -0.2375
 2629SOL    HW219524   4.195   3.539   6.916  0.0059 -0.3227 -0.4218
 2630SOL     OW19525   4.710   0.056  11.992  0.1051  0.3327 -0.3417
 2630SOL    HW119526   4.714   4.719  12.054  0.3766  1.0261  0.4528
 2630SOL    HW219527   4.618   0.079  12.006  0.8807  2.9644  0.5017
 2631SOL     OW19528   3.808   2.474   7.045 -0.7979 -0.1875 -0.3305
 2631SOL    HW119529   3.805   2.419   7.123  0.4047  0.2315  0.0179
 2631SOL    HW219530   3.777   2.559   7.077 -0.1832 -0.2002  0.2908
 2632SOL     OW19531   0.156   1.012   4.860  0.5736 -0.4179  0.4213
 2632SOL    HW119532   0.244   1.040   4.833 -0.2016  1.2661 -0.3668
 2632SOL    HW219533   0.176   0.919   4.859  1.5235 -0.2429  2.0066
 2633SOL     OW19534   2.433   4.190   2.396 -0.2345  0.0875  0.3943
 2633SOL    HW119535   2.391   4.171   2.480  0.0058 -1.4876  0.1520
 2633SOL    HW219536   2.457   4.282   2.409 -0.0337  0.0722  0.1213
 2634SOL     OW19537   3.663   0.530   6.695 -0.0411 -0.0976 -0.1613
 2634SOL    HW119538   3.692   0.577   6.774  0.0716 -2.9941  1.5143
 2634SOL    HW219539   3.750   0.495   6.679 -0.0171 -0.5279  0.8692
 2635SOL     OW19540   2.400   1.935   9.073  0.4399 -0.3171 -0.4291
 2635SOL    HW119541   2.424   1.857   9.123 -1.2818 -0.6887 -0.1559
 2635SOL    HW219542   2.336   1.966   9.138  0.3335 -2.2651  0.3843
 2636SOL     OW19543   2.094   1.726   5.219  0.2150 -0.0674  0.4886
 2636SOL    HW119544   2.118   1.669   5.146  1.6856  0.6699  0.3921
 2636SOL    HW219545   2.064   1.672   5.292  1.8359 -0.0234  1.1946
 2637SOL     OW19546   2.135   2.630  11.311  0.1228 -0.5331  0.2997
 2637SOL    HW119547   2.182   2.703  11.352 -1.4857  0.5077  0.2574
 2637SOL    HW219548   2.059   2.676  11.277  0.2850  1.3505  2.4889
 2638SOL     OW19549   3.114   1.253  17.739 -0.0794 -0.2251  0.0183
 2638SOL    HW119550   3.166   1.174   0.013  1.1174  0.6701  0.6947
 2638SOL    HW219551   3.146   1.281  17.653 -3.9741  0.1087 -1.3273
 2639SOL     OW19552   0.014   3.375   6.347 -0.2823 -0.3035  0.6738
 2639SOL    HW119553   4.718   3.300   6.297  0.0543 -0.2403  0.3661
 2639SOL    HW219554   0.079   3.335   6.405 -1.0265  0.6785  2.2060
 2640SOL     OW19555   0.888   2.405   9.563  0.5593  0.4100  0.4481
 2640SOL    HW119556   0.853   2.378   9.478  0.4984 -2.2511  1.3043
 2640SOL    HW219557   0.965   2.348   9.569  3.7169  4.4905 -1.6253
 2641SOL     OW19558   2.369   4.465   9.396 -0.4315 -0.1885 -0.0814
 2641SOL    HW119559   2.307   4.442   9.465  0.8166  0.0713  1.1239
 2641SOL    HW219560   2.319   4.433   9.321  1.7189 -0.0839 -1.5673
 2642SOL     OW19561   4.436   0.182   6.955 -0.3982  0.0799 -0.4973
 2642SOL    HW119562   4.412   0.265   6.996  5.2579  1.7378 -0.6246
 2642SOL    HW219563   4.481   0.144   7.030  1.0781 -0.8816 -1.8689
 2643SOL     OW19564   2.703   2.410   9.083  0.0165  0.0957 -0.4474
 2643SOL    HW119565   2.741   2.423   9.170  1.7540  0.6562 -1.2825
 2643SOL    HW219566   2.652   2.330   9.087  0.1601  0.0410  0.3778
 2644SOL     OW19567   2.226   3.011   4.179  0.7209 -0.6866 -0.1972
 2644SOL    HW119568   2.160   2.996   4.110 -0.1940  3.4293 -0.1904
 2644SOL    HW219569   2.197   3.098   4.208  2.1201 -1.1014  2.4118
 2645SOL     OW19570   2.254   4.679   6.261 -0.7609  0.0088 -0.2524
 2645SOL    HW119571   2.176   4.719   6.223  1.2562  2.4159 -1.8622
 2645SOL    HW219572   2.222   4.651   6.346  0.1189 -0.0002  0.0821
 2646SOL     OW19573   3.684   3.026   2.579  0.9494  0.5290  0.2981
 2646SOL    HW119574   3.709   3.004   2.669  0.0023  0.5035  0.5592
 2646SOL    HW219575   3.626   3.098   2.603  0.8572 -0.1634  2.1349
 2647SOL     OW19576   1.273   4.363   7.567 -0.0031  0.0179  0.1543
 2647SOL    HW119577   1.293   4.271   7.549 -0.3513 -0.0734  0.2503
 2647SOL    HW219578   1.321   4.408   7.497 -1.1785 -0.3815 -0.9116
 2648SOL     OW19579   3.262   0.008  13.294  0.5346 -0.0386 -0.6235
 2648SOL    HW119580   3.301   0.025  13.209  0.4226 -1.3132 -0.9302
 2648SOL    HW219581   3.273   0.098  13.325 -0.2177 -0.3785  0.6453
 2649SOL     OW19582   0.814   4.660   2.987 -0.1624  0.4030 -0.4082
 2649SOL    HW119583   0.743   4.610   2.948 -0.6171  0.5901  0.1810
 2649SOL    HW219584   0.798   4.640   3.079 -0.3662  0.8891 -0.3380
 2650SOL     OW19585   1.250   3.427   7.863  0.2648  0.2115 -0.6119
 2650SOL    HW119586   1.176   3.400   7.919  0.9962  1.5359  1.0018
 2650SOL    HW219587   1.217   3.517   7.853  0.7946  0.6378  1.4777
 2651SOL     OW19588   2.567   1.005   7.938  0.5242 -0.0245  0.1014
 2651SOL    HW119589   2.630   1.073   7.960  0.0815  0.9812 -1.6973
 2651SOL    HW219590   2.533   1.002   8.027  2.0402  0.7671  0.6992
 2652SOL     OW19591   2.015   3.579   4.118  0.3130  1.1450 -0.2528
 2652SOL    HW119592   1.934   3.541   4.084 -0.3056  2.5387 -0.3669
 2652SOL    HW219593   1.988   3.669   4.101 -2.6846  0.5942  1.4856
 2653SOL     OW19594   2.490   0.714   9.976  0.1511  0.4454  0.1462
 2653SOL    HW119595   2.468   0.621   9.977  0.9935  0.2454 -0.2363
 2653SOL    HW219596   2.456   0.732  10.064  0.2528 -0.3484  0.3466
 2654SOL     OW19597   3.320   0.852   6.386 -0.1351  0.3685  0.0142
 2654SOL    HW119598   3.330   0.769   6.433  0.7467  1.7290  2.2349
 2654SOL    HW219599   3.244   0.895   6.425 -0.6263 -1.9699  1.6461
 2655SOL     OW19600   0.654   4.304   1.809  0.0968  0.0684 -0.0919
 2655SOL    HW119601   0.627   4.396   1.814  0.5809  0.2142 -0.1469
 2655SOL    HW219602   0.636   4.266   1.895 -4.4655  0.5955 -0.8124
 2656SOL     OW19603   2.225   0.715  16.711  0.2094  0.1570  0.5095
 2656SOL    HW119604   2.277   0.637  16.732 -1.7850 -0.8915  1.5894
 2656SOL    HW219605   2.293   0.782  16.714 -1.8789  2.2318  1.3597
 2657SOL     OW19606   4.674   2.822   6.406 -0.1030  0.4166  0.6877
 2657SOL    HW119607   4.609   2.861   6.348 -0.3465 -1.8926 -0.5719
 2657SOL    HW219608   4.637   2.857   6.488  1.6384 -0.8040  1.9795
 2658SOL     OW19609   1.907   2.149  12.153  0.2837 -0.0764  0.5472
 2658SOL    HW119610   1.818   2.122  12.176 -0.2870  0.3370 -1.1970
 2658SOL    HW219611   1.886   2.239  12.128  2.3596  0.3834  0.4103
 2659SOL     OW19612   3.607   3.978   6.084 -0.5386 -0.0141  0.0131
 2659SOL    HW119613   3.526   3.931   6.103 -0.7399  0.6862  0.8715
 2659SOL    HW219614   3.664   3.955   6.157 -0.1129  0.5966 -0.1259
 2660SOL     OW19615   0.368   2.969  17.387 -0.2638 -0.0655 -0.2679
 2660SOL    HW119616   0.324   2.978  17.302  0.8282 -3.1566 -1.1511
 2660SOL    HW219617   0.427   2.895  17.374  0.3458 -0.0948  2.5637
 2661SOL     OW19618   0.691   3.663   4.864  0.2176 -0.2951 -0.1927
 2661SOL    HW119619   0.620   3.706   4.814 -0.3960  0.3130  1.2135
 2661SOL    HW219620   0.756   3.652   4.795  0.9228  0.1305  0.4175
 2662SOL     OW19621   1.958   3.772   4.812 -0.3344 -0.0363  0.0261
 2662SOL    HW119622   1.897   3.776   4.738  2.2721  2.9075 -1.9671
 2662SOL    HW219623   1.899   3.751   4.885 -2.8109  1.4197 -1.5685
 2663SOL     OW19624   2.823   4.694   4.910  0.4496  0.1450  0.0003
 2663SOL    HW119625   2.843   4.602   4.891 -2.3320 -0.3049 -0.7736
 2663SOL    HW219626   2.831   4.726   4.821  1.3458 -0.6479 -0.2034
 2664SOL     OW19627   2.270   2.483   1.761  0.2706  0.3956  0.3050
 2664SOL    HW119628   2.198   2.492   1.699  1.9782 -0.5699 -1.8361
 2664SOL    HW219629   2.310   2.570   1.767 -2.3844  1.7996 -2.3452
 2665SOL     OW19630   3.528   0.508   3.217  0.1621  0.5603 -0.3769
 2665SOL    HW119631   3.520   0.461   3.134  0.6437  0.9560 -0.6490
 2665SOL    HW219632   3.437   0.534   3.228  0.0097  0.2192 -0.8157
 2666SOL     OW19633   0.397   4.061   3.126  0.2929  0.6359 -0.1898
 2666SOL    HW119634   0.419   3.999   3.195  1.6816  0.8246 -0.4645
 2666SOL    HW219635   0.306   4.032   3.123  1.1901 -2.1821  0.1330
 2667SOL     OW19636   2.989   2.767   2.314 -0.6423 -0.3358 -0.3700
 2667SOL    HW119637   3.005   2.675   2.296 -1.3169 -0.8371  1.6417
 2667SOL    HW219638   2.908   2.786   2.267 -0.2401 -0.6846 -1.2163
 2668SOL     OW19639   2.964   1.767   5.759  0.3251 -0.2341  0.3541
 2668SOL    HW119640   3.004   1.687   5.727 -0.5001  0.2192 -1.8153
 2668SOL    HW219641   2.886   1.726   5.797  0.4920 -1.9480 -1.1757
 2669SOL     OW19642   2.921   3.365   2.529  0.0811  0.7142 -0.3501
 2669SOL    HW119643   2.922   3.415   2.447  1.6846  2.6517  0.8750
 2669SOL    HW219644   2.853   3.409   2.580 -0.2279  0.2737 -0.3762
 2670SOL     OW19645   4.679   2.251   7.493 -0.4013 -0.2092 -0.3144
 2670SOL    HW119646   0.009   2.240   7.424  0.9676  0.9586  0.8128
 2670SOL    HW219647   4.659   2.344   7.486 -0.7417 -0.2724 -0.2189
 2671SOL     OW19648   2.968   0.468   5.559  0.6715  0.4272  0.7486
 2671SOL    HW119649   2.921   0.542   5.519  0.0088 -0.4836 -0.1758
 2671SOL    HW219650   2.983   0.399   5.494 -1.4207  1.0861 -0.4516
 2672SOL     OW19651   1.669   3.042  15.307 -0.3220  0.3918 -0.2233
 2672SOL    HW119652   1.642   3.125  15.346  4.2112  0.6013  2.4435
 2672SOL    HW219653   1.633   3.041  15.218  1.0006  0.3960 -0.7649
 2673SOL     OW19654   3.869   2.244  10.502 -0.1685  0.0155 -0.5878
 2673SOL    HW119655   3.815   2.250  10.423 -0.0878 -3.4337 -0.9094
 2673SOL    HW219656   3.886   2.151  10.517  1.2038  0.9481  3.5884
 2674SOL     OW19657   1.474   4.595   2.722  0.0422 -0.6122  0.0825
 2674SOL    HW119658   1.527   4.655   2.669 -0.0011 -1.1548 -0.5846
 2674SOL    HW219659   1.499   4.511   2.684 -3.2604 -2.3868  1.9235
 2675SOL     OW19660   2.125   4.691  13.902 -0.7234  0.1534  0.5809
 2675SOL    HW119661   2.157   4.729  13.820  0.4885 -0.4350  0.7720
 2675SOL    HW219662   2.178   4.611  13.903  2.4004  2.2348  1.7191
 2676SOL     OW19663   4.568   3.245   7.612 -0.2652  0.0648 -0.4083
 2676SOL    HW119664   4.593   3.319   7.667  0.1109  2.1366 -3.3776
 2676SOL    HW219665   4.574   3.173   7.675  0.1071  1.3423  1.0098
 2677SOL     OW19666   3.587   0.068   4.100 -0.1269  0.1636  0.4012
 2677SOL    HW119667   3.529   0.024   4.038  1.4172 -0.9152 -0.2588
 2677SOL    HW219668   3.666   0.015   4.095  0.7071  1.4803 -0.3085
 2678SOL     OW19669   3.173   2.724  17.330 -0.0205 -0.1980 -0.7107
 2678SOL    HW119670   3.260   2.692  17.354  0.7419  1.5476 -1.1991
 2678SOL    HW219671   3.125   2.705  17.411 -1.7727 -3.6441 -2.5309
 2679SOL     OW19672   2.365   0.854   3.652  0.4510 -0.5032  0.6139
 2679SOL    HW119673   2.314   0.782   3.689  1.9510 -0.9827  1.7501
 2679SOL    HW219674   2.367   0.917   3.723  2.8415 -0.5255  0.5727
 2680SOL     OW19675   1.511   2.217   3.462 -0.6994 -0.0207 -0.0678
 2680SOL    HW119676   1.597   2.204   3.423 -1.4196 -0.5397 -1.5046
 2680SOL    HW219677   1.525   2.186   3.552 -3.9068 -4.2982 -1.0458
 2681SOL     OW19678   2.618   4.453  12.249  0.5759 -0.3686 -0.0439
 2681SOL    HW119679   2.671   4.410  12.182 -0.7602 -0.9741 -0.7093
 2681SOL    HW219680   2.685   4.473  12.314 -0.3700  0.5981  0.6403
 2682SOL     OW19681   2.249   2.465   7.123  0.2938  0.4724  0.0740
 2682SOL    HW119682   2.185   2.486   7.055 -1.5713 -1.0920  1.3597
 2682SOL    HW219683   2.300   2.545   7.127  0.1003  0.5755  0.3872
 2683SOL     OW19684   2.797   1.995   6.081 -0.2584  0.0694 -0.2270
 2683SOL    HW119685   2.848   1.958   6.153 -0.3417  2.4207  1.0486
 2683SOL    HW219686   2.722   1.937   6.085 -0.4302  0.2396 -1.0330
 2684SOL     OW19687   4.158   2.321  12.493 -0.5632  0.8354 -0.2669
 2684SOL    HW119688   4.098   2.351  12.561 -0.2040  0.1922  0.3367
 2684SOL    HW219689   4.146   2.228  12.510  0.0394  0.6950 -0.6094
 2685SOL     OW19690   2.875   4.185  14.846  0.2227 -0.2840 -0.7582
 2685SOL    HW119691   2.940   4.213  14.781  0.1695 -1.5137 -1.3475
 2685SOL    HW219692   2.804   4.169  14.784  1.2293 -1.4037 -1.6234
 2686SOL     OW19693   1.497   1.629   6.658  0.3343  0.4799  0.0006
 2686SOL    HW119694   1.526   1.551   6.705  1.1841 -0.3778 -1.9060
 2686SOL    HW219695   1.406   1.614   6.633  0.5659 -0.2107 -0.4348
 2687SOL     OW19696   0.253   3.088   1.148 -0.1152 -0.3689  0.6440
 2687SOL    HW119697   0.342   3.061   1.169  0.0878 -0.0616  0.1827
 2687SOL    HW219698   0.242   3.159   1.210  1.6534 -0.8855  1.5392
 2688SOL     OW19699   3.144   3.782  13.087 -0.8321  0.1676  0.0542
 2688SOL    HW119700   3.160   3.699  13.041  1.3098 -0.4132  1.8670
 2688SOL    HW219701   3.229   3.823  13.104 -0.4212  0.4938 -2.7974
 2689SOL     OW19702   1.688   1.952   7.193  0.4575  0.0291  0.2133
 2689SOL    HW119703   1.635   1.890   7.243 -1.7618  1.8144  0.0479
 2689SOL    HW219704   1.764   1.958   7.251  0.1829 -1.0602  0.6898
 2690SOL     OW19705   1.242   2.861   9.068  0.0196  0.1326 -0.7597
 2690SOL    HW119706   1.167   2.914   9.094 -0.9014 -1.3500 -0.3845
 2690SOL    HW219707   1.200   2.778   9.045 -0.5120  0.9689 -2.8251
 2691SOL     OW19708   1.296   3.474   1.991 -0.0456 -0.2035 -0.2315
 2691SOL    HW119709   1.340   3.398   1.952  0.7752  0.4622 -0.6253
 2691SOL    HW219710   1.363   3.543   1.986 -2.2816  1.8121 -1.9054
 2692SOL     OW19711   4.278   2.430  15.197  0.0799 -0.7825  0.0798
 2692SOL    HW119712   4.317   2.350  15.164 -1.5334 -1.4234 -0.2876
 2692SOL    HW219713   4.319   2.436  15.284 -1.2169 -1.6668  0.7568
 2693SOL     OW19714   1.897   2.510  16.902 -0.1217 -0.1810 -0.3551
 2693SOL    HW119715   1.901   2.437  16.840  2.1295 -0.3025 -0.0604
 2693SOL    HW219716   1.803   2.529  16.906 -0.4251 -0.8965 -3.8687
 2694SOL     OW19717   2.517   2.041   4.714 -0.7620 -0.3982  0.0035
 2694SOL    HW119718   2.521   2.056   4.620 -1.0934  0.0476  0.0626
 2694SOL    HW219719   2.508   2.130   4.747  0.9594 -0.1684 -0.1427
 2695SOL     OW19720   0.428   0.430  14.889  0.0262 -0.1204  0.1791
 2695SOL    HW119721   0.503   0.469  14.843  0.2062 -1.4333 -0.6193
 2695SOL    HW219722   0.458   0.339  14.896  0.5171 -0.1674 -2.6688
 2696SOL     OW19723   4.539   1.572  11.298 -0.1120  0.2885  0.0170
 2696SOL    HW119724   4.457   1.527  11.279 -1.5812  2.7410  0.5545
 2696SOL    HW219725   4.607   1.504  11.293  1.7104  2.1788 -0.5839
 2697SOL     OW19726   3.279   4.150   4.725  0.0111  0.5550  0.2602
 2697SOL    HW119727   3.312   4.116   4.809  0.0816 -2.2574 -0.9048
 2697SOL    HW219728   3.320   4.089   4.664  0.6270 -0.2663  1.4943
 2698SOL     OW19729   4.491   1.956   2.238 -0.5048  0.4406  0.2228
 2698SOL    HW119730   4.553   2.029   2.232  0.9545 -0.9160 -1.1858
 2698SOL    HW219731   4.503   1.917   2.152  2.2462  2.3579 -0.2456
 2699SOL     OW19732   3.849   1.295   2.698 -0.0195  0.0971 -0.4789
 2699SOL    HW119733   3.887   1.340   2.774  0.1236 -1.9834  0.6782
 2699SOL    HW219734   3.755   1.312   2.708  0.2484  2.5533 -1.9851
 2700SOL     OW19735   0.613   1.366   3.603  0.3699 -0.0066  0.1719
 2700SOL    HW119736   0.654   1.424   3.667 -1.4708  1.2240  0.2269
 2700SOL    HW219737   0.682   1.299   3.599  1.6628  1.3633 -0.3752
 2701SOL     OW19738   1.829   3.807  14.807 -0.5910 -0.4381  0.3389
 2701SOL    HW119739   1.860   3.782  14.894 -0.6726  0.4091  0.6183
 2701SOL    HW219740   1.780   3.729  14.782 -0.2523 -0.0915 -1.4255
 2702SOL     OW19741   3.343   0.402   8.993  0.5891 -0.5728 -0.2127
 2702SOL    HW119742   3.266   0.421   9.047  1.2631 -2.2210  1.3179
 2702SOL    HW219743   3.379   0.335   9.050  2.3229 -0.0986 -0.7458
 2703SOL     OW19744   0.209   0.907   3.442 -0.0148 -0.3861 -0.2639
 2703SOL    HW119745   0.227   0.876   3.353 -0.1782 -0.2644 -0.3400
 2703SOL    HW219746   0.115   0.921   3.442  0.3970  2.3975 -0.1540
 2704SOL     OW19747   4.391   1.676   7.225 -0.4358 -0.2022 -0.4879
 2704SOL    HW119748   4.479   1.646   7.204 -0.0310 -0.8243  2.1205
 2704SOL    HW219749   4.340   1.595   7.230  1.0650 -1.2106 -1.4374
 2705SOL     OW19750   1.939   4.459   2.421 -0.4419  0.0483  0.1961
 2705SOL    HW119751   1.890   4.378   2.403 -1.1531  0.1011  1.9267
 2705SOL    HW219752   2.019   4.431   2.466 -0.3241  2.0283  1.1853
 2706SOL     OW19753   4.333   3.058   7.656 -0.3223  0.7181  0.7220
 2706SOL    HW119754   4.420   3.040   7.693  0.2954  2.6111  0.1800
 2706SOL    HW219755   4.290   3.115   7.720  2.0227  1.0190  2.0265
 2707SOL     OW19756   2.175   1.198  17.400  0.6822  0.2806 -0.2208
 2707SOL    HW119757   2.109   1.141  17.360  0.8424 -2.0448  2.9001
 2707SOL    HW219758   2.165   1.273  17.340  1.1680  0.0069 -0.6468
 2708SOL     OW19759   1.583   2.451  13.550  0.6230  0.4389 -0.3092
 2708SOL    HW119760   1.631   2.478  13.628  1.2425 -2.8396  0.4418
 2708SOL    HW219761   1.522   2.385  13.584  0.7894  0.6493  0.3939
 2709SOL     OW19762   1.942   3.344   7.460 -0.2196 -0.0560 -0.0567
 2709SOL    HW119763   1.939   3.436   7.483 -2.6950 -0.0820 -0.2142
 2709SOL    HW219764   1.876   3.340   7.390 -1.7992  0.8524  1.3896
 2710SOL     OW19765   2.379   1.257   7.664  1.0655  0.5931 -0.1201
 2710SOL    HW119766   2.455   1.311   7.687  1.4859  1.2174 -2.8875
 2710SOL    HW219767   2.337   1.244   7.749  1.8138 -1.0583 -0.0190
 2711SOL     OW19768   1.445   4.541   8.554  0.1379 -0.4480  0.0379
 2711SOL    HW119769   1.403   4.558   8.639 -1.9410  0.5620 -1.2026
 2711SOL    HW219770   1.472   4.626   8.519  1.1967 -1.1397 -0.8010
 2712SOL     OW19771   2.409   4.484   8.063  0.2598 -0.3826 -0.1551
 2712SOL    HW119772   2.453   4.555   8.017  2.4724 -0.5992  1.6111
 2712SOL    HW219773   2.383   4.533   8.142 -0.5768 -0.3243 -0.4719
 2713SOL     OW19774   3.760   0.696   7.917 -0.4442  0.5757  0.4588
 2713SOL    HW119775   3.688   0.744   7.957 -0.9522  0.2061 -0.0049
 2713SOL    HW219776   3.772   0.748   7.837  0.1971 -1.9031 -1.0866
 2714SOL     OW19777   1.492   2.013   7.587 -0.2396  0.4723  0.3089
 2714SOL    HW119778   1.403   2.018   7.622  0.4062 -0.4457  2.0534
 2714SOL    HW219779   1.542   2.017   7.668 -0.7872  1.0253  0.6196
 2715SOL     OW19780   1.350   1.990   0.225 -0.0804 -0.9238  0.4986
 2715SOL    HW119781   1.379   2.081   0.228  0.8752 -1.1559 -1.3664
 2715SOL    HW219782   1.405   1.961   0.152  0.3343  0.9202  0.1016
 2716SOL     OW19783   2.811   1.436   6.478  0.1996 -0.4966 -0.8124
 2716SOL    HW119784   2.728   1.413   6.436 -1.9114  0.7902  2.6086
 2716SOL    HW219785   2.860   1.364   6.439 -0.1852 -0.4562 -1.3674
 2717SOL     OW19786   4.340   4.170   4.391 -0.3898 -0.1591  0.2085
 2717SOL    HW119787   4.428   4.204   4.375 -0.0334 -1.0068  0.3692
 2717SOL    HW219788   4.283   4.179   4.315 -0.1855  1.9483  0.3085
 2718SOL     OW19789   3.719   1.391  10.324 -0.0766 -0.1401 -0.0759
 2718SOL    HW119790   3.697   1.298  10.330 -1.3596  0.2445  1.1816
 2718SOL    HW219791   3.807   1.391  10.285  0.3656 -1.0714  0.9302
 2719SOL     OW19792   0.573   0.868   2.458  0.1197 -0.4477 -0.1105
 2719SOL    HW119793   0.486   0.831   2.474  0.2602 -0.3893  0.7799
 2719SOL    HW219794   0.612   0.830   2.536  0.9413  1.9807  0.6645
 2720SOL     OW19795   3.066   0.798  12.937 -0.2090  0.0956 -0.0258
 2720SOL    HW119796   2.985   0.783  12.888  0.0852  1.3076 -0.8599
 2720SOL    HW219797   3.053   0.891  12.954  0.5991  0.4187 -1.1673
 2721SOL     OW19798   3.984   1.263   8.398  0.0215  0.6467  0.2718
 2721SOL    HW119799   3.995   1.169   8.384  0.2606  0.9683 -1.6649
 2721SOL    HW219800   4.055   1.300   8.345  0.7943  0.7091  1.3348
 2722SOL     OW19801   3.574   0.136  11.531  0.0604  0.2351  0.0154
 2722SOL    HW119802   3.536   0.054  11.562 -1.0986  1.0740  0.8380
 2722SOL    HW219803   3.669   0.125  11.532  0.1704  1.1826 -0.0199
 2723SOL     OW19804   0.722   1.445   6.088  0.2409 -0.0769 -0.2248
 2723SOL    HW119805   0.795   1.383   6.091  0.3787  0.0369 -1.5031
 2723SOL    HW219806   0.759   1.523   6.047  0.1680  0.1803  0.1965
 2724SOL     OW19807   0.557   3.584   3.244  0.1415  0.3872  0.0313
 2724SOL    HW119808   0.480   3.632   3.213  0.1051  0.2004 -0.1651
 2724SOL    HW219809   0.612   3.580   3.166 -1.4705  2.6216 -1.2242
 2725SOL     OW19810   3.449   4.518  11.253 -0.1158 -0.8983 -0.7335
 2725SOL    HW119811   3.455   4.425  11.231  1.5111 -0.8960 -0.3040
 2725SOL    HW219812   3.540   4.539  11.274 -0.0886  0.1714 -1.8724
 2726SOL     OW19813   2.304   1.838   3.630 -0.0715 -0.1219  0.1275
 2726SOL    HW119814   2.330   1.925   3.600 -0.9156 -0.3080 -1.1479
 2726SOL    HW219815   2.269   1.812   3.544 -0.2400 -1.0705  0.4871
 2727SOL     OW19816   1.330   3.573   1.651 -0.0402  0.6690 -0.9910
 2727SOL    HW119817   1.363   3.607   1.568  1.1721  1.3042 -0.2463
 2727SOL    HW219818   1.302   3.653   1.696  1.1092 -0.1329  1.1514
 2728SOL     OW19819   1.899   4.675   3.687  0.3323  0.5222 -0.2319
 2728SOL    HW119820   1.824   4.616   3.675 -0.1748  0.6466  2.2282
 2728SOL    HW219821   1.970   4.629   3.731 -2.1988 -0.9802  2.3152
 2729SOL     OW19822   1.885   1.935   6.959  0.2327  0.0089 -0.5259
 2729SOL    HW119823   1.852   1.994   7.027  4.0851  1.2040  0.2726
 2729SOL    HW219824   1.876   1.855   7.011  2.0527 -1.2226 -2.1024
 2730SOL     OW19825   2.034   2.631  14.862  0.3006  0.7120  0.0418
 2730SOL    HW119826   1.957   2.661  14.910  0.7178  1.3252  0.3259
 2730SOL    HW219827   2.054   2.551  14.909  2.1239  1.7196  1.0034
 2731SOL     OW19828   3.367   2.217  17.531 -0.6732  0.2568  0.3239
 2731SOL    HW119829   3.369   2.160  17.454  2.2977  0.9930 -0.1507
 2731SOL    HW219830   3.459   2.221  17.555 -1.0526 -0.0420  1.8351
 2732SOL     OW19831   4.348   3.325   4.370 -0.0330 -0.4005  0.0403
 2732SOL    HW119832   4.369   3.367   4.287 -0.6619 -0.3572 -0.0978
 2732SOL    HW219833   4.380   3.237   4.348  0.0622 -0.3596  0.0187
 2733SOL     OW19834   4.563   0.078   6.118  0.4593  0.1712  0.0643
 2733SOL    HW119835   4.628   0.127   6.067  0.4731  0.5065  0.4031
 2733SOL    HW219836   4.629   0.040   6.176  1.6703 -0.0522 -1.4850
 2734SOL     OW19837   3.816   2.195  17.149 -0.6089  0.5410  0.3963
 2734SOL    HW119838   3.863   2.182  17.231 -0.1103  3.0034  0.4919
 2734SOL    HW219839   3.898   2.208  17.101 -0.6433  1.1843  0.5147
 2735SOL     OW19840   0.146   4.560   2.502  0.4484 -0.3293  0.1481
 2735SOL    HW119841   0.151   4.656   2.511  0.6453 -0.3835  0.6369
 2735SOL    HW219842   0.115   4.521   2.583  0.1207  0.7128  0.5293
 2736SOL     OW19843   3.496   3.460   4.592  0.1784 -0.2480 -0.2775
 2736SOL    HW119844   3.451   3.388   4.636  0.5676 -0.9666 -1.0511
 2736SOL    HW219845   3.502   3.516   4.670 -1.4948 -2.1735  1.2365
 2737SOL     OW19846   1.478   3.319   5.755  0.4193  0.3457  0.0230
 2737SOL    HW119847   1.472   3.335   5.849  2.2414 -1.7814  0.4950
 2737SOL    HW219848   1.573   3.316   5.741  0.8863 -1.7848  3.7473
 2738SOL     OW19849   3.933   3.291   2.871 -0.2347 -0.4224 -0.0967
 2738SOL    HW119850   3.918   3.334   2.786 -1.1136  1.1736  0.8722
 2738SOL    HW219851   4.022   3.323   2.885 -0.4974  0.7568 -1.1082
 2739SOL     OW19852   0.085   2.254   2.029 -0.6795  0.2452 -0.1762
 2739SOL    HW119853   0.077   2.166   1.990  0.7415 -1.6477  3.7711
 2739SOL    HW219854   0.002   2.259   2.077 -0.4049  2.0063  0.1049
 2740SOL     OW19855   3.889   0.257   1.639 -0.2431  0.1991 -0.4687
 2740SOL    HW119856   3.964   0.259   1.579 -0.9594  0.3145 -1.3574
 2740SOL    HW219857   3.857   0.347   1.637 -1.5769 -0.2115  4.3229
 2741SOL     OW19858   3.814   4.193   1.746  0.5228 -0.3108 -0.1028
 2741SOL    HW119859   3.783   4.262   1.688 -0.8472 -0.2936  0.6343
 2741SOL    HW219860   3.819   4.247   1.825 -0.8495 -2.0182  1.1432
 2742SOL     OW19861   4.292   1.896   7.351  0.2423  0.4939  0.5770
 2742SOL    HW119862   4.326   1.822   7.300  0.1165 -0.0963  1.3631
 2742SOL    HW219863   4.369   1.929   7.397  0.8805 -0.2936  0.0822
 2743SOL     OW19864   3.309   1.456  11.494  0.0625  0.0358 -0.3162
 2743SOL    HW119865   3.337   1.546  11.512 -0.3459  0.0800  0.0743
 2743SOL    HW219866   3.373   1.414  11.436 -0.4862 -1.9817  0.5646
 2744SOL     OW19867   2.358   2.296  16.446 -0.2744 -0.0144 -0.5334
 2744SOL    HW119868   2.392   2.226  16.390  2.0746  0.9533 -0.3243
 2744SOL    HW219869   2.371   2.365  16.381 -0.4997  0.3048 -0.2410
 2745SOL     OW19870   0.687   4.317   8.299  0.7188 -0.5347  0.0107
 2745SOL    HW119871   0.674   4.319   8.205 -2.0248  1.4670  0.4251
 2745SOL    HW219872   0.597   4.308   8.330 -0.1882 -0.0468 -2.5171
 2746SOL     OW19873   2.697   2.834   0.955  0.1287  0.5066 -0.0290
 2746SOL    HW119874   2.780   2.794   0.930  1.3181  2.0563  1.4594
 2746SOL    HW219875   2.655   2.763   1.004  1.2078 -0.4699 -0.5212
 2747SOL     OW19876   0.803   2.750  17.226  0.0100 -0.0407 -0.0022
 2747SOL    HW119877   0.834   2.827  17.273 -2.7784  1.1343 -0.1044
 2747SOL    HW219878   0.715   2.776  17.199  0.2351 -0.2219 -0.9036
 2748SOL     OW19879   4.341   3.635   8.591 -0.5341  0.4056 -0.2438
 2748SOL    HW119880   4.433   3.661   8.588  0.0318 -1.6715 -0.4625
 2748SOL    HW219881   4.334   3.583   8.670 -1.1810  2.3012  0.9590
 2749SOL     OW19882   0.015   0.444   8.039  0.2553 -0.4878 -0.2105
 2749SOL    HW119883   4.718   0.496   8.113  3.2363 -0.3109  0.9496
 2749SOL    HW219884   4.667   0.408   8.006 -0.0918  0.0868  0.0222
 2750SOL     OW19885   3.023   1.650   6.854  0.0573 -0.2967  0.2005
 2750SOL    HW119886   3.054   1.740   6.862 -1.0672 -0.0080  1.3578
 2750SOL    HW219887   2.935   1.644   6.891 -0.4230 -0.1186 -0.9265
 2751SOL     OW19888   0.712   2.030   6.578  0.1654  0.2571 -0.1729
 2751SOL    HW119889   0.668   1.999   6.499  0.1775  1.0659 -0.4983
 2751SOL    HW219890   0.661   1.979   6.640  0.5307  0.5437  0.3673
 2752SOL     OW19891   4.041   0.913  13.044  0.7087  0.1140 -0.0790
 2752SOL    HW119892   3.963   0.924  13.099  0.4434 -0.4344 -0.3483
 2752SOL    HW219893   4.107   0.968  13.086  0.3683  1.1788 -0.9305
 2753SOL     OW19894   0.685   4.170   2.309  0.2272  0.2327 -0.2706
 2753SOL    HW119895   0.718   4.221   2.383  1.6281 -1.0686 -0.0001
 2753SOL    HW219896   0.757   4.108   2.303  0.2285  0.1445  0.7314
 2754SOL     OW19897   2.573   2.568   6.728 -0.0182 -0.3673 -0.3006
 2754SOL    HW119898   2.574   2.584   6.634  1.4770  0.3376 -0.1686
 2754SOL    HW219899   2.480   2.584   6.743 -0.0449  1.6512 -2.6357
 2755SOL     OW19900   2.453   4.250   0.279  0.3872 -0.5340  0.4067
 2755SOL    HW119901   2.455   4.338   0.316 -1.1137  0.0539 -0.9350
 2755SOL    HW219902   2.516   4.262   0.209  0.7402 -1.2379  0.6020
 2756SOL     OW19903   2.046   1.105  12.353  0.4369 -0.2196  0.1553
 2756SOL    HW119904   2.033   1.089  12.260  0.2893 -1.6385  0.4259
 2756SOL    HW219905   2.097   1.031  12.386  1.8496  0.6109 -0.1618
 2757SOL     OW19906   3.454   1.696  12.660  0.4002  0.3350 -0.3296
 2757SOL    HW119907   3.495   1.719  12.577 -1.1796  1.4829 -0.7864
 2757SOL    HW219908   3.441   1.786  12.692  0.6896  0.3073 -0.1253
 2758SOL     OW19909   4.186   3.882   7.585  0.3263 -0.2091 -0.1831
 2758SOL    HW119910   4.132   3.830   7.645 -0.7025  0.1591 -0.7848
 2758SOL    HW219911   4.205   3.819   7.516 -0.2708  0.8396 -1.3105
 2759SOL     OW19912   0.603   0.603  14.775 -0.4319  0.1848 -0.1102
 2759SOL    HW119913   0.628   0.594  14.683  0.8051  2.0587  0.0476
 2759SOL    HW219914   0.676   0.566  14.823 -0.6449  0.8486  0.7374
 2760SOL     OW19915   2.864   3.238  14.326 -0.0877 -0.3612 -0.2074
 2760SOL    HW119916   2.864   3.144  14.342 -1.2108 -0.1764  0.8438
 2760SOL    HW219917   2.927   3.233  14.254  0.7858 -0.1911  0.5328
 2761SOL     OW19918   3.509   1.552   4.742  0.7904 -0.3046 -0.0917
 2761SOL    HW119919   3.471   1.624   4.691  1.7294  0.2844  0.0327
 2761SOL    HW219920   3.594   1.596   4.751  1.1263 -0.5173 -2.2254
 2762SOL     OW19921   0.432   4.247   8.370  0.2428 -0.7338 -0.3175
 2762SOL    HW119922   0.387   4.264   8.287  0.7095 -0.5620 -0.5314
 2762SOL    HW219923   0.449   4.155   8.354  1.3539 -0.7512  1.0381
 2763SOL     OW19924   3.543   3.405   8.985 -0.2455 -0.7165  0.0285
 2763SOL    HW119925   3.451   3.430   8.996 -0.6892 -2.6677  0.8137
 2763SOL    HW219926   3.531   3.335   8.921 -1.1900 -0.3242 -0.2301
 2764SOL     OW19927   0.247   1.248   6.108 -0.3171  0.3592 -0.4340
 2764SOL    HW119928   0.269   1.316   6.172 -0.7012 -0.2035  0.2981
 2764SOL    HW219929   0.156   1.276   6.098  0.0658  1.5138 -0.6814
 2765SOL     OW19930   2.933   2.826   0.689 -0.2489  0.2204 -0.3762
 2765SOL    HW119931   2.938   2.763   0.617 -1.1764 -0.8992  0.5398
 2765SOL    HW219932   2.905   2.763   0.755 -0.9737  0.4818 -0.4251
 2766SOL     OW19933   1.822   0.218  14.924  0.4530  0.5534 -0.3037
 2766SOL    HW119934   1.893   0.160  14.897  0.7128  0.3875  0.7240
 2766SOL    HW219935   1.875   0.267  14.986 -0.0228  1.5722 -0.7030
 2767SOL     OW19936   1.114   3.970   8.653  0.0333 -0.3384  0.3439
 2767SOL    HW119937   1.107   3.946   8.560  1.5606  0.5586  0.0015
 2767SOL    HW219938   1.026   4.008   8.657  0.8548  1.8561 -2.0579
 2768SOL     OW19939   3.293   1.331   7.673  0.2171  0.0640  0.4736
 2768SOL    HW119940   3.218   1.277   7.646 -0.3172  0.4415  1.2050
 2768SOL    HW219941   3.287   1.318   7.768  3.1203  2.6648  0.9890
 2769SOL     OW19942   0.798   4.557   0.843  0.3519  0.1892  0.1316
 2769SOL    HW119943   0.848   4.572   0.923  0.1542  2.7781 -0.2285
 2769SOL    HW219944   0.853   4.611   0.787  1.2076  0.3884  1.1607
 2770SOL     OW19945   3.908   2.220  17.664 -0.6289  0.1669  0.7779
 2770SOL    HW119946   3.992   2.261  17.685 -0.2633  1.0537 -2.3404
 2770SOL    HW219947   3.861   2.234   0.007  0.0988  2.1889  0.8391
 2771SOL     OW19948   2.805   0.168  14.422  0.1144 -0.0065 -0.2149
 2771SOL    HW119949   2.760   0.154  14.339 -0.0316  0.8403 -0.2813
 2771SOL    HW219950   2.743   0.214  14.478  1.7347 -1.8934  3.1022
 2772SOL     OW19951   0.613   2.195   3.001 -0.2180  0.3715  0.0915
 2772SOL    HW119952   0.677   2.160   2.938  1.4761 -0.8311  2.4929
 2772SOL    HW219953   0.536   2.207   2.945 -0.0090  0.0359 -0.2703
 2773SOL     OW19954   4.153   2.409   0.803  0.0338 -0.4593 -0.0138
 2773SOL    HW119955   4.169   2.486   0.858 -1.8265 -0.2600  0.2545
 2773SOL    HW219956   4.225   2.415   0.740 -0.2278 -1.3540 -0.3890
 2774SOL     OW19957   2.750   4.377  13.151  0.1521  0.3491  0.1161
 2774SOL    HW119958   2.799   4.451  13.186  0.7469  0.9054 -1.8716
 2774SOL    HW219959   2.814   4.307  13.163  0.2805  0.4674  0.1192
 2775SOL     OW19960   0.808   0.906  16.138  0.5955 -0.0547 -0.5326
 2775SOL    HW119961   0.722   0.902  16.095  0.8111 -0.6870 -0.9183
 2775SOL    HW219962   0.851   0.980  16.095  2.7461 -0.3595  1.0845
 2776SOL     OW19963   3.506   4.713   8.275 -0.2374  0.1960  0.3237
 2776SOL    HW119964   3.534   4.621   8.279 -0.4909  0.1519  1.2269
 2776SOL    HW219965   3.578   0.022   8.230  0.6067 -1.6447 -0.1164
 2777SOL     OW19966   4.083   2.036  16.679  0.0583  0.0208 -0.3442
 2777SOL    HW119967   4.064   1.954  16.725 -0.8436  0.9105  0.8736
 2777SOL    HW219968   4.002   2.087  16.683 -0.5303 -1.0096  0.9101
 2778SOL     OW19969   1.958   0.267   5.139  0.5197  0.0663  0.1602
 2778SOL    HW119970   1.989   0.290   5.052 -2.7103 -1.5316 -1.4138
 2778SOL    HW219971   2.030   0.298   5.195 -0.7625 -0.4079  2.0835
 2779SOL     OW19972   4.606   4.310   0.937  0.5231  0.0663 -0.1616
 2779SOL    HW119973   4.650   4.299   1.021  0.6473  0.8802 -0.1175
 2779SOL    HW219974   4.663   4.372   0.892  3.7831 -2.1888  0.8517
 2780SOL     OW19975   2.619   0.594   9.256 -0.4514 -0.0003  0.8924
 2780SOL    HW119976   2.587   0.504   9.245 -0.6484  0.1100  0.5871
 2780SOL    HW219977   2.714   0.581   9.260 -0.5109 -0.6136  0.3023
 2781SOL     OW19978   3.398   3.221   7.558  0.1660 -0.4977  0.1543
 2781SOL    HW119979   3.400   3.290   7.625 -1.7397 -0.5094  0.2148
 2781SOL    HW219980   3.458   3.155   7.593 -1.8549 -1.2777  2.1563
 2782SOL     OW19981   0.756   1.401  15.820 -0.0267 -0.2808 -0.6273
 2782SOL    HW119982   0.806   1.338  15.768 -1.8541 -0.9590 -1.5537
 2782SOL    HW219983   0.823   1.428  15.883 -0.8883  0.4442 -0.0388
 2783SOL     OW19984   3.746   1.028   7.196 -0.6419  0.0521  0.5899
 2783SOL    HW119985   3.741   1.119   7.225 -1.0341 -0.0774  0.9340
 2783SOL    HW219986   3.652   1.010   7.185 -0.3558 -2.4518  2.2719
 2784SOL     OW19987   0.853   0.443  16.440  0.3280 -0.2936 -0.2136
 2784SOL    HW119988   0.900   0.445  16.524  0.1594 -0.3565 -0.1177
 2784SOL    HW219989   0.762   0.466  16.456  0.6239  1.5084 -1.1022
 2785SOL     OW19990   0.047   1.919   4.976 -0.2509 -0.7358 -0.6506
 2785SOL    HW119991   0.123   1.913   5.034  0.1483  2.6606 -0.8545
 2785SOL    HW219992   0.068   1.853   4.910  0.6121  0.6020 -1.7095
 2786SOL     OW19993   3.410   1.935   3.258  0.2657 -0.2292  0.4694
 2786SOL    HW119994   3.371   1.987   3.328  0.5307 -0.0900  0.5108
 2786SOL    HW219995   3.327   1.906   3.219  1.6381 -0.4956 -2.2308
 2787SOL     OW19996   4.102   0.281   7.494 -0.0460  0.4814  0.5636
 2787SOL    HW119997   4.094   0.372   7.523  0.2874  1.5360 -2.6072
 2787SOL    HW219998   4.195   0.285   7.472 -0.5398  0.8714 -1.4447
 2788SOL     OW19999   1.574   1.172   3.153 -0.5575 -0.7154 -0.1821
 2788SOL    HW120000   1.512   1.103   3.174 -1.2251  0.5850  2.1091
 2788SOL    HW220001   1.531   1.213   3.077 -1.8271 -1.2241  0.2589
 2789SOL     OW20002   2.448   2.421   0.548 -0.1407  0.1416 -0.2061
 2789SOL    HW120003   2.414   2.510   0.560  1.7252  0.7997  0.1652
 2789SOL    HW220004   2.406   2.381   0.624  2.4575 -2.3445 -0.0966
 2790SOL     OW20005   3.927   1.864   8.199 -0.4409  0.0203  0.8054
 2790SOL    HW120006   3.972   1.948   8.210  0.7045 -0.3277 -1.1227
 2790SOL    HW220007   3.847   1.887   8.246 -1.1591 -2.6658  0.9071
 2791SOL     OW20008   3.242   2.268   0.009  0.0030 -0.2028 -0.2926
 2791SOL    HW120009   3.301   2.235   0.077  0.4156  0.7314 -0.1966
 2791SOL    HW220010   3.284   2.252  17.663  0.7698 -1.1492  0.2645
 2792SOL     OW20011   4.714   1.227   9.776  0.2632 -0.2859  0.0521
 2792SOL    HW120012   0.074   1.236   9.783  0.1698 -0.2005  1.1619
 2792SOL    HW220013   4.704   1.245   9.682  0.7889 -1.9535 -0.3303
 2793SOL     OW20014   1.732   4.480   5.185 -0.3893  0.4975  0.0911
 2793SOL    HW120015   1.738   4.507   5.094  0.6298 -0.1783 -0.0448
 2793SOL    HW220016   1.777   4.396   5.176 -1.4082  0.3395 -3.1950
 2794SOL     OW20017   4.453   0.869   6.085 -0.0966  0.5704  0.1236
 2794SOL    HW120018   4.504   0.822   6.020  0.4348 -1.6907  2.1829
 2794SOL    HW220019   4.516   0.934   6.117  0.2758 -0.7681  2.1305
 2795SOL     OW20020   2.301   0.396   6.988 -0.6426  0.4572 -0.1437
 2795SOL    HW120021   2.335   0.485   6.994 -0.3305  0.2850  0.7210
 2795SOL    HW220022   2.381   0.345   7.002  0.9840  2.1372 -3.4721
 2796SOL     OW20023   2.140   3.234   6.545 -0.1685  0.7503 -0.2130
 2796SOL    HW120024   2.161   3.148   6.582  1.3933  2.1142  2.0860
 2796SOL    HW220025   2.056   3.244   6.592  0.6223 -0.2423  1.4333
 2797SOL     OW20026   0.223   4.171   7.907 -0.4733 -0.4124  0.5339
 2797SOL    HW120027   0.187   4.242   7.855 -0.6501 -2.1948 -1.8012
 2797SOL    HW220028   0.147   4.114   7.901  0.3846 -1.5879  0.7469
 2798SOL     OW20029   1.578   2.474   5.835  0.2390 -0.1037  0.3607
 2798SOL    HW120030   1.590   2.448   5.744 -2.3382  3.0678 -0.8678
 2798SOL    HW220031   1.539   2.397   5.876 -0.7479  0.0037 -0.3828
 2799SOL     OW20032   3.511   2.964  12.801  0.6006 -0.0608 -0.1472
 2799SOL    HW120033   3.480   2.889  12.748  1.9804  0.8287 -2.2305
 2799SOL    HW220034   3.454   3.039  12.787  1.9478  0.9959 -0.0002
 2800SOL     OW20035   2.609   4.025   1.875 -0.2238  0.1477 -0.3293
 2800SOL    HW120036   2.565   3.947   1.841 -0.5685  0.4831 -0.6448
 2800SOL    HW220037   2.545   4.094   1.856  1.1952  2.2186  2.3953
 2801SOL     OW20038   0.168   4.508   6.672 -0.2001 -0.6841 -0.8051
 2801SOL    HW120039   0.235   4.442   6.687 -0.1366 -0.6822 -1.0691
 2801SOL    HW220040   0.219   4.589   6.660 -2.4831  0.7173 -1.0931
 2802SOL     OW20041   2.230   4.081   9.736 -0.0377  0.4308 -0.8266
 2802SOL    HW120042   2.168   4.083   9.809 -3.1330 -0.0283 -3.3873
 2802SOL    HW220043   2.194   4.004   9.692 -1.4844 -0.1072  1.3029
 2803SOL     OW20044   1.291   3.550   5.013 -0.4347 -0.5945  0.5730
 2803SOL    HW120045   1.201   3.581   5.003 -0.2981 -1.1253 -2.4255
 2803SOL    HW220046   1.339   3.626   5.047 -0.1398 -0.4943 -0.0669
 2804SOL     OW20047   4.664   0.234   4.018 -0.2144  0.4670  0.0199
 2804SOL    HW120048   4.690   0.318   3.980 -1.4043  1.2192  0.8791
 2804SOL    HW220049   4.686   0.239   4.111 -0.9445 -3.6646  0.3834
 2805SOL     OW20050   0.513   3.050   0.900 -0.2934 -0.2135 -0.4616
 2805SOL    HW120051   0.430   3.006   0.879  0.3737 -2.4060  1.5013
 2805SOL    HW220052   0.517   3.119   0.834 -2.0544  1.4152  1.1472
 2806SOL     OW20053   0.534   4.713   5.085 -0.0402  0.4611 -0.0851
 2806SOL    HW120054   0.461   4.683   5.138  0.7283  0.9339  1.2509
 2806SOL    HW220055   0.603   4.662   5.128  0.2943  0.7981 -0.2141
 2807SOL     OW20056   0.758   2.505   2.434  0.5598 -0.6699 -0.2922
 2807SOL    HW120057   0.663   2.495   2.427  0.5242  0.9057 -1.9331
 2807SOL    HW220058   0.782   2.501   2.342  0.2832  1.0157 -0.4359
 2808SOL     OW20059   1.060   1.162   1.428 -0.7246  0.5779 -0.5813
 2808SOL    HW120060   1.117   1.095   1.388 -0.7046  0.6148 -0.6143
 2808SOL    HW220061   0.984   1.147   1.373  0.6964 -1.3132 -2.0564
 2809SOL     OW20062   1.744   4.509   0.903  0.0063 -0.1679  0.4214
 2809SOL    HW120063   1.835   4.516   0.931 -0.4343  0.9598  1.5619
 2809SOL    HW220064   1.753   4.436   0.841 -0.4429  1.0182 -1.0508
 2810SOL     OW20065   4.021   0.880  16.613 -0.0068 -0.1878 -0.3715
 2810SOL    HW120066   4.022   0.788  16.587 -2.1783 -0.1803 -0.4457
 2810SOL    HW220067   3.929   0.884  16.641  0.0296 -1.2917 -0.0903
 2811SOL     OW20068   3.782   4.397   0.260 -0.1456  0.0820  0.4551
 2811SOL    HW120069   3.841   4.333   0.299 -0.2155  0.7467  1.6500
 2811SOL    HW220070   3.698   4.351   0.267 -0.7233  1.4960  2.9635
 2812SOL     OW20071   3.420   1.574   3.212 -0.1617 -0.1833 -0.3222
 2812SOL    HW120072   3.443   1.633   3.141 -1.5593  1.5628  0.6603
 2812SOL    HW220073   3.325   1.564   3.211 -0.2562  0.7241  0.2100
 2813SOL     OW20074   1.527   1.775  13.261  0.4342  0.4527 -0.2774
 2813SOL    HW120075   1.614   1.772  13.222 -0.1608  0.0298 -1.5944
 2813SOL    HW220076   1.507   1.684  13.284 -0.6181  0.8452  0.3582
 2814SOL     OW20077   1.800   4.305   5.501  0.5927 -0.5699  0.6186
 2814SOL    HW120078   1.723   4.269   5.546 -0.3262  0.1298 -0.3868
 2814SOL    HW220079   1.770   4.395   5.491  0.0499 -0.5229  2.7630
 2815SOL     OW20080   3.862   1.231   5.098  0.2449 -0.3208  0.6463
 2815SOL    HW120081   3.940   1.191   5.059  0.6987  1.8429 -0.6239
 2815SOL    HW220082   3.858   1.198   5.188 -3.4208  1.8323  1.2603
 2816SOL     OW20083   2.442   1.337   2.736 -0.5306 -0.2406 -0.2764
 2816SOL    HW120084   2.478   1.425   2.727  0.3170 -0.5729 -0.2159
 2816SOL    HW220085   2.507   1.279   2.695 -1.6533 -0.8670 -1.1620
 2817SOL     OW20086   1.986   0.794  17.086 -0.3594 -0.0571  0.8793
 2817SOL    HW120087   2.067   0.744  17.082 -0.2191  0.0767  1.9361
 2817SOL    HW220088   1.971   0.808  16.993  1.3626  2.8068  1.0339
 2818SOL     OW20089   1.696   3.918   4.842  0.1359 -0.4986 -0.4150
 2818SOL    HW120090   1.642   3.984   4.798  0.3780  0.4900  0.7713
 2818SOL    HW220091   1.776   3.960   4.873 -0.5250 -0.9309  1.8753
 2819SOL     OW20092   2.813   0.504   4.524 -0.6639  0.1116  0.3772
 2819SOL    HW120093   2.778   0.438   4.464 -0.5681  1.6298 -1.3372
 2819SOL    HW220094   2.737   0.561   4.522  1.1572  2.5579  1.3177
 2820SOL     OW20095   0.235   3.019  17.626 -0.3045 -0.0633 -0.2900
 2820SOL    HW120096   0.296   2.972  17.683  0.2599  0.2492 -0.6362
 2820SOL    HW220097   0.266   2.988  17.541  0.1513  0.2923 -0.2521
 2821SOL     OW20098   3.372   2.163   3.852 -0.3174 -0.5641  0.2509
 2821SOL    HW120099   3.353   2.221   3.926  2.4361 -0.6660  1.0465
 2821SOL    HW220100   3.299   2.103   3.867 -0.9882 -0.0831 -1.1263
 2822SOL     OW20101   0.743   1.905   3.564  0.0081 -0.5800  0.3990
 2822SOL    HW120102   0.698   1.886   3.482 -0.1690 -1.8084  0.7820
 2822SOL    HW220103   0.738   2.001   3.565  2.1954 -0.4435 -0.4551
 2823SOL     OW20104   4.400   1.774  16.278 -0.2516  0.0476  0.3220
 2823SOL    HW120105   4.367   1.762  16.367  0.0088  2.1224  0.6964
 2823SOL    HW220106   4.369   1.699  16.228  2.1590  0.0918 -1.2533
 2824SOL     OW20107   3.715   0.331   5.927  0.1597 -0.2652  0.0194
 2824SOL    HW120108   3.694   0.303   5.838 -0.4293  0.9030 -0.2109
 2824SOL    HW220109   3.704   0.426   5.923  1.5774 -0.0802  0.5145
 2825SOL     OW20110   2.032   2.117  13.209 -0.1824 -0.0929 -0.2943
 2825SOL    HW120111   1.954   2.102  13.155 -1.0144 -2.7064  1.6149
 2825SOL    HW220112   2.003   2.108  13.300  1.8690 -0.2822  0.3442
 2826SOL     OW20113   1.927   0.769   2.264  0.6468  0.0342 -0.4843
 2826SOL    HW120114   1.931   0.733   2.352  2.0121  0.5564 -0.3357
 2826SOL    HW220115   1.845   0.735   2.227 -0.3762  2.9749 -0.8798
 2827SOL     OW20116   1.364   1.301   4.654  0.0082 -0.2791  0.4824
 2827SOL    HW120117   1.289   1.271   4.705  0.4931  1.6232  2.3154
 2827SOL    HW220118   1.322   1.321   4.570  2.3858  3.2856  0.1529
 2828SOL     OW20119   3.109   1.347  15.512 -0.5346 -0.1758  0.0072
 2828SOL    HW120120   3.096   1.399  15.591 -0.4216 -0.3598  0.1471
 2828SOL    HW220121   3.201   1.324  15.519 -0.1355  1.8288  1.4553
 2829SOL     OW20122   0.601   2.040   5.222 -0.6387 -0.1653  0.1924
 2829SOL    HW120123   0.667   2.066   5.158  0.0806 -0.4269  0.8326
 2829SOL    HW220124   0.628   2.091   5.298  0.5326  0.6142 -0.7382
 2830SOL     OW20125   2.492   4.420   4.249  0.2052  0.5928  0.2409
 2830SOL    HW120126   2.522   4.489   4.190  0.4416 -0.2872 -0.6825
 2830SOL    HW220127   2.529   4.451   4.331  1.1086 -0.7668  0.3467
 2831SOL     OW20128   3.915   1.252  10.151 -0.0487  0.2685  0.2298
 2831SOL    HW120129   3.908   1.325  10.089  1.5656  1.5369  1.5286
 2831SOL    HW220130   3.830   1.209  10.147 -0.3330  0.6632  1.7398
 2832SOL     OW20131   0.088   0.362   3.630  0.6119  0.0369  0.2848
 2832SOL    HW120132   0.022   0.410   3.579  0.2511 -1.1070 -0.3226
 2832SOL    HW220133   0.153   0.426   3.659  0.8924 -0.7527  1.3876
 2833SOL     OW20134   2.600   1.576   9.183  0.3493 -0.1072 -1.0182
 2833SOL    HW120135   2.508   1.587   9.206  0.1804 -1.6438 -0.9193
 2833SOL    HW220136   2.642   1.654   9.219 -0.1802 -1.4765  2.5645
 2834SOL     OW20137   4.304   2.182   1.964  0.1217 -0.8841 -0.0935
 2834SOL    HW120138   4.304   2.140   2.050  2.1216  1.2201  0.9567
 2834SOL    HW220139   4.224   2.233   1.978  0.6011  0.6405 -2.9446
 2835SOL     OW20140   0.231   1.232   0.255  0.5946 -0.1992  0.4203
 2835SOL    HW120141   0.206   1.279   0.334 -1.9490 -0.4415 -0.2350
 2835SOL    HW220142   0.241   1.296   0.184 -2.5024 -1.7232 -1.4064
 2836SOL     OW20143   3.428   2.417   7.770 -0.3099 -0.5069  0.6977
 2836SOL    HW120144   3.433   2.321   7.774  0.0495 -0.4691  1.2157
 2836SOL    HW220145   3.514   2.438   7.807 -0.4208 -0.7344  1.0908
 2837SOL     OW20146   4.119   3.925   4.855 -1.0156 -0.7683 -0.6532
 2837SOL    HW120147   4.101   3.960   4.943  0.7700 -1.2502 -0.0922
 2837SOL    HW220148   4.212   3.947   4.845 -0.7667 -0.4322  2.2941
 2838SOL     OW20149   2.991   1.605  16.154  0.0527  0.4208 -0.1733
 2838SOL    HW120150   3.073   1.641  16.121 -2.0703  1.1394 -4.7629
 2838SOL    HW220151   2.933   1.667  16.109 -0.4599  0.2375  0.2389
 2839SOL     OW20152   3.161   1.334   8.270  0.0184 -0.3764 -0.1608
 2839SOL    HW120153   3.168   1.239   8.283  2.0254 -0.2205 -0.1317
 2839SOL    HW220154   3.239   1.357   8.220 -0.4089  1.7309  0.1543
 2840SOL     OW20155   3.096   1.383   5.901 -0.3087 -0.1596  0.3315
 2840SOL    HW120156   3.180   1.413   5.935 -0.7594 -2.5777  3.6196
 2840SOL    HW220157   3.103   1.428   5.817 -0.8611 -1.2420 -0.2964
 2841SOL     OW20158   4.363   1.397   9.269  0.1925 -0.1735 -0.1456
 2841SOL    HW120159   4.422   1.473   9.269 -1.3082  0.9970 -2.4967
 2841SOL    HW220160   4.280   1.439   9.246 -0.4803 -0.1151  2.4673
 2842SOL     OW20161   1.946   3.679   5.833  0.1195  0.1311 -0.1610
 2842SOL    HW120162   2.030   3.725   5.842  0.9539 -1.6195  1.0664
 2842SOL    HW220163   1.931   3.670   5.927 -1.5733 -1.8914 -0.6342
 2843SOL     OW20164   3.674   2.375  15.329  0.4770 -0.1705 -0.1640
 2843SOL    HW120165   3.584   2.400  15.308  0.2162 -0.4895  0.5789
 2843SOL    HW220166   3.664   2.281  15.344  0.0306 -0.1666 -0.4540
 2844SOL     OW20167   1.763   1.527   7.628  0.1145 -0.4390  0.0235
 2844SOL    HW120168   1.739   1.609   7.672  0.4480  0.8126 -2.1146
 2844SOL    HW220169   1.802   1.550   7.543  0.2527 -2.4446 -0.4597
 2845SOL     OW20170   3.958   3.038   2.123  0.4064 -0.0926 -0.0665
 2845SOL    HW120171   3.938   2.945   2.126  1.1843 -0.2126  1.2400
 2845SOL    HW220172   3.906   3.064   2.199  1.5333 -0.4773  0.8284
 2846SOL     OW20173   0.843   2.077   6.216  0.3421 -0.4962  0.1519
 2846SOL    HW120174   0.794   2.133   6.277  2.6206  2.1377 -0.4475
 2846SOL    HW220175   0.837   2.131   6.137 -1.6830  0.5757  1.0226
 2847SOL     OW20176   3.793   3.243  14.198 -0.0283 -0.0762  0.0693
 2847SOL    HW120177   3.762   3.239  14.289 -0.0099 -1.2834  0.0129
 2847SOL    HW220178   3.889   3.249  14.203  0.0441 -2.5853  1.8593
 2848SOL     OW20179   1.673   2.041   2.909  0.1579 -0.0539 -0.2769
 2848SOL    HW120180   1.695   1.961   2.862  1.4070 -0.5629  1.1599
 2848SOL    HW220181   1.730   2.043   2.986 -0.2244  0.2326  0.0021
 2849SOL     OW20182   1.014   1.038   6.728 -0.4984  0.5417  0.6082
 2849SOL    HW120183   0.962   1.117   6.745 -2.9890 -0.8709 -0.3931
 2849SOL    HW220184   1.044   1.054   6.638  2.5162  1.9724  1.8699
 2850SOL     OW20185   2.888   2.859   7.499 -0.3152  0.0691  0.3187
 2850SOL    HW120186   2.919   2.902   7.420  0.9354 -1.8488 -0.2291
 2850SOL    HW220187   2.808   2.910   7.514  0.2330  1.1102 -0.3686
 2851SOL     OW20188   0.787   1.785  17.613  0.5724  0.3278 -0.3717
 2851SOL    HW120189   0.792   1.875  17.646  0.0297 -0.2497  1.2663
 2851SOL    HW220190   0.694   1.764  17.625  0.8735 -0.5026  0.4357
 2852SOL     OW20191   1.247   1.106   0.742 -0.3510  0.0283 -0.6665
 2852SOL    HW120192   1.205   1.185   0.707  0.6922  0.9743  0.2335
 2852SOL    HW220193   1.196   1.040   0.695  0.6882 -1.9597  0.9878
 2853SOL     OW20194   3.277   3.641   1.005  0.4069  0.3638  0.1361
 2853SOL    HW120195   3.305   3.638   1.097 -1.1448  1.6453  0.6455
 2853SOL    HW220196   3.327   3.722   0.994  1.6469 -0.1520  1.9300
 2854SOL     OW20197   3.507   3.168   6.739 -0.5945 -0.2281 -0.2505
 2854SOL    HW120198   3.522   3.131   6.652 -2.4023  0.5792 -0.9061
 2854SOL    HW220199   3.585   3.224   6.742 -0.2424 -0.6552 -1.2411
 2855SOL     OW20200   0.178   0.842   0.746  0.3911 -0.0509 -0.1528
 2855SOL    HW120201   0.235   0.887   0.684  1.5791  0.7971  1.5522
 2855SOL    HW220202   0.100   0.828   0.692 -0.7275 -2.9883  2.2084
 2856SOL     OW20203   1.329   0.675   9.380 -0.1732  0.2131  0.2874
 2856SOL    HW120204   1.248   0.671   9.430  0.6449 -0.7860  1.5324
 2856SOL    HW220205   1.335   0.770   9.373  0.1151  0.3049  1.8539
 2857SOL     OW20206   1.379   2.664   8.382 -0.9239 -0.3353 -0.5825
 2857SOL    HW120207   1.291   2.683   8.416 -0.8355  0.7212 -0.9385
 2857SOL    HW220208   1.418   2.695   8.464  0.0157  1.6811 -1.7957
 2858SOL     OW20209   4.550   1.910  12.835 -0.0736  0.2744  0.4046
 2858SOL    HW120210   4.572   1.818  12.817 -1.7415  0.3841 -2.2343
 2858SOL    HW220211   4.639   1.934  12.860  0.1805 -0.1711 -0.0569
 2859SOL     OW20212   1.180   2.447   4.022  0.0358  0.1214 -1.1122
 2859SOL    HW120213   1.270   2.465   4.048  0.2533 -3.2861  0.4697
 2859SOL    HW220214   1.142   2.518   4.075 -1.3501 -2.1278  0.8974
 2860SOL     OW20215   3.669   4.031   4.774 -0.7084 -0.3006 -0.3853
 2860SOL    HW120216   3.718   3.960   4.734 -3.2887 -2.3257  0.0263
 2860SOL    HW220217   3.731   4.030   4.847  0.3502  1.1514 -1.2571
 2861SOL     OW20218   2.992   4.064   7.719  0.1409  0.0318  0.0390
 2861SOL    HW120219   2.989   4.144   7.770 -3.2512 -1.9512  2.9548
 2861SOL    HW220220   2.957   4.002   7.783  3.1665  0.4829  2.1499
 2862SOL     OW20221   0.824   0.953   8.142  0.0348  0.4111  0.4486
 2862SOL    HW120222   0.901   0.927   8.193  0.1614  0.5156  0.3121
 2862SOL    HW220223   0.821   1.047   8.160 -1.4772  0.3000  0.7267
 2863SOL     OW20224   3.679   0.056   3.790  0.2536  0.2398  0.5158
 2863SOL    HW120225   3.605   0.116   3.785  1.8372  2.2182  0.8351
 2863SOL    HW220226   3.721   0.041   3.705  0.0817  1.2897  0.2500
 2864SOL     OW20227   0.636   3.432  12.456 -0.0711  0.6723  0.3975
 2864SOL    HW120228   0.556   3.439  12.404  0.0874  1.5167  0.2736
 2864SOL    HW220229   0.649   3.522  12.484  1.0308  1.9669 -4.3969
 2865SOL     OW20230   3.411   2.626   4.032  0.4602 -0.0921  0.6806
 2865SOL    HW120231   3.482   2.662   3.977 -0.9796 -0.9733 -1.7679
 2865SOL    HW220232   3.451   2.637   4.118  0.4687  1.2369  0.5029
 2866SOL     OW20233   1.918   3.673  16.900 -0.3913 -0.3219  0.3510
 2866SOL    HW120234   1.883   3.622  16.973 -1.5352  0.8549  0.6290
 2866SOL    HW220235   1.951   3.607  16.839 -0.1276 -1.1832  1.4238
 2867SOL     OW20236   3.178   1.924   6.908  0.0583 -0.2034 -0.3797
 2867SOL    HW120237   3.261   1.970   6.896  0.6846 -0.7792  1.8501
 2867SOL    HW220238   3.114   1.990   6.881 -1.3972 -1.7320 -0.6771
 2868SOL     OW20239   4.027   0.024   4.512 -0.1583  0.5706  0.1656
 2868SOL    HW120240   3.944   4.716   4.530 -0.2543 -0.0328 -1.7424
 2868SOL    HW220241   3.985   0.109   4.495  0.7719  1.2135  1.0478
 2869SOL     OW20242   2.593   1.863   7.654  0.0268  0.1872  0.0585
 2869SOL    HW120243   2.545   1.934   7.612  0.9998  1.2407  0.7269
 2869SOL    HW220244   2.679   1.904   7.659  0.7223 -1.2183 -0.2162
 2870SOL     OW20245   4.158   3.482  15.502 -0.1072  0.1259  0.1330
 2870SOL    HW120246   4.109   3.500  15.582  0.6963 -0.0595  0.6683
 2870SOL    HW220247   4.106   3.412  15.463  1.7727 -0.8384 -0.6802
 2871SOL     OW20248   3.520   1.040   7.534 -0.3090  0.4327  0.1470
 2871SOL    HW120249   3.451   0.974   7.528  0.5247 -0.5166  1.0086
 2871SOL    HW220250   3.490   1.103   7.468  1.1320  0.0175 -0.8885
 2872SOL     OW20251   3.215   0.716   7.685 -0.3582 -0.4187 -0.3457
 2872SOL    HW120252   3.136   0.711   7.631 -0.5573  0.1426 -0.1039
 2872SOL    HW220253   3.257   0.795   7.651 -1.1240 -0.3759 -1.1905
 2873SOL     OW20254   3.826   0.320   6.377 -0.4630  0.5988 -0.6861
 2873SOL    HW120255   3.868   0.250   6.326  0.0617 -0.2465  0.9072
 2873SOL    HW220256   3.835   0.388   6.311 -0.5398  0.6907 -0.6007
 2874SOL     OW20257   0.917   1.179   9.311  0.1932 -0.2365  0.0084
 2874SOL    HW120258   0.947   1.144   9.227 -0.2632  0.5193 -0.4641
 2874SOL    HW220259   0.934   1.273   9.305 -1.6041  0.0772 -0.2282
 2875SOL     OW20260   3.666   3.924   2.094 -0.2729  0.4250 -0.3755
 2875SOL    HW120261   3.746   3.903   2.046  0.7079 -0.7860  1.7887
 2875SOL    HW220262   3.619   3.956   2.017 -0.7637  2.1564  0.6539
 2876SOL     OW20263   4.470   0.759   0.127 -0.1799 -0.0870 -0.1144
 2876SOL    HW120264   4.563   0.751   0.149 -0.4030  1.1455  1.2872
 2876SOL    HW220265   4.443   0.778   0.217 -2.0715  1.1157 -0.9403
 2877SOL     OW20266   1.640   0.514   6.948  0.1039 -0.0656  0.0518
 2877SOL    HW120267   1.638   0.576   7.021  1.6920  1.0296 -0.8302
 2877SOL    HW220268   1.558   0.524   6.900 -0.6451 -0.2493  1.3204
 2878SOL     OW20269   2.166   1.376   2.796  0.2974  0.1059  0.2382
 2878SOL    HW120270   2.255   1.402   2.771  0.3700 -0.6413 -0.2804
 2878SOL    HW220271   2.120   1.391   2.714 -0.4152  2.4469  1.0705
 2879SOL     OW20272   3.536   3.793   9.340 -0.1550  0.6773  0.2303
 2879SOL    HW120273   3.476   3.725   9.308 -1.2718  0.4355  2.8740
 2879SOL    HW220274   3.617   3.765   9.297 -1.5389 -1.7351 -0.7957
 2880SOL     OW20275   1.319   2.189  11.346  0.6012 -0.1416 -0.2173
 2880SOL    HW120276   1.253   2.186  11.276 -0.7757  1.3052  1.0285
 2880SOL    HW220277   1.403   2.178  11.300  0.2038  0.4371 -1.0836
 2881SOL     OW20278   4.106   0.706  12.888  0.3331 -0.5754 -0.0771
 2881SOL    HW120279   4.089   0.784  12.941 -0.6546 -0.7125 -0.1915
 2881SOL    HW220280   4.156   0.645  12.943 -3.0195 -0.9721  2.4696
 2882SOL     OW20281   2.492   0.407  13.246  0.1646  0.4488  0.4135
 2882SOL    HW120282   2.568   0.364  13.286 -1.5616 -1.1431  1.9886
 2882SOL    HW220283   2.543   0.482  13.216  0.5918  0.1920  0.5040
 2883SOL     OW20284   2.602   2.380   3.432  0.2712  0.0005  0.2025
 2883SOL    HW120285   2.601   2.296   3.385  0.5963 -1.2002  2.3505
 2883SOL    HW220286   2.694   2.382   3.457  0.1084  0.9271  0.7124
 2884SOL     OW20287   0.101   0.627   5.924 -0.5591 -0.0924 -0.0922
 2884SOL    HW120288   0.165   0.624   5.996  0.6038  0.7376 -1.0830
 2884SOL    HW220289   0.135   0.572   5.854 -2.0112 -1.0171 -0.0704
 2885SOL     OW20290   2.226   3.542   1.766  0.2124 -0.0120  0.5680
 2885SOL    HW120291   2.151   3.574   1.816 -0.7163 -0.0764 -0.7997
 2885SOL    HW220292   2.298   3.574   1.820  1.9764 -1.9508 -0.6269
 2886SOL     OW20293   1.865   1.863  10.277 -0.0020 -0.2289 -0.6193
 2886SOL    HW120294   1.806   1.921  10.325 -0.3263 -1.9144  0.9984
 2886SOL    HW220295   1.913   1.923  10.220  0.5663  1.6750  1.8532
 2887SOL     OW20296   0.673   2.969   3.709  0.3299 -0.3153  0.7527
 2887SOL    HW120297   0.749   3.023   3.728  1.0736 -0.4788 -1.8388
 2887SOL    HW220298   0.610   3.028   3.669  0.6964 -1.1084 -0.9694
 2888SOL     OW20299   0.951   2.378   6.163 -0.8162  0.1886 -0.0633
 2888SOL    HW120300   1.027   2.320   6.172  0.3109  2.1098  2.9471
 2888SOL    HW220301   0.971   2.439   6.235 -0.8853  0.7697 -0.5349
 2889SOL     OW20302   0.652   4.604   8.146  0.0786 -0.4565  0.1817
 2889SOL    HW120303   0.561   4.582   8.166 -0.3303  0.4725 -0.6510
 2889SOL    HW220304   0.667   4.565   8.060  0.8276 -0.2484  0.2242
 2890SOL     OW20305   0.714   0.434  16.028 -0.6946  0.0279  0.3738
 2890SOL    HW120306   0.634   0.472  16.066 -2.0378 -1.4681 -0.9799
 2890SOL    HW220307   0.776   0.497  16.066 -0.3748 -0.1794  0.1901
 2891SOL     OW20308   0.646   2.237  10.346 -0.1146  0.5709 -0.1164
 2891SOL    HW120309   0.712   2.276  10.288  0.8299 -1.4419 -0.4017
 2891SOL    HW220310   0.594   2.317  10.360 -0.2650  0.6675 -1.1499
 2892SOL     OW20311   3.635   4.661   9.624 -0.4361 -0.0544  0.0007
 2892SOL    HW120312   3.617   0.018   9.602 -0.9267  0.0204  0.6977
 2892SOL    HW220313   3.695   4.628   9.557  0.1309  0.8670  0.0506
 2893SOL     OW20314   0.391   3.199   7.448  0.2900 -0.1780 -0.0503
 2893SOL    HW120315   0.476   3.160   7.468 -0.2370 -0.9179  0.7403
 2893SOL    HW220316   0.403   3.221   7.355 -0.5377 -1.5733 -0.5037
 2894SOL     OW20317   0.559   4.086   8.596  0.5586  0.0909 -0.6146
 2894SOL    HW120318   0.568   4.044   8.510  1.4977  2.3364 -1.6231
 2894SOL    HW220319   0.476   4.056   8.631 -0.1320  0.3771 -1.9933
 2895SOL     OW20320   3.390   1.399  11.164 -1.1338  0.3228 -0.2839
 2895SOL    HW120321   3.385   1.341  11.239 -2.6807  1.2101  0.2990
 2895SOL    HW220322   3.436   1.474  11.204  0.6992 -1.7786  1.5441
 2896SOL     OW20323   4.086   3.672   3.109 -0.0236 -0.4764  0.6963
 2896SOL    HW120324   4.134   3.729   3.170  0.9393 -0.7272  0.1690
 2896SOL    HW220325   4.149   3.603   3.090 -1.0936 -1.5973  1.2622
 2897SOL     OW20326   0.508   3.274  11.227  0.1141 -0.5577 -0.0847
 2897SOL    HW120327   0.475   3.279  11.317  1.8298 -0.2668  0.5308
 2897SOL    HW220328   0.483   3.360  11.193 -1.6053 -1.6204 -1.5218
 2898SOL     OW20329   3.312   3.571   4.944  0.4215 -0.7460 -0.3968
 2898SOL    HW120330   3.390   3.581   4.889 -0.8803  1.8980 -1.7657
 2898SOL    HW220331   3.343   3.592   5.032 -0.0726 -0.9176 -0.1858
 2899SOL     OW20332   2.161   0.885   2.167 -0.0938 -0.3188  0.3503
 2899SOL    HW120333   2.079   0.849   2.200 -0.9134  0.6632 -0.6113
 2899SOL    HW220334   2.189   0.952   2.229 -1.0334  0.3503  0.0398
 2900SOL     OW20335   2.902   0.806   3.491 -0.0889  0.1781  0.2972
 2900SOL    HW120336   2.855   0.725   3.510  1.6408 -1.1415 -1.1369
 2900SOL    HW220337   2.877   0.869   3.558  0.9976 -0.4865  1.3188
 2901SOL     OW20338   2.340   1.651  15.343  0.1723  0.0841  0.3166
 2901SOL    HW120339   2.368   1.561  15.355  0.4793 -0.1777 -2.3834
 2901SOL    HW220340   2.254   1.649  15.301 -0.5515  0.3779  1.7655
 2902SOL     OW20341   4.622   0.775   8.545  0.2982  0.5429 -0.4413
 2902SOL    HW120342   4.714   0.763   8.520  0.8227  2.3875  0.5783
 2902SOL    HW220343   4.633   0.835   8.619 -0.3891  1.7113 -1.2886
 2903SOL     OW20344   3.078   0.368  13.414  0.0164  0.2007  0.6133
 2903SOL    HW120345   3.061   0.323  13.497 -0.7243 -2.4283 -0.9496
 2903SOL    HW220346   3.173   0.370  13.411  0.0500 -1.6157  0.3811
 2904SOL     OW20347   1.218   0.299   9.823 -0.3524 -0.3137 -0.1026
 2904SOL    HW120348   1.297   0.295   9.877 -0.0527  3.0910 -0.2419
 2904SOL    HW220349   1.250   0.273   9.737 -0.9920  1.0551 -0.7536
 2905SOL     OW20350   0.149   3.810   6.619  0.3239 -0.7157  0.4898
 2905SOL    HW120351   0.191   3.771   6.543 -0.7847  0.3650 -0.6769
 2905SOL    HW220352   0.056   3.791   6.607  0.8224 -3.7425  1.1904
 2906SOL     OW20353   1.846   1.276   8.710  0.1876 -0.0016  0.2415
 2906SOL    HW120354   1.869   1.185   8.695  0.7910  0.1176  0.4827
 2906SOL    HW220355   1.820   1.274   8.802 -1.1435  1.3694 -0.0915
 2907SOL     OW20356   2.531   0.072   4.718  0.3287 -0.3207 -0.3039
 2907SOL    HW120357   2.598   0.132   4.686  0.7207 -1.7475 -2.2112
 2907SOL    HW220358   2.480   0.064   4.637 -0.4663 -0.7632  0.2393
 2908SOL     OW20359   0.362   3.320   4.701  0.0264 -0.2621 -0.2499
 2908SOL    HW120360   0.344   3.270   4.622 -0.8292  0.3545 -0.4564
 2908SOL    HW220361   0.284   3.298   4.753  0.2080 -2.2068 -0.8221
 2909SOL     OW20362   2.234   4.296   6.021 -0.0700  0.0325  0.2859
 2909SOL    HW120363   2.226   4.373   6.077 -1.9255  0.8625 -1.0844
 2909SOL    HW220364   2.155   4.252   6.054 -0.1954 -0.4487 -0.6485
 2910SOL     OW20365   1.139   1.887  16.229 -0.2750 -0.2513 -0.0064
 2910SOL    HW120366   1.213   1.896  16.289  0.0648 -0.6170 -0.3689
 2910SOL    HW220367   1.098   1.972  16.216 -1.1717 -0.4138  1.7735
 2911SOL     OW20368   1.040   0.283   4.799 -0.4329  0.2784  0.8270
 2911SOL    HW120369   1.022   0.268   4.892  0.0772 -1.6640  0.6004
 2911SOL    HW220370   0.983   0.361   4.792 -0.1801  0.5423  1.7593
 2912SOL     OW20371   1.043   1.202   4.258  0.3152  0.1774  0.3300
 2912SOL    HW120372   1.038   1.117   4.214  1.0362  2.0289 -3.3585
 2912SOL    HW220373   1.008   1.264   4.193 -0.9261  0.3661  1.1907
 2913SOL     OW20374   3.271   0.359   4.718  0.2011  0.2378  0.3125
 2913SOL    HW120375   3.281   0.452   4.736  0.6362  0.5380 -1.4004
 2913SOL    HW220376   3.339   0.361   4.650  0.5436 -1.8581  0.5764
 2914SOL     OW20377   1.932   1.166  13.800 -0.2088 -0.2617  0.1449
 2914SOL    HW120378   1.920   1.220  13.721 -1.7326 -0.6969  0.0705
 2914SOL    HW220379   1.850   1.193  13.841 -0.0864  0.3385 -0.0105
 2915SOL     OW20380   2.298   1.497   5.643  0.7314 -0.4408 -0.2207
 2915SOL    HW120381   2.236   1.474   5.712 -0.3807  1.4427 -0.6285
 2915SOL    HW220382   2.311   1.590   5.657 -1.2976  0.0382 -1.4857
 2916SOL     OW20383   1.335   1.323   0.934  0.0181 -0.1623 -0.0322
 2916SOL    HW120384   1.403   1.268   0.973  0.2517  1.0689  1.3054
 2916SOL    HW220385   1.381   1.315   0.851  1.4214  0.4872  0.6808
 2917SOL     OW20386   3.962   2.024  12.993 -0.2710 -0.4615  0.2025
 2917SOL    HW120387   3.965   2.046  12.900 -1.9230 -0.3592  0.1714
 2917SOL    HW220388   3.889   2.077  13.024 -2.2336 -1.3191 -2.8926
 2918SOL     OW20389   1.899   3.148  15.084 -0.3947 -0.3572 -0.4050
 2918SOL    HW120390   1.836   3.195  15.028 -0.4931  1.2276  1.0318
 2918SOL    HW220391   1.977   3.153  15.029 -0.2524  2.6271  0.0365
 2919SOL     OW20392   4.210   4.230   2.630  0.0379 -0.1829  0.2318
 2919SOL    HW120393   4.129   4.199   2.588 -0.3763  1.1103  0.0478
 2919SOL    HW220394   4.243   4.289   2.562  0.9646  0.5561  1.3345
 2920SOL     OW20395   2.316   2.404  14.774  0.1919  0.3722  0.0560
 2920SOL    HW120396   2.275   2.346  14.709  3.3940 -1.5174 -0.2634
 2920SOL    HW220397   2.241   2.414  14.834  0.8836 -1.5096  1.2464
 2921SOL     OW20398   3.327   2.974   9.038  0.0196 -0.3513  0.6962
 2921SOL    HW120399   3.417   2.957   9.012 -0.3598  0.0811 -0.9674
 2921SOL    HW220400   3.284   2.900   8.996 -1.6195 -0.6596  2.9128
 2922SOL     OW20401   0.406   2.778   4.880  0.0672  0.4200  0.3077
 2922SOL    HW120402   0.462   2.819   4.814  0.5954 -1.2938 -0.3244
 2922SOL    HW220403   0.339   2.738   4.825  1.6173 -0.7331 -0.7334
 2923SOL     OW20404   2.346   2.651   0.259 -0.1090  0.4975 -0.5310
 2923SOL    HW120405   2.358   2.710   0.333 -0.1072  2.5863 -2.2230
 2923SOL    HW220406   2.416   2.591   0.286  0.7421  0.2731 -3.2892
 2924SOL     OW20407   0.953   1.728   9.667  0.0308 -0.0482 -0.0980
 2924SOL    HW120408   1.034   1.774   9.646 -0.7321  2.3633  2.2871
 2924SOL    HW220409   0.892   1.802   9.674 -1.7514 -1.5224  0.0446
 2925SOL     OW20410   1.912   1.319   2.327  0.3604 -0.0420 -0.3697
 2925SOL    HW120411   1.870   1.237   2.301 -0.6436 -0.0755  1.3166
 2925SOL    HW220412   1.840   1.373   2.359  0.7325 -0.8144  1.7685
 2926SOL     OW20413   3.795   4.433  14.155  0.3677  0.2124 -0.2926
 2926SOL    HW120414   3.781   4.475  14.240 -0.8945 -1.9254  0.5361
 2926SOL    HW220415   3.724   4.374  14.133 -0.3339  1.0816 -0.3815
 2927SOL     OW20416   3.549   1.794   8.832  0.2853 -0.4408 -0.1831
 2927SOL    HW120417   3.601   1.805   8.752 -0.5022 -0.2117 -0.6694
 2927SOL    HW220418   3.593   1.718   8.870  0.4566 -0.2623 -0.0168
 2928SOL     OW20419   0.856   4.666   5.456  0.0101 -0.2555 -0.0783
 2928SOL    HW120420   0.910   4.595   5.422 -1.9326 -2.6074  1.6717
 2928SOL    HW220421   0.779   4.620   5.490  0.0021  0.2186  0.5489
 2929SOL     OW20422   0.574   1.853   6.021 -0.5924  0.0337 -0.0075
 2929SOL    HW120423   0.659   1.814   6.004 -0.0430  0.1689  2.3519
 2929SOL    HW220424   0.572   1.909   5.944 -0.6381 -1.6809 -1.2439
 2930SOL     OW20425   2.886   4.173  12.187 -0.6332 -0.6120 -0.7086
 2930SOL    HW120426   2.813   4.205  12.134 -3.3216  0.1880  3.4311
 2930SOL    HW220427   2.862   4.080  12.191 -1.6576 -0.2732  1.0640
 2931SOL     OW20428   2.817   4.274   8.181  0.8328  0.4555 -0.1915
 2931SOL    HW120429   2.781   4.254   8.094 -0.8991  2.0137  0.1624
 2931SOL    HW220430   2.903   4.313   8.169  0.8699  0.7555  1.1118
 2932SOL     OW20431   4.590   4.726  12.364 -0.1670 -0.4060 -0.0163
 2932SOL    HW120432   4.648   4.706  12.438  0.2936  1.5122  0.1459
 2932SOL    HW220433   4.642   4.698  12.288 -0.8185  0.4442 -0.7668
 2933SOL     OW20434   4.400   4.633   1.238 -0.2612 -0.8488 -0.2853
 2933SOL    HW120435   4.429   4.609   1.326  2.3889 -0.1481 -0.9664
 2933SOL    HW220436   4.391   4.547   1.197 -1.5991 -0.8411  0.0023
 2934SOL     OW20437   0.266   1.552  16.792 -0.0934  0.4424 -0.3357
 2934SOL    HW120438   0.227   1.465  16.781  1.1573 -0.2179  0.2980
 2934SOL    HW220439   0.213   1.592  16.861 -0.3664  0.8958 -0.8152
 2935SOL     OW20440   2.269   4.290   9.160  0.3265  0.1974  0.4173
 2935SOL    HW120441   2.188   4.253   9.195  0.6657 -2.1197 -1.2136
 2935SOL    HW220442   2.245   4.326   9.074  0.0404 -0.8330  0.0654
 2936SOL     OW20443   3.886   4.219   2.119 -0.0578 -0.1616  0.1345
 2936SOL    HW120444   3.833   4.247   2.045  0.4591  0.5765  0.0413
 2936SOL    HW220445   3.933   4.298   2.146 -1.2263  0.5690  0.0404
 2937SOL     OW20446   3.935   2.495  12.716 -0.2444  0.3872 -0.0567
 2937SOL    HW120447   3.984   2.529  12.641  1.8132 -0.7340  0.7586
 2937SOL    HW220448   3.914   2.573  12.767 -1.1293 -0.2335  0.5272
 2938SOL     OW20449   4.459   4.244   8.505  0.5214  0.2377  0.3545
 2938SOL    HW120450   4.368   4.247   8.535 -0.5278 -0.4271 -2.6982
 2938SOL    HW220451   4.495   4.189   8.574  0.2743  0.6960  0.8529
 2939SOL     OW20452   1.753   1.487  12.057  0.2304  0.1830  0.2534
 2939SOL    HW120453   1.827   1.427  12.052  2.0190  2.4095  0.2374
 2939SOL    HW220454   1.690   1.434  12.106  0.5193  1.0088  1.5002
 2940SOL     OW20455   3.158   1.211   0.333 -0.2198  0.4248 -0.5485
 2940SOL    HW120456   3.174   1.120   0.305 -2.1789  0.5728 -2.2182
 2940SOL    HW220457   3.136   1.245   0.246 -0.2097  0.9072 -0.3579
 2941SOL     OW20458   4.667   4.528   3.126 -0.2440 -0.2048  0.2327
 2941SOL    HW120459   0.021   4.543   3.095 -0.4639 -0.0267 -0.3046
 2941SOL    HW220460   4.616   4.510   3.047 -1.1840  2.0492  0.3277
 2942SOL     OW20461   2.321   3.423   4.198 -0.6220 -0.0864  0.2008
 2942SOL    HW120462   2.278   3.500   4.236 -0.2289  1.0686 -1.7368
 2942SOL    HW220463   2.312   3.450   4.107  1.5726 -1.6664 -0.4909
 2943SOL     OW20464   2.118   2.609  10.225  0.6239  0.0755  0.0834
 2943SOL    HW120465   2.026   2.633  10.239  1.9518  3.5915  2.9842
 2943SOL    HW220466   2.114   2.518  10.254 -0.0774 -0.0091 -0.2946
 2944SOL     OW20467   2.415   2.775  11.339  0.1367 -0.8513 -0.0947
 2944SOL    HW120468   2.347   2.836  11.308  0.5984 -1.1183 -1.6407
 2944SOL    HW220469   2.447   2.820  11.417  1.3559 -0.8163 -0.6088
 2945SOL     OW20470   4.448   2.485  12.487 -0.3951 -0.0714  0.1130
 2945SOL    HW120471   4.485   2.556  12.436  0.5061  0.2563  1.2418
 2945SOL    HW220472   4.488   2.416  12.434 -0.9645  0.4188 -0.9623
 2946SOL     OW20473   1.191   1.657   7.894 -0.2661  0.0673 -0.1098
 2946SOL    HW120474   1.227   1.719   7.958 -1.2074  0.6578 -0.1584
 2946SOL    HW220475   1.240   1.577   7.916  1.2227  0.6247 -1.3779
 2947SOL     OW20476   1.570   2.156  11.203  0.3688 -0.6083  0.0177
 2947SOL    HW120477   1.601   2.065  11.199  1.9076 -0.2022  3.1758
 2947SOL    HW220478   1.656   2.198  11.203 -0.0343  0.2154  2.7550
 2948SOL     OW20479   0.937   0.623   3.239 -0.6520 -0.3375  0.6478
 2948SOL    HW120480   0.881   0.548   3.257 -0.2094 -1.0208 -0.7419
 2948SOL    HW220481   1.003   0.579   3.183 -1.5616  2.4093 -2.5925
 2949SOL     OW20482   0.213   0.192  16.322  0.4105 -0.1113  0.1640
 2949SOL    HW120483   0.135   0.247  16.319  0.4742  0.0812  1.8039
 2949SOL    HW220484   0.245   0.199  16.233 -0.7404  2.9408  0.0083
 2950SOL     OW20485   0.661   1.939   1.785 -0.0773 -0.2023 -0.4346
 2950SOL    HW120486   0.743   1.897   1.812  0.8058  0.9247 -1.3528
 2950SOL    HW220487   0.640   1.986   1.866  1.0636 -0.9823  0.3210
 2951SOL     OW20488   1.318   3.053   8.229 -0.3064 -0.3735 -0.2299
 2951SOL    HW120489   1.325   3.116   8.157 -0.9142 -1.1356 -0.9628
 2951SOL    HW220490   1.404   3.062   8.269 -0.9037  2.6443  0.3652
 2952SOL     OW20491   1.756   4.191   4.483 -0.0711  0.3618  0.2616
 2952SOL    HW120492   1.699   4.221   4.413  0.8509 -0.9111 -1.0362
 2952SOL    HW220493   1.841   4.185   4.440 -0.7864 -0.2151 -1.0542
 2953SOL     OW20494   3.134   0.466   9.167 -0.0941  0.4775  0.0364
 2953SOL    HW120495   3.074   0.418   9.110  1.4411 -2.5874  1.0102
 2953SOL    HW220496   3.075   0.508   9.230 -1.1096 -0.5717 -0.2145
 2954SOL     OW20497   3.697   3.444   7.973 -0.4408 -0.1063  0.1567
 2954SOL    HW120498   3.705   3.533   7.939 -1.0911 -0.3026 -0.4974
 2954SOL    HW220499   3.754   3.398   7.912  0.5125  1.8923 -0.4604
 2955SOL     OW20500   2.565   2.868   8.311 -0.1445  0.7155 -0.5663
 2955SOL    HW120501   2.566   2.830   8.223  1.2683  0.1473 -0.3099
 2955SOL    HW220502   2.599   2.795   8.362  1.1515  0.6103 -1.5909
 2956SOL     OW20503   2.461   2.006  10.918 -0.1588  0.1115 -0.4035
 2956SOL    HW120504   2.479   2.008  11.012  0.8359 -1.0333 -0.5700
 2956SOL    HW220505   2.477   2.097  10.892 -2.2221  0.2786 -1.0668
 2957SOL     OW20506   1.476   1.600   0.458 -0.0756 -0.0043 -0.1940
 2957SOL    HW120507   1.418   1.670   0.429 -1.2130 -1.4589 -1.3893
 2957SOL    HW220508   1.550   1.614   0.399  0.7117 -0.8539  0.6000
 2958SOL     OW20509   1.488   1.519   1.426 -0.2488  0.1885 -0.3852
 2958SOL    HW120510   1.424   1.571   1.377  0.3099  0.2845 -1.0044
 2958SOL    HW220511   1.482   1.569   1.508  0.7441  2.2356 -1.5631
 2959SOL     OW20512   3.417   1.725   6.954  0.1318  0.6014  0.8860
 2959SOL    HW120513   3.418   1.720   7.050 -0.7016 -0.1032  0.8560
 2959SOL    HW220514   3.350   1.661   6.931  0.8463  0.4446 -0.7894
 2960SOL     OW20515   0.264   2.120   3.622  0.1590  0.5234  0.2551
 2960SOL    HW120516   0.214   2.039   3.630  0.6769  0.0719 -1.0187
 2960SOL    HW220517   0.217   2.177   3.683  0.3354  0.6512  0.2725
 2961SOL     OW20518   2.985   3.948   7.128  0.4566 -0.4347 -0.0974
 2961SOL    HW120519   2.909   3.982   7.175  0.3712  1.5654 -1.6890
 2961SOL    HW220520   2.987   4.001   7.049 -0.8970 -0.6459 -0.2803
 2962SOL     OW20521   0.521   3.567   9.707  0.4947  0.2745 -0.2848
 2962SOL    HW120522   0.435   3.595   9.738 -0.0326 -1.0033 -0.6050
 2962SOL    HW220523   0.536   3.637   9.643 -2.8069  2.0425  0.8527
 2963SOL     OW20524   2.878   0.863   3.228  0.1089 -0.4701  0.4108
 2963SOL    HW120525   2.943   0.933   3.222  0.2193 -0.7485 -1.6262
 2963SOL    HW220526   2.888   0.828   3.317  1.7976 -1.5831 -0.1997
 2964SOL     OW20527   2.970   0.087   5.587  0.0997 -0.0037 -0.1241
 2964SOL    HW120528   2.918   0.167   5.598  0.3788  0.3374 -1.2950
 2964SOL    HW220529   2.926   0.049   5.510 -3.0465  0.0405  1.6393
 2965SOL     OW20530   0.219   1.155  16.459  0.3791  0.9779 -0.1624
 2965SOL    HW120531   0.266   1.116  16.386 -0.4285  2.3494 -1.4189
 2965SOL    HW220532   0.176   1.225  16.410  2.0220  0.4173 -2.4056
 2966SOL     OW20533   4.137   0.904   3.293 -0.1809 -0.2152 -0.9261
 2966SOL    HW120534   4.152   0.998   3.281  0.4124 -0.3623 -1.3380
 2966SOL    HW220535   4.131   0.911   3.389  1.9209 -0.1934 -0.8058
 2967SOL     OW20536   4.054   1.656   0.979 -0.5260  0.1297 -0.1697
 2967SOL    HW120537   4.006   1.660   0.897 -0.1967  0.5389 -0.3481
 2967SOL    HW220538   4.007   1.583   1.018 -1.3496 -0.0563 -1.5181
 2968SOL     OW20539   3.827   1.612  13.165 -0.3184 -0.3251  0.3814
 2968SOL    HW120540   3.752   1.553  13.163  0.5431 -1.5215  3.2343
 2968SOL    HW220541   3.855   1.609  13.257 -0.3128  0.0240  0.3936
 2969SOL     OW20542   4.467   1.901   2.803 -0.1967  0.2327 -0.4455
 2969SOL    HW120543   4.488   1.828   2.745  3.3503  0.3783  0.6218
 2969SOL    HW220544   4.375   1.918   2.786 -0.2662 -0.0465 -0.3592
 2970SOL     OW20545   3.008   1.268   5.338 -0.4781  0.2791  0.2261
 2970SOL    HW120546   3.041   1.188   5.297 -1.6666 -1.6921  3.0742
 2970SOL    HW220547   3.069   1.330   5.299 -1.0116  0.4095 -0.4052
 2971SOL     OW20548   0.969   1.964  12.669 -0.1896 -0.3168 -0.0360
 2971SOL    HW120549   0.980   1.889  12.727 -0.8694 -0.4440 -0.0715
 2971SOL    HW220550   1.058   1.999  12.673 -0.4914  0.5010 -0.4550
 2972SOL     OW20551   0.852   3.588   6.038 -0.0056  0.2657  0.3872
 2972SOL    HW120552   0.839   3.680   6.014  0.3437  1.0263  3.1074
 2972SOL    HW220553   0.817   3.559   5.954 -0.4097 -1.2143  1.0746
 2973SOL     OW20554   2.623   3.764   1.351  0.2513 -0.6283  0.1951
 2973SOL    HW120555   2.680   3.786   1.277 -0.6959 -1.6572 -0.8461
 2973SOL    HW220556   2.585   3.852   1.350  1.7682  0.0307  0.6980
 2974SOL     OW20557   0.588   1.153   7.052 -0.7086 -0.2515  0.2817
 2974SOL    HW120558   0.592   1.170   6.958  0.8553  1.8314  0.7202
 2974SOL    HW220559   0.502   1.190   7.069 -0.3734 -0.0019  1.4385
 2975SOL     OW20560   2.722   0.955   4.469 -0.4594 -0.0901  0.0755
 2975SOL    HW120561   2.632   0.985   4.455 -0.0327  1.9242  1.6350
 2975SOL    HW220562   2.725   0.889   4.401  0.6931  2.8263 -2.6926
 2976SOL     OW20563   1.639   0.228  15.683 -0.5612 -0.1376 -0.0904
 2976SOL    HW120564   1.557   0.249  15.638  0.1989 -0.5972 -1.6823
 2976SOL    HW220565   1.612   0.218  15.775  0.8847 -1.7650  0.1495
 2977SOL     OW20566   2.561   2.120  11.601 -0.1440 -0.0331 -0.4720
 2977SOL    HW120567   2.542   2.172  11.522  1.4606 -1.4991 -1.8104
 2977SOL    HW220568   2.653   2.140  11.613  0.5198 -4.3890  1.5288
 2978SOL     OW20569   1.981   1.309   5.049  0.4332  0.0779  0.0790
 2978SOL    HW120570   2.003   1.247   5.118  1.4828  2.3042  1.7239
 2978SOL    HW220571   1.913   1.262   5.001  0.8194  0.3031 -0.6971
 2979SOL     OW20572   2.261   1.785   5.701 -0.2214  0.4276 -0.0644
 2979SOL    HW120573   2.287   1.790   5.609 -0.8305 -0.4381 -0.2737
 2979SOL    HW220574   2.247   1.876   5.728  1.9905  0.6530  0.3905
 2980SOL     OW20575   3.172   2.996   9.929  0.6031  0.5549 -0.0135
 2980SOL    HW120576   3.192   3.060   9.861 -1.3392  1.7535  0.5606
 2980SOL    HW220577   3.169   2.912   9.883 -0.6951  0.6079 -0.0031
 2981SOL     OW20578   0.139   2.252  12.333  0.0840  0.1712 -0.2821
 2981SOL    HW120579   0.188   2.250  12.415 -0.6601 -1.0256  0.1399
 2981SOL    HW220580   0.191   2.214  12.263 -0.0902 -1.8519  0.6953
 2982SOL     OW20581   4.471   0.924   7.218 -0.1104 -0.0556 -0.7543
 2982SOL    HW120582   4.500   0.865   7.148  0.4923 -0.6147 -0.0277
 2982SOL    HW220583   4.448   0.867   7.291  2.4793  1.7009  1.4532
 2983SOL     OW20584   1.362   1.676   4.564 -0.4475 -0.0612 -0.3142
 2983SOL    HW120585   1.393   1.766   4.567 -0.1262 -0.1607 -0.6205
 2983SOL    HW220586   1.344   1.672   4.470 -2.2159 -1.4967  0.0803
 2984SOL     OW20587   3.509   3.688   7.527 -0.0197 -0.2377 -0.0825
 2984SOL    HW120588   3.466   3.764   7.488  1.6712  0.5285 -0.4824
 2984SOL    HW220589   3.563   3.714   7.603 -0.4006 -0.2700  0.1978
 2985SOL     OW20590   1.809   2.379   0.101 -0.1416 -0.6538 -0.3165
 2985SOL    HW120591   1.774   2.383   0.190 -1.0426  2.1468 -0.8013
 2985SOL    HW220592   1.862   2.459   0.106  0.3637 -1.0716  0.8978
 2986SOL     OW20593   2.394   3.305  15.099  0.5536  0.0917  0.3674
 2986SOL    HW120594   2.395   3.339  15.010  0.7213  0.1868  0.4052
 2986SOL    HW220595   2.378   3.213  15.078  1.1390  0.1357 -0.2694
 2987SOL     OW20596   2.130   2.626   4.696 -0.0671  0.6153 -0.6534
 2987SOL    HW120597   2.085   2.708   4.676 -0.5198  0.4190 -0.4285
 2987SOL    HW220598   2.195   2.621   4.626  0.3989  1.4139 -0.2695
 2988SOL     OW20599   0.440   0.638  12.020 -0.2194  0.3240 -0.7088
 2988SOL    HW120600   0.504   0.656  11.952  1.4552  1.7839  1.2316
 2988SOL    HW220601   0.451   0.548  12.051  1.5301  0.0654 -2.0757
 2989SOL     OW20602   0.715   2.904   5.977  0.3273  0.0574  0.5267
 2989SOL    HW120603   0.714   2.999   5.990  0.5084  0.0938  0.2511
 2989SOL    HW220604   0.704   2.879   6.069 -0.2481  0.2412  0.5112
 2990SOL     OW20605   2.562   1.706   6.080  0.4459  0.1493  0.5344
 2990SOL    HW120606   2.497   1.771   6.109 -2.4109 -2.3290 -0.2999
 2990SOL    HW220607   2.634   1.727   6.140  0.4016 -1.5879  1.1903
 2991SOL     OW20608   0.313   2.398  16.533  0.1974  0.3123 -0.3413
 2991SOL    HW120609   0.242   2.416  16.472 -0.1997 -0.8736 -0.2392
 2991SOL    HW220610   0.381   2.354  16.482 -0.4468 -1.5270  0.3588
 2992SOL     OW20611   1.677   4.403   3.080  0.8744 -0.5880 -0.2249
 2992SOL    HW120612   1.762   4.435   3.051  1.5425 -0.7600  1.5233
 2992SOL    HW220613   1.697   4.367   3.167  0.4841  0.6114  0.3599
 2993SOL     OW20614   0.363   2.496   9.995 -0.7731 -0.1085 -0.5566
 2993SOL    HW120615   0.376   2.558   9.923 -0.0407  0.4879  0.0934
 2993SOL    HW220616   0.365   2.557  10.069  0.7500  1.8173 -2.1715
 2994SOL     OW20617   1.919   2.991   6.454  0.5083  0.4054  0.4131
 2994SOL    HW120618   1.990   2.978   6.392  0.0843 -1.0312  0.2298
 2994SOL    HW220619   1.959   2.984   6.541 -0.6458  1.1345  0.9969
 2995SOL     OW20620   4.727   0.999   8.302  0.6477 -0.0768  1.0033
 2995SOL    HW120621   4.637   0.976   8.281  0.9971 -0.2760 -0.3012
 2995SOL    HW220622   0.037   0.916   8.290  1.3591  0.2118  1.7261
 2996SOL     OW20623   4.496   2.573  16.059  0.4891 -0.3213 -0.2135
 2996SOL    HW120624   4.443   2.610  15.988  1.0359  1.4257  0.2915
 2996SOL    HW220625   4.522   2.653  16.105 -2.9728  1.5777 -1.5731
 2997SOL     OW20626   0.879   2.986   7.392  0.1877 -0.0124 -0.1765
 2997SOL    HW120627   0.935   2.911   7.372 -1.6191 -1.2637 -0.5827
 2997SOL    HW220628   0.944   3.054   7.377  1.8404 -1.4227  0.4743
 2998SOL     OW20629   0.949   3.732   3.211  0.0165  0.0536  0.3231
 2998SOL    HW120630   0.916   3.658   3.261  3.1772 -0.3990  1.7041
 2998SOL    HW220631   1.015   3.695   3.153  0.5704 -0.6707  1.4269
 2999SOL     OW20632   0.233   0.024   1.965 -0.1100 -0.4839  0.3063
 2999SOL    HW120633   0.151   0.062   1.936 -0.3230  0.3559  2.0257
 2999SOL    HW220634   0.296   0.063   1.904 -2.3946  1.4598 -0.8243
 3000SOL     OW20635   0.944   0.836   3.693  0.6086 -0.2203 -0.2437
 3000SOL    HW120636   0.851   0.823   3.677  0.4796 -0.4577  0.6478
 3000SOL    HW220637   0.972   0.814   3.604 -1.6548  0.7221 -1.1839
 3001SOL     OW20638   2.861   2.108  14.054 -0.3357 -0.6497  0.2530
 3001SOL    HW120639   2.893   2.190  14.090  2.0316 -1.0579 -0.9594
 3001SOL    HW220640   2.823   2.140  13.972 -1.3475 -1.1836  0.5098
 3002SOL     OW20641   0.905   2.634   0.456 -0.1024 -0.2187  0.2622
 3002SOL    HW120642   0.977   2.626   0.518 -0.8496  0.2747  1.1908
 3002SOL    HW220643   0.843   2.570   0.492 -1.5666  1.0965  0.0921
 3003SOL     OW20644   4.431   3.080  11.302 -0.0466  0.0491  0.1855
 3003SOL    HW120645   4.352   3.037  11.334  0.1340 -0.3859  0.0472
 3003SOL    HW220646   4.424   3.085  11.207  1.7414 -0.3870  0.0377
 3004SOL     OW20647   3.925   0.331   1.979 -0.3105  0.2101 -0.0877
 3004SOL    HW120648   3.919   0.420   1.943  1.2783  0.1141 -0.6196
 3004SOL    HW220649   4.018   0.312   1.968 -0.5595 -0.8442 -0.3081
 3005SOL     OW20650   4.082   3.214   0.899  0.0955  1.1202 -0.2653
 3005SOL    HW120651   4.016   3.151   0.928  1.9262 -0.5435  0.3690
 3005SOL    HW220652   4.039   3.295   0.874  1.4654  2.1226  0.6210
 3006SOL     OW20653   1.010   2.937   9.193  0.5072  0.1229  0.0446
 3006SOL    HW120654   0.951   3.012   9.183  2.0559  1.3844  0.3625
 3006SOL    HW220655   0.999   2.905   9.283 -2.6126  1.0454 -0.0154
 3007SOL     OW20656   4.441   0.298   3.676 -0.8794  0.0875 -0.0134
 3007SOL    HW120657   4.424   0.390   3.659 -0.1939  0.0078 -1.0907
 3007SOL    HW220658   4.399   0.252   3.604 -3.0911  1.5096  0.3726
 3008SOL     OW20659   0.922   2.609   1.299 -0.4241  0.5218  0.1867
 3008SOL    HW120660   0.853   2.556   1.260  0.2035  0.1299 -0.3727
 3008SOL    HW220661   1.000   2.573   1.257  0.2308 -1.1289  2.8033
 3009SOL     OW20662   2.860   3.808   4.104  0.0954  0.1516 -0.0327
 3009SOL    HW120663   2.833   3.736   4.047 -1.2077 -0.0850  0.8917
 3009SOL    HW220664   2.887   3.753   4.177 -0.3819  0.4350  0.3539
 3010SOL     OW20665   2.542   2.749  14.652  0.2184 -0.1947  0.2495
 3010SOL    HW120666   2.580   2.665  14.677 -2.5143 -1.0438  1.5466
 3010SOL    HW220667   2.449   2.729  14.655  0.8235 -2.4805  3.8819
 3011SOL     OW20668   3.134   0.282   6.527  0.2640  0.1325 -0.5860
 3011SOL    HW120669   3.171   0.319   6.608 -0.4143  2.3222 -1.2677
 3011SOL    HW220670   3.206   0.299   6.466  0.1452  1.7045 -0.2968
 3012SOL     OW20671   1.212   1.541   8.595 -0.2640 -0.5028 -0.0205
 3012SOL    HW120672   1.229   1.456   8.637  0.1886 -0.8437 -0.8896
 3012SOL    HW220673   1.283   1.596   8.628 -0.8452 -0.0705  0.5077
 3013SOL     OW20674   0.130   0.695   8.007 -0.0699 -0.2526 -0.6548
 3013SOL    HW120675   0.196   0.682   7.939  0.8062  2.3343 -0.3123
 3013SOL    HW220676   0.100   0.606   8.025 -1.2281  0.1999 -0.3607
 3014SOL     OW20677   1.786   3.780  10.443  0.5395  0.0250 -0.6057
 3014SOL    HW120678   1.795   3.871  10.413 -1.5038  0.6130  0.5399
 3014SOL    HW220679   1.867   3.748  10.403  0.2893 -1.9313  0.4634
 3015SOL     OW20680   2.026   0.209   6.628 -0.3960  0.2656 -0.5466
 3015SOL    HW120681   2.079   0.283   6.658 -0.9470  0.6125 -0.4318
 3015SOL    HW220682   2.038   0.150   6.703 -2.8557 -1.5585 -1.5898
 3016SOL     OW20683   3.273   3.761   3.779 -0.4136  0.2419 -0.0029
 3016SOL    HW120684   3.185   3.736   3.750  0.2353 -0.2843 -1.4751
 3016SOL    HW220685   3.301   3.692   3.839 -1.4680  0.4404  0.7312
 3017SOL     OW20686   3.888   4.378   5.740  0.4744  0.1299 -0.5821
 3017SOL    HW120687   3.832   4.337   5.806  2.3482  1.4833  1.7994
 3017SOL    HW220688   3.881   4.315   5.667 -0.3755 -0.5396  0.0681
 3018SOL     OW20689   2.996   3.819   8.036  0.6045 -0.0767 -0.6864
 3018SOL    HW120690   2.919   3.836   7.982  0.7684  2.9924  0.0110
 3018SOL    HW220691   2.958   3.742   8.079  0.3429  0.1315 -0.5451
 3019SOL     OW20692   3.249   1.408   9.643 -0.2214 -0.0146 -0.2764
 3019SOL    HW120693   3.281   1.498   9.653  0.6055 -0.5071  1.5756
 3019SOL    HW220694   3.274   1.379   9.556  0.9091 -0.0077  0.0393
 3020SOL     OW20695   4.118   1.230   3.120 -0.2120  0.2713 -0.3972
 3020SOL    HW120696   4.089   1.249   3.031 -0.9935 -0.1654 -0.2338
 3020SOL    HW220697   4.205   1.197   3.097 -0.1948  0.3232 -0.4062
 3021SOL     OW20698   0.200   1.728   6.789 -0.0336 -0.2092  0.0897
 3021SOL    HW120699   0.146   1.767   6.719 -0.5435  0.1537  0.6853
 3021SOL    HW220700   0.142   1.737   6.865  2.4705  1.9928  1.7275
 3022SOL     OW20701   3.302   2.635  14.791  0.1254  0.1538 -0.3608
 3022SOL    HW120702   3.298   2.632  14.886 -0.9078 -0.5475 -0.4308
 3022SOL    HW220703   3.211   2.639  14.764 -0.4650 -2.4855  1.2103
 3023SOL     OW20704   1.844   4.031  10.339 -0.2350 -0.1903 -0.1966
 3023SOL    HW120705   1.845   4.117  10.380  2.3243  0.4400 -1.5439
 3023SOL    HW220706   1.778   4.053  10.273 -1.5778  0.3161  1.3252
 3024SOL     OW20707   4.627   1.297   2.848 -0.0092  0.4934 -0.0966
 3024SOL    HW120708   4.655   1.383   2.879  1.7606 -0.1182 -0.0361
 3024SOL    HW220709   4.647   1.239   2.921 -3.1474  1.4729  1.5424
 3025SOL     OW20710   0.927   2.440   9.915  0.2763  0.8422  0.6293
 3025SOL    HW120711   0.917   2.535   9.901  0.2284  0.7234 -0.1252
 3025SOL    HW220712   1.013   2.432   9.874 -1.0912  1.1007 -2.2737
 3026SOL     OW20713   2.199   4.060   6.605 -0.6737 -0.1093  0.2769
 3026SOL    HW120714   2.107   4.068   6.581 -0.3654  0.6514 -0.6596
 3026SOL    HW220715   2.245   4.118   6.544  0.2896  0.3264  1.4199
 3027SOL     OW20716   4.572   1.324   5.681 -0.0235 -0.3935 -0.2359
 3027SOL    HW120717   4.600   1.416   5.679  1.5055 -0.8575 -0.4029
 3027SOL    HW220718   4.546   1.320   5.589  0.5962  3.0242 -0.5444
 3028SOL     OW20719   0.287   1.199   9.830  0.6735 -0.1955 -0.1931
 3028SOL    HW120720   0.294   1.114   9.786  0.0349  0.2522 -1.1475
 3028SOL    HW220721   0.375   1.202   9.868  0.2078  0.1242  0.8513
 3029SOL     OW20722   3.760   4.218   8.846 -0.3026 -0.2657 -0.0860
 3029SOL    HW120723   3.779   4.258   8.931 -0.1525  0.4528 -0.4646
 3029SOL    HW220724   3.676   4.182   8.877  0.4441 -1.9219 -0.0018
 3030SOL     OW20725   4.001   0.191   5.079 -0.0065  0.0754 -0.4010
 3030SOL    HW120726   3.916   0.171   5.119 -1.0471 -0.1093 -2.6461
 3030SOL    HW220727   3.967   0.261   5.022 -1.1059  0.2679  0.4817
 3031SOL     OW20728   0.556   2.160   8.108  0.1013 -0.3826 -0.4974
 3031SOL    HW120729   0.489   2.199   8.165  0.1334  1.3348 -1.6400
 3031SOL    HW220730   0.634   2.205   8.141 -0.6305  1.4242 -1.2278
 3032SOL     OW20731   2.607   1.417  16.262  0.5367 -1.0473 -0.5976
 3032SOL    HW120732   2.684   1.400  16.209 -1.4628 -2.6990 -2.9611
 3032SOL    HW220733   2.643   1.479  16.326 -0.6398 -3.3416  2.2732
 3033SOL     OW20734   2.211   1.557   6.533 -0.2228  0.4052  0.1791
 3033SOL    HW120735   2.258   1.475   6.519 -1.4561 -0.2283 -0.2612
 3033SOL    HW220736   2.281   1.604   6.578  0.3506 -0.5973  0.3258
 3034SOL     OW20737   0.731   2.339   9.357  0.0201  0.2958 -0.0886
 3034SOL    HW120738   0.759   2.249   9.340 -0.0600 -0.0136  1.4415
 3034SOL    HW220739   0.639   2.331   9.333  0.0820 -1.8708  0.3755
 3035SOL     OW20740   0.925   4.034   7.212  0.0921 -0.0470  0.0539
 3035SOL    HW120741   0.944   4.098   7.144 -1.7945  1.1670  0.6535
 3035SOL    HW220742   0.913   3.955   7.160  0.5301  0.2466 -0.4901
 3036SOL     OW20743   2.344   4.673   3.696  0.8896  0.4500 -0.4262
 3036SOL    HW120744   2.260   4.718   3.705  0.9185  0.2794  0.6780
 3036SOL    HW220745   2.380   4.703   3.612  0.4936 -1.9711 -1.4453
 3037SOL     OW20746   0.161   2.181   8.904  0.4022  0.1954 -0.2790
 3037SOL    HW120747   0.228   2.236   8.862  1.4440 -0.4673  0.5085
 3037SOL    HW220748   0.102   2.247   8.939 -0.0646 -0.2163 -0.2990
 3038SOL     OW20749   1.437   1.834   5.562  0.1694 -0.0705 -0.3527
 3038SOL    HW120750   1.481   1.916   5.580 -0.9802  0.3290  0.6613
 3038SOL    HW220751   1.348   1.866   5.543  0.0463 -0.5336 -0.5941
 3039SOL     OW20752   0.208   1.969   7.908  0.6255 -0.2574 -0.2585
 3039SOL    HW120753   0.179   1.951   7.818 -0.9899  0.7468  0.0744
 3039SOL    HW220754   0.124   1.991   7.947 -0.7347  0.4911 -3.5508
 3040SOL     OW20755   4.453   2.560  17.269 -0.1912 -0.0727  0.8113
 3040SOL    HW120756   4.511   2.539  17.342  2.3157 -2.8615 -1.9822
 3040SOL    HW220757   4.431   2.471  17.239 -3.1477  0.6300  0.8515
 3041SOL     OW20758   2.199   3.772   5.542 -0.1698 -0.2290 -0.3591
 3041SOL    HW120759   2.255   3.745   5.469 -0.6622 -1.1768 -0.3909
 3041SOL    HW220760   2.177   3.687   5.581  1.5132 -0.7885 -0.6632
 3042SOL     OW20761   2.052   2.488  13.550 -0.3428 -0.2473 -0.2783
 3042SOL    HW120762   2.093   2.573  13.535  0.7169 -0.7384 -0.1491
 3042SOL    HW220763   2.126   2.449  13.596 -0.3072 -0.4564 -0.5114
 3043SOL     OW20764   1.059   2.439  11.644  0.1597  0.0554  0.2463
 3043SOL    HW120765   1.032   2.347  11.640  1.8412 -0.4480  0.5878
 3043SOL    HW220766   1.153   2.429  11.634  0.0378 -0.2956 -0.6189
 3044SOL     OW20767   3.106   3.804   1.393 -0.3372 -0.2665 -0.3497
 3044SOL    HW120768   3.079   3.766   1.310  0.1412 -0.2914 -0.4978
 3044SOL    HW220769   3.024   3.816   1.440 -0.8492 -0.4151 -1.2177
 3045SOL     OW20770   2.262   1.258   8.434  0.2599  0.3002 -0.1153
 3045SOL    HW120771   2.261   1.269   8.339  1.6411  0.6230 -0.1003
 3045SOL    HW220772   2.347   1.213   8.433  1.4419  2.5429 -0.9438
 3046SOL     OW20773   1.587   2.093   5.294 -0.3567 -0.1680  0.1785
 3046SOL    HW120774   1.626   2.016   5.250 -0.9516 -0.4294  0.1134
 3046SOL    HW220775   1.628   2.095   5.380 -0.0603  0.5538  0.0173
 3047SOL     OW20776   0.233   2.118   9.424  0.2148 -0.2678  0.6414
 3047SOL    HW120777   0.198   2.189   9.478  2.0987 -1.2102  3.1644
 3047SOL    HW220778   0.258   2.055   9.493  0.2762 -1.8491 -0.8192
 3048SOL     OW20779   1.227   0.654   6.679 -0.3290 -0.3535  0.2447
 3048SOL    HW120780   1.223   0.746   6.705  2.9841  0.4581 -2.1091
 3048SOL    HW220781   1.244   0.657   6.585 -1.8661 -0.4863 -0.0377
 3049SOL     OW20782   3.048   0.909  17.678  0.3142  0.2037 -0.8891
 3049SOL    HW120783   3.006   0.994  17.659 -1.3672 -0.2005  1.0464
 3049SOL    HW220784   3.089   0.875  17.599  0.1250 -0.1757 -0.8188
 3050SOL     OW20785   1.406   2.385   8.361  0.3391  0.5708  0.2679
 3050SOL    HW120786   1.314   2.411   8.364 -0.0070 -0.5526 -0.9877
 3050SOL    HW220787   1.444   2.471   8.382  0.9073  0.0026  1.6053
 3051SOL     OW20788   0.065   1.520   4.092 -0.0444 -0.1879  0.5459
 3051SOL    HW120789   0.003   1.591   4.071 -0.5275 -0.2083  1.8766
 3051SOL    HW220790   0.147   1.545   4.050 -0.6571  0.5048 -0.2490
 3052SOL     OW20791   2.275   1.251  17.656 -0.5308 -0.4692 -0.2189
 3052SOL    HW120792   2.271   1.339  17.693 -1.5595  0.1137 -1.7211
 3052SOL    HW220793   2.210   1.253  17.586  0.3935 -0.6405 -1.0964
 3053SOL     OW20794   3.281   2.402   4.919 -0.3557 -0.1012  0.2000
 3053SOL    HW120795   3.197   2.430   4.883 -0.8095 -0.7855  0.7141
 3053SOL    HW220796   3.294   2.480   4.973  0.4272 -0.5728  0.6873
 3054SOL     OW20797   0.469   0.074   7.128  1.0116  0.7359  0.5760
 3054SOL    HW120798   0.409   0.108   7.195 -2.0787 -1.5299 -1.0082
 3054SOL    HW220799   0.418   0.077   7.046  2.7869  2.1570 -0.4644
 3055SOL     OW20800   0.991   3.442   3.575 -0.0878  0.4913 -0.5791
 3055SOL    HW120801   0.958   3.517   3.624 -0.7204 -0.4797  0.4974
 3055SOL    HW220802   1.042   3.398   3.643 -1.6960  1.3299  1.1678
 3056SOL     OW20803   0.421   0.861   7.877 -0.6968 -0.5554  0.1842
 3056SOL    HW120804   0.472   0.785   7.849 -1.1240 -0.2715 -1.4024
 3056SOL    HW220805   0.490   0.914   7.917  0.2560 -1.5015 -0.2088
 3057SOL     OW20806   2.738   1.436  13.293  0.1778 -0.0099  0.5235
 3057SOL    HW120807   2.772   1.349  13.273 -1.9150 -0.1197 -2.4861
 3057SOL    HW220808   2.814   1.485  13.261 -0.6051  0.3798 -0.7320
 3058SOL     OW20809   1.558   1.920  14.334 -0.3816  0.0286  0.1946
 3058SOL    HW120810   1.631   1.901  14.392 -0.1403  2.1054  0.5844
 3058SOL    HW220811   1.568   1.848  14.272 -0.1287 -0.7021  1.0947
 3059SOL     OW20812   3.732   3.658   6.105 -0.4523 -0.7270 -0.1208
 3059SOL    HW120813   3.641   3.667   6.131 -0.2148  1.9968 -0.2248
 3059SOL    HW220814   3.730   3.563   6.110 -0.8063 -0.6309  1.4035
 3060SOL     OW20815   4.666   4.449   5.388  0.6141  0.7473  0.2808
 3060SOL    HW120816   4.709   4.535   5.395  0.5238  0.7563  0.7329
 3060SOL    HW220817   4.575   4.476   5.373 -0.5456 -1.6748  2.9763
 3061SOL     OW20818   1.115   1.609   5.345 -0.2432  0.0695 -0.0458
 3061SOL    HW120819   1.064   1.554   5.286  2.1260 -2.5996  0.4122
 3061SOL    HW220820   1.201   1.568   5.337 -0.7813 -0.8724 -0.9335
 3062SOL     OW20821   2.703   1.165   3.495 -0.4610 -0.1660  0.4456
 3062SOL    HW120822   2.648   1.193   3.569 -2.3332  0.4609 -1.1809
 3062SOL    HW220823   2.637   1.114   3.449 -0.4257  0.1052  0.0939
 3063SOL     OW20824   4.307   1.011   3.889  0.2362  0.1940  0.3146
 3063SOL    HW120825   4.232   1.058   3.928  1.2435  3.0053 -1.1487
 3063SOL    HW220826   4.370   1.083   3.885 -0.8559  1.1343 -0.2032
 3064SOL     OW20827   0.032   1.159   4.480  0.4847 -0.1198  0.4314
 3064SOL    HW120828   0.092   1.212   4.532  1.0727  0.9853 -1.3402
 3064SOL    HW220829   0.015   1.224   4.411  1.8891 -2.1719 -1.8425
 3065SOL     OW20830   0.771   2.103   5.037 -0.1671  0.1153 -0.2403
 3065SOL    HW120831   0.741   2.175   4.983 -0.6603 -0.1364 -0.3012
 3065SOL    HW220832   0.779   2.034   4.971 -0.7105  0.2883 -0.4860
 3066SOL     OW20833   3.940   3.774   5.308  0.0598 -0.3558 -0.5929
 3066SOL    HW120834   4.016   3.830   5.320  0.0153 -0.5416  0.6314
 3066SOL    HW220835   3.887   3.842   5.267  0.9297  1.0796  0.6298
 3067SOL     OW20836   2.504   1.782   6.891 -0.5434 -0.1033  0.3360
 3067SOL    HW120837   2.509   1.873   6.865  0.0152 -0.4458 -0.7649
 3067SOL    HW220838   2.479   1.792   6.983  0.3569  2.6061  0.2756
 3068SOL     OW20839   3.466   4.139  10.076  0.1989 -0.0437  0.8007
 3068SOL    HW120840   3.371   4.139  10.085  0.0470  0.0240 -0.7285
 3068SOL    HW220841   3.471   4.154   9.981  1.1669  1.8436  1.1539
 3069SOL     OW20842   1.406   1.940   5.053  0.0947  0.2234  0.7812
 3069SOL    HW120843   1.348   2.014   5.069  0.6948  0.6456  0.9806
 3069SOL    HW220844   1.352   1.861   5.060  0.4894 -0.2933 -1.9106
 3070SOL     OW20845   2.929   0.504   4.783  0.4303  0.0929  0.3709
 3070SOL    HW120846   2.894   0.531   4.698  3.2531  0.5411 -0.6580
 3070SOL    HW220847   2.933   0.408   4.779  0.6554  0.0715  1.1161
 3071SOL     OW20848   4.709   2.339  10.637  0.4508  0.8147 -0.4893
 3071SOL    HW120849   4.672   2.354  10.725 -0.7895 -3.7567 -0.2176
 3071SOL    HW220850   4.651   2.270  10.604 -0.5869  1.3001  0.2867
 3072SOL     OW20851   2.046   3.964   5.294  0.3591 -0.0543  0.3407
 3072SOL    HW120852   2.031   3.955   5.388  0.1731  0.2057  0.3363
 3072SOL    HW220853   1.971   4.018   5.266  0.4728  0.2121  0.5507
 3073SOL     OW20854   1.645   1.205  12.953  0.0194  0.2254 -0.4867
 3073SOL    HW120855   1.706   1.205  12.879 -0.8736  0.8054 -1.2322
 3073SOL    HW220856   1.699   1.158  13.016 -2.1657 -0.2325  1.0664
 3074SOL     OW20857   3.208   3.817  12.191 -0.5662  0.1497  0.2825
 3074SOL    HW120858   3.193   3.739  12.139  1.0545 -0.4421  0.7199
 3074SOL    HW220859   3.197   3.888  12.127 -2.0564  1.0192  1.4928
 3075SOL     OW20860   0.505   2.002   2.003  0.2998  0.0204 -0.1275
 3075SOL    HW120861   0.466   2.090   2.004 -0.1636 -0.1353 -2.6909
 3075SOL    HW220862   0.430   1.955   2.040 -1.4708  2.5797 -0.3832
 3076SOL     OW20863   2.478   4.189   5.215 -0.1974  0.1677 -0.5179
 3076SOL    HW120864   2.558   4.198   5.266  1.7450 -1.1829 -3.3670
 3076SOL    HW220865   2.527   4.157   5.140  0.4110  2.9767 -1.3226
 3077SOL     OW20866   0.164   0.786   5.530 -0.0215  0.2239  0.2370
 3077SOL    HW120867   0.123   0.724   5.470 -0.6233 -1.1588  2.0628
 3077SOL    HW220868   0.090   0.827   5.574 -1.5881 -2.8285  0.4076
 3078SOL     OW20869   2.521   1.952  14.584 -0.3439  0.2197  0.2772
 3078SOL    HW120870   2.567   1.875  14.616  0.5813  0.3746 -0.6837
 3078SOL    HW220871   2.435   1.915  14.602 -0.5245  0.2878 -0.4738
 3079SOL     OW20872   0.290   0.550   7.833  0.7192  0.2228 -0.3091
 3079SOL    HW120873   0.371   0.503   7.816  0.1963 -0.6525 -0.3672
 3079SOL    HW220874   0.294   0.614   7.762 -2.1404 -0.1553 -0.8368
 3080SOL     OW20875   4.326   3.924   2.409 -0.1410 -0.5000  0.3794
 3080SOL    HW120876   4.304   3.994   2.348 -0.8050 -0.1926  0.9767
 3080SOL    HW220877   4.409   3.950   2.448  0.3693  1.1761 -1.8346
 3081SOL     OW20878   4.191   2.283   8.528  0.6247  0.0570  0.2541
 3081SOL    HW120879   4.225   2.250   8.445 -1.4781  2.0001 -1.3655
 3081SOL    HW220880   4.197   2.374   8.498 -1.5722  0.6359  1.6318
 3082SOL     OW20881   3.023   0.123  17.114 -0.3223 -0.0073 -0.3759
 3082SOL    HW120882   3.013   0.125  17.018  0.9538 -0.2026 -0.5171
 3082SOL    HW220883   2.934   0.099  17.138 -0.0403  0.8547  1.4709
 3083SOL     OW20884   1.047   1.418   9.299  0.0407  0.0408 -0.0026
 3083SOL    HW120885   1.098   1.450   9.374  2.1361 -1.1359 -0.9404
 3083SOL    HW220886   1.033   1.507   9.264 -0.6209 -0.6122 -1.3929
 3084SOL     OW20887   1.915   0.777   4.060  0.0587 -0.3447 -0.0353
 3084SOL    HW120888   1.830   0.792   4.018  1.4449  0.1826 -2.6988
 3084SOL    HW220889   1.903   0.838   4.133 -0.3153  0.0093 -0.3850
 3085SOL     OW20890   3.510   0.778   5.031 -0.6949 -0.2352  0.2699
 3085SOL    HW120891   3.506   0.736   5.117 -1.5478 -1.1864 -0.2363
 3085SOL    HW220892   3.418   0.791   5.009 -0.5582 -3.5013 -2.2168
 3086SOL     OW20893   3.578   2.359  17.184  0.2788 -1.3046  0.1984
 3086SOL    HW120894   3.599   2.402  17.267 -0.2715 -0.2552 -0.2100
 3086SOL    HW220895   3.644   2.293  17.163  1.3926  0.1761 -0.9750
 3087SOL     OW20896   2.756   2.977  12.808  0.3862  0.5569 -0.5481
 3087SOL    HW120897   2.705   2.938  12.737  0.3998 -1.9619  0.8502
 3087SOL    HW220898   2.758   3.070  12.785  2.5822  1.2022  2.2077
 3088SOL     OW20899   1.629   0.021  12.377  0.2873  0.7779 -0.2854
 3088SOL    HW120900   1.548   0.036  12.328  0.4120 -2.0200 -1.3383
 3088SOL    HW220901   1.642   4.670  12.337 -0.1139  0.7044 -0.2580
 3089SOL     OW20902   0.504   4.479  16.818 -0.0496 -0.7589  0.2129
 3089SOL    HW120903   0.475   4.495  16.908 -1.3306 -0.0374 -0.3354
 3089SOL    HW220904   0.597   4.465  16.834 -0.0416 -0.2780  0.6115
 3090SOL     OW20905   3.085   3.157   0.003  0.0266  0.8480 -0.0973
 3090SOL    HW120906   3.020   3.227   0.003 -0.9288 -0.0282 -1.5701
 3090SOL    HW220907   3.086   3.131  17.650 -0.1556 -2.6640  0.8693
 3091SOL     OW20908   3.741   2.593   2.626 -0.1409  0.1272  0.3209
 3091SOL    HW120909   3.691   2.651   2.569 -1.2436 -2.1116 -0.9942
 3091SOL    HW220910   3.772   2.659   2.689 -0.5636 -0.5899  1.2772
 3092SOL     OW20911   0.249   4.371   2.039  0.0933 -0.0553 -0.6901
 3092SOL    HW120912   0.299   4.294   2.066 -0.1313 -0.5911 -1.7678
 3092SOL    HW220913   0.229   4.396   2.129 -0.5985  0.1554 -0.9026
 3093SOL     OW20914   3.080   4.590  13.429  0.0895 -0.4807 -0.2679
 3093SOL    HW120915   3.079   4.629  13.516  1.0609 -2.4213  0.6081
 3093SOL    HW220916   3.136   4.653  13.383 -0.9077  2.0022  1.9503
 3094SOL     OW20917   3.279   0.925   7.510  0.2175  0.5459 -0.5065
 3094SOL    HW120918   3.245   0.956   7.426 -1.0847 -1.6760 -0.7905
 3094SOL    HW220919   3.251   1.001   7.561 -0.0273  1.8873 -2.6335
 3095SOL     OW20920   2.416   3.251   3.358 -0.2480  0.2500  0.3026
 3095SOL    HW120921   2.398   3.179   3.298  0.4392 -0.1886  0.6261
 3095SOL    HW220922   2.504   3.276   3.329 -0.8924 -1.0763 -2.7935
 3096SOL     OW20923   2.930   2.762   6.360 -0.0589  0.6870 -0.0078
 3096SOL    HW120924   2.983   2.740   6.437  1.3343 -1.1286 -1.4855
 3096SOL    HW220925   2.981   2.838   6.332  1.9987 -0.5289  0.4057
 3097SOL     OW20926   3.652   1.172   4.896  0.0848  0.3043  0.1208
 3097SOL    HW120927   3.742   1.192   4.923  0.3631 -2.8303  1.4760
 3097SOL    HW220928   3.587   1.184   4.965 -2.8679  0.0419 -2.6048
 3098SOL     OW20929   0.596   1.431   6.752  0.4321  0.3543  0.4318
 3098SOL    HW120930   0.662   1.483   6.705  1.8521 -1.6520  0.2447
 3098SOL    HW220931   0.569   1.496   6.817 -1.9455  2.1055 -2.2891
 3099SOL     OW20932   3.073   1.352   4.326 -0.5312  0.7605  0.3006
 3099SOL    HW120933   3.087   1.259   4.312 -1.4500  0.4528  1.3828
 3099SOL    HW220934   3.144   1.366   4.388  0.2596  0.5383 -0.5610
 3100SOL     OW20935   4.291   2.864  17.718 -0.1496  0.0577  0.2534
 3100SOL    HW120936   4.384   2.885  17.727 -0.0487 -0.2830 -0.0268
 3100SOL    HW220937   4.254   2.929   0.040  1.3343  0.7587  0.4179
 3101SOL     OW20938   3.478   3.927   5.372  0.2125 -0.3588  0.2474
 3101SOL    HW120939   3.482   4.022   5.377 -2.3613 -0.1964 -0.9540
 3101SOL    HW220940   3.398   3.915   5.322  1.2830  0.8253 -1.7418
 3102SOL     OW20941   0.255   1.806   5.558  0.8477  0.0475 -0.2113
 3102SOL    HW120942   0.277   1.740   5.623 -0.4245  0.8693  1.0409
 3102SOL    HW220943   0.213   1.747   5.495  2.1191 -1.5041  0.4035
 3103SOL     OW20944   3.617   1.336   0.624 -0.7012  0.8893 -0.3532
 3103SOL    HW120945   3.696   1.372   0.585 -0.4861  1.1755  0.3494
 3103SOL    HW220946   3.659   1.284   0.693 -0.3656  0.6067 -0.7754
 3104SOL     OW20947   0.368   0.460   8.245  0.1259 -0.0677 -0.2271
 3104SOL    HW120948   0.452   0.447   8.201 -0.0683  0.9435 -0.8900
 3104SOL    HW220949   0.398   0.508   8.322 -0.8547 -0.2537  0.2748
 3105SOL     OW20950   3.723   3.423   3.008  0.3251 -0.1082 -0.6185
 3105SOL    HW120951   3.666   3.431   2.931  0.3590  1.1352 -0.5147
 3105SOL    HW220952   3.798   3.371   2.979  0.0125  0.4234 -2.3597
 3106SOL     OW20953   3.312   3.290  13.344 -0.2406  0.1365  0.3776
 3106SOL    HW120954   3.337   3.340  13.421  2.9433 -1.5549  0.4147
 3106SOL    HW220955   3.264   3.362  13.302  1.2821  1.9038  1.6536
 3107SOL     OW20956   4.019   2.251  16.249  0.0077 -0.3720 -0.1365
 3107SOL    HW120957   3.974   2.329  16.217  0.2729  0.1274  0.7207
 3107SOL    HW220958   3.996   2.246  16.342 -0.3311 -3.3768 -0.3689
 3108SOL     OW20959   1.307   2.145   2.396 -0.2995 -0.0279 -0.5218
 3108SOL    HW120960   1.347   2.142   2.309  0.9691  0.0060  0.0600
 3108SOL    HW220961   1.363   2.196   2.454 -0.8604  0.1755 -0.1697
 3109SOL     OW20962   3.065   4.491   8.198  0.6914  0.0842 -0.4080
 3109SOL    HW120963   3.072   4.453   8.285  0.3261  0.0695 -0.3849
 3109SOL    HW220964   3.039   4.582   8.211  1.4983  0.3795 -0.8976
 3110SOL     OW20965   3.607   2.031   8.979  0.4048 -0.1355  0.4427
 3110SOL    HW120966   3.593   1.952   8.927 -0.9539 -0.3460  1.1310
 3110SOL    HW220967   3.547   2.007   9.050  1.0391 -0.4556  0.8635
 3111SOL     OW20968   2.399   3.246   6.397 -0.4035 -0.0492 -0.4083
 3111SOL    HW120969   2.444   3.291   6.469 -0.9555  0.8902 -0.6498
 3111SOL    HW220970   2.325   3.218   6.451  0.2315  0.1185  0.5625
 3112SOL     OW20971   4.436   2.531   8.470  0.3355  0.2158 -0.0617
 3112SOL    HW120972   4.465   2.523   8.379 -1.0665  0.5710 -0.5272
 3112SOL    HW220973   4.507   2.479   8.508  0.9643 -0.4851 -2.2208
 3113SOL     OW20974   4.212   0.466  12.997  0.4011 -0.5579 -0.2988
 3113SOL    HW120975   4.232   0.493  13.087  0.0331 -1.3867  0.0392
 3113SOL    HW220976   4.140   0.403  12.995 -0.2407  0.1247  1.2495
 3114SOL     OW20977   1.009   1.561  11.989  0.3865  0.5049  0.6279
 3114SOL    HW120978   1.002   1.516  11.905 -0.3262  1.2581  0.2781
 3114SOL    HW220979   0.962   1.643  11.969  1.9810  1.4912  0.9541
 3115SOL     OW20980   4.235   0.375   2.740 -0.1725  0.4093  0.2289
 3115SOL    HW120981   4.252   0.390   2.833  1.1666 -0.7021  0.1580
 3115SOL    HW220982   4.322   0.357   2.706 -0.4429  2.6661 -1.6663
 3116SOL     OW20983   0.593   2.956   2.618  0.0407  0.0698  0.1750
 3116SOL    HW120984   0.666   2.976   2.677 -0.3714 -0.0849  0.7453
 3116SOL    HW220985   0.635   2.979   2.536 -2.0520 -2.7200 -1.7043
 3117SOL     OW20986   1.680   2.533   4.349 -0.1187 -0.4611 -0.4113
 3117SOL    HW120987   1.701   2.442   4.332  1.3848 -0.1871 -0.0161
 3117SOL    HW220988   1.744   2.577   4.292  0.1701 -1.3717 -0.7921
 3118SOL     OW20989   4.148   4.285   2.893 -0.1043 -0.2848  0.1936
 3118SOL    HW120990   4.158   4.290   2.798 -0.3048  0.6459  0.2244
 3118SOL    HW220991   4.055   4.262   2.898 -0.1118 -0.2927 -0.0180
 3119SOL     OW20992   1.180   0.613   8.336 -0.2914 -0.2300  0.1925
 3119SOL    HW120993   1.138   0.603   8.250  1.1775  1.2241 -0.7070
 3119SOL    HW220994   1.098   0.632   8.382  0.4845  0.1941  1.4070
 3120SOL     OW20995   2.264   2.728   1.049  0.0542 -0.0295 -0.5307
 3120SOL    HW120996   2.238   2.812   1.087 -0.7095  0.8443 -2.9659
 3120SOL    HW220997   2.180   2.682   1.058 -1.0678  1.8438 -1.3312
 3121SOL     OW20998   3.180   2.197  10.131  0.1415 -0.2557  0.1929
 3121SOL    HW120999   3.135   2.145  10.065 -1.1652  0.8493  0.2088
 3121SOL    HW221000   3.208   2.271  10.077  1.7345  0.7009  2.3055
 3122SOL     OW21001   2.334   0.080   8.788  0.2443 -0.4536  0.9865
 3122SOL    HW121002   2.321   0.019   8.715 -0.8862  0.0105  0.8035
 3122SOL    HW221003   2.408   0.039   8.833 -0.8730  0.1421  3.4010
 3123SOL     OW21004   0.336   1.183   7.628  0.2066 -0.0116  0.6151
 3123SOL    HW121005   0.330   1.227   7.544  1.8951  0.2616  0.6365
 3123SOL    HW221006   0.257   1.205   7.678 -0.6285  1.6279 -1.4464
 3124SOL     OW21007   2.871   4.196   6.428  0.5758  0.0284  0.0188
 3124SOL    HW121008   2.854   4.257   6.356 -0.8514  1.0430  1.2178
 3124SOL    HW221009   2.825   4.117   6.399  0.4144  0.0528  0.2037
 3125SOL     OW21010   1.246   1.432   3.491  0.1691  0.0025  0.5185
 3125SOL    HW121011   1.340   1.450   3.491  0.7155 -2.8386 -0.1535
 3125SOL    HW221012   1.226   1.515   3.447  1.4604  0.6763  1.1870
 3126SOL     OW21013   2.654   4.183  12.451  0.5557  0.4284 -0.1518
 3126SOL    HW121014   2.688   4.184  12.361 -0.0361  0.2939 -0.3730
 3126SOL    HW221015   2.611   4.268  12.460 -0.7260 -0.2679  0.2141
 3127SOL     OW21016   3.354   2.606   7.591 -0.1302  0.0478 -0.1485
 3127SOL    HW121017   3.374   2.549   7.665 -0.7763 -0.9620 -0.7538
 3127SOL    HW221018   3.347   2.691   7.633 -0.2432 -0.4647  0.8791
 3128SOL     OW21019   0.268   2.890   6.437  0.6064  0.3280  0.4355
 3128SOL    HW121020   0.206   2.832   6.392  2.8144 -0.7030 -1.3007
 3128SOL    HW221021   0.338   2.906   6.374 -0.1818 -0.4247 -0.6386
 3129SOL     OW21022   0.907   1.914   2.200  0.4573  0.1779  0.0649
 3129SOL    HW121023   0.863   1.999   2.206  1.9075  0.9353 -0.3090
 3129SOL    HW221024   0.990   1.936   2.158 -0.5923  2.3146 -0.8702
 3130SOL     OW21025   1.972   3.246  17.698  0.7497  0.3754  0.6136
 3130SOL    HW121026   1.885   3.208  17.707  0.7233  0.0256 -1.0588
 3130SOL    HW221027   2.008   3.168  17.656 -1.4672 -0.5110  0.4156
 3131SOL     OW21028   0.942   1.546  10.278 -0.3795 -0.6167 -0.5912
 3131SOL    HW121029   0.944   1.642  10.273  0.7493 -0.7514 -3.2467
 3131SOL    HW221030   0.849   1.528  10.286 -1.2009  3.5782 -0.4639
 3132SOL     OW21031   2.826   1.185   3.811 -0.3476  0.0300 -0.5734
 3132SOL    HW121032   2.870   1.188   3.726 -0.4397 -1.5186 -0.6616
 3132SOL    HW221033   2.832   1.090   3.816 -0.6239 -0.0912 -2.3916
 3133SOL     OW21034   3.395   1.226  11.351  0.7563 -0.1107  0.5625
 3133SOL    HW121035   3.441   1.153  11.310  1.3339  0.1143  0.8136
 3133SOL    HW221036   3.307   1.189  11.350  0.0557  1.4893  3.8073
 3134SOL     OW21037   0.030   2.979   5.200  0.3021 -0.1617  0.2614
 3134SOL    HW121038   0.023   2.887   5.173  0.4522  0.6582 -2.5645
 3134SOL    HW221039   0.062   2.964   5.289  1.0518 -0.4741 -0.0623
 3135SOL     OW21040   1.533   4.459   4.719 -0.1191  0.4067 -0.0775
 3135SOL    HW121041   1.501   4.383   4.670  1.0989  0.3304 -0.7664
 3135SOL    HW221042   1.453   4.493   4.759 -1.4832 -1.1112 -1.4860
 3136SOL     OW21043   4.212   1.473   8.562 -0.3723  0.2391  0.5473
 3136SOL    HW121044   4.208   1.468   8.466 -1.2845 -2.3943  0.7229
 3136SOL    HW221045   4.128   1.441   8.595 -0.8878  0.5449 -0.4640
 3137SOL     OW21046   1.312   0.629  14.453  0.1000 -0.1499 -0.5755
 3137SOL    HW121047   1.311   0.564  14.523  1.1205 -0.9857 -1.3321
 3137SOL    HW221048   1.289   0.582  14.373 -0.3642  0.7343 -0.9655
 3138SOL     OW21049   1.261   1.933   8.388  0.7694  0.0832 -0.4942
 3138SOL    HW121050   1.284   1.991   8.461 -0.8880 -2.3625  1.9844
 3138SOL    HW221051   1.344   1.889   8.372  0.5773 -1.1758  1.8816
 3139SOL     OW21052   1.279   1.831   7.673  0.0618 -0.1110  0.3284
 3139SOL    HW121053   1.346   1.870   7.728 -1.2714  0.0263  1.8713
 3139SOL    HW221054   1.239   1.767   7.732  0.1070 -0.7325 -0.3169
 3140SOL     OW21055   3.606   1.566   2.610 -0.1593 -0.4341 -0.3869
 3140SOL    HW121056   3.589   1.521   2.693 -0.5519 -1.9744 -1.3074
 3140SOL    HW221057   3.574   1.655   2.627 -0.1838 -0.7238  1.1282
 3141SOL     OW21058   2.135   2.674   5.616  0.6343 -0.0957 -0.0925
 3141SOL    HW121059   2.137   2.625   5.699 -0.3398  1.6837  0.9835
 3141SOL    HW221060   2.108   2.755   5.659  0.6554  0.1920 -0.6248
 3142SOL     OW21061   1.536   3.131   6.772  0.1462  0.0817  0.3461
 3142SOL    HW121062   1.569   3.105   6.686  2.2949  1.1893  0.8352
 3142SOL    HW221063   1.543   3.226   6.761 -0.6541  0.0077 -0.7516
 3143SOL     OW21064   3.769   1.459   2.965 -0.1716  0.1755 -0.4728
 3143SOL    HW121065   3.856   1.426   2.942 -0.4338 -1.4738  0.8748
 3143SOL    HW221066   3.786   1.552   2.957 -0.0204  0.3592  1.9812
 3144SOL     OW21067   0.912   1.703  12.744 -0.3620  0.2216 -0.3477
 3144SOL    HW121068   0.905   1.608  12.731 -0.3997  0.5474 -2.5866
 3144SOL    HW221069   0.968   1.722  12.669 -0.1010 -3.1479 -1.0178
 3145SOL     OW21070   3.584   1.800   4.958  0.3554  0.4375  0.3925
 3145SOL    HW121071   3.557   1.863   4.892  2.8230  0.1481 -0.8907
 3145SOL    HW221072   3.679   1.797   4.949  0.4356 -0.1135  1.4694
 3146SOL     OW21073   4.182   0.894   4.554 -0.0737 -0.4615 -0.0339
 3146SOL    HW121074   4.220   0.895   4.642 -0.2895  0.8877  0.0334
 3146SOL    HW221075   4.261   0.902   4.501 -1.4492 -0.4258 -2.0931
 3147SOL     OW21076   3.405   0.227   9.781 -0.1748  0.3173 -0.4612
 3147SOL    HW121077   3.333   0.276   9.820  1.3383  1.0684  1.4043
 3147SOL    HW221078   3.367   0.147   9.746 -0.0575 -0.3137  0.8825
 3148SOL     OW21079   3.286   3.106  10.970  0.1088 -0.3273 -0.4447
 3148SOL    HW121080   3.238   3.182  11.004  3.1781  1.1353  0.6330
 3148SOL    HW221081   3.325   3.068  11.049  0.1379  0.4565 -0.0836
 3149SOL     OW21082   0.675   0.276   5.545 -0.1065 -0.1778 -0.1247
 3149SOL    HW121083   0.761   0.277   5.504 -1.2753  1.0150 -2.5404
 3149SOL    HW221084   0.635   0.193   5.520 -0.1272  0.0128 -0.7255
 3150SOL     OW21085   4.671   1.772   6.903  0.3650  0.0558 -0.3359
 3150SOL    HW121086   4.643   1.731   6.821 -0.7327 -1.3000  0.7426
 3150SOL    HW221087   4.613   1.846   6.884  1.7476  1.5813  1.3759
 3151SOL     OW21088   0.330   4.376   8.594 -0.5910 -0.0848 -0.2295
 3151SOL    HW121089   0.365   4.345   8.511  0.5403  0.9404 -0.1410
 3151SOL    HW221090   0.295   4.462   8.572 -0.0471  0.5603  1.3978
 3152SOL     OW21091   1.907   2.158   4.794  0.4514 -0.8814 -0.0147
 3152SOL    HW121092   1.840   2.192   4.734  1.0197 -0.5555 -0.4705
 3152SOL    HW221093   1.973   2.226   4.801 -0.4452  0.0628 -0.7950
 3153SOL     OW21094   3.398   1.300   8.159  0.0265 -0.2792  0.2594
 3153SOL    HW121095   3.471   1.342   8.204  0.6264 -0.7626 -0.2605
 3153SOL    HW221096   3.422   1.209   8.138 -0.9932 -0.5883  0.4336
 3154SOL     OW21097   3.591   3.670   0.819  0.1335  0.6890 -0.8030
 3154SOL    HW121098   3.542   3.683   0.738 -1.8008  2.4392  0.6636
 3154SOL    HW221099   3.545   3.733   0.875 -0.8893 -0.8337  0.0422
 3155SOL     OW21100   2.930   0.173  13.239  0.6757 -0.0224  0.4978
 3155SOL    HW121101   2.966   0.217  13.316 -1.4289  3.1262 -0.3011
 3155SOL    HW221102   3.008   0.173  13.183  0.4996  1.9434  0.2222
 3156SOL     OW21103   4.056   2.990  12.780  0.4122  0.4474 -0.0258
 3156SOL    HW121104   4.094   2.935  12.847 -1.9792  1.4430  2.1613
 3156SOL    HW221105   3.968   3.019  12.804 -0.6830 -3.7325  0.9530
 3157SOL     OW21106   0.912   0.977   3.267 -0.0010 -0.0482  0.2310
 3157SOL    HW121107   0.967   1.051   3.293  0.4498 -0.5592  0.7566
 3157SOL    HW221108   0.946   0.910   3.327  1.2161  1.5803  1.3608
 3158SOL     OW21109   0.182   3.029   3.906  0.0759  0.1286 -0.2567
 3158SOL    HW121110   0.275   3.044   3.927 -0.4174 -1.4659  3.0453
 3158SOL    HW221111   0.173   2.953   3.964  0.2453  0.6187  0.4172
 3159SOL     OW21112   3.283   4.619  17.270 -0.1988 -0.4589  0.0879
 3159SOL    HW121113   3.267   4.527  17.291 -1.8579 -0.3036 -0.5306
 3159SOL    HW221114   3.191   4.643  17.282 -0.3874 -1.0952 -0.1001
 3160SOL     OW21115   2.809   0.068  10.888  0.0190 -0.2110  0.7826
 3160SOL    HW121116   2.716   0.051  10.872 -0.3288  0.5165  2.0624
 3160SOL    HW221117   2.819   0.163  10.879  1.3738 -0.5682 -1.6166
 3161SOL     OW21118   2.979   3.742   1.119 -0.6181  0.1764  0.8126
 3161SOL    HW121119   3.037   3.724   1.045  0.3777  4.0366  0.6390
 3161SOL    HW221120   2.929   3.819   1.092 -1.8392  0.2604  3.3725
 3162SOL     OW21121   2.911   4.326   8.598 -0.4772 -0.5704 -0.4553
 3162SOL    HW121122   2.877   4.254   8.545 -1.2342  0.0513 -0.7946
 3162SOL    HW221123   2.836   4.334   8.657  0.7122 -3.1304  1.4250
 3163SOL     OW21124   0.039   0.647   3.539 -0.0368  0.1102  0.5686
 3163SOL    HW121125   0.016   0.739   3.549 -0.0412  0.1516  0.1598
 3163SOL    HW221126   0.118   0.654   3.594  0.5434 -0.2823 -0.2159
 3164SOL     OW21127   1.941   4.444  12.466 -0.2341  0.5416  0.0399
 3164SOL    HW121128   1.955   4.513  12.401  1.8912 -1.5428 -1.7043
 3164SOL    HW221129   2.016   4.392  12.437  0.3126  0.9256  0.7596
 3165SOL     OW21130   0.605   2.013   9.127  0.4674 -0.0526  0.3405
 3165SOL    HW121131   0.509   2.018   9.130  0.5530  1.3383  0.8424
 3165SOL    HW221132   0.644   2.043   9.209 -0.1741  0.0263  0.6206
 3166SOL     OW21133   3.242   1.767   7.554 -0.0150 -0.1517 -0.4148
 3166SOL    HW121134   3.316   1.707   7.562  1.1784  1.3364 -0.3287
 3166SOL    HW221135   3.290   1.848   7.536  1.3508 -0.7461  0.5440
 3167SOL     OW21136   4.040   0.021   5.546 -0.8530 -0.1975 -0.4784
 3167SOL    HW121137   3.949   0.029   5.518 -0.1259 -0.6538 -2.9504
 3167SOL    HW221138   4.076   0.110   5.542 -2.6211  0.6590  2.6101
 3168SOL     OW21139   4.271   2.104   0.628 -0.3074 -0.3587  0.0068
 3168SOL    HW121140   4.236   2.025   0.670  0.9521 -0.4348  0.9044
 3168SOL    HW221141   4.288   2.079   0.537  1.3984  0.9038 -0.0101
 3169SOL     OW21142   2.463   2.414   8.275 -0.0578  0.3638 -0.1051
 3169SOL    HW121143   2.491   2.380   8.360 -0.8964  2.7080  1.0997
 3169SOL    HW221144   2.528   2.369   8.221  0.4168  2.1567 -1.0208
 3170SOL     OW21145   4.600   1.132  17.306  1.0757 -0.3656  0.2458
 3170SOL    HW121146   4.617   1.135  17.400 -0.7668 -1.8712  0.6204
 3170SOL    HW221147   4.520   1.079  17.303  1.3784 -0.7553 -0.7671
 3171SOL     OW21148   3.164   2.220   5.390  0.3721  0.4212  0.1362
 3171SOL    HW121149   3.161   2.176   5.305 -1.1670  1.1336 -0.1775
 3171SOL    HW221150   3.165   2.314   5.371 -1.7752  0.4145  0.0154
 3172SOL     OW21151   1.388   2.933   5.872 -0.3052 -0.5267 -0.0999
 3172SOL    HW121152   1.397   2.841   5.849 -2.0972 -0.7824  0.2040
 3172SOL    HW221153   1.345   2.969   5.794  0.1690 -0.7934 -0.4835
 3173SOL     OW21154   0.314   3.968   2.231  0.4145  0.0149 -0.5216
 3173SOL    HW121155   0.218   3.973   2.235  0.3490 -3.0709  1.8917
 3173SOL    HW221156   0.328   3.883   2.273  1.3324  0.9833  1.1454
 3174SOL     OW21157   2.774   0.081   7.827  0.6355 -0.0570 -0.1666
 3174SOL    HW121158   2.755   0.073   7.920  0.3818  2.2439 -0.0173
 3174SOL    HW221159   2.831   0.010   7.799 -1.2116 -0.8084 -1.9956
 3175SOL     OW21160   3.426   4.065   7.966 -0.1339  0.4186 -0.1430
 3175SOL    HW121161   3.460   3.994   7.911  1.2148  1.3183 -0.4989
 3175SOL    HW221162   3.370   4.019   8.028 -0.8347  1.3348 -0.1094
 3176SOL     OW21163   3.038   1.007   8.865  0.3856 -0.3210  0.1180
 3176SOL    HW121164   3.036   0.940   8.796 -0.9114 -1.2374  1.0417
 3176SOL    HW221165   3.058   0.957   8.944  0.7473  0.5041  0.5479
 3177SOL     OW21166   0.190   4.529   3.027 -0.0016  0.0575 -0.1756
 3177SOL    HW121167   0.209   4.456   3.086  0.3041  1.0795  0.9965
 3177SOL    HW221168   0.271   4.523   2.977  0.2352 -0.0010  0.2142
 3178SOL     OW21169   1.364   1.473   5.424  0.3128 -0.3098  0.3410
 3178SOL    HW121170   1.432   1.414   5.455  0.7673  0.7038  1.2639
 3178SOL    HW221171   1.405   1.557   5.405 -0.2089 -0.0415  0.3828
 3179SOL     OW21172   4.408   2.710   7.796 -0.4234  0.2458 -0.5611
 3179SOL    HW121173   4.494   2.715   7.838 -0.7982 -0.5922  0.3234
 3179SOL    HW221174   4.362   2.788   7.827  0.4331 -0.1311  1.7116
 3180SOL     OW21175   3.940   1.825  15.811  0.1078 -0.5343 -0.0217
 3180SOL    HW121176   3.940   1.788  15.723  3.0417  0.3102 -0.3748
 3180SOL    HW221177   3.928   1.749  15.867 -3.2989  1.0374  1.4225
 3181SOL     OW21178   4.391   0.089  14.167 -0.0533  0.2297 -0.0414
 3181SOL    HW121179   4.445   0.088  14.247 -1.7109 -0.6897  1.0718
 3181SOL    HW221180   4.340   0.171  14.171  1.3600  1.0752  0.8138
 3182SOL     OW21181   3.721   0.949   5.690  0.5361  0.0601 -0.0760
 3182SOL    HW121182   3.672   1.007   5.749  2.4311  1.6373 -0.0576
 3182SOL    HW221183   3.777   0.901   5.752 -0.0921 -0.4252  0.1209
 3183SOL     OW21184   0.502   2.050  15.702 -0.0869  0.6367 -0.5087
 3183SOL    HW121185   0.426   1.999  15.675  0.1728 -0.7138  1.3311
 3183SOL    HW221186   0.478   2.140  15.682 -1.9778  0.0772 -0.7379
 3184SOL     OW21187   3.013   4.537   6.680 -0.8221 -0.1493  0.2175
 3184SOL    HW121188   2.922   4.561   6.700 -0.8669  1.7335 -2.3089
 3184SOL    HW221189   3.062   4.612   6.712 -0.7474 -0.2784  0.4032
 3185SOL     OW21190   3.776   1.516   7.816 -0.0185  0.4452  0.0939
 3185SOL    HW121191   3.690   1.553   7.837 -0.0552 -0.7391  2.0041
 3185SOL    HW221192   3.810   1.506   7.905  1.8515  2.5566 -0.3891
 3186SOL     OW21193   1.077   1.968   7.514 -0.3603  0.0170 -0.2519
 3186SOL    HW121194   1.072   1.916   7.434  0.1997  0.0928 -0.3338
 3186SOL    HW221195   1.155   1.933   7.557 -0.9615 -0.3361  0.5662
 3187SOL     OW21196   4.082   4.725   7.795 -0.9927  0.1195 -0.6581
 3187SOL    HW121197   4.025   0.063   7.819 -0.9536 -0.0095 -0.1926
 3187SOL    HW221198   4.030   4.648   7.819 -0.7661  0.3327  0.4880
 3188SOL     OW21199   1.322   2.840   2.113 -0.0676  0.3215 -0.2531
 3188SOL    HW121200   1.323   2.780   2.037 -1.0834  0.7148 -0.5801
 3188SOL    HW221201   1.312   2.774   2.182 -1.9805 -0.0935 -0.9250
 3189SOL     OW21202   1.596   3.232   4.423  0.5570  0.1675 -0.2712
 3189SOL    HW121203   1.635   3.236   4.336  1.4228  1.1012  0.1611
 3189SOL    HW221204   1.547   3.315   4.419 -0.2783 -0.3684 -1.1866
 3190SOL     OW21205   0.412   2.512   6.007  0.1053 -0.0295  0.0475
 3190SOL    HW121206   0.326   2.524   5.966  0.2983 -0.9685 -0.6228
 3190SOL    HW221207   0.474   2.544   5.943 -0.4898  2.1160  0.5400
 3191SOL     OW21208   0.820   3.585   9.838  0.5644  0.5457  0.1456
 3191SOL    HW121209   0.736   3.630   9.821  0.1736  0.3733  1.5975
 3191SOL    HW221210   0.875   3.631   9.774 -0.1570 -1.0383 -1.5886
 3192SOL     OW21211   2.076   3.169  13.838 -0.8599  0.2401  0.4612
 3192SOL    HW121212   2.002   3.178  13.778 -0.1093  0.6340 -0.4218
 3192SOL    HW221213   2.079   3.074  13.839  0.1385  0.2363 -1.7786
 3193SOL     OW21214   2.893   2.403  14.040 -0.5681 -0.8518 -0.7569
 3193SOL    HW121215   2.980   2.371  14.062  0.0517  0.7857 -0.8167
 3193SOL    HW221216   2.910   2.474  13.977 -1.8241 -0.2181 -0.3785
 3194SOL     OW21217   2.873   1.999   8.477  0.2151  0.2885 -0.6929
 3194SOL    HW121218   2.817   1.925   8.502 -0.5455  0.6456 -1.3675
 3194SOL    HW221219   2.951   1.959   8.437  2.5092  3.5557  0.5488
 3195SOL     OW21220   3.351   0.563  16.515 -0.2422 -0.0769 -0.2116
 3195SOL    HW121221   3.309   0.500  16.574 -1.8905  0.1027 -1.2072
 3195SOL    HW221222   3.276   0.608  16.476 -1.8249  0.0382  2.9818
 3196SOL     OW21223   1.675   2.764   0.023 -0.2326  0.4462 -0.1575
 3196SOL    HW121224   1.673   2.740  17.669 -0.6526  1.5895 -0.4436
 3196SOL    HW221225   1.582   2.764   0.046 -0.4709  1.7461 -1.1807
 3197SOL     OW21226   0.150   2.142   4.326 -0.0096  0.3521 -0.0708
 3197SOL    HW121227   0.114   2.141   4.415 -0.2611 -1.2999 -0.1981
 3197SOL    HW221228   0.224   2.083   4.336  0.5743  0.8882 -1.2121
 3198SOL     OW21229   2.765   1.153   8.072  0.6673 -0.8294  0.5229
 3198SOL    HW121230   2.761   1.175   8.165 -1.7654  1.9899 -0.2520
 3198SOL    HW221231   2.829   1.215   8.036 -1.7140  1.1164 -0.3358
 3199SOL     OW21232   0.911   3.615   6.799 -0.3149  0.2631 -0.1280
 3199SOL    HW121233   0.879   3.576   6.881  0.7334  0.5963  0.4430
 3199SOL    HW221234   0.986   3.658   6.840 -0.1269 -1.8031  1.6873
 3200SOL     OW21235   4.255   2.878   1.826 -0.2253  0.4851 -0.2997
 3200SOL    HW121236   4.327   2.894   1.766  0.3349 -1.2930 -0.1224
 3200SOL    HW221237   4.232   2.966   1.853  2.1880  1.1127 -0.2802
 3201SOL     OW21238   0.416   3.508  11.162 -0.0297  0.3013 -0.0354
 3201SOL    HW121239   0.396   3.600  11.141 -1.8932  0.1652  1.1283
 3201SOL    HW221240   0.403   3.527  11.255 -0.2904 -2.9865  0.5862
 3202SOL     OW21241   0.461   3.841  11.771 -0.1959  0.6759 -0.1992
 3202SOL    HW121242   0.370   3.817  11.791  0.0570  0.4954  0.7431
 3202SOL    HW221243   0.506   3.783  11.833 -0.3970  1.3466  0.5826
 3203SOL     OW21244   0.140   1.361  12.352  0.2672  0.1123  0.3257
 3203SOL    HW121245   0.137   1.400  12.265 -1.6004 -1.3537 -0.2738
 3203SOL    HW221246   0.170   1.431  12.410  1.4052 -1.6180  1.8257
 3204SOL     OW21247   2.689   4.299  12.043 -0.0985  0.0271 -0.3809
 3204SOL    HW121248   2.602   4.298  12.004 -0.1115 -1.3387 -0.3272
 3204SOL    HW221249   2.738   4.322  11.964  1.1529  2.2746  1.0283
 3205SOL     OW21250   3.423   3.464   5.615 -0.0421  0.8345  0.1021
 3205SOL    HW121251   3.517   3.450   5.622  0.1052  2.5335  1.4917
 3205SOL    HW221252   3.422   3.559   5.604 -1.2647  0.9670  1.2039
 3206SOL     OW21253   4.330   1.826   8.964 -0.0788  0.3101  0.2219
 3206SOL    HW121254   4.331   1.735   8.936  1.5131  0.7458 -1.0914
 3206SOL    HW221255   4.268   1.860   8.899  1.5004 -0.0824 -1.4768
 3207SOL     OW21256   3.274   1.099   9.518  0.1016  0.3015 -0.1253
 3207SOL    HW121257   3.283   1.117   9.612  0.2275  2.3640 -0.5285
 3207SOL    HW221258   3.364   1.124   9.493  0.0234  1.0831  0.3714
 3208SOL     OW21259   0.810   3.988   8.121 -0.2871  0.2607 -0.2044
 3208SOL    HW121260   0.779   4.023   8.038  0.6800  0.6149 -0.4165
 3208SOL    HW221261   0.872   4.051   8.157 -0.8869  0.4825  0.4330
 3209SOL     OW21262   3.447   3.860   0.939  0.2041  0.1787 -0.5039
 3209SOL    HW121263   3.511   3.915   0.895  1.1270 -0.0797  0.5057
 3209SOL    HW221264   3.380   3.928   0.941 -0.4415 -0.4207 -2.1175
 3210SOL     OW21265   0.578   4.137   8.868  0.7732 -0.7719  0.2263
 3210SOL    HW121266   0.517   4.210   8.874 -0.7537 -2.1624  1.5513
 3210SOL    HW221267   0.579   4.117   8.774  0.9999 -0.0960  0.0851
 3211SOL     OW21268   4.666   3.531   0.374  0.0003  0.6236  0.1606
 3211SOL    HW121269   4.718   3.457   0.405 -5.2011 -3.5273 -0.9270
 3211SOL    HW221270   4.605   3.552   0.446  0.9921  0.6266  0.9953
 3212SOL     OW21271   0.797   0.678   7.333 -0.3869 -0.6943  0.1537
 3212SOL    HW121272   0.770   0.770   7.331 -0.6389 -0.7895 -0.6646
 3212SOL    HW221273   0.821   0.657   7.243 -0.4234 -1.7701  0.3985
 3213SOL     OW21274   4.166   1.746   6.504  0.3823 -0.5566  1.0311
 3213SOL    HW121275   4.145   1.829   6.546 -1.6270 -0.6728  0.2602
 3213SOL    HW221276   4.135   1.676   6.561 -0.4264  0.5169  1.9017
 3214SOL     OW21277   3.376   1.728  11.588  0.2019 -0.5911  0.4593
 3214SOL    HW121278   3.468   1.735  11.611  0.1722 -1.4752  0.8488
 3214SOL    HW221279   3.347   1.773  11.667  0.7173  2.4813 -1.0811
 3215SOL     OW21280   1.734   1.878  14.069 -0.3292  0.0501 -0.2197
 3215SOL    HW121281   1.734   1.857  13.976  0.0703 -2.3543  0.3389
 3215SOL    HW221282   1.692   1.804  14.112 -3.5354  0.1657 -3.1390
 3216SOL     OW21283   2.066   4.586  10.676  0.4509 -0.0316 -0.1104
 3216SOL    HW121284   2.028   4.590  10.763 -1.3191 -1.3550 -0.8358
 3216SOL    HW221285   2.089   4.678  10.660  0.2840 -0.0981 -0.7405
 3217SOL     OW21286   3.154   2.530  15.350 -0.0586 -0.3153 -0.6478
 3217SOL    HW121287   3.099   2.605  15.330  1.7672  0.9268 -1.0204
 3217SOL    HW221288   3.087   2.465  15.330 -0.3138  0.1384 -1.2441
 3218SOL     OW21289   0.761   0.780   0.093  0.0349  0.1096  0.3402
 3218SOL    HW121290   0.771   0.865   0.049  2.1230 -0.8773 -1.0887
 3218SOL    HW221291   0.678   0.798   0.137  1.4662  4.3603  1.3120
 3219SOL     OW21292   1.940   1.069  16.847  0.1277  0.4730 -0.4006
 3219SOL    HW121293   1.952   0.977  16.822 -1.5788  0.1650 -0.0915
 3219SOL    HW221294   1.945   1.119  16.766  0.1762 -1.6109 -1.6637
 3220SOL     OW21295   0.500   1.513   7.644 -0.2171  0.3446 -0.2533
 3220SOL    HW121296   0.424   1.551   7.600 -0.7588 -0.3644  0.0469
 3220SOL    HW221297   0.487   1.534   7.737 -0.0554  1.4682 -0.4926
 3221SOL     OW21298   2.824   1.374  11.848  0.4828 -0.1994 -0.3331
 3221SOL    HW121299   2.785   1.361  11.762  2.2488 -0.6374 -1.0801
 3221SOL    HW221300   2.802   1.467  11.853 -1.0040 -0.5123 -1.2599
 3222SOL     OW21301   0.112   0.372   7.140  0.2177  0.2420 -0.3744
 3222SOL    HW121302   0.138   0.459   7.170 -0.7772  1.1325 -2.1743
 3222SOL    HW221303   0.047   0.346   7.205  0.7423 -0.3223 -0.0666
 3223SOL     OW21304   2.823   1.714   9.947 -0.1538  0.0839  0.2212
 3223SOL    HW121305   2.899   1.657   9.964 -0.3335 -0.4780 -0.8401
 3223SOL    HW221306   2.862   1.796   9.977 -1.0325  0.3106  0.7169
 3224SOL     OW21307   2.211   2.826   8.424  0.2007  0.0497 -0.2248
 3224SOL    HW121308   2.202   2.810   8.330  0.7862  1.3870 -0.5062
 3224SOL    HW221309   2.206   2.735   8.451  1.3308 -0.2473 -0.9896
 3225SOL     OW21310   4.556   1.839  14.109  0.0597 -0.5430 -0.1788
 3225SOL    HW121311   4.491   1.784  14.065 -0.2309 -0.0611 -0.3537
 3225SOL    HW221312   4.500   1.903  14.153 -1.0341 -0.4276 -1.7580
 3226SOL     OW21313   1.548   3.995   8.556 -0.3266  0.4005  0.4023
 3226SOL    HW121314   1.526   4.083   8.587 -0.2315  0.0220  1.5422
 3226SOL    HW221315   1.571   4.017   8.466  1.7562 -1.4687  0.4657
 3227SOL     OW21316   3.324   4.708   7.711  0.0200 -0.2973 -0.2590
 3227SOL    HW121317   3.418   4.708   7.695  0.4592  0.5920  2.3989
 3227SOL    HW221318   3.298   4.620   7.683 -0.0761 -0.7678  1.3275
 3228SOL     OW21319   1.753   0.867   6.135 -0.1878  0.1668  0.1544
 3228SOL    HW121320   1.842   0.837   6.152 -0.5628 -0.8752  0.2796
 3228SOL    HW221321   1.758   0.955   6.097  1.3084 -0.0513 -0.1324
 3229SOL     OW21322   3.825   0.940   7.782 -0.2385 -0.2401  0.2736
 3229SOL    HW121323   3.746   0.957   7.832 -1.3688 -1.4910 -1.0969
 3229SOL    HW221324   3.807   0.982   7.698 -2.7977  0.5295  1.2137
 3230SOL     OW21325   2.696   2.610   8.428 -0.2302  0.0447  0.1649
 3230SOL    HW121326   2.719   2.552   8.502 -3.4498 -1.3738  0.0401
 3230SOL    HW221327   2.644   2.552   8.373 -0.9087 -0.9833  1.8771
 3231SOL     OW21328   1.439   1.236  13.158 -0.3247 -0.8959  0.0773
 3231SOL    HW121329   1.506   1.226  13.091  0.5631 -2.5598  1.2230
 3231SOL    HW221330   1.459   1.327  13.181  0.4710 -0.8730 -0.7198
 3232SOL     OW21331   4.162   1.510   4.608 -0.0160 -0.3249 -0.8727
 3232SOL    HW121332   4.134   1.474   4.692 -0.3845  1.0295 -0.4235
 3232SOL    HW221333   4.083   1.524   4.555  1.5192 -2.0560 -3.6254
 3233SOL     OW21334   4.488   1.354  17.206  0.0022  0.2562 -0.1369
 3233SOL    HW121335   4.457   1.385  17.291 -1.4239 -1.7257  0.0836
 3233SOL    HW221336   4.537   1.275  17.230  1.6875  1.3482 -0.0163
 3234SOL     OW21337   3.241   2.956   2.302 -0.1593  0.6910 -0.2974
 3234SOL    HW121338   3.217   2.937   2.211  0.4920 -0.0853 -0.3121
 3234SOL    HW221339   3.313   3.017   2.287  1.9557 -1.5770  0.5735
 3235SOL     OW21340   4.465   2.080   6.497 -0.6036  0.0393  0.3250
 3235SOL    HW121341   4.475   2.126   6.581  1.4158 -0.6375  0.4681
 3235SOL    HW221342   4.538   2.017   6.495 -0.2167  0.4609  1.2641
 3236SOL     OW21343   0.091   0.456   9.461 -0.0360  0.5544  0.0570
 3236SOL    HW121344   0.086   0.488   9.551  1.1221 -2.1079  1.0565
 3236SOL    HW221345   0.174   0.500   9.438  0.4362 -0.5633 -0.3638
 3237SOL     OW21346   1.962   0.533   7.042  0.0712  0.1718  0.0565
 3237SOL    HW121347   2.025   0.603   7.060 -1.3610  1.2950  0.7229
 3237SOL    HW221348   1.883   0.556   7.091  0.1753  2.0337 -0.6442
 3238SOL     OW21349   4.379   0.612   5.472 -0.0879 -0.1835 -0.8839
 3238SOL    HW121350   4.325   0.562   5.411  0.7720 -2.0575 -0.0741
 3238SOL    HW221351   4.459   0.624   5.421  1.0146 -2.8382  0.2398
 3239SOL     OW21352   1.239   0.329   3.503  0.0392 -0.2199 -0.0882
 3239SOL    HW121353   1.310   0.265   3.512  0.3374 -0.1839 -2.1436
 3239SOL    HW221354   1.223   0.337   3.597  0.4458 -0.7575  0.0276
 3240SOL     OW21355   4.491   3.933   5.667  0.3314 -0.0795  0.3251
 3240SOL    HW121356   4.529   3.861   5.718  1.5772  0.1780 -0.2409
 3240SOL    HW221357   4.396   3.927   5.679  0.1062  1.6866 -0.6693
 3241SOL     OW21358   4.080   2.118  11.252  0.2841 -0.4462  0.0987
 3241SOL    HW121359   3.985   2.129  11.257  0.0125 -1.7602 -1.9748
 3241SOL    HW221360   4.103   2.163  11.170  0.3317 -2.4081 -0.9679
 3242SOL     OW21361   0.777   3.573   7.049 -0.4781  0.0128  0.3286
 3242SOL    HW121362   0.808   3.499   7.101 -1.2746 -0.8606 -0.4368
 3242SOL    HW221363   0.685   3.574   7.076 -0.1612 -0.3696  1.4245
 3243SOL     OW21364   3.407   3.227  12.189 -0.3641 -0.2070  0.0070
 3243SOL    HW121365   3.413   3.229  12.284 -0.6924 -1.8622  0.0537
 3243SOL    HW221366   3.366   3.141  12.179  0.1044 -0.4054 -0.2337
 3244SOL     OW21367   3.800   3.132   5.237  0.3354 -0.7374 -0.0773
 3244SOL    HW121368   3.819   3.129   5.143  0.7948  0.2061 -0.0213
 3244SOL    HW221369   3.885   3.107   5.272 -1.2738 -1.3050  3.3584
 3245SOL     OW21370   2.375   1.332   4.361 -0.5176 -0.0034  0.2373
 3245SOL    HW121371   2.426   1.412   4.346  0.1065 -0.2015  1.3096
 3245SOL    HW221372   2.410   1.266   4.302 -0.0704 -0.1518  0.6675
 3246SOL     OW21373   0.450   3.052   3.974  0.0939 -0.0011 -0.2601
 3246SOL    HW121374   0.522   3.055   4.037  0.9240 -0.7879 -1.1656
 3246SOL    HW221375   0.441   3.141   3.939 -0.2984 -0.1269 -0.4798
 3247SOL     OW21376   0.415   1.461   9.823  0.4743  0.1558  0.5022
 3247SOL    HW121377   0.397   1.553   9.806  0.5439  0.3380  1.4692
 3247SOL    HW221378   0.469   1.434   9.748  0.4773  0.1560  0.5044
 3248SOL     OW21379   0.265   3.135   5.361  0.3742  0.2071  0.4532
 3248SOL    HW121380   0.173   3.162   5.368  0.2738  0.8385 -3.3674
 3248SOL    HW221381   0.275   3.145   5.266  0.8315  2.5704  0.7463
 3249SOL     OW21382   3.915   2.859   4.654 -0.1358  0.0093 -0.0549
 3249SOL    HW121383   3.956   2.850   4.567 -1.7538 -0.2795 -0.7752
 3249SOL    HW221384   3.954   2.938   4.693 -1.1664 -0.6364  2.2542
 3250SOL     OW21385   1.026   2.192   8.118  0.2380 -0.1823 -0.5562
 3250SOL    HW121386   0.964   2.121   8.131 -2.1928  1.6585 -2.0948
 3250SOL    HW221387   1.093   2.142   8.071  1.7651 -1.3363  2.8449
 3251SOL     OW21388   2.116   1.181   5.710  0.5479 -0.7541  0.1321
 3251SOL    HW121389   2.135   1.271   5.737 -1.4693 -0.8339  1.7735
 3251SOL    HW221390   2.038   1.157   5.759  1.4221  0.9077  2.3253
 3252SOL     OW21391   1.168   3.244   2.518  0.7336 -0.5081 -0.5435
 3252SOL    HW121392   1.113   3.313   2.480  0.0371 -0.9698 -0.3928
 3252SOL    HW221393   1.146   3.176   2.454  1.3839 -0.8105 -0.4391
 3253SOL     OW21394   2.558   4.650   5.207 -0.8619  0.2844  0.4291
 3253SOL    HW121395   2.486   4.590   5.190 -0.1660 -0.0019 -1.4436
 3253SOL    HW221396   2.523   4.696   5.284 -0.2761  1.5992 -0.0932
 3254SOL     OW21397   1.394   3.027   7.655 -0.5092 -0.2584  0.0151
 3254SOL    HW121398   1.413   3.108   7.702 -2.0361 -1.6446  3.0217
 3254SOL    HW221399   1.313   3.052   7.610 -0.5697  0.7256  0.6698
 3255SOL     OW21400   2.388   2.655   7.693  0.0022  0.2566 -0.0586
 3255SOL    HW121401   2.354   2.704   7.619 -4.0329 -0.0330  1.6138
 3255SOL    HW221402   2.321   2.662   7.762  1.3276  0.0807  1.2610
 3256SOL     OW21403   0.542   4.068   9.495 -0.3041 -0.6343  0.2616
 3256SOL    HW121404   0.595   4.086   9.418 -0.8210  2.8908  0.7428
 3256SOL    HW221405   0.592   4.132   9.545  2.1397 -1.6596 -0.8612
 3257SOL     OW21406   0.812   1.510   2.347 -0.8735 -0.3630 -0.2290
 3257SOL    HW121407   0.754   1.474   2.280 -1.0696 -1.1540  0.3643
 3257SOL    HW221408   0.865   1.571   2.296  0.5246 -0.6543  0.8996
 3258SOL     OW21409   1.510   1.532  16.132 -0.5791  0.6334  0.0065
 3258SOL    HW121410   1.562   1.452  16.143 -2.1700 -0.3482  0.4779
 3258SOL    HW221411   1.458   1.534  16.212 -0.8664 -3.4310 -0.0764
 3259SOL     OW21412   2.439   4.351   3.697  0.0160  0.1284 -0.1408
 3259SOL    HW121413   2.344   4.361   3.686 -0.0208  2.1389  1.9968
 3259SOL    HW221414   2.453   4.286   3.629 -1.8627  0.5486 -0.9496
 3260SOL     OW21415   1.106   2.186  11.160 -0.1833 -0.1246  0.8880
 3260SOL    HW121416   1.099   2.144  11.075  0.6831 -0.2927  0.8985
 3260SOL    HW221417   1.159   2.260  11.129 -1.0860  1.0643  2.1719
 3261SOL     OW21418   2.906   2.829   1.730 -0.0831  0.0131 -0.5100
 3261SOL    HW121419   2.940   2.891   1.794  1.9674  0.9853 -2.5019
 3261SOL    HW221420   2.866   2.888   1.666  2.0443  1.6244 -0.3838
 3262SOL     OW21421   2.041   3.785   2.854 -0.3499  0.7399  0.2545
 3262SOL    HW121422   2.027   3.713   2.914  2.5701  0.8654  1.0988
 3262SOL    HW221423   1.976   3.761   2.789 -1.1735 -2.7789  2.4248
 3263SOL     OW21424   2.396   0.058   3.452  0.4718 -0.7495  0.1228
 3263SOL    HW121425   2.468   0.099   3.403  0.5335  2.0980  2.5907
 3263SOL    HW221426   2.324   0.047   3.390  0.7918 -4.1123  0.3681
 3264SOL     OW21427   3.757   0.685   7.099 -0.1270 -0.3144 -0.4566
 3264SOL    HW121428   3.716   0.703   7.015  0.6956  0.0447 -0.7802
 3264SOL    HW221429   3.739   0.767   7.146 -1.7592 -1.2065  0.4695
 3265SOL     OW21430   2.256   3.167   0.924 -0.0537  0.0546 -0.5291
 3265SOL    HW121431   2.331   3.112   0.901  1.0407  1.9987 -1.5894
 3265SOL    HW221432   2.302   3.250   0.938  0.1148 -0.1844  0.3652
 3266SOL     OW21433   4.042   0.122   6.847  0.2725  0.2104 -0.2606
 3266SOL    HW121434   3.961   0.118   6.795  0.9316  0.3692 -1.2879
 3266SOL    HW221435   4.042   0.210   6.883  1.0868  0.5069 -1.0137
 3267SOL     OW21436   2.612   4.729   7.052 -0.1060  0.0868 -0.1967
 3267SOL    HW121437   2.560   4.650   7.042  0.3092 -0.3313  0.9946
 3267SOL    HW221438   2.658   4.732   6.968 -1.6612 -0.8769 -1.0666
 3268SOL     OW21439   1.924   2.526   4.214  0.1214  0.8474  0.0769
 3268SOL    HW121440   1.973   2.569   4.285 -0.4733 -0.1076  1.0584
 3268SOL    HW221441   1.971   2.444   4.201  0.7794  1.3392 -0.6884
 3269SOL     OW21442   1.404   2.208  12.193  0.7077  0.1532 -0.5010
 3269SOL    HW121443   1.366   2.285  12.236  0.7564 -1.1596  1.8698
 3269SOL    HW221444   1.432   2.162  12.272  1.3920 -1.7503 -1.8444
 3270SOL     OW21445   2.447   1.272   6.121 -0.1805 -0.1446  0.2989
 3270SOL    HW121446   2.469   1.359   6.155  0.7200  0.0938 -0.8594
 3270SOL    HW221447   2.524   1.226   6.153 -0.3273 -0.3911  0.2922
 3271SOL     OW21448   2.771   2.021   3.388  0.1635  0.2260  0.4554
 3271SOL    HW121449   2.821   2.090   3.431 -0.2528  0.7403  0.1186
 3271SOL    HW221450   2.829   1.989   3.318  0.9386  1.8176  0.3666
 3272SOL     OW21451   4.012   0.611  12.304  0.2103 -0.2810  0.1254
 3272SOL    HW121452   4.051   0.557  12.236  1.5700  0.3659  0.3902
 3272SOL    HW221453   4.012   0.553  12.380 -0.9249 -1.3183 -0.6737
 3273SOL     OW21454   1.023   3.077  13.418 -0.0095  0.5114  0.4805
 3273SOL    HW121455   1.098   3.018  13.419 -0.9732 -0.7054  0.5953
 3273SOL    HW221456   0.963   3.030  13.360 -0.7185  1.1985  0.6538
 3274SOL     OW21457   1.378   3.138   3.450 -0.0708 -0.5291 -0.5103
 3274SOL    HW121458   1.409   3.187   3.526  0.3035  1.6383 -2.0519
 3274SOL    HW221459   1.388   3.049   3.486  0.1406  0.3560  1.6279
 3275SOL     OW21460   1.788   3.501   5.002  0.0461 -0.0325 -0.0715
 3275SOL    HW121461   1.714   3.518   5.061 -0.3933 -2.0313 -0.0467
 3275SOL    HW221462   1.846   3.572   5.028 -1.6548  0.7428  1.6279
 3276SOL     OW21463   1.662   0.500   2.862 -0.2063 -0.4847  0.4410
 3276SOL    HW121464   1.674   0.595   2.872  1.6994 -0.5876 -0.7771
 3276SOL    HW221465   1.635   0.501   2.770  1.9051  3.5936 -0.1452
 3277SOL     OW21466   2.094   2.573  11.017  0.2055 -0.4576  0.4559
 3277SOL    HW121467   2.175   2.524  11.003  1.9393  2.6634 -0.6291
 3277SOL    HW221468   2.120   2.665  11.020 -0.5030 -0.2077 -1.1284
 3278SOL     OW21469   1.926   1.434   1.807  0.0301 -0.3947  0.4709
 3278SOL    HW121470   1.898   1.373   1.739  3.5732 -2.5719  0.9207
 3278SOL    HW221471   1.997   1.382   1.845  0.9083 -0.3890 -1.1331
 3279SOL     OW21472   0.533   4.550  17.662 -0.0292 -0.5485  0.5605
 3279SOL    HW121473   0.597   4.549  17.733  0.0900  0.1852  0.4616
 3279SOL    HW221474   0.453   4.524  17.707  0.6483 -1.7251  1.0897
 3280SOL     OW21475   3.344   0.085   7.031 -0.1260 -0.5950 -0.0489
 3280SOL    HW121476   3.385   0.165   7.066  0.3167 -0.0046 -1.8990
 3280SOL    HW221477   3.251   0.104   7.028 -0.4141 -1.9149  0.6634
 3281SOL     OW21478   1.535   2.072  17.516  0.1218  0.4171  0.0993
 3281SOL    HW121479   1.473   2.050  17.447 -0.0993  1.4127 -0.0136
 3281SOL    HW221480   1.510   2.004  17.580  1.4733 -0.7885 -0.6452
 3282SOL     OW21481   3.842   4.643   5.774  0.2742  0.1276  1.0988
 3282SOL    HW121482   3.896   4.676   5.702 -1.3657 -1.2291 -0.7473
 3282SOL    HW221483   3.851   4.548   5.759  0.7973  0.2080  0.9023
 3283SOL     OW21484   1.462   0.755   5.603 -0.3940 -0.0607 -0.7307
 3283SOL    HW121485   1.524   0.698   5.558  1.3844  0.4325  1.1245
 3283SOL    HW221486   1.407   0.686   5.639 -1.7872  0.6864 -1.4143
 3284SOL     OW21487   3.724   4.262   7.561 -0.0390 -0.2369  0.0268
 3284SOL    HW121488   3.780   4.318   7.507 -1.9353  0.7761 -0.8634
 3284SOL    HW221489   3.690   4.324   7.626 -0.8046  1.3046 -1.8359
 3285SOL     OW21490   3.828   2.287   4.988  0.3000  0.2462 -0.0972
 3285SOL    HW121491   3.805   2.230   4.915 -0.5675 -1.0442  1.1697
 3285SOL    HW221492   3.768   2.252   5.054  0.0723 -0.7281 -0.8178
 3286SOL     OW21493   4.258   4.388   4.604  0.0673  0.0850  0.1495
 3286SOL    HW121494   4.279   4.295   4.601 -1.3558 -0.2774  1.6626
 3286SOL    HW221495   4.168   4.384   4.635  0.1473 -0.4518  0.3045
 3287SOL     OW21496   3.138   3.366   6.480 -0.0216 -0.0312  0.3694
 3287SOL    HW121497   3.142   3.271   6.482 -0.9708 -0.1283 -1.9930
 3287SOL    HW221498   3.061   3.386   6.533  0.7277  1.9369  0.7219
 3288SOL     OW21499   0.388   3.200   2.007 -0.6133 -0.2103  0.1847
 3288SOL    HW121500   0.320   3.186   2.074 -0.0615  1.3600  1.0646
 3288SOL    HW221501   0.344   3.155   1.935 -1.6937 -0.5056  1.0228
 3289SOL     OW21502   2.519   1.236  17.544 -0.4120  0.4721  0.1760
 3289SOL    HW121503   2.435   1.246  17.588 -0.3637 -0.1596  0.4056
 3289SOL    HW221504   2.578   1.291  17.596  1.4204 -0.2926 -1.0930
 3290SOL     OW21505   3.044   0.819   4.400  0.2207 -0.1477 -0.2473
 3290SOL    HW121506   3.075   0.739   4.442  0.9140  0.5009  0.4751
 3290SOL    HW221507   3.034   0.782   4.312 -0.6949  1.4341 -0.8236
 3291SOL     OW21508   1.991   0.553   2.049 -0.3089 -0.1928 -0.1166
 3291SOL    HW121509   2.001   0.549   2.144  1.0981  0.9046 -0.2221
 3291SOL    HW221510   1.969   0.463   2.027  2.2122 -0.9888  0.6008
 3292SOL     OW21511   3.642   2.189  16.428 -0.4243  0.4904  0.1556
 3292SOL    HW121512   3.674   2.267  16.383  2.0131 -0.9962 -0.6543
 3292SOL    HW221513   3.693   2.122  16.383 -0.0017 -0.6101  2.2993
 3293SOL     OW21514   1.541   1.316   6.190 -0.4144  0.6532  0.2343
 3293SOL    HW121515   1.567   1.267   6.268 -0.3865  3.0630  1.7200
 3293SOL    HW221516   1.533   1.256   6.116  1.0103 -1.5580  1.8661
 3294SOL     OW21517   3.309   3.220   3.342  0.7542  0.0626 -0.3059
 3294SOL    HW121518   3.267   3.306   3.341 -0.7643 -0.6502  1.8049
 3294SOL    HW221519   3.332   3.218   3.435  0.6431  2.3965 -0.2200
 3295SOL     OW21520   1.336   2.265  13.627  0.1511  0.4647 -0.1839
 3295SOL    HW121521   1.285   2.325  13.682 -0.7234 -0.5012  0.0647
 3295SOL    HW221522   1.316   2.177  13.660  0.7085  0.9980  1.5505
 3296SOL     OW21523   0.955   3.357   2.899 -0.2554 -0.0545 -0.0740
 3296SOL    HW121524   0.901   3.394   2.829  0.6518 -1.0618 -1.3220
 3296SOL    HW221525   1.040   3.396   2.878  0.2540 -1.2263 -0.1763
 3297SOL     OW21526   4.055   3.760   7.804 -0.3246 -0.0170  0.8643
 3297SOL    HW121527   4.015   3.792   7.885  0.7344  0.8337  1.0365
 3297SOL    HW221528   4.010   3.677   7.786  0.5918 -0.3162 -0.0222
 3298SOL     OW21529   1.485   4.617   5.306 -0.0701  0.5742 -0.2604
 3298SOL    HW121530   1.566   4.590   5.262 -1.0929 -0.1178 -1.7386
 3298SOL    HW221531   1.445   4.678   5.244 -0.0368 -0.7198 -1.5865
 3299SOL     OW21532   2.162   2.056   7.020  0.0250 -0.0249  0.4718
 3299SOL    HW121533   2.169   2.057   6.925 -0.5666 -0.6864  0.4187
 3299SOL    HW221534   2.126   1.968   7.033 -1.7382  0.4997 -0.9191
 3300SOL     OW21535   3.641   4.490   0.920  0.4221 -0.9528  0.6110
 3300SOL    HW121536   3.634   4.585   0.932 -2.5486 -1.0392 -0.3566
 3300SOL    HW221537   3.549   4.471   0.899  0.9113 -0.7093 -1.7894
 3301SOL     OW21538   4.236   1.311   8.933  0.0614 -0.6791  0.0503
 3301SOL    HW121539   4.288   1.241   8.974  0.7715  0.9720  1.9737
 3301SOL    HW221540   4.151   1.269   8.923 -0.2690 -0.6084  2.4391
 3302SOL     OW21541   1.256   3.371   6.749  0.0965 -0.0055 -0.1427
 3302SOL    HW121542   1.286   3.323   6.672  0.1040 -0.5481  0.2004
 3302SOL    HW221543   1.338   3.355   6.797  1.0224  1.6822 -1.1765
 3303SOL     OW21544   0.383   3.913   5.118 -0.3128 -0.4961  0.1710
 3303SOL    HW121545   0.297   3.943   5.090  0.9214  1.7409 -1.2328
 3303SOL    HW221546   0.414   3.978   5.181 -1.0470  2.4353 -2.4661
 3304SOL     OW21547   3.738   3.228   6.127  0.6504 -0.8603 -0.1103
 3304SOL    HW121548   3.760   3.271   6.209  1.6243  1.9052 -1.8151
 3304SOL    HW221549   3.694   3.304   6.088  1.0094 -1.0385 -0.8835
 3305SOL     OW21550   1.488   1.243   3.642  0.4959 -0.5001 -0.0456
 3305SOL    HW121551   1.452   1.318   3.689 -1.3220 -2.9645  2.4498
 3305SOL    HW221552   1.490   1.280   3.554 -1.0765  2.2080  1.0635
 3306SOL     OW21553   1.816   1.425  10.122 -0.3686  0.2279 -0.2106
 3306SOL    HW121554   1.857   1.464  10.199  0.3023  3.5622 -2.2427
 3306SOL    HW221555   1.764   1.498  10.090  1.3397  1.5550  0.0368
 3307SOL     OW21556   4.370   2.086   6.237 -0.1299 -0.0559  0.1174
 3307SOL    HW121557   4.449   2.129   6.204 -0.0553 -0.4646 -0.2459
 3307SOL    HW221558   4.393   2.061   6.326 -0.9026 -1.2118 -0.0025
 3308SOL     OW21559   1.468   3.688   4.193  0.5081 -0.0948 -0.1429
 3308SOL    HW121560   1.511   3.605   4.174 -0.2555 -1.3846  3.7905
 3308SOL    HW221561   1.390   3.684   4.138 -0.0852 -2.3453  0.8856
 3309SOL     OW21562   4.490   2.046   7.473  0.2518  0.8372  0.2226
 3309SOL    HW121563   4.566   2.103   7.462  1.4479 -0.5680  1.2690
 3309SOL    HW221564   4.420   2.106   7.499  1.3743  1.5167  1.6968
 3310SOL     OW21565   1.769   4.449   2.735 -0.1568 -0.3261  1.0134
 3310SOL    HW121566   1.775   4.507   2.811  0.9369 -1.3657  1.7257
 3310SOL    HW221567   1.774   4.359   2.768 -1.4781  0.4266  3.2964
 3311SOL     OW21568   4.209   3.326  10.458  0.3668  0.0151 -0.4783
 3311SOL    HW121569   4.253   3.349  10.540  0.1482  1.1100 -0.6666
 3311SOL    HW221570   4.207   3.230  10.461  0.9310  0.0239  0.2887
 3312SOL     OW21571   1.123   2.377   8.329 -0.0203 -0.4341 -0.2556
 3312SOL    HW121572   1.069   2.302   8.302 -1.6996 -0.6531  3.7521
 3312SOL    HW221573   1.111   2.431   8.251  0.2983 -0.8145 -0.5687
 3313SOL     OW21574   2.408   2.802  13.276 -0.2760 -0.0509 -0.0394
 3313SOL    HW121575   2.483   2.862  13.264 -1.4201  1.3664 -0.0755
 3313SOL    HW221576   2.345   2.859  13.320 -1.8103 -0.5621 -1.6134
 3314SOL     OW21577   3.338   0.247  13.427  0.0157 -0.0908 -0.1578
 3314SOL    HW121578   3.409   0.202  13.473 -0.1825 -0.7468 -0.4921
 3314SOL    HW221579   3.333   0.336  13.461 -0.7419  0.4029 -1.5360
 3315SOL     OW21580   3.422   1.572   7.583 -0.1336 -0.1126  0.2542
 3315SOL    HW121581   3.400   1.486   7.620 -3.6663  0.1807 -1.1282
 3315SOL    HW221582   3.479   1.548   7.510 -1.9671 -1.4899 -0.7140
 3316SOL     OW21583   2.680   1.838   0.079 -0.1932  0.2780  0.2607
 3316SOL    HW121584   2.670   1.920   0.128  2.1334  0.0039  1.1732
 3316SOL    HW221585   2.753   1.808   0.132 -0.0389  0.8345  0.3602
 3317SOL     OW21586   0.665   0.853  12.249 -0.5563  0.2529  0.4355
 3317SOL    HW121587   0.740   0.796  12.270 -0.1531  0.3419 -0.7514
 3317SOL    HW221588   0.680   0.875  12.157  0.4325  0.8818  0.7466
 3318SOL     OW21589   1.721   1.307   0.334  0.2629 -0.2769  0.7054
 3318SOL    HW121590   1.697   1.393   0.298 -2.2855 -1.0236  0.5964
 3318SOL    HW221591   1.806   1.337   0.366  0.0187  2.3213 -1.0403
 3319SOL     OW21592   4.292   1.690   4.218  0.8662  0.4330 -0.3572
 3319SOL    HW121593   4.321   1.673   4.308 -0.9055 -0.7833 -0.0118
 3319SOL    HW221594   4.202   1.719   4.228  1.0622  0.9044  0.0366
 3320SOL     OW21595   0.619   0.755  12.506 -0.5871  0.4632  0.5019
 3320SOL    HW121596   0.673   0.681  12.477 -0.9533  1.2025 -2.0054
 3320SOL    HW221597   0.641   0.817  12.437  1.6675 -0.1454  0.6575
 3321SOL     OW21598   4.160   3.717  15.377 -0.3241 -0.3646  0.1083
 3321SOL    HW121599   4.119   3.727  15.463  0.6580 -0.1972  0.5573
 3321SOL    HW221600   4.186   3.627  15.396 -0.7740 -0.3390  0.8415
 3322SOL     OW21601   3.990   4.102   2.500  0.2846  0.0343 -0.0443
 3322SOL    HW121602   3.958   4.023   2.544  0.1782  0.5366  0.7734
 3322SOL    HW221603   3.968   4.071   2.412  1.6991  0.9647 -0.7123
 3323SOL     OW21604   1.594   1.700  16.418 -0.7910  0.5465 -0.4627
 3323SOL    HW121605   1.643   1.776  16.448 -0.7869 -0.0222  0.9786
 3323SOL    HW221606   1.649   1.623  16.433 -2.4931 -0.9112 -1.7334
 3324SOL     OW21607   2.147   3.381  17.535 -0.2434  0.3292  0.2230
 3324SOL    HW121608   2.078   3.448  17.540  0.7827  1.3198  0.9952
 3324SOL    HW221609   2.103   3.302  17.566 -1.6847  0.7459 -0.7672
 3325SOL     OW21610   1.202   1.485  10.163 -0.0690 -0.2387  0.1839
 3325SOL    HW121611   1.268   1.469  10.231  0.8345  0.4994 -0.5229
 3325SOL    HW221612   1.126   1.507  10.218 -0.2772  0.0768 -0.2284
 3326SOL     OW21613   3.251   1.720   3.863 -0.5395 -0.6946  0.2893
 3326SOL    HW121614   3.188   1.722   3.791 -0.0335  0.9599 -0.1149
 3326SOL    HW221615   3.265   1.628   3.882  1.6835 -0.0276  1.9213
 3327SOL     OW21616   1.239   4.091  13.348  0.4870 -0.3234  0.6212
 3327SOL    HW121617   1.238   4.167  13.290 -1.2670 -1.5957 -1.0055
 3327SOL    HW221618   1.245   4.127  13.437 -1.4390  0.0900  0.5920
 3328SOL     OW21619   4.020   3.191  14.488 -0.1437  0.3517  0.2771
 3328SOL    HW121620   3.957   3.252  14.451  0.4253 -0.5312 -2.1589
 3328SOL    HW221621   4.075   3.173  14.412  0.9263  1.2596  0.8400
 3329SOL     OW21622   2.075   4.174   3.647 -0.7993 -0.2975  0.4342
 3329SOL    HW121623   2.009   4.201   3.711 -1.3319 -0.6969  0.0580
 3329SOL    HW221624   2.128   4.116   3.702 -2.0932 -0.0825  1.9121
 3330SOL     OW21625   4.242   4.677   1.674 -0.2213  0.0597 -0.5754
 3330SOL    HW121626   4.188   4.603   1.705 -0.5383  0.5676  0.0861
 3330SOL    HW221627   4.311   4.682   1.739  0.0236 -1.1925 -0.7274
 3331SOL     OW21628   0.785   0.211   6.168  0.0440  0.0998  0.2945
 3331SOL    HW121629   0.799   0.193   6.261  1.3795  0.5425  0.1785
 3331SOL    HW221630   0.870   0.171   6.151 -0.0418 -0.5351  1.3611
 3332SOL     OW21631   2.952   4.662  12.558 -0.0482 -0.1257 -0.5812
 3332SOL    HW121632   2.917   4.630  12.475 -0.8356 -1.2150  0.1579
 3332SOL    HW221633   3.044   4.677  12.536 -0.0017  1.6895  0.8650
 3333SOL     OW21634   0.842   1.453   5.716  0.2612  0.2229 -0.3684
 3333SOL    HW121635   0.925   1.471   5.672 -0.3587  0.0255 -1.6307
 3333SOL    HW221636   0.813   1.540   5.742 -0.9502 -0.5711  0.9224
 3334SOL     OW21637   1.197   0.398   3.824  0.0759  0.1652 -0.9534
 3334SOL    HW121638   1.285   0.435   3.837  0.5339 -0.1747 -3.0657
 3334SOL    HW221639   1.159   0.469   3.773 -0.5679  0.9313  0.6262
 3335SOL     OW21640   2.061   3.744   2.468  0.3828 -0.3831  0.5904
 3335SOL    HW121641   2.091   3.672   2.524  0.7427  0.6221  1.6904
 3335SOL    HW221642   2.140   3.794   2.450  1.2335 -1.3404  1.6246
 3336SOL     OW21643   2.476   3.148   2.240 -0.2120 -0.3139  0.2365
 3336SOL    HW121644   2.384   3.131   2.223  0.4850 -2.8773 -1.1662
 3336SOL    HW221645   2.487   3.232   2.197  1.2086  0.5960  2.3803
 3337SOL     OW21646   0.550   4.573   7.272 -0.5059  0.0579 -0.5096
 3337SOL    HW121647   0.508   4.651   7.236  0.1483  0.1421 -1.0780
 3337SOL    HW221648   0.552   4.507   7.202 -0.8226 -1.4137  0.8663
 3338SOL     OW21649   1.958   0.976  17.365 -0.6806 -0.5154 -0.0223
 3338SOL    HW121650   1.960   0.903  17.303 -1.2849  1.9703 -2.9842
 3338SOL    HW221651   1.897   0.939  17.429 -0.0640  2.2884  2.1888
 3339SOL     OW21652   3.488   4.223   7.113  0.3385  0.0257  0.0993
 3339SOL    HW121653   3.513   4.132   7.128 -1.7122 -0.5160  0.2906
 3339SOL    HW221654   3.508   4.263   7.198  0.2252  0.3646 -0.0302
 3340SOL     OW21655   1.555   3.152  11.050  0.3516  0.8203  0.4699
 3340SOL    HW121656   1.483   3.139  11.113  0.3144 -2.4213 -0.2508
 3340SOL    HW221657   1.512   3.181  10.970  0.0577  0.4087  0.4772
 3341SOL     OW21658   2.669   3.058   4.819  0.0314 -0.1288 -0.2202
 3341SOL    HW121659   2.621   3.052   4.736  0.2150 -0.3296 -0.3127
 3341SOL    HW221660   2.625   3.004   4.885  0.6504  1.1103  1.1933
 3342SOL     OW21661   3.223   1.054   8.314 -0.3280  0.2591  0.1930
 3342SOL    HW121662   3.250   1.026   8.226 -0.0741  1.1168  0.0018
 3342SOL    HW221663   3.281   1.002   8.370 -2.7654 -2.2150  0.3851
 3343SOL     OW21664   2.939   3.591   8.608  1.0172 -0.5393 -0.1391
 3343SOL    HW121665   3.005   3.594   8.677 -0.9625 -2.7395  1.8666
 3343SOL    HW221666   2.963   3.676   8.572  0.2754  0.0170  0.6788
 3344SOL     OW21667   3.980   1.574   9.445 -0.4355 -0.3769 -0.3828
 3344SOL    HW121668   4.074   1.589   9.440 -0.3222 -0.6267  0.9913
 3344SOL    HW221669   3.948   1.653   9.400  0.2423  0.9372  1.4337
 3345SOL     OW21670   1.061   0.908   0.876  0.7098 -0.0481  0.3878
 3345SOL    HW121671   0.999   0.979   0.858  0.9632  0.3084  0.9196
 3345SOL    HW221672   1.068   0.860   0.794 -1.8383  2.2290 -1.1511
 3346SOL     OW21673   0.830   2.316   4.128  0.0801 -0.0644 -0.3143
 3346SOL    HW121674   0.803   2.376   4.058 -0.1295 -0.3971 -0.5221
 3346SOL    HW221675   0.900   2.265   4.087  0.8956 -0.4020  1.5125
 3347SOL     OW21676   0.989   0.219  13.232  0.0004  0.1359  0.2348
 3347SOL    HW121677   0.908   0.202  13.183 -0.3463  0.9497  0.5323
 3347SOL    HW221678   1.055   0.168  13.184  1.8433  2.2113  0.5946
 3348SOL     OW21679   1.094   3.790   6.594 -0.0961 -0.2199  0.0421
 3348SOL    HW121680   1.154   3.779   6.520  0.7930 -1.5517  0.9742
 3348SOL    HW221681   1.113   3.719   6.654  0.1989 -0.1021  0.0858
 3349SOL     OW21682   0.298   3.504   4.447 -0.1826  0.2212 -0.1198
 3349SOL    HW121683   0.215   3.476   4.487 -0.2949 -1.8437 -1.8302
 3349SOL    HW221684   0.339   3.419   4.437  1.4264  0.8147  1.4086
 3350SOL     OW21685   2.541   3.371   4.352  0.7085 -0.4436  0.0769
 3350SOL    HW121686   2.496   3.377   4.436  1.3154  0.6399  0.3195
 3350SOL    HW221687   2.469   3.376   4.289 -0.6758 -1.7432  1.5605
 3351SOL     OW21688   2.907   2.921   3.100  0.1107  0.6291 -0.0906
 3351SOL    HW121689   2.836   2.973   3.063  0.5729  0.4661 -1.2057
 3351SOL    HW221690   2.918   2.964   3.184  1.0304 -1.6811  0.9791
 3352SOL     OW21691   2.706   3.244   5.110 -0.1871  0.6009 -0.4180
 3352SOL    HW121692   2.786   3.234   5.058  0.3031  2.4566 -0.0155
 3352SOL    HW221693   2.737   3.307   5.175 -0.3297  1.7456 -1.4503
 3353SOL     OW21694   0.530   4.138   2.697  0.2091 -0.8885  0.2515
 3353SOL    HW121695   0.503   4.051   2.728  0.0727 -1.1777 -0.6848
 3353SOL    HW221696   0.447   4.186   2.701  0.9547  0.3172  1.1798
 3354SOL     OW21697   4.698   2.973  17.668  0.5796 -0.1865  0.3142
 3354SOL    HW121698   0.049   3.000  17.637 -0.2701  0.7872 -1.1847
 3354SOL    HW221699   4.701   2.994   0.023 -0.8278  0.0081  0.3136
 3355SOL     OW21700   0.787   2.335   0.040  1.1595  0.0078 -0.0984
 3355SOL    HW121701   0.839   2.406   0.077 -1.2219  2.5086 -1.6242
 3355SOL    HW221702   0.706   2.383   0.024 -1.7123 -4.1689  1.9233
 3356SOL     OW21703   2.203   2.945  15.238 -0.4022  0.0998 -0.1226
 3356SOL    HW121704   2.186   3.040  15.239  0.8280  0.2915  1.4396
 3356SOL    HW221705   2.289   2.947  15.196 -1.0030 -2.5367 -1.4544
 3357SOL     OW21706   3.108   4.463   1.218  0.0652 -0.2346 -0.0614
 3357SOL    HW121707   3.172   4.504   1.160  0.2365  3.3331  2.6349
 3357SOL    HW221708   3.164   4.428   1.288 -1.4693 -1.9283  0.3405
 3358SOL     OW21709   3.519   4.366  11.586  0.0619 -0.0976  0.4087
 3358SOL    HW121710   3.572   4.359  11.506  1.9193  0.4161  1.5851
 3358SOL    HW221711   3.546   4.448  11.628 -0.4964 -0.3486  1.2480
 3359SOL     OW21712   4.439   4.393   7.374  0.0684 -0.2542  0.0479
 3359SOL    HW121713   4.526   4.430   7.388 -0.7303  1.3336  0.7622
 3359SOL    HW221714   4.409   4.383   7.465  1.6169  3.2025  0.9236
 3360SOL     OW21715   0.031   0.696   4.669  0.4326  0.3016  0.4468
 3360SOL    HW121716   0.080   0.720   4.748 -1.1608  1.4242  1.0927
 3360SOL    HW221717   0.069   0.759   4.608 -2.2573 -0.9142 -2.4789
 3361SOL     OW21718   4.586   2.949   4.925 -0.4783 -0.1633 -0.0598
 3361SOL    HW121719   4.523   2.897   4.875 -0.5702 -1.8636  1.8289
 3361SOL    HW221720   4.647   2.876   4.937 -0.1606  0.3528  1.5550
 3362SOL     OW21721   3.613   4.327   2.982 -0.0623 -0.0712 -0.5658
 3362SOL    HW121722   3.539   4.331   2.921  1.2254  0.6939 -2.0998
 3362SOL    HW221723   3.640   4.236   2.974  2.1675  0.4044  1.5128
 3363SOL     OW21724   3.449   3.180   4.160 -0.2290  0.0399  0.1839
 3363SOL    HW121725   3.404   3.097   4.141  0.4928 -0.7771  2.1238
 3363SOL    HW221726   3.457   3.174   4.255 -1.1812  5.0423  0.5604
 3364SOL     OW21727   4.545   3.664  11.901 -0.3870 -0.0050 -0.2260
 3364SOL    HW121728   4.573   3.756  11.897 -0.6287  0.0866  0.2875
 3364SOL    HW221729   4.450   3.668  11.892 -0.4327 -0.1718  0.2256
 3365SOL     OW21730   0.891   1.508   4.525  0.6397 -0.1869  0.3929
 3365SOL    HW121731   0.933   1.515   4.439  0.9051 -1.6444  0.4025
 3365SOL    HW221732   0.833   1.583   4.537  1.3801  0.5605 -0.7321
 3366SOL     OW21733   0.283   0.314  10.627  0.1342  0.3487 -0.2847
 3366SOL    HW121734   0.216   0.271  10.681 -0.0476  1.3464  0.2812
 3366SOL    HW221735   0.256   0.405  10.637  0.6935  0.3363  1.3678
 3367SOL     OW21736   2.875   3.121   2.165 -0.0994  0.3313  0.1312
 3367SOL    HW121737   2.932   3.195   2.146  1.5191 -0.7232  0.9363
 3367SOL    HW221738   2.882   3.114   2.260  1.4745  1.1648  0.0700
 3368SOL     OW21739   4.601   4.101  16.570 -0.3670 -0.1113  0.0032
 3368SOL    HW121740   4.590   4.136  16.659  2.9672  0.3184  0.2323
 3368SOL    HW221741   4.529   4.037  16.567  1.5310 -2.2440  0.0719
 3369SOL     OW21742   1.697   1.956   6.155  0.1719  0.0741  0.6040
 3369SOL    HW121743   1.737   1.911   6.230  1.1317 -1.3998 -0.7779
 3369SOL    HW221744   1.642   1.889   6.114 -0.1623 -0.5582  2.0881
 3370SOL     OW21745   0.036   1.885   7.229  0.1695  0.7756 -0.4410
 3370SOL    HW121746   4.722   1.964   7.206  0.4841  1.2084  0.3795
 3370SOL    HW221747   4.714   1.827   7.178 -1.0590  0.6548  1.0666
 3371SOL     OW21748   4.387   4.057   3.279 -0.6835 -0.2626  0.7244
 3371SOL    HW121749   4.443   4.108   3.337  0.8064  0.8987 -1.6994
 3371SOL    HW221750   4.319   4.125   3.270 -0.1436  0.2494  0.4815
 3372SOL     OW21751   2.561   1.865  11.451 -0.2224 -0.4097  0.4915
 3372SOL    HW121752   2.636   1.902  11.498  0.9500  0.5139 -2.0329
 3372SOL    HW221753   2.498   1.905  11.510  0.0725 -1.7492  1.6961
 3373SOL     OW21754   4.001   1.843   5.626 -0.5188 -0.6461  0.0056
 3373SOL    HW121755   3.928   1.877   5.677  1.1975  1.3341  1.1290
 3373SOL    HW221756   4.059   1.853   5.701 -1.6460 -1.6959  1.0205
 3374SOL     OW21757   2.028   3.607  15.152 -0.0034  0.1313  1.0558
 3374SOL    HW121758   1.963   3.538  15.155  1.3345 -1.2793 -2.3800
 3374SOL    HW221759   2.068   3.583  15.068 -1.2014 -1.2456  0.8897
 3375SOL     OW21760   4.531   3.701  15.365  0.1530  0.1486  0.1091
 3375SOL    HW121761   4.445   3.669  15.339 -0.8789  2.5955  0.5746
 3375SOL    HW221762   4.515   3.708  15.459  0.3353 -1.3373  0.2457
 3376SOL     OW21763   1.345   4.589   8.808 -0.0284  0.1433  0.2208
 3376SOL    HW121764   1.328   4.526   8.878 -1.6393  0.4851  0.1372
 3376SOL    HW221765   1.342   4.670   8.859  2.6330  0.1724  0.3039
 3377SOL     OW21766   3.140   4.389   3.986  0.7317  0.9804  0.3525
 3377SOL    HW121767   3.154   4.296   4.001 -0.5080  0.6034 -0.7943
 3377SOL    HW221768   3.115   4.383   3.894 -1.1536 -1.0442  0.9792
 3378SOL     OW21769   0.795   3.350   6.201  0.4746  0.5877  0.2944
 3378SOL    HW121770   0.780   3.444   6.197 -0.4485  0.3285 -2.1037
 3378SOL    HW221771   0.875   3.354   6.149 -0.1234  2.7026 -0.4393
 3379SOL     OW21772   2.604   2.993  13.263 -0.6329  0.9919 -0.0034
 3379SOL    HW121773   2.689   2.957  13.289 -0.3568 -0.0093 -2.2582
 3379SOL    HW221774   2.614   2.999  13.168  1.0690  2.3786  0.2679
 3380SOL     OW21775   4.371   2.083   1.339 -0.0525  0.3012 -0.0994
 3380SOL    HW121776   4.430   2.095   1.414  1.3404  1.4050 -1.3805
 3380SOL    HW221777   4.293   2.047   1.381  0.6077 -0.6044  0.3461
 3381SOL     OW21778   2.967   1.285   7.419 -0.4456 -0.0413 -0.0595
 3381SOL    HW121779   2.987   1.379   7.419  0.2418 -0.1974  0.6408
 3381SOL    HW221780   2.893   1.285   7.480 -0.2385 -2.9906  0.1948
 3382SOL     OW21781   2.997   2.994  10.923  0.1771  0.3218  0.0145
 3382SOL    HW121782   2.975   3.055  10.852  1.5039  0.9854  0.1663
 3382SOL    HW221783   3.076   3.041  10.951  1.8540 -3.0991  0.9860
 3383SOL     OW21784   1.801   1.044   3.946  0.3226 -0.0182 -0.1738
 3383SOL    HW121785   1.725   1.102   3.955  0.6092  0.5329 -1.3150
 3383SOL    HW221786   1.751   0.963   3.961  2.2690 -1.3554 -0.8978
 3384SOL     OW21787   4.073   4.430  14.131  0.2362 -0.0980 -0.0834
 3384SOL    HW121788   4.116   4.385  14.204  1.0878  0.4397 -0.2448
 3384SOL    HW221789   3.982   4.426  14.160 -0.3959 -2.1969 -2.4118
 3385SOL     OW21790   2.056   1.041   7.328 -0.3146  0.3010 -0.2118
 3385SOL    HW121791   2.136   1.071   7.371 -1.5243 -0.5335  2.6071
 3385SOL    HW221792   2.014   1.127   7.324 -1.2454 -0.1977 -1.1241
 3386SOL     OW21793   1.064   1.405   3.719  0.0191  0.2943 -0.4409
 3386SOL    HW121794   0.993   1.427   3.659 -1.8785  0.3319  1.8176
 3386SOL    HW221795   1.139   1.403   3.659 -0.0389  1.0477 -0.5376
 3387SOL     OW21796   4.232   3.319   3.833 -0.3472 -0.1681 -0.1942
 3387SOL    HW121797   4.161   3.382   3.842 -1.2373 -1.1655 -0.3556
 3387SOL    HW221798   4.273   3.347   3.750 -0.3355  0.7085  0.1044
 3388SOL     OW21799   4.238   0.716  11.697  0.2295  0.0033 -0.3894
 3388SOL    HW121800   4.262   0.791  11.643 -0.2238 -0.4287 -1.2008
 3388SOL    HW221801   4.310   0.660  11.671  2.1043  2.6095 -0.7882
 3389SOL     OW21802   0.486   4.724   6.371  0.0730 -0.0206 -0.3849
 3389SOL    HW121803   0.509   4.702   6.462 -1.2137  0.1572 -0.0118
 3389SOL    HW221804   0.542   4.669   6.317 -1.1324  0.9568 -2.6018
 3390SOL     OW21805   3.934   4.439   8.607  0.0771  0.2317  0.1387
 3390SOL    HW121806   3.845   4.459   8.577  0.0947 -1.3791 -1.0279
 3390SOL    HW221807   3.969   4.524   8.632 -2.1594  1.5768 -1.2262
 3391SOL     OW21808   1.450   1.893   2.160  0.1183  0.4795  0.3411
 3391SOL    HW121809   1.430   1.816   2.213 -0.4781  1.2280  1.1933
 3391SOL    HW221810   1.433   1.858   2.072  0.9246  1.2736 -0.1240
 3392SOL     OW21811   3.181   3.200   9.740 -0.2113 -0.0404 -0.3811
 3392SOL    HW121812   3.164   3.272   9.678  2.0469  0.8741  0.0631
 3392SOL    HW221813   3.268   3.171   9.710 -0.1382  0.7780 -0.9711
 3393SOL     OW21814   2.920   2.749   4.968 -0.1987  1.0051  0.6041
 3393SOL    HW121815   2.956   2.837   4.960  0.4319  0.8535  1.8238
 3393SOL    HW221816   2.896   2.728   5.058 -0.9101  3.8349  1.0660
 3394SOL     OW21817   0.594   0.764   2.138  0.4501  0.0252 -0.0215
 3394SOL    HW121818   0.593   0.723   2.052 -1.1350  0.6243 -0.2869
 3394SOL    HW221819   0.563   0.852   2.120 -0.8107 -0.4588 -0.2226
 3395SOL     OW21820   0.732   4.150   5.747  0.3591 -0.3766  0.1702
 3395SOL    HW121821   0.785   4.223   5.780  0.5174 -1.0725  1.4405
 3395SOL    HW221822   0.668   4.132   5.816 -1.3394 -1.3610 -1.6612
 3396SOL     OW21823   2.638   2.280  13.947 -0.3636 -0.4604  0.0853
 3396SOL    HW121824   2.725   2.295  13.910 -0.0603  0.8049  1.2997
 3396SOL    HW221825   2.610   2.366  13.978  0.5294  0.5876 -1.9932
 3397SOL     OW21826   2.498   2.385   9.742 -0.7098 -0.0811  0.1115
 3397SOL    HW121827   2.427   2.380   9.806 -0.2484  0.4688  0.6712
 3397SOL    HW221828   2.562   2.324   9.779 -1.3884 -2.2715 -2.3473
 3398SOL     OW21829   4.308   1.487   2.640  0.2609  0.6114 -0.3831
 3398SOL    HW121830   4.234   1.444   2.598  1.2350 -0.1172 -1.3555
 3398SOL    HW221831   4.264   1.490   2.725  1.9423  1.4930  0.4660
 3399SOL     OW21832   2.563   3.375   2.460  0.2281 -0.3589 -0.1288
 3399SOL    HW121833   2.621   3.397   2.533 -0.6504 -0.3279  0.5584
 3399SOL    HW221834   2.627   3.321   2.415  0.5367 -0.1323  0.0329
 3400SOL     OW21835   0.954   3.126  17.557  0.1031  0.2518 -0.3000
 3400SOL    HW121836   0.960   3.207  17.608 -2.1329  0.5272 -0.5002
 3400SOL    HW221837   0.952   3.067  17.632  0.2489  2.9515  1.8562
 3401SOL     OW21838   1.261   2.167   5.045 -0.8556  0.2022  0.4168
 3401SOL    HW121839   1.271   2.218   4.964  0.6619  1.4253  1.3910
 3401SOL    HW221840   1.181   2.215   5.067 -1.6420 -0.8838 -0.0199
 3402SOL     OW21841   3.831   3.567   3.481  0.0089 -0.0055 -0.0711
 3402SOL    HW121842   3.901   3.507   3.455 -2.2607 -2.1330 -1.2970
 3402SOL    HW221843   3.829   3.629   3.408  0.6678  1.5597  1.2540
 3403SOL     OW21844   0.787   4.297   2.853 -0.2946 -0.4614  0.1075
 3403SOL    HW121845   0.738   4.283   2.772 -0.2433  0.2720 -0.0485
 3403SOL    HW221846   0.722   4.251   2.906  1.2549 -0.5140  1.9743
 3404SOL     OW21847   0.579   0.544   9.285 -0.4708  0.2639 -0.2461
 3404SOL    HW121848   0.665   0.507   9.306 -0.3554  0.3619 -0.5516
 3404SOL    HW221849   0.616   0.629   9.263  0.1473  0.0712  0.0643
 3405SOL     OW21850   0.544   4.238   0.744 -0.0780  0.0733  0.3645
 3405SOL    HW121851   0.531   4.242   0.649  1.1483 -0.7212  0.1619
 3405SOL    HW221852   0.615   4.174   0.747 -0.8848 -0.8370 -0.0075
 3406SOL     OW21853   3.563   2.330  16.786  0.0192  0.5314  0.1063
 3406SOL    HW121854   3.544   2.354  16.695 -1.7472 -1.6384 -0.1233
 3406SOL    HW221855   3.591   2.413  16.823  0.5392  0.3683  0.0806
 3407SOL     OW21856   0.691   0.031   7.449 -0.2600  0.2503 -0.0173
 3407SOL    HW121857   0.615   4.722   7.412 -0.0833  0.2243 -0.3488
 3407SOL    HW221858   0.763   4.720   7.405 -0.6783 -0.8156  0.3970
 3408SOL     OW21859   3.060   3.795   5.106 -0.1328 -0.3612  0.3098
 3408SOL    HW121860   3.054   3.797   5.011  0.1704 -1.6741  0.2661
 3408SOL    HW221861   3.064   3.700   5.112  0.7243 -0.5282 -2.7703
 3409SOL     OW21862   0.811   3.155   4.383  0.3397 -0.0230  0.2526
 3409SOL    HW121863   0.789   3.202   4.463  3.2978  1.2054  0.3425
 3409SOL    HW221864   0.905   3.169   4.375  0.5867 -1.8003 -0.0079
 3410SOL     OW21865   2.163   3.207   6.917  0.0962  0.3124 -0.1432
 3410SOL    HW121866   2.105   3.222   6.842  0.9455  0.4173 -0.7781
 3410SOL    HW221867   2.246   3.234   6.878 -0.0372  0.7696 -0.1123
 3411SOL     OW21868   3.472   0.231   6.115  0.2481 -0.3318 -0.4109
 3411SOL    HW121869   3.566   0.236   6.100  0.3836  1.0592  0.9019
 3411SOL    HW221870   3.423   0.269   6.042 -0.1420 -0.5227 -0.2478
 3412SOL     OW21871   3.504   1.481   5.753 -0.2519  0.2691  0.1744
 3412SOL    HW121872   3.520   1.390   5.728  0.4168 -0.0243  1.6414
 3412SOL    HW221873   3.583   1.517   5.713 -0.3685 -0.3124 -0.5897
 3413SOL     OW21874   4.464   3.859  16.007 -0.3420 -0.1866  0.2820
 3413SOL    HW121875   4.447   3.895  15.920  0.4764  2.5589  1.2371
 3413SOL    HW221876   4.499   3.943  16.039  2.1610 -1.2616  0.3716
 3414SOL     OW21877   0.311   3.561   7.820  0.2148 -0.1306  0.1424
 3414SOL    HW121878   0.234   3.516   7.856 -0.0178  0.2596  0.1390
 3414SOL    HW221879   0.311   3.520   7.734  1.6223 -1.3267  0.7155
 3415SOL     OW21880   3.586   2.543   5.995  0.3143  0.0891 -0.5601
 3415SOL    HW121881   3.541   2.474   5.946 -0.7742 -0.2187  0.8649
 3415SOL    HW221882   3.653   2.564   5.931 -1.2889 -0.4900 -2.4227
 3416SOL     OW21883   4.393   3.153   8.251 -0.3257 -0.1166  0.5517
 3416SOL    HW121884   4.303   3.139   8.222  0.0156 -2.2384  0.5510
 3416SOL    HW221885   4.384   3.131   8.344 -3.4055  2.1082  0.7940
 3417SOL     OW21886   0.879   1.528  15.054  0.0501  0.4238  0.0416
 3417SOL    HW121887   0.933   1.450  15.046  0.1041  0.1910  2.5913
 3417SOL    HW221888   0.822   1.502  15.126 -0.6935 -3.3204 -1.9021
 3418SOL     OW21889   2.906   3.390   1.051  0.0566 -0.6798  0.2457
 3418SOL    HW121890   2.990   3.405   1.007  0.2006  1.4308  1.2205
 3418SOL    HW221891   2.901   3.298   1.024 -1.8972 -0.0395 -1.5490
 3419SOL     OW21892   4.556   4.280   4.083 -0.3075  0.5737 -0.1062
 3419SOL    HW121893   4.624   4.229   4.039  1.8688  1.6813  1.9175
 3419SOL    HW221894   4.575   4.264   4.176 -0.3258 -0.7612 -0.3321
 3420SOL     OW21895   0.063   2.643   6.910  0.1777 -0.0687 -0.2199
 3420SOL    HW121896   0.142   2.618   6.861  0.9899 -1.2667  1.6944
 3420SOL    HW221897   0.065   2.734   6.880 -0.6527 -0.1157 -0.4115
 3421SOL     OW21898   1.663   2.162  14.280 -0.0446  0.6524 -0.3466
 3421SOL    HW121899   1.610   2.087  14.307  0.6412 -0.0849 -1.0983
 3421SOL    HW221900   1.605   2.237  14.266  1.1811  1.3877 -1.3601
 3422SOL     OW21901   1.491   3.891   7.633  0.5753  0.4130  0.2267
 3422SOL    HW121902   1.513   3.939   7.713 -0.6945  0.9021  0.2735
 3422SOL    HW221903   1.427   3.822   7.651  0.2872  0.6560  0.1195
 3423SOL     OW21904   0.183   1.639   8.895 -0.0074  0.2684  0.2056
 3423SOL    HW121905   0.104   1.640   8.841 -0.2423  0.5187  0.5481
 3423SOL    HW221906   0.179   1.728   8.931 -0.8510  0.6378 -0.8014
 3424SOL     OW21907   2.030   0.538   8.766  0.1024 -0.2235 -0.3925
 3424SOL    HW121908   2.042   0.632   8.782  0.2106 -0.2429 -0.3615
 3424SOL    HW221909   2.015   0.501   8.853  0.9685  1.0562  0.3118
 3425SOL     OW21910   0.294   1.911  15.941 -0.0388 -0.0227  0.0722
 3425SOL    HW121911   0.296   1.889  15.848  1.0429 -0.4554  0.2020
 3425SOL    HW221912   0.249   1.833  15.973  0.8388 -0.7861 -0.5712
 3426SOL     OW21913   2.898   0.438  11.683  0.4956 -0.3150  0.0710
 3426SOL    HW121914   2.865   0.525  11.702  0.1243 -0.4688  0.1228
 3426SOL    HW221915   2.987   0.444  11.718  0.7093  2.7260 -1.0367
 3427SOL     OW21916   3.055   1.901   7.750  0.3871 -0.5851  0.0095
 3427SOL    HW121917   3.129   1.866   7.700  1.1222  0.4135  0.4136
 3427SOL    HW221918   3.105   1.956   7.810 -0.8418 -1.9242  2.2419
 3428SOL     OW21919   2.575   4.088   9.442 -0.0908 -0.3840  0.5559
 3428SOL    HW121920   2.519   4.010   9.436 -0.4749 -0.0710  0.0918
 3428SOL    HW221921   2.656   4.047   9.411 -0.1502 -0.0121 -0.0762
 3429SOL     OW21922   3.484   1.989   4.146 -0.2156  0.7180 -0.0040
 3429SOL    HW121923   3.412   2.005   4.208 -1.1188  1.8502 -1.3460
 3429SOL    HW221924   3.433   1.962   4.070  1.6849  2.6832 -1.9817
 3430SOL     OW21925   2.349   4.503   8.808  0.5092 -0.2156 -0.4509
 3430SOL    HW121926   2.410   4.574   8.822  0.3845 -0.5148  1.5485
 3430SOL    HW221927   2.399   4.436   8.762  0.1984 -2.2971  2.2623
 3431SOL     OW21928   1.288   0.479  13.954 -0.2142  0.4909  0.4886
 3431SOL    HW121929   1.345   0.413  13.916 -0.4830  0.8185 -0.4918
 3431SOL    HW221930   1.208   0.454  13.909 -0.3690  1.0538  0.4440
 3432SOL     OW21931   2.487   4.579   1.150  0.2208 -0.1954 -0.0644
 3432SOL    HW121932   2.567   4.624   1.124 -0.3011  0.2654 -0.8872
 3432SOL    HW221933   2.525   4.491   1.155  3.3209  1.2495  1.4192
 3433SOL     OW21934   2.136   2.603   3.141 -0.4575 -0.5543 -0.0125
 3433SOL    HW121935   2.140   2.627   3.234  0.0447  0.6936 -0.3583
 3433SOL    HW221936   2.111   2.690   3.110 -3.7323 -1.8769 -1.1235
 3434SOL     OW21937   3.948   2.487  16.124  0.0631  0.3041  0.7537
 3434SOL    HW121938   3.925   2.575  16.156  2.6208  1.5789 -0.9081
 3434SOL    HW221939   4.019   2.508  16.063 -1.6313  1.3216 -0.8866
 3435SOL     OW21940   0.554   3.683  11.980 -0.5128 -0.1395  0.5618
 3435SOL    HW121941   0.596   3.695  12.065 -0.2355  0.4061  0.3534
 3435SOL    HW221942   0.558   3.588  11.986  2.1170 -0.2784 -3.6207
 3436SOL     OW21943   1.090   2.303   3.733  0.4177  0.1952 -0.0323
 3436SOL    HW121944   1.000   2.270   3.738  1.0451 -1.4840  0.1842
 3436SOL    HW221945   1.060   2.392   3.715  3.1006  0.8585 -1.1321
 3437SOL     OW21946   2.843   1.430   5.546 -0.3877 -0.3976 -0.2314
 3437SOL    HW121947   2.748   1.419   5.540 -0.2720 -0.0624 -2.4253
 3437SOL    HW221948   2.875   1.383   5.469 -2.2311 -1.8259 -0.1335
 3438SOL     OW21949   1.576   2.613  14.386  0.4863 -0.1139 -0.0179
 3438SOL    HW121950   1.670   2.617  14.407  0.6695  2.2143 -1.3055
 3438SOL    HW221951   1.593   2.602  14.292 -1.6767  0.4911 -0.4810
 3439SOL     OW21952   3.482   3.999   9.489 -0.6971 -0.6035  0.1007
 3439SOL    HW121953   3.555   4.059   9.469 -2.1273  1.3636  0.7420
 3439SOL    HW221954   3.497   3.934   9.420  0.0341  1.3669 -1.6220
 3440SOL     OW21955   1.667   3.554   0.548  0.0942  0.2689 -0.6812
 3440SOL    HW121956   1.669   3.623   0.615  1.6164 -0.3948 -0.0610
 3440SOL    HW221957   1.573   3.534   0.552  0.9355 -4.1793 -3.5302
 3441SOL     OW21958   0.526   3.953   0.677  0.4290 -0.3215  0.1317
 3441SOL    HW121959   0.615   3.988   0.669  0.4693 -0.2595  0.9350
 3441SOL    HW221960   0.535   3.858   0.674  0.0908 -0.2901 -2.6119
 3442SOL     OW21961   0.985   1.357   2.471 -0.5084  0.1379  0.2567
 3442SOL    HW121962   0.930   1.430   2.443  1.8635  1.3268 -1.2323
 3442SOL    HW221963   0.933   1.282   2.441  1.4644  0.0468 -2.8912
 3443SOL     OW21964   4.702   0.354  15.961  0.8691 -0.8518  0.5081
 3443SOL    HW121965   4.677   0.432  15.910 -0.5808 -1.0920  0.8483
 3443SOL    HW221966   4.629   0.294  15.949  0.6704 -0.1607 -1.7901
 3444SOL     OW21967   2.386   3.184   8.006 -0.0244 -0.3695 -0.1107
 3444SOL    HW121968   2.393   3.123   8.080 -2.2422 -0.6404 -0.1275
 3444SOL    HW221969   2.376   3.267   8.052  1.5060 -0.0648 -0.3308
 3445SOL     OW21970   2.845   4.068  12.764 -0.5067  0.0563  0.6134
 3445SOL    HW121971   2.911   4.018  12.812 -0.4190 -1.3555 -0.9780
 3445SOL    HW221972   2.844   4.151  12.811  1.4071  1.1559 -1.2330
 3446SOL     OW21973   2.478   4.485  11.799  0.5289  0.0279  0.3068
 3446SOL    HW121974   2.493   4.548  11.870 -0.3084  1.5871 -0.8965
 3446SOL    HW221975   2.385   4.470  11.814  0.1610  1.9236 -0.0961
 3447SOL     OW21976   2.899   4.365   2.881  0.1804  0.6501 -0.1004
 3447SOL    HW121977   2.876   4.428   2.949  2.4892  2.0949 -0.6736
 3447SOL    HW221978   2.924   4.422   2.809 -2.0957 -1.1780 -2.3760
 3448SOL     OW21979   1.285   4.460   6.007  0.0188  0.3310  0.3766
 3448SOL    HW121980   1.204   4.481   5.961  0.6677 -0.7305 -1.2692
 3448SOL    HW221981   1.327   4.405   5.940  1.3660 -0.9748  2.2734
 3449SOL     OW21982   4.028   3.893   2.845  0.3191 -0.0562 -0.1412
 3449SOL    HW121983   3.973   3.825   2.885 -1.3281  0.8638 -0.8830
 3449SOL    HW221984   4.026   3.871   2.752 -0.6302  0.1073 -0.1525
 3450SOL     OW21985   0.143   2.549   1.918  0.3093  0.0619  0.0286
 3450SOL    HW121986   0.150   2.519   1.827 -1.5455  1.2946 -0.5138
 3450SOL    HW221987   0.136   2.467   1.968  2.1128  0.4791  0.9484
 3451SOL     OW21988   0.752   1.557   7.069 -0.0475 -0.1456  0.1085
 3451SOL    HW121989   0.768   1.650   7.049 -1.9676  0.3954  1.0804
 3451SOL    HW221990   0.829   1.522   7.024 -0.8118 -1.9315  0.1996
 3452SOL     OW21991   3.341   2.175   6.417  0.2271 -0.3237  0.6164
 3452SOL    HW121992   3.412   2.203   6.476 -0.9912  0.5884  1.6668
 3452SOL    HW221993   3.393   2.174   6.337 -0.3789 -1.7239  0.2591
 3453SOL     OW21994   0.427   1.777  13.710  0.2066  0.0048  0.5991
 3453SOL    HW121995   0.411   1.854  13.655 -1.1891 -2.6214 -2.6755
 3453SOL    HW221996   0.430   1.821  13.795 -0.5950  1.0830  0.0735
 3454SOL     OW21997   2.703   4.046   6.168  0.1835 -0.1135  0.2715
 3454SOL    HW121998   2.702   4.024   6.075  0.7559 -1.0074  0.4875
 3454SOL    HW221999   2.626   4.104   6.166  0.1705 -0.1110  0.7133
 3455SOL     OW22000   1.435   0.238  13.180 -0.6610 -0.4220  0.2017
 3455SOL    HW122001   1.352   0.194  13.159 -1.4663  1.7366 -1.1781
 3455SOL    HW222002   1.417   0.274  13.267 -1.1747 -1.2731  0.4474
 3456SOL     OW22003   1.238   2.153   7.350  0.4491 -0.5432 -0.9214
 3456SOL    HW122004   1.278   2.089   7.291  2.0996  1.7946 -2.3134
 3456SOL    HW222005   1.195   2.102   7.419 -1.0904  0.5564 -1.0673
 3457SOL     OW22006   1.098   2.577   7.038 -0.0864 -0.1754 -0.2921
 3457SOL    HW122007   1.088   2.513   7.108 -1.3033  1.1794  0.7861
 3457SOL    HW222008   1.146   2.644   7.087  0.9823 -0.5525 -0.8364
 3458SOL     OW22009   3.915   4.514   9.190  0.1245  0.7385  0.4825
 3458SOL    HW122010   3.935   4.575   9.119  1.4157  0.6898  0.8084
 3458SOL    HW222011   3.901   4.432   9.141 -1.6039  1.1263  0.3252
 3459SOL     OW22012   4.059   4.691   8.665  0.1385  0.4098  0.0665
 3459SOL    HW122013   4.034   0.044   8.635 -0.5944 -0.7318 -2.6204
 3459SOL    HW222014   4.034   4.698   8.757  0.6711 -1.1144  0.3155
 3460SOL     OW22015   2.057   3.619   3.149 -0.1557  0.3568 -0.1548
 3460SOL    HW122016   2.109   3.650   3.223  0.4498 -2.4347  0.5819
 3460SOL    HW222017   1.967   3.644   3.169  0.4777  2.8779 -0.3479
 3461SOL     OW22018   1.176   0.352  16.388 -0.2175  0.0163  0.1620
 3461SOL    HW122019   1.120   0.384  16.319  0.6554  1.1254 -0.0277
 3461SOL    HW222020   1.187   0.425  16.449  1.8347  0.1201 -0.3128
 3462SOL     OW22021   1.078   4.315   6.768 -0.5172 -0.6622 -0.1232
 3462SOL    HW122022   1.116   4.258   6.835  0.8947 -1.2244 -1.3740
 3462SOL    HW222023   1.149   4.377   6.749 -0.1285 -0.8508  0.7189
 3463SOL     OW22024   0.761   2.446   6.868  0.1795  0.7160 -0.0940
 3463SOL    HW122025   0.702   2.377   6.838  0.5076  0.7365 -0.7933
 3463SOL    HW222026   0.775   2.487   6.782 -2.1327 -0.0168 -0.8258
 3464SOL     OW22027   1.318   2.824   7.083  0.1430 -0.0230 -0.3630
 3464SOL    HW122028   1.376   2.751   7.101  0.9778  0.6765 -0.2054
 3464SOL    HW222029   1.374   2.861   7.014 -0.7046 -0.4458 -1.2840
 3465SOL     OW22030   4.108   3.400   1.190  0.1215  0.6898 -0.4365
 3465SOL    HW122031   4.024   3.356   1.192  0.6945 -0.4530 -2.0211
 3465SOL    HW222032   4.119   3.411   1.285 -2.5766 -1.3806  0.1029
 3466SOL     OW22033   0.374   2.140   5.116  0.0262  0.3841  0.1217
 3466SOL    HW122034   0.457   2.106   5.148 -0.1575 -1.9400 -1.8847
 3466SOL    HW222035   0.312   2.073   5.146  0.7719 -0.6494 -0.6797
 3467SOL     OW22036   3.251   2.840   7.773  0.5484  0.1322 -0.2906
 3467SOL    HW122037   3.275   2.879   7.857  2.2798 -1.6427  0.0332
 3467SOL    HW222038   3.155   2.835   7.779  0.6494 -2.2482 -0.6842
 3468SOL     OW22039   3.664   2.257  11.936 -0.4334  0.9794 -0.4182
 3468SOL    HW122040   3.569   2.261  11.937 -0.3099  3.5951  2.0898
 3468SOL    HW222041   3.686   2.319  11.866 -4.6860  2.8173 -0.0977
 3469SOL     OW22042   2.679   0.289   6.593 -0.2913 -0.0976  0.3716
 3469SOL    HW122043   2.643   0.358   6.538  0.7534  0.0210 -0.1567
 3469SOL    HW222044   2.751   0.339   6.631 -1.0581  1.2045  0.0974
 3470SOL     OW22045   1.693   1.756   4.618  0.1411  0.1179  0.6303
 3470SOL    HW122046   1.632   1.826   4.593 -0.4878 -1.5700 -2.6464
 3470SOL    HW222047   1.644   1.676   4.602  1.5863 -0.4352 -1.0188
 3471SOL     OW22048   0.829   3.620   8.799 -0.2558 -0.2124  0.2931
 3471SOL    HW122049   0.762   3.614   8.867  0.5428 -2.2862  0.9007
 3471SOL    HW222050   0.889   3.556   8.836 -0.1276 -0.6953 -0.7521
 3472SOL     OW22051   2.989   2.994   1.927 -0.4056  0.1298 -0.1204
 3472SOL    HW122052   3.055   2.930   1.954 -0.5793 -0.2864 -0.6787
 3472SOL    HW222053   2.950   3.023   2.009 -1.2550  3.2236 -1.6190
 3473SOL     OW22054   3.142   2.896   6.205 -0.3028 -0.5445 -0.4296
 3473SOL    HW122055   3.124   2.837   6.132 -1.5158 -0.6431 -0.0560
 3473SOL    HW222056   3.221   2.852   6.236 -0.4640 -1.1600 -0.9079
 3474SOL     OW22057   0.574   3.430  12.068  0.0339  0.6087 -0.2094
 3474SOL    HW122058   0.641   3.385  12.119  0.3431  0.4830 -0.7270
 3474SOL    HW222059   0.575   3.384  11.984  1.4563 -1.6057  1.0186
 3475SOL     OW22060   4.465   4.046   7.902 -0.2522 -0.2118 -0.0366
 3475SOL    HW122061   4.456   4.125   7.956 -1.6411  0.7221 -1.6446
 3475SOL    HW222062   4.373   4.020   7.894  0.7396 -2.4591 -3.9625
 3476SOL     OW22063   2.185   3.469   3.916 -0.4396  0.2031  0.0823
 3476SOL    HW122064   2.099   3.436   3.940  0.7249 -3.4635 -0.8135
 3476SOL    HW222065   2.182   3.536   3.985 -0.6075 -1.2241  1.4519
 3477SOL     OW22066   2.615   1.470  10.904  0.5230 -0.2248  0.1536
 3477SOL    HW122067   2.698   1.464  10.856  0.6543 -0.2036  0.3773
 3477SOL    HW222068   2.645   1.507  10.987 -2.3181  0.2827  0.9630
 3478SOL     OW22069   2.180   1.463   0.568 -0.2482  0.4596  0.4396
 3478SOL    HW122070   2.260   1.458   0.516 -0.4184  0.8874  0.1344
 3478SOL    HW222071   2.227   1.438   0.647 -1.1639 -1.1678  0.4755
 3479SOL     OW22072   0.623   0.731   4.656  0.0521 -0.5165  0.6409
 3479SOL    HW122073   0.671   0.685   4.587 -0.4812  0.4758 -0.3975
 3479SOL    HW222074   0.631   0.823   4.629 -0.3155 -0.6453  0.0921
 3480SOL     OW22075   3.386   1.303   4.775 -0.5121 -0.7786 -0.2291
 3480SOL    HW122076   3.422   1.241   4.713 -1.0746 -2.8562  1.5272
 3480SOL    HW222077   3.428   1.386   4.750 -0.4226 -0.8920 -0.4528
 3481SOL     OW22078   1.357   4.254   3.235 -0.2757 -0.2820 -0.2492
 3481SOL    HW122079   1.333   4.286   3.148 -0.6392  0.1445  0.0121
 3481SOL    HW222080   1.278   4.263   3.288 -0.5395  0.8362 -0.8339
 3482SOL     OW22081   2.404   3.650  16.309 -0.0917  0.3014 -0.5209
 3482SOL    HW122082   2.411   3.745  16.315 -1.7185  0.3851  0.0345
 3482SOL    HW222083   2.497   3.627  16.314 -0.4184 -0.7569  0.6335
 3483SOL     OW22084   0.561   4.256   3.034 -0.0622 -0.4042 -0.0298
 3483SOL    HW122085   0.603   4.234   3.117 -0.7573 -0.1634  0.3811
 3483SOL    HW222086   0.495   4.188   3.044  0.5741 -0.8162  1.3809
 3484SOL     OW22087   4.696   3.039   1.819  0.2313  0.5929  0.1443
 3484SOL    HW122088   0.051   3.050   1.788  0.3083  1.2813  0.6133
 3484SOL    HW222089   4.710   3.029   1.913  0.4376 -0.4474 -0.0021
 3485SOL     OW22090   1.668   1.242   6.672  0.0398  0.0726  0.0122
 3485SOL    HW122091   1.590   1.186   6.671 -0.1829  0.3457  2.3474
 3485SOL    HW222092   1.626   1.312   6.623 -2.6238 -0.3571  1.6703
 3486SOL     OW22093   3.602   4.523   6.872 -0.0154 -0.6473 -0.1983
 3486SOL    HW122094   3.640   4.445   6.912  0.2093 -1.3153 -1.7221
 3486SOL    HW222095   3.668   4.588   6.898  0.4239 -1.0874 -0.2037
 3487SOL     OW22096   0.626   1.174   0.613  0.8003 -0.2473 -0.2557
 3487SOL    HW122097   0.593   1.254   0.654  2.6924  1.3987 -1.9332
 3487SOL    HW222098   0.580   1.168   0.530  1.7096 -0.7594 -0.7173
 3488SOL     OW22099   2.861   1.294  15.175 -0.5297  0.3644 -0.4774
 3488SOL    HW122100   2.856   1.208  15.135  2.4082 -0.0591  0.1168
 3488SOL    HW222101   2.768   1.310  15.193 -1.1051 -2.0458 -1.3716
 3489SOL     OW22102   1.993   3.279   4.112 -0.3364  0.2282  0.3319
 3489SOL    HW122103   1.983   3.283   4.017 -0.4707  0.7459  0.3715
 3489SOL    HW222104   1.898   3.287   4.124 -0.6050 -1.5190 -0.6657
 3490SOL     OW22105   0.989   4.210   4.956  0.0411  0.6194 -0.1677
 3490SOL    HW122106   0.991   4.184   5.048 -0.0370  2.2416  0.2942
 3490SOL    HW222107   0.916   4.273   4.952 -0.5739 -0.1143 -0.5439
 3491SOL     OW22108   4.570   4.281   8.985  0.2579 -0.2935  0.1771
 3491SOL    HW122109   4.531   4.277   9.072 -0.6864  0.8641 -0.1852
 3491SOL    HW222110   4.663   4.299   9.000 -0.0040  2.8836 -2.0039
 3492SOL     OW22111   0.320   3.486   8.161  0.2875  0.2763 -0.2369
 3492SOL    HW122112   0.304   3.432   8.084 -1.2697  0.0554  0.2528
 3492SOL    HW222113   0.408   3.462   8.190 -0.3970 -0.4673  1.1994
 3493SOL     OW22114   4.366   4.218   5.978  0.7695 -0.2782 -0.6298
 3493SOL    HW122115   4.348   4.303   6.017  0.0352  0.2673 -2.1386
 3493SOL    HW222116   4.449   4.188   6.015 -0.1403 -1.6767  0.2894
 3494SOL     OW22117   1.271   1.629   1.291 -0.3110 -0.3367 -0.0574
 3494SOL    HW122118   1.259   1.709   1.240  2.3959 -0.5940 -1.0978
 3494SOL    HW222119   1.188   1.591   1.263 -0.2638 -0.3192 -0.2195
 3495SOL     OW22120   3.532   3.616  13.088  0.1608  0.7288 -0.2219
 3495SOL    HW122121   3.535   3.640  13.180 -0.1751 -1.8483  0.4567
 3495SOL    HW222122   3.480   3.682  13.043 -0.3845 -0.1665 -0.9268
 3496SOL     OW22123   1.635   1.585  11.126 -0.5768 -0.0799  0.6048
 3496SOL    HW122124   1.643   1.531  11.047  0.7171  0.1407  0.5723
 3496SOL    HW222125   1.729   1.590  11.145 -0.7887 -0.6847  1.7788
 3497SOL     OW22126   1.895   2.559  17.568 -0.4465 -0.3544  0.6792
 3497SOL    HW122127   1.848   2.635  17.603  0.9181  0.0540  1.6232
 3497SOL    HW222128   1.819   2.504  17.551  1.3445 -2.9212  0.9939
 3498SOL     OW22129   0.295   3.202   3.294  0.0312  0.3767  0.6960
 3498SOL    HW122130   0.272   3.154   3.374  0.5931 -1.4900 -0.2896
 3498SOL    HW222131   0.281   3.136   3.228 -0.0677 -0.6339  1.7274
 3499SOL     OW22132   0.132   0.771   2.323 -0.5768  0.3960  0.0462
 3499SOL    HW122133   0.142   0.867   2.323  3.3488  0.0113 -0.0208
 3499SOL    HW222134   0.214   0.733   2.293 -1.1203 -2.2535  1.9239
 3500SOL     OW22135   3.213   4.428  13.211 -0.3432  0.0709  0.6956
 3500SOL    HW122136   3.156   4.474  13.273 -1.6073  2.4954 -2.2158
 3500SOL    HW222137   3.184   4.466  13.128 -3.5798  1.3642  2.4282
 3501SOL     OW22138   2.832   0.658   7.874  0.1885  0.1431 -0.2575
 3501SOL    HW122139   2.852   0.746   7.905  1.1297 -0.0139 -0.4059
 3501SOL    HW222140   2.916   0.611   7.876  1.3323  2.2927  1.2773
 3502SOL     OW22141   0.800   2.842   8.343  0.1664  0.0711  0.5650
 3502SOL    HW122142   0.800   2.910   8.410 -0.2620 -0.6786  1.3216
 3502SOL    HW222143   0.778   2.888   8.262  1.9018  1.7332  1.0495
 3503SOL     OW22144   0.113   4.336   1.078 -0.0924 -0.2060 -0.1676
 3503SOL    HW122145   0.181   4.273   1.055 -1.2925 -0.9833 -1.5547
 3503SOL    HW222146   0.136   4.403   1.014 -0.0245 -1.7508 -1.7595
 3504SOL     OW22147   2.011   4.162   8.771 -0.0209  0.0494  0.4519
 3504SOL    HW122148   1.929   4.117   8.753  0.4688 -0.3278 -0.7962
 3504SOL    HW222149   2.039   4.114   8.849  0.4399  0.4465  0.5394
 3505SOL     OW22150   4.327   1.574   8.814 -0.2438 -0.6197  0.0274
 3505SOL    HW122151   4.335   1.484   8.847  0.8621 -0.7337 -0.5378
 3505SOL    HW222152   4.299   1.549   8.726  1.4564  0.7196 -0.8944
 3506SOL     OW22153   0.661   2.564   2.800  0.7821 -0.6747 -0.1043
 3506SOL    HW122154   0.706   2.644   2.826 -0.4032  0.4672 -1.5058
 3506SOL    HW222155   0.624   2.598   2.719  1.1902 -1.7607 -0.7473
 3507SOL     OW22156   0.338   3.643   7.409 -0.1942  0.5966 -0.1699
 3507SOL    HW122157   0.361   3.558   7.446 -0.1569  1.1718  1.1128
 3507SOL    HW222158   0.355   3.707   7.477  1.3573  0.2027 -0.1893
 3508SOL     OW22159   0.379   1.840  12.744  0.1713 -0.2128 -0.5875
 3508SOL    HW122160   0.453   1.883  12.787 -0.9835 -1.1603  2.4035
 3508SOL    HW222161   0.401   1.839  12.651  1.2337 -0.0979 -0.3433
 3509SOL     OW22162   3.850   0.759   5.847  0.3821 -0.3843  0.2820
 3509SOL    HW122163   3.908   0.684   5.862 -1.5309 -1.4426  2.3720
 3509SOL    HW222164   3.857   0.797   5.934  0.6534 -0.4569  0.2929
 3510SOL     OW22165   4.304   2.792   4.004  0.2931  0.4460 -0.1808
 3510SOL    HW122166   4.293   2.820   4.095 -1.6016 -1.0976  0.0705
 3510SOL    HW222167   4.261   2.861   3.953 -1.1318 -0.7045 -0.5510
 3511SOL     OW22168   0.688   2.594   4.969 -0.1437  0.1639 -0.3858
 3511SOL    HW122169   0.678   2.499   4.970  0.2551  0.1235 -0.2322
 3511SOL    HW222170   0.718   2.606   4.878  0.2805  0.7175 -0.1737
 3512SOL     OW22171   1.495   3.759   8.042  0.4245  1.3686  0.0791
 3512SOL    HW122172   1.450   3.829   7.996  1.8971  3.4595  1.8212
 3512SOL    HW222173   1.578   3.769   7.994 -0.7955  0.6842 -2.1625
 3513SOL     OW22174   2.609   1.446   4.250 -0.4625  0.0998  0.0013
 3513SOL    HW122175   2.568   1.457   4.163  2.9922  0.3544 -1.5891
 3513SOL    HW222176   2.663   1.368   4.243 -1.0004 -0.1618 -1.2743
 3514SOL     OW22177   0.760   2.807   1.661 -0.3167 -0.5893  0.2582
 3514SOL    HW122178   0.720   2.889   1.691 -0.5546 -1.6949  2.9846
 3514SOL    HW222179   0.837   2.791   1.716  0.4426  0.4447 -0.5037
 3515SOL     OW22180   2.696   3.533   8.913 -0.2490  0.1986 -0.0784
 3515SOL    HW122181   2.747   3.453   8.900  0.9264  0.9672 -0.1245
 3515SOL    HW222182   2.626   3.507   8.852  0.5215 -3.1507  0.4553
 3516SOL     OW22183   3.800   4.092   7.119 -0.1105 -0.0372  0.0568
 3516SOL    HW122184   3.768   4.030   7.184  0.1410  1.1742  1.3362
 3516SOL    HW222185   3.887   4.056   7.106 -0.0415 -0.4515  1.7046
 3517SOL     OW22186   3.326   0.642   6.590 -0.1551  0.1770  0.2359
 3517SOL    HW122187   3.358   0.555   6.563 -0.1490  0.0266  0.7170
 3517SOL    HW222188   3.241   0.625   6.631  0.5092  4.0280  3.1922
 3518SOL     OW22189   1.591   1.233   3.924 -0.0364 -0.2926 -0.4587
 3518SOL    HW122190   1.556   1.238   3.835 -2.1750 -0.4199  0.3504
 3518SOL    HW222191   1.525   1.180   3.970 -0.8560  0.9757 -0.1801
 3519SOL     OW22192   2.685   0.907   7.695  0.2942  0.1185  0.0864
 3519SOL    HW122193   2.672   0.981   7.637 -1.1866  1.3549  2.0199
 3519SOL    HW222194   2.657   0.927   7.784 -1.2756  2.3705 -0.9377
 3520SOL     OW22195   0.623   0.125   8.532  0.2146  0.1244 -0.4814
 3520SOL    HW122196   0.638   0.032   8.513  0.4354 -0.1728  1.1531
 3520SOL    HW222197   0.528   0.127   8.521 -0.1529 -0.2666  2.6517
 3521SOL     OW22198   3.100   1.296  11.536 -0.0001 -0.0997  0.4125
 3521SOL    HW122199   3.085   1.291  11.630  0.1702  1.8944  0.5370
 3521SOL    HW222200   3.184   1.341  11.534 -0.4590  0.6411 -2.0746
 3522SOL     OW22201   3.713   4.012   3.485 -0.0904  0.0954 -0.4989
 3522SOL    HW122202   3.728   4.095   3.531  2.0222 -1.0257  0.8579
 3522SOL    HW222203   3.764   3.960   3.547 -1.3917 -0.7260 -0.1390
 3523SOL     OW22204   1.042   4.178  12.748  0.1801  0.3258 -0.4125
 3523SOL    HW122205   1.045   4.086  12.775 -0.1615  0.0715 -1.2375
 3523SOL    HW222206   1.100   4.173  12.672  1.8964  0.6882  0.8496
 3524SOL     OW22207   3.453   1.912  14.870  0.0293 -0.3576  0.2442
 3524SOL    HW122208   3.368   1.956  14.869 -0.2431 -0.9215 -1.1561
 3524SOL    HW222209   3.483   1.916  14.779 -1.5621  0.0132 -0.2709
 3525SOL     OW22210   3.228   0.985   5.589 -0.5282 -0.0475 -0.0197
 3525SOL    HW122211   3.200   1.043   5.660  0.4131 -1.0912  1.1958
 3525SOL    HW222212   3.229   0.895   5.620 -0.4868  0.0362  0.2197
 3526SOL     OW22213   3.541   2.752   2.199  0.4995  0.4555 -0.1987
 3526SOL    HW122214   3.535   2.751   2.294 -2.5379 -0.8630 -0.4064
 3526SOL    HW222215   3.474   2.689   2.175  2.0898 -0.4092 -2.3987
 3527SOL     OW22216   4.173   1.218   7.305  0.6640 -0.4839 -0.3679
 3527SOL    HW122217   4.126   1.213   7.388 -1.4670 -0.5953 -1.5757
 3527SOL    HW222218   4.098   1.216   7.245 -0.2493 -0.4968  0.7688
 3528SOL     OW22219   2.546   1.054   3.921 -0.3557  0.1579 -0.5764
 3528SOL    HW122220   2.511   1.075   3.835 -1.1455  0.4902 -0.1665
 3528SOL    HW222221   2.631   1.098   3.915 -0.5529  0.3287 -2.0340
 3529SOL     OW22222   4.189   4.487   7.180 -0.2620 -0.1633  0.0884
 3529SOL    HW122223   4.148   4.524   7.102 -0.5114 -1.3145 -0.3221
 3529SOL    HW222224   4.274   4.528   7.168  0.1230 -1.3034 -1.0895
 3530SOL     OW22225   0.707   2.640   9.331  0.5416 -0.1186 -0.0221
 3530SOL    HW122226   0.725   2.557   9.375 -1.3523 -0.5208 -0.0283
 3530SOL    HW222227   0.611   2.638   9.331  0.5689 -1.2690  0.2519
 3531SOL     OW22228   0.030   1.907   9.724  0.5832 -0.0206  0.0180
 3531SOL    HW122229   0.001   1.955   9.802 -2.4647  1.7328 -2.2479
 3531SOL    HW222230   4.710   1.942   9.655  2.5588  3.5153  0.2154
 3532SOL     OW22231   3.897   2.559  14.684  0.0907  0.2601 -0.2497
 3532SOL    HW122232   3.876   2.644  14.724  2.7908 -0.0033  1.7484
 3532SOL    HW222233   3.856   2.496  14.743  0.9023  0.7197  0.8102
 3533SOL     OW22234   3.191   3.620  11.993 -0.6938 -0.3907 -0.7214
 3533SOL    HW122235   3.146   3.610  11.909  0.0262 -0.7557 -1.0606
 3533SOL    HW222236   3.183   3.534  12.034  0.5173  0.5536  1.4749
 3534SOL     OW22237   3.717   2.271   8.997 -0.1762  0.1173 -0.1077
 3534SOL    HW122238   3.790   2.223   9.035  0.2982 -0.0697 -1.2474
 3534SOL    HW222239   3.664   2.197   8.970 -0.5974  0.4896 -0.3059
 3535SOL     OW22240   0.268   0.695   8.731  0.1581  0.3292 -0.1414
 3535SOL    HW122241   0.363   0.684   8.732 -0.0076 -1.2094 -0.8177
 3535SOL    HW222242   0.259   0.789   8.747  0.2173  0.5082 -1.1837
 3536SOL     OW22243   1.314   2.384  13.399 -0.5981  0.1381 -0.1073
 3536SOL    HW122244   1.342   2.353  13.485 -1.5889  0.0890  0.1920
 3536SOL    HW222245   1.238   2.333  13.374 -0.2698 -0.1865 -0.4429
 3537SOL     OW22246   1.610   0.667   6.374  0.1465  0.5821 -0.0212
 3537SOL    HW122247   1.703   0.675   6.392  0.2181  0.6082 -0.4100
 3537SOL    HW222248   1.580   0.758   6.369 -1.1677  0.2036  0.8691
 3538SOL     OW22249   2.763   1.135   8.368  0.8387  0.1863 -0.0455
 3538SOL    HW122250   2.827   1.069   8.396  1.0011 -0.2743 -1.4774
 3538SOL    HW222251   2.789   1.200   8.434  2.3947 -0.9579  0.4724
 3539SOL     OW22252   4.655   4.139   5.149 -0.0235  0.3038  0.4306
 3539SOL    HW122253   4.612   4.056   5.167  1.3231 -0.3692  0.5308
 3539SOL    HW222254   4.594   4.189   5.095  0.0460 -0.8417 -0.7226
 3540SOL     OW22255   3.219   4.149   2.816  0.3136  0.1032  0.3079
 3540SOL    HW122256   3.224   4.054   2.802  2.2520  0.4649 -1.3296
 3540SOL    HW222257   3.170   4.160   2.898  1.9678  1.9472  1.0215
 3541SOL     OW22258   2.212   0.014  16.564  0.0144 -0.0821 -0.0863
 3541SOL    HW122259   2.251   0.050  16.484  1.3369  1.5806  1.2967
 3541SOL    HW222260   2.172   0.094  16.601 -1.9294 -0.3898 -1.5193
 3542SOL     OW22261   4.470   1.341   8.610 -0.3438  0.1485  0.2715
 3542SOL    HW122262   4.552   1.380   8.581 -0.4873  1.2929  1.4325
 3542SOL    HW222263   4.411   1.409   8.579  1.4145  1.5186 -0.0344
 3543SOL     OW22264   4.099   2.043  12.174 -0.3030 -0.6151 -0.1049
 3543SOL    HW122265   4.118   2.137  12.180  1.3527 -0.9242 -0.3964
 3543SOL    HW222266   4.019   2.043  12.122 -1.2474 -0.4164  1.3594
 3544SOL     OW22267   3.717   1.911   6.324 -0.2257  0.7028 -0.0164
 3544SOL    HW122268   3.716   1.845   6.394 -0.2735 -0.0484 -0.7258
 3544SOL    HW222269   3.793   1.878   6.277  0.4125  0.5491  1.1103
 3545SOL     OW22270   2.511   2.973   0.281 -0.3700 -0.1031 -0.2422
 3545SOL    HW122271   2.425   2.987   0.241  0.1564  0.6713 -1.1249
 3545SOL    HW222272   2.525   3.066   0.301 -2.2354  0.4202 -1.3188
 3546SOL     OW22273   1.434   0.069   3.354 -0.1368 -0.0674 -0.3603
 3546SOL    HW122274   1.418   0.090   3.262  1.9201  0.6820 -0.5422
 3546SOL    HW222275   1.370   4.734   3.369 -0.1662 -0.5179 -2.5743
 3547SOL     OW22276   4.341   1.063   3.522 -0.3271 -0.1634  1.1006
 3547SOL    HW122277   4.368   0.977   3.555  1.4257 -0.7069 -1.7432
 3547SOL    HW222278   4.421   1.096   3.483 -0.6588 -1.4484 -0.6594
 3548SOL     OW22279   0.630   3.467   7.259  0.2466  0.4859 -0.1878
 3548SOL    HW122280   0.714   3.468   7.305 -0.8856 -0.6806  1.9261
 3548SOL    HW222281   0.606   3.559   7.264 -2.1745 -0.1218 -0.7979
 3549SOL     OW22282   3.137   2.095   1.881 -0.0002 -0.0913 -0.5232
 3549SOL    HW122283   3.206   2.141   1.832 -1.1304  1.3894 -0.7378
 3549SOL    HW222284   3.188   2.026   1.923 -1.8692 -0.3880  1.2892
 3550SOL     OW22285   3.030   0.149   6.911  0.2172  0.5124  0.0433
 3550SOL    HW122286   3.100   0.117   6.854 -0.2688  3.2894 -2.1402
 3550SOL    HW222287   3.009   0.076   6.969 -0.9610  0.8447  0.0291
 3551SOL     OW22288   3.524   3.479   8.382 -0.6023  0.2187 -0.4641
 3551SOL    HW122289   3.564   3.529   8.453  1.3346 -1.0372 -0.6580
 3551SOL    HW222290   3.438   3.517   8.399 -1.7169 -2.8591  0.9403
 3552SOL     OW22291   4.500   1.193   9.369  0.1068 -0.0732  0.0939
 3552SOL    HW122292   4.541   1.264   9.419  3.5142 -1.0533 -1.3183
 3552SOL    HW222293   4.437   1.248   9.322  0.0172 -1.6709 -1.6550
 3553SOL     OW22294   0.926   2.949  17.346 -0.4787 -0.2599 -0.1510
 3553SOL    HW122295   0.988   2.899  17.399 -0.7765 -1.8312 -1.2889
 3553SOL    HW222296   0.907   3.021  17.406  1.8113 -0.8675  1.2982
 3554SOL     OW22297   1.017   0.925   7.328  0.0147 -0.3358  0.0153
 3554SOL    HW122298   0.942   0.978   7.355  0.0261  0.4115 -1.4324
 3554SOL    HW222299   1.021   0.858   7.396 -1.5704  2.1251  2.5127
 3555SOL     OW22300   4.057   2.914  14.013 -0.1076 -0.5745  0.0037
 3555SOL    HW122301   4.043   2.861  14.092 -1.3825  0.1025  0.2265
 3555SOL    HW222302   4.031   2.842  13.956 -1.3989 -0.4154  0.4096
 3556SOL     OW22303   1.204   2.936  12.701 -0.1333 -0.0793  0.5096
 3556SOL    HW122304   1.287   2.900  12.732  0.1429 -0.4979 -0.7059
 3556SOL    HW222305   1.155   2.855  12.690 -0.1648  0.0755 -0.5659
 3557SOL     OW22306   1.652   3.622   2.407  0.3736  0.4120  0.8394
 3557SOL    HW122307   1.703   3.541   2.405 -1.8516 -0.9749  0.1632
 3557SOL    HW222308   1.656   3.643   2.501  1.3592 -2.8479  1.5174
 3558SOL     OW22309   4.005   3.868  15.203 -0.2071  0.1282  0.3245
 3558SOL    HW122310   4.054   3.842  15.125  1.9261  0.1811  1.6471
 3558SOL    HW222311   4.043   3.815  15.273 -0.6893 -0.0801  0.4301
 3559SOL     OW22312   4.028   2.855   8.109 -0.0409 -0.0034  0.3615
 3559SOL    HW122313   4.059   2.765   8.112  1.5431  0.5353  0.4558
 3559SOL    HW222314   3.934   2.849   8.093  1.0326 -1.9449 -5.0758
 3560SOL     OW22315   3.086   0.619  14.892 -0.2674 -0.4349 -0.0380
 3560SOL    HW122316   3.147   0.614  14.819 -1.4212  0.2016 -1.0317
 3560SOL    HW222317   3.140   0.673  14.951 -0.8435 -0.7800  0.8051
 3561SOL     OW22318   1.159   1.017   0.442 -0.1416 -0.3444  0.1702
 3561SOL    HW122319   1.124   1.088   0.496  0.9385 -0.0835  0.5221
 3561SOL    HW222320   1.088   0.998   0.381 -1.1642  1.3072  0.8234
 3562SOL     OW22321   1.965   2.789  14.412 -0.6778  0.0006 -0.3712
 3562SOL    HW122322   1.923   2.806  14.328  0.7676  2.9838 -0.5042
 3562SOL    HW222323   1.932   2.700  14.427 -1.4350  0.4632  0.7441
 3563SOL     OW22324   1.795   4.148   2.908 -0.0160 -0.1615  0.4511
 3563SOL    HW122325   1.837   4.101   2.980  3.5033 -0.1556 -1.5578
 3563SOL    HW222326   1.707   4.146   2.943  0.1668  0.7727  0.9435
 3564SOL     OW22327   2.576   3.213  11.582  0.1112  0.3483  0.0712
 3564SOL    HW122328   2.507   3.249  11.526 -1.3413  0.7254  2.0961
 3564SOL    HW222329   2.632   3.283  11.613  1.0512 -0.5940  0.5030
 3565SOL     OW22330   4.344   0.400   7.438  0.0177 -0.7085  0.4400
 3565SOL    HW122331   4.344   0.473   7.500  2.0454  0.6339 -1.1274
 3565SOL    HW222332   4.428   0.356   7.454 -0.6113 -2.1214 -0.2572
 3566SOL     OW22333   4.643   1.634  16.206  0.6911 -0.1430  0.4540
 3566SOL    HW122334   4.577   1.693  16.241 -0.0008  0.2330 -1.4731
 3566SOL    HW222335   4.724   1.651  16.255  1.4213  1.0696 -1.1829
 3567SOL     OW22336   4.177   3.748  15.016  0.2458  0.1698  0.5651
 3567SOL    HW122337   4.258   3.797  15.002  0.2802 -0.1005 -0.1986
 3567SOL    HW222338   4.172   3.690  14.939  0.1654  1.2603 -0.2471
 3568SOL     OW22339   3.777   0.190   7.702  0.4057 -0.1928 -0.1913
 3568SOL    HW122340   3.766   0.149   7.787  1.2371  0.2865  0.1398
 3568SOL    HW222341   3.833   0.123   7.661  0.2352 -0.0697 -0.6298
 3569SOL     OW22342   1.468   4.608   6.861  0.2302  0.1530 -0.2965
 3569SOL    HW122343   1.503   4.692   6.891 -0.1367  0.4768 -0.7513
 3569SOL    HW222344   1.507   4.549   6.924  1.2384 -0.7146 -1.7241
 3570SOL     OW22345   2.544   1.333   2.398 -0.4625  0.2532 -0.3201
 3570SOL    HW122346   2.603   1.402   2.371 -2.2978  1.5523 -1.0253
 3570SOL    HW222347   2.461   1.381   2.404  0.2241  1.4112 -0.0718
 3571SOL     OW22348   1.264   1.139   2.522 -0.3771  0.3524  0.3397
 3571SOL    HW122349   1.228   1.054   2.548 -0.6401 -0.0172 -1.2342
 3571SOL    HW222350   1.335   1.102   2.471 -0.7200  0.7771 -0.4596
 3572SOL     OW22351   3.627   1.159  10.099  0.6114 -0.2310  0.0169
 3572SOL    HW122352   3.644   1.155  10.193  2.2106  0.0758 -0.2664
 3572SOL    HW222353   3.618   1.069  10.065 -0.6821 -0.5115  1.0604
 3573SOL     OW22354   1.909   2.974   7.548 -0.4658  0.4532  0.0306
 3573SOL    HW122355   1.823   2.934   7.556 -0.8537  1.4263  0.6971
 3573SOL    HW222356   1.967   2.924   7.607  0.8594  0.4697 -1.2557
 3574SOL     OW22357   3.826   3.969   4.976 -0.1827 -0.0404 -0.3968
 3574SOL    HW122358   3.808   3.953   5.068  3.6621  0.1003  0.3820
 3574SOL    HW222359   3.918   3.994   4.978  0.0925 -1.2663  2.1853
 3575SOL     OW22360   1.944   2.813   8.714  0.4660  0.1341 -0.2380
 3575SOL    HW122361   1.867   2.855   8.752  0.8855 -1.1563  2.0012
 3575SOL    HW222362   2.013   2.854   8.766  0.2113 -1.3331  1.2241
 3576SOL     OW22363   2.873   0.355   6.279 -0.4523  0.4601 -0.5049
 3576SOL    HW122364   2.844   0.357   6.188 -0.9347 -0.1473 -0.3686
 3576SOL    HW222365   2.869   0.261   6.296  2.3756  0.4339  0.0764
 3577SOL     OW22366   0.884   0.238   8.407 -0.4732 -0.9581  0.0887
 3577SOL    HW122367   0.872   0.332   8.398 -0.4896 -1.0271 -0.6434
 3577SOL    HW222368   0.820   0.213   8.473  0.4989 -1.4914  0.8224
 3578SOL     OW22369   1.732   0.328   1.835 -0.6773  0.1955  0.0894
 3578SOL    HW122370   1.815   0.289   1.862 -0.7696  0.4478  0.7321
 3578SOL    HW222371   1.710   0.288   1.751  1.2021 -1.0891  0.2200
 3579SOL     OW22372   1.126   4.338   1.158 -0.2186  0.2658 -0.1914
 3579SOL    HW122373   1.161   4.413   1.110 -1.2754  0.4469 -0.6781
 3579SOL    HW222374   1.170   4.346   1.242 -0.1221  1.3325 -0.3391
 3580SOL     OW22375   4.423   4.362   3.441 -0.5136  0.3472 -0.1425
 3580SOL    HW122376   4.406   4.456   3.448  0.2297  0.3499  1.6749
 3580SOL    HW222377   4.344   4.325   3.402  0.6168 -2.5951  0.4136
 3581SOL     OW22378   4.527   1.881   4.895  0.5212 -0.2131  0.2729
 3581SOL    HW122379   4.615   1.889   4.931  1.2431  1.8983 -1.9341
 3581SOL    HW222380   4.494   1.814   4.956  0.1931  0.9470  1.3670
 3582SOL     OW22381   0.991   3.487   6.546  0.4261  0.1242 -0.3191
 3582SOL    HW122382   0.975   3.555   6.612  0.0077 -0.5943  0.3193
 3582SOL    HW222383   0.925   3.514   6.483 -0.7699 -0.6847  0.5910
 3583SOL     OW22384   1.660   2.791   0.869 -0.2631  0.1516  0.1772
 3583SOL    HW122385   1.717   2.714   0.868 -1.0320 -0.3465 -2.6283
 3583SOL    HW222386   1.731   2.847   0.902  1.5045 -1.5131 -0.8217
 3584SOL     OW22387   0.459   4.214   7.213 -0.3797 -0.2422 -0.7128
 3584SOL    HW122388   0.398   4.176   7.150 -0.4564 -0.5894 -0.4277
 3584SOL    HW222389   0.510   4.273   7.157 -0.8430  0.1388 -0.7330
 3585SOL     OW22390   1.367   2.991   3.006  0.1775  0.8398  0.2225
 3585SOL    HW122391   1.437   2.988   3.071  0.1505 -0.0344  0.2113
 3585SOL    HW222392   1.304   3.041   3.058 -0.4647 -0.2668  0.4840
 3586SOL     OW22393   3.529   3.238  12.478  0.0212 -0.4198  0.4220
 3586SOL    HW122394   3.446   3.217  12.521 -0.8772  0.5237 -0.8776
 3586SOL    HW222395   3.588   3.177  12.523  1.6123  0.9965  0.2880
 3587SOL     OW22396   1.321   2.629   5.018  0.0666 -0.0725 -0.5221
 3587SOL    HW122397   1.241   2.611   5.066  0.2081 -0.1510 -0.3156
 3587SOL    HW222398   1.314   2.724   5.009  1.7939  0.0686 -0.4243
 3588SOL     OW22399   3.556   4.339  17.593 -0.0631  0.0396 -0.1833
 3588SOL    HW122400   3.611   4.401  17.640 -0.1696  1.9035 -2.5608
 3588SOL    HW222401   3.542   4.391  17.514  0.4094  0.6449  0.1341
 3589SOL     OW22402   3.055   0.894   6.467 -0.6168  0.6775 -0.5999
 3589SOL    HW122403   3.008   0.905   6.550  0.4764  0.9234 -0.0088
 3589SOL    HW222404   2.994   0.834   6.426 -0.5104  0.6641 -0.7377
 3590SOL     OW22405   0.547   0.459   6.825  0.1584 -0.4083  0.0915
 3590SOL    HW122406   0.574   0.542   6.784 -0.7057  0.9939  2.3707
 3590SOL    HW222407   0.555   0.483   6.917 -0.6929 -0.6024  0.2182
 3591SOL     OW22408   1.830   1.067   2.317 -0.0766 -0.5553 -0.4756
 3591SOL    HW122409   1.811   0.978   2.348 -0.9796 -0.0215  0.4357
 3591SOL    HW222410   1.770   1.070   2.242 -1.6119 -0.8610  0.7484
 3592SOL     OW22411   4.026   1.282   8.686  0.5891 -0.2481  0.0391
 3592SOL    HW122412   4.030   1.204   8.741 -1.3673 -2.0190 -2.2979
 3592SOL    HW222413   4.059   1.250   8.602 -1.0017  2.6556 -1.6856
 3593SOL     OW22414   0.125   0.732   4.280 -0.1462  0.6113 -0.2247
 3593SOL    HW122415   0.030   0.743   4.282 -0.3969 -1.8862  1.5370
 3593SOL    HW222416   0.138   0.798   4.348  0.1580 -1.4436  1.6883
 3594SOL     OW22417   0.967   4.311   6.165 -0.3159 -0.0254 -0.3305
 3594SOL    HW122418   0.962   4.233   6.111 -0.6315  0.7365 -1.3999
 3594SOL    HW222419   1.061   4.312   6.182 -0.0534  0.8822 -1.8304
 3595SOL     OW22420   0.562   1.019   8.066 -0.2433 -0.7322  0.0117
 3595SOL    HW122421   0.641   0.974   8.097  1.6506 -0.5581 -4.4870
 3595SOL    HW222422   0.581   1.113   8.063 -1.2442 -0.5429 -0.1974
 3596SOL     OW22423   3.038   1.828   8.778 -0.4801 -0.2797 -0.3510
 3596SOL    HW122424   3.093   1.902   8.754  0.7190 -1.0115  0.1393
 3596SOL    HW222425   3.052   1.772   8.701 -4.2868 -1.1592 -0.4265
 3597SOL     OW22426   1.331   0.986   3.179  0.2146  0.9323 -0.3767
 3597SOL    HW122427   1.301   0.977   3.088 -1.9425  3.4215  0.0699
 3597SOL    HW222428   1.294   1.072   3.196  1.6336  1.1000  1.7755
 3598SOL     OW22429   1.010   2.087   9.509 -0.0234  0.3909  0.3075
 3598SOL    HW122430   1.099   2.117   9.532  0.8562 -2.0025 -0.0040
 3598SOL    HW222431   0.976   2.082   9.598  1.0087  1.8473  0.7946
 3599SOL     OW22432   3.764   3.069   2.874  0.0501  0.5615  0.2737
 3599SOL    HW122433   3.701   3.136   2.848 -0.2669 -0.6268 -2.0506
 3599SOL    HW222434   3.836   3.130   2.888 -0.1895  1.4038 -2.0714
 3600SOL     OW22435   2.120   4.468   3.607  0.6011 -0.2512 -0.3400
 3600SOL    HW122436   2.127   4.511   3.692  2.2693  1.8608 -1.5730
 3600SOL    HW222437   2.086   4.382   3.631  0.0154  0.7011  2.3086
 3601SOL     OW22438   2.048   2.577  17.140  0.5239 -0.2104 -0.6260
 3601SOL    HW122439   2.114   2.550  17.077 -1.8614 -0.8196 -2.9013
 3601SOL    HW222440   1.981   2.607  17.078 -0.7352 -0.3955  0.6209
 3602SOL     OW22441   1.356   2.859   7.937  0.3280  0.1932 -0.3547
 3602SOL    HW122442   1.317   2.796   7.877  0.8069 -0.8236  0.4004
 3602SOL    HW222443   1.388   2.798   8.004 -0.2880  0.3263  0.0625
 3603SOL     OW22444   1.034   1.237   2.036 -0.1910 -0.0530 -0.7761
 3603SOL    HW122445   1.063   1.146   2.048  0.2280  0.2732  0.7763
 3603SOL    HW222446   0.947   1.225   2.073  0.5064 -0.5939  0.7110
 3604SOL     OW22447   1.591   4.544   1.833  0.0092 -0.7645 -0.4969
 3604SOL    HW122448   1.582   4.636   1.855 -1.7102 -0.6221 -1.8245
 3604SOL    HW222449   1.620   4.520   1.921 -1.7443 -0.2291  0.2318
 3605SOL     OW22450   3.126   4.474   3.388 -0.6406 -0.4434 -0.4233
 3605SOL    HW122451   3.080   4.394   3.362  0.1249 -0.9140 -0.3335
 3605SOL    HW222452   3.159   4.504   3.303 -0.8312  0.0220 -0.3363
 3606SOL     OW22453   0.048   1.269   8.304  0.1391 -0.0013  0.4939
 3606SOL    HW122454   0.026   1.177   8.318 -0.7466  0.0921 -0.2992
 3606SOL    HW222455   0.109   1.267   8.230 -0.5567  0.4621 -0.0985
 3607SOL     OW22456   4.690   3.762   0.180  0.1272 -0.3743  0.3525
 3607SOL    HW122457   4.663   3.673   0.201  0.0573 -0.5572 -0.5207
 3607SOL    HW222458   4.715   3.779   0.271 -1.0278 -1.9015  0.9581
 3608SOL     OW22459   0.368   2.255   2.882  0.8671  0.2955 -0.1237
 3608SOL    HW122460   0.312   2.328   2.855 -1.0647 -1.0899  0.1194
 3608SOL    HW222461   0.317   2.213   2.951  2.1662 -0.2326  0.5162
 3609SOL     OW22462   2.396   0.135   6.524  0.3687  0.2650  0.1024
 3609SOL    HW122463   2.406   0.145   6.618 -0.8478  2.4841 -0.0037
 3609SOL    HW222464   2.417   0.042   6.532  0.0731  0.0477 -1.6257
 3610SOL     OW22465   3.765   3.326   8.659 -0.1031  0.4637  0.3122
 3610SOL    HW122466   3.740   3.266   8.729  0.9496 -1.2111 -0.7629
 3610SOL    HW222467   3.859   3.312   8.663 -0.0835  0.2960 -0.8495
 3611SOL     OW22468   1.483   1.437   6.857  0.7921 -0.1295  0.0768
 3611SOL    HW122469   1.511   1.366   6.914  0.0853 -0.0705  0.4970
 3611SOL    HW222470   1.410   1.388   6.818  1.7929 -0.8560 -0.8946
 3612SOL     OW22471   2.827   3.455   8.390  0.2479  0.3729 -0.4266
 3612SOL    HW122472   2.917   3.430   8.370 -0.3481 -1.6727 -0.6454
 3612SOL    HW222473   2.846   3.478   8.480 -0.8047  0.5846 -0.2487
 3613SOL     OW22474   0.926   1.039   6.304 -0.8024  0.3718  0.4784
 3613SOL    HW122475   0.951   1.047   6.212  1.6337 -1.2661  0.9893
 3613SOL    HW222476   0.838   1.006   6.288 -0.3588 -0.0366 -1.1392
 3614SOL     OW22477   3.492   2.512   8.465 -0.2404  0.5633  0.1717
 3614SOL    HW122478   3.480   2.577   8.396 -3.2515 -0.7728 -0.5481
 3614SOL    HW222479   3.497   2.568   8.542  0.3907 -0.0432  0.5719
 3615SOL     OW22480   1.478   3.349   3.007  0.7200  0.5672 -0.1619
 3615SOL    HW122481   1.439   3.293   3.074  2.3967 -0.1321  0.2227
 3615SOL    HW222482   1.537   3.403   3.060  0.8535  0.0851  0.1789
 3616SOL     OW22483   0.883   4.582   0.362 -0.3780  0.2575 -0.0793
 3616SOL    HW122484   0.941   4.619   0.296  0.6335 -0.8610  0.1885
 3616SOL    HW222485   0.919   4.623   0.440  3.0858  0.3386 -1.7265
 3617SOL     OW22486   3.496   2.223  11.560  0.2543 -0.2308  0.0600
 3617SOL    HW122487   3.401   2.219  11.571  0.2062 -0.9901 -0.6257
 3617SOL    HW222488   3.518   2.314  11.581 -0.7270  0.1209 -0.4847
 3618SOL     OW22489   3.283   3.225   2.744  0.2965 -0.5523  0.2915
 3618SOL    HW122490   3.265   3.264   2.658  2.9038  0.6455  0.2881
 3618SOL    HW222491   3.224   3.263   2.809  0.8903  3.6888 -1.6622
 3619SOL     OW22492   0.462   0.568   8.883 -0.1263  0.6377 -0.2405
 3619SOL    HW122493   0.467   0.473   8.896 -2.8422  0.0656 -3.1913
 3619SOL    HW222494   0.367   0.578   8.882  0.0103  1.8133 -4.1187
 3620SOL     OW22495   3.159   2.042   2.209 -0.3734 -0.0114 -0.7770
 3620SOL    HW122496   3.141   2.105   2.279  3.7589 -0.2964  0.5478
 3620SOL    HW222497   3.204   1.973   2.257 -0.1349  0.4214 -0.3794
 3621SOL     OW22498   1.806   1.442   6.861  0.2839  0.5356  0.2801
 3621SOL    HW122499   1.738   1.483   6.914 -1.4445  0.0139 -1.5510
 3621SOL    HW222500   1.755   1.381   6.809 -0.6570  0.9826  0.6895
 3622SOL     OW22501   3.034   4.406  12.197  0.2843 -0.1151 -0.1531
 3622SOL    HW122502   3.061   4.421  12.106 -0.3842  0.4851 -0.2475
 3622SOL    HW222503   2.981   4.329  12.177 -0.7295  0.1816  1.3683
 3623SOL     OW22504   3.565   0.140  11.252 -0.0305 -0.1593  0.5874
 3623SOL    HW122505   3.539   0.144  11.344 -1.7890 -1.8491  0.1745
 3623SOL    HW222506   3.535   0.055  11.220 -1.1348  0.4708 -0.0772
 3624SOL     OW22507   1.999   3.866   3.349 -0.3198 -0.1332  0.3127
 3624SOL    HW122508   2.060   3.826   3.411  0.6821  1.7137  0.5271
 3624SOL    HW222509   1.967   3.931   3.413 -0.5680 -0.4186  0.4781
 3625SOL     OW22510   1.089   0.303   6.373 -0.5569  0.5955 -0.0661
 3625SOL    HW122511   1.083   0.306   6.277 -0.6155  2.7827 -0.0044
 3625SOL    HW222512   1.142   0.226   6.392  2.1995  2.2804 -0.8896
 3626SOL     OW22513   0.673   4.238   9.721  0.0548  0.6946  0.3852
 3626SOL    HW122514   0.690   4.329   9.746 -2.9505  1.9971 -2.4562
 3626SOL    HW222515   0.637   4.196   9.799  0.3902  0.3239  0.3401
 3627SOL     OW22516   1.158   4.070   1.082  0.3253  0.4450  0.3123
 3627SOL    HW122517   1.157   4.154   1.127 -0.8799  0.0342  1.0401
 3627SOL    HW222518   1.250   4.047   1.075  0.2758  0.3360  0.0159
 3628SOL     OW22519   1.396   1.441   3.828  0.6210 -0.1993  0.5350
 3628SOL    HW122520   1.341   1.397   3.892 -0.4995 -1.9609 -1.6407
 3628SOL    HW222521   1.443   1.500   3.887 -0.7366  1.1150  0.2934
 3629SOL     OW22522   4.201   0.442   6.825 -0.6826  0.6633  0.4975
 3629SOL    HW122523   4.194   0.459   6.731 -0.6640  0.2794  0.4266
 3629SOL    HW222524   4.145   0.512   6.858 -0.5702  0.4573  1.1220
 3630SOL     OW22525   3.461   1.865  16.041  0.1629  0.3785 -0.4924
 3630SOL    HW122526   3.457   1.957  16.014 -1.1599  0.2848 -0.6132
 3630SOL    HW222527   3.373   1.852  16.076  1.0025  0.3564  1.6569
 3631SOL     OW22528   1.788   4.688  12.761 -0.1863  0.0161  0.2736
 3631SOL    HW122529   1.881   4.680  12.781 -0.1384 -2.3732 -0.9960
 3631SOL    HW222530   1.743   4.671  12.844  2.7210 -0.9201  1.6699
 3632SOL     OW22531   2.531   2.708   1.635  0.0455 -0.0529 -0.3167
 3632SOL    HW122532   2.487   2.789   1.608 -1.0151 -0.1020  1.2967
 3632SOL    HW222533   2.566   2.755   1.711 -1.3568  1.1184 -0.3977
 3633SOL     OW22534   1.605   0.976   2.785  0.8348 -0.7469  0.7300
 3633SOL    HW122535   1.510   0.983   2.801  0.3757  1.5420 -3.0427
 3633SOL    HW222536   1.635   1.062   2.755  0.8331 -0.4327  1.6209
 3634SOL     OW22537   2.424   0.174   7.510  0.2558 -0.1652 -0.2113
 3634SOL    HW122538   2.335   0.183   7.543 -0.2868 -0.1952 -1.6762
 3634SOL    HW222539   2.472   0.124   7.576 -1.3962  0.9107  1.7756
 3635SOL     OW22540   1.397   2.837  14.402  0.5832  0.0101 -0.0351
 3635SOL    HW122541   1.332   2.850  14.333  0.7393  0.5027 -0.0910
 3635SOL    HW222542   1.436   2.752  14.383 -1.0522 -0.3985 -1.5035
 3636SOL     OW22543   2.886   0.348  10.861 -0.2751  0.3898  0.1356
 3636SOL    HW122544   2.858   0.339  10.769  0.0095  0.7434  0.0165
 3636SOL    HW222545   2.948   0.419  10.846 -0.0832  0.0076 -0.9447
 3637SOL     OW22546   4.239   3.991   7.119 -0.1776 -0.4716 -0.2135
 3637SOL    HW122547   4.249   4.058   7.186 -1.3300  0.1815 -0.6910
 3637SOL    HW222548   4.326   3.974   7.082  0.0976 -1.4801  0.8811
 3638SOL     OW22549   0.797   4.425  10.980  0.1179 -0.2667  0.2357
 3638SOL    HW122550   0.826   4.479  10.907  0.8755  0.7430  1.2769
 3638SOL    HW222551   0.842   4.468  11.053  1.8204 -1.9787  0.1810
 3639SOL     OW22552   2.938   1.131   4.588 -0.3725 -0.2454  0.0371
 3639SOL    HW122553   3.011   1.151   4.529 -0.9534  0.2459 -0.5058
 3639SOL    HW222554   2.878   1.086   4.529  0.4461  0.1528 -1.0977
 3640SOL     OW22555   0.236   3.805   9.425  0.4830 -0.2926  0.0368
 3640SOL    HW122556   0.181   3.741   9.381 -0.5291 -1.4548  2.9768
 3640SOL    HW222557   0.247   3.879   9.365 -1.0611  0.6919  0.9847
 3641SOL     OW22558   4.255   0.621   6.592  0.5693 -0.0172 -0.0632
 3641SOL    HW122559   4.283   0.677   6.520 -1.9058  1.2223 -0.0688
 3641SOL    HW222560   4.284   0.533   6.568 -0.6684 -0.5994  0.5979
 3642SOL     OW22561   3.341   3.801  11.824  0.2566 -0.2973  0.1589
 3642SOL    HW122562   3.417   3.805  11.882  0.5681  0.3712 -0.2902
 3642SOL    HW222563   3.278   3.750  11.875 -2.0329  0.3665 -2.0169
 3643SOL     OW22564   4.295   2.174   3.695 -0.7423 -0.3616 -0.5143
 3643SOL    HW122565   4.377   2.139   3.729  0.1709  0.5699 -1.7932
 3643SOL    HW222566   4.260   2.210   3.777  1.0785  0.5268 -0.1407
 3644SOL     OW22567   4.397   3.538   5.816 -0.1045  0.3059  0.5388
 3644SOL    HW122568   4.427   3.447   5.821  1.3897  0.7710 -0.0980
 3644SOL    HW222569   4.311   3.534   5.859 -0.5316  1.3016 -0.2344
 3645SOL     OW22570   2.285   1.463   2.428 -0.0066 -0.1965  0.1477
 3645SOL    HW122571   2.249   1.530   2.486 -0.1744  1.2830 -1.6397
 3645SOL    HW222572   2.223   1.464   2.355  1.4439  1.2455 -1.0635
 3646SOL     OW22573   1.289   1.263   3.248  0.7128 -0.3846  0.8171
 3646SOL    HW122574   1.366   1.258   3.305 -0.3759  1.5755  2.4502
 3646SOL    HW222575   1.331   1.297   3.169 -1.9232 -1.1875 -0.9160
 3647SOL     OW22576   0.971   3.220   9.054 -0.0580  0.2097 -0.4102
 3647SOL    HW122577   1.010   3.307   9.046  1.8402 -0.5892  0.0634
 3647SOL    HW222578   0.909   3.228   9.127 -0.8102 -0.0131 -1.0346
 3648SOL     OW22579   2.288   2.800  14.891  0.2943 -0.0527 -0.4189
 3648SOL    HW122580   2.266   2.802  14.798  0.6484  0.7545 -0.4812
 3648SOL    HW222581   2.209   2.757  14.925 -0.4696  3.0528  1.6892
 3649SOL     OW22582   3.935   2.362   9.560 -0.6717  0.1865  0.4605
 3649SOL    HW122583   4.028   2.366   9.537 -0.9390 -1.0742 -0.8388
 3649SOL    HW222584   3.927   2.457   9.561  0.8101  0.3028  2.5421
 3650SOL     OW22585   4.192   1.729  16.475  0.2362  0.5845 -0.6374
 3650SOL    HW122586   4.190   1.660  16.542 -2.8272  0.8807 -0.4201
 3650SOL    HW222587   4.161   1.671  16.406  0.6549 -1.1892  0.6535
 3651SOL     OW22588   2.713   1.459   3.413  0.6533 -0.2089 -0.1196
 3651SOL    HW122589   2.710   1.366   3.431  1.3862 -0.5223 -1.6127
 3651SOL    HW222590   2.698   1.449   3.319 -1.8235 -3.3811  0.6446
 3652SOL     OW22591   2.380   1.436   5.076 -0.1936 -0.7653 -0.2510
 3652SOL    HW122592   2.304   1.472   5.030  0.2915  0.6887  0.1061
 3652SOL    HW222593   2.450   1.452   5.013  1.0827  0.8833  1.6091
 3653SOL     OW22594   0.528   0.011   4.582  0.0210  0.3939  0.2257
 3653SOL    HW122595   0.473   4.726   4.657  2.3503 -0.5964  1.6771
 3653SOL    HW222596   0.475   4.710   4.511 -0.2213  0.9193  0.1424
 3654SOL     OW22597   1.340   1.867  15.452  0.5337  0.7859 -0.8276
 3654SOL    HW122598   1.408   1.896  15.513 -0.9078 -1.2656  1.6954
 3654SOL    HW222599   1.382   1.786  15.422 -1.2777 -0.7416  0.8214
 3655SOL     OW22600   4.397   2.191   9.092 -0.4380  0.0839 -0.5344
 3655SOL    HW122601   4.315   2.174   9.138 -0.0106  0.6094  0.4020
 3655SOL    HW222602   4.374   2.162   9.003  0.2601 -1.2535 -0.2754
 3656SOL     OW22603   0.677   2.790   6.260  0.4043  0.1014 -0.1294
 3656SOL    HW122604   0.703   2.841   6.337 -0.3297  0.2692 -0.0007
 3656SOL    HW222605   0.583   2.798   6.250  0.2455 -2.5794 -0.7914
 3657SOL     OW22606   4.328   4.389   2.445  0.1966 -0.2906  0.3940
 3657SOL    HW122607   4.292   4.372   2.358 -0.3148  0.1479  0.5167
 3657SOL    HW222608   4.369   4.471   2.420 -2.0910  0.0120 -2.3708
 3658SOL     OW22609   1.529   2.973  15.088  0.3389  0.4765  0.0749
 3658SOL    HW122610   1.558   2.975  14.997 -0.1387 -0.9323 -0.1083
 3658SOL    HW222611   1.436   2.955  15.071 -0.3355  3.1333  0.9458
 3659SOL     OW22612   3.249   2.817   7.333 -0.2771  0.0617 -0.5565
 3659SOL    HW122613   3.278   2.908   7.339 -0.1593  0.1303 -2.2806
 3659SOL    HW222614   3.201   2.817   7.416  0.0489  0.5450 -0.3694
 3660SOL     OW22615   0.726   0.158   4.356  0.0779  0.1424 -0.5157
 3660SOL    HW122616   0.712   0.146   4.450  0.4412  1.2678 -0.3206
 3660SOL    HW222617   0.715   0.251   4.338  0.2979  0.4692  1.1013
 3661SOL     OW22618   1.799   0.162   3.143 -0.0476 -0.2468 -0.1296
 3661SOL    HW122619   1.891   0.174   3.119 -0.1389  1.9004  0.5326
 3661SOL    HW222620   1.760   0.179   3.058  0.6408 -1.0559 -0.6120
 3662SOL     OW22621   3.910   2.430   4.775 -0.3160  0.2135 -0.5765
 3662SOL    HW122622   3.975   2.481   4.823  2.0831 -1.1816 -2.3746
 3662SOL    HW222623   3.874   2.380   4.848 -0.3327 -2.5430 -2.5042
 3663SOL     OW22624   0.600   0.289   7.376  0.3543 -0.3625 -0.1194
 3663SOL    HW122625   0.611   0.194   7.372 -1.6440 -0.4518 -3.2355
 3663SOL    HW222626   0.511   0.296   7.412  0.8373 -0.7342  1.1609
 3664SOL     OW22627   4.253   2.296   8.821 -0.3174 -1.6190  0.2593
 3664SOL    HW122628   4.175   2.293   8.765  0.1482  4.1899 -0.6653
 3664SOL    HW222629   4.222   2.360   8.884  1.2919 -0.3129 -0.2633
 3665SOL     OW22630   1.913   0.103  13.567  0.3769  0.4806  0.2468
 3665SOL    HW122631   1.986   0.163  13.579  2.1272 -1.3965 -1.1054
 3665SOL    HW222632   1.871   0.136  13.487  1.8647 -2.5107 -1.7452
 3666SOL     OW22633   0.007   1.751   3.488 -0.2389 -0.1161  0.2397
 3666SOL    HW122634   4.706   1.664   3.473 -3.4896  1.0305  1.5143
 3666SOL    HW222635   4.669   1.792   3.534  0.6508  0.8167  0.8156
 3667SOL     OW22636   4.692   3.251   1.397 -0.5937  0.2104 -0.5295
 3667SOL    HW122637   4.608   3.283   1.363 -1.8041  0.1514  2.3605
 3667SOL    HW222638   0.020   3.295   1.340  0.3944  0.7025  0.9439
 3668SOL     OW22639   2.677   2.220   7.786  0.5879  0.4330 -0.0720
 3668SOL    HW122640   2.615   2.179   7.846 -1.3398  1.8337 -1.0994
 3668SOL    HW222641   2.615   2.281   7.745  2.0095  1.2808 -0.9429
 3669SOL     OW22642   2.782   2.173   1.819 -0.4138  0.0210  0.2774
 3669SOL    HW122643   2.852   2.223   1.860  0.4225 -1.7567  1.0347
 3669SOL    HW222644   2.708   2.183   1.880  0.7743  3.1207  1.2359
 3670SOL     OW22645   0.767   4.360  15.297  0.2149 -0.1814 -0.3225
 3670SOL    HW122646   0.763   4.433  15.358 -2.2803 -0.1391 -0.5172
 3670SOL    HW222647   0.686   4.309  15.303  1.4430 -2.0294  0.5663
 3671SOL     OW22648   4.009   0.400   1.322  0.7910 -0.1933  0.2612
 3671SOL    HW122649   4.032   0.309   1.340  2.1477 -0.0444 -0.7168
 3671SOL    HW222650   4.084   0.440   1.366  0.3396  1.0724 -0.1271
 3672SOL     OW22651   0.373   4.188   5.288 -0.1519 -0.0690  0.0906
 3672SOL    HW122652   0.391   4.187   5.382  1.5651 -3.0616 -0.2649
 3672SOL    HW222653   0.452   4.232   5.258  0.1048  0.2696  1.2640
 3673SOL     OW22654   4.497   0.384   2.637  0.3881  0.6085 -0.0499
 3673SOL    HW122655   4.581   0.412   2.672  1.0110  0.5004 -1.4226
 3673SOL    HW222656   4.511   0.292   2.613  2.1077  0.7027  0.6578
 3674SOL     OW22657   0.867   4.230  15.887  0.0921 -0.3677  0.6500
 3674SOL    HW122658   0.793   4.261  15.834 -0.2852  0.8814  1.9232
 3674SOL    HW222659   0.939   4.292  15.887 -1.5998  1.5943 -0.3427
 3675SOL     OW22660   4.336   4.630   7.720 -0.0292  0.3765  0.5801
 3675SOL    HW122661   4.246   4.658   7.739 -0.6881 -0.1167 -1.7549
 3675SOL    HW222662   4.320   4.538   7.698 -1.9636  0.9832 -0.5668
 3676SOL     OW22663   4.265   3.142  13.447 -0.3289  0.7519  0.3202
 3676SOL    HW122664   4.190   3.152  13.389 -0.5181  0.9499  0.5989
 3676SOL    HW222665   4.238   3.189  13.526 -0.5018 -3.7835  2.9744
 3677SOL     OW22666   2.083   0.283   5.849 -0.3261 -0.0567  0.6088
 3677SOL    HW122667   2.023   0.216   5.880  0.2968 -0.3754  1.1291
 3677SOL    HW222668   2.148   0.277   5.919  0.2890 -0.9691 -0.0465
 3678SOL     OW22669   3.268   2.023   2.684  0.1525 -0.5714  0.1440
 3678SOL    HW122670   3.237   2.109   2.713  0.3357 -1.0620  1.7624
 3678SOL    HW222671   3.252   1.977   2.766  2.0224 -2.5616 -0.5893
 3679SOL     OW22672   4.340   1.474   3.579  0.4594  0.2028 -0.5864
 3679SOL    HW122673   4.412   1.536   3.597 -0.1611  0.5528  0.7289
 3679SOL    HW222674   4.352   1.408   3.648  0.3746  0.5504 -0.2362
 3680SOL     OW22675   1.567   2.116   3.915 -0.1235 -0.2980  0.1772
 3680SOL    HW122676   1.647   2.160   3.942 -1.4205  1.9975  0.2605
 3680SOL    HW222677   1.606   2.028   3.911 -2.0943 -1.1310 -0.8253
 3681SOL     OW22678   0.279   2.186  12.103  0.2806 -0.1187  0.0345
 3681SOL    HW122679   0.204   2.204  12.047 -0.4560  0.9082  1.3399
 3681SOL    HW222680   0.347   2.218  12.044  0.0775 -0.9402 -0.6314
 3682SOL     OW22681   2.379   3.439  14.871  0.4032 -0.1936 -0.1849
 3682SOL    HW122682   2.317   3.400  14.809  0.2055  1.4484 -1.0218
 3682SOL    HW222683   2.439   3.478  14.807 -0.0961 -1.3424 -1.3641
 3683SOL     OW22684   0.622   4.385   7.063  0.0524  0.2790 -0.4268
 3683SOL    HW122685   0.711   4.421   7.070 -0.0032  0.2087  0.6887
 3683SOL    HW222686   0.609   4.388   6.968  0.1200  0.0671 -0.4437
 3684SOL     OW22687   4.455   1.581   6.788 -0.0824 -0.4773 -0.2659
 3684SOL    HW122688   4.493   1.517   6.848 -0.8475 -0.8462 -0.1815
 3684SOL    HW222689   4.474   1.548   6.700 -0.4235  0.3410 -0.6501
 3685SOL     OW22690   4.323   1.908   8.404  0.1952 -0.2597  0.1045
 3685SOL    HW122691   4.318   1.977   8.337 -1.3497 -0.3918  0.0781
 3685SOL    HW222692   4.238   1.866   8.392  0.9112 -0.8557 -2.9247
 3686SOL     OW22693   2.785   4.528   3.057  0.1033  0.4566  0.1870
 3686SOL    HW122694   2.726   4.526   3.132  0.2185 -0.6207  0.2389
 3686SOL    HW222695   2.796   4.622   3.039 -0.8949  0.3107 -1.1829
 3687SOL     OW22696   1.391   3.764   4.544  0.3541 -0.0052  0.2482
 3687SOL    HW122697   1.308   3.749   4.497  0.4424 -0.7217  0.3143
 3687SOL    HW222698   1.366   3.729   4.630 -0.4851  0.4755  0.2003
 3688SOL     OW22699   1.386   3.721   3.323 -0.1437  0.0237 -0.3136
 3688SOL    HW122700   1.324   3.793   3.327 -0.1276  0.0041  0.3692
 3688SOL    HW222701   1.336   3.643   3.350 -2.1718  1.4991  0.1530
 3689SOL     OW22702   3.593   2.835  16.855 -0.1194  0.2146 -0.2824
 3689SOL    HW122703   3.667   2.872  16.903 -1.1958 -0.2047  1.7015
 3689SOL    HW222704   3.518   2.867  16.906  0.3390 -2.5462  2.1550
 3690SOL     OW22705   1.568   3.600   2.679  0.1145  0.1909 -0.1184
 3690SOL    HW122706   1.546   3.612   2.771 -2.3599  1.8729 -0.9243
 3690SOL    HW222707   1.482   3.591   2.637  0.1402 -1.1117  0.0964
 3691SOL     OW22708   3.922   2.527   3.436 -0.5568 -0.0629  0.1705
 3691SOL    HW122709   3.841   2.510   3.484  0.7763  1.3021  2.9376
 3691SOL    HW222710   3.983   2.471   3.484  1.9336  1.2027 -1.5099
 3692SOL     OW22711   0.304   2.567   3.655 -0.0270  0.3601 -0.0813
 3692SOL    HW122712   0.355   2.640   3.621  0.4185 -0.1030 -0.4219
 3692SOL    HW222713   0.266   2.544   3.570  1.1846  0.0547 -0.5496
 3693SOL     OW22714   2.469   0.405   4.094  0.0167 -0.8311  0.4399
 3693SOL    HW122715   2.535   0.399   4.163  0.0193  3.8077  0.8385
 3693SOL    HW222716   2.481   0.319   4.053  0.3482 -0.9001  0.6788
 3694SOL     OW22717   1.656   2.223   7.059  0.1212  0.2830 -0.5665
 3694SOL    HW122718   1.679   2.151   7.118 -0.7013  1.0921  0.7346
 3694SOL    HW222719   1.614   2.275   7.127  0.4595 -1.7259  1.1977
 3695SOL     OW22720   1.811   1.628   5.170  0.2559  0.0457  0.3302
 3695SOL    HW122721   1.792   1.671   5.254  1.9604  1.1804  0.1320
 3695SOL    HW222722   1.830   1.706   5.119 -2.9810  1.2143  0.8857
 3696SOL     OW22723   3.643   2.585   9.737 -0.1620 -0.1991  0.0765
 3696SOL    HW122724   3.681   2.656   9.788 -0.3213  0.1481 -0.2913
 3696SOL    HW222725   3.656   2.621   9.649 -0.0345 -0.2302  0.0824
 3697SOL     OW22726   4.593   1.932   4.187 -0.1003 -0.5324 -0.4996
 3697SOL    HW122727   4.673   1.887   4.213 -0.8231 -0.6415  1.5217
 3697SOL    HW222728   4.553   1.857   4.145 -0.2617  1.1664 -3.3718
 3698SOL     OW22729   4.653   2.898   3.182  0.1252 -0.1068  0.3430
 3698SOL    HW122730   4.621   2.845   3.109  0.6423 -0.7577  0.5908
 3698SOL    HW222731   4.579   2.891   3.242  0.7928 -0.4951  1.1217
 3699SOL     OW22732   4.065   4.707   3.226  0.2010 -0.2040 -0.1371
 3699SOL    HW122733   4.022   0.054   3.249  1.3891  0.0557  1.1502
 3699SOL    HW222734   3.994   4.675   3.169 -1.6513  1.8108  1.0349
 3700SOL     OW22735   1.928   4.115   4.168  0.0184  0.1773  0.1812
 3700SOL    HW122736   1.991   4.174   4.209  0.2081  0.5656 -0.6698
 3700SOL    HW222737   1.859   4.176   4.141  0.2728  1.8411  3.3805
 3701SOL     OW22738   0.951   4.663   7.352  0.0585 -0.3156 -0.1606
 3701SOL    HW122739   0.971   0.016   7.384 -0.3787 -0.2714 -0.0019
 3701SOL    HW222740   0.927   4.616   7.432 -1.5696 -1.3955 -1.2910
 3702SOL     OW22741   3.572   4.711   7.647  0.6351  0.2364 -0.0054
 3702SOL    HW122742   3.653   4.660   7.636  0.6618 -0.4810  3.5837
 3702SOL    HW222743   3.614   0.060   7.665 -0.8967  0.6950  1.4019
 3703SOL     OW22744   2.034   4.224  10.276  0.9137  0.1559  0.1824
 3703SOL    HW122745   2.088   4.153  10.310  1.5243  1.0663  1.0878
 3703SOL    HW222746   2.020   4.264  10.362  0.8527 -1.5107  0.9362
 3704SOL     OW22747   1.310   3.800   6.411  0.0871  0.0856  0.2435
 3704SOL    HW122748   1.326   3.840   6.496 -1.3166  0.0659  0.5095
 3704SOL    HW222749   1.350   3.858   6.347  0.6599 -0.7369 -0.1505
 3705SOL     OW22750   3.109   3.638   6.253  0.2814  0.2780  0.1138
 3705SOL    HW122751   3.077   3.548   6.261  0.0082  0.5151  1.5663
 3705SOL    HW222752   3.045   3.681   6.309  0.3898  2.2297 -1.2632
 3706SOL     OW22753   2.825   1.551   7.119  0.1258  0.1784  0.6060
 3706SOL    HW122754   2.854   1.613   7.186 -0.0952  0.2719  0.6144
 3706SOL    HW222755   2.800   1.605   7.044  0.2726  0.1121  0.5101
 3707SOL     OW22756   3.637   1.326   1.500  0.2048 -0.2235 -0.0181
 3707SOL    HW122757   3.544   1.325   1.477 -0.1811 -1.3793  1.6297
 3707SOL    HW222758   3.633   1.278   1.582 -0.1441 -0.2889 -0.0753
 3708SOL     OW22759   2.273   1.661  16.508 -0.2234 -0.4915  0.0013
 3708SOL    HW122760   2.332   1.673  16.583  0.9587  2.0690 -1.3505
 3708SOL    HW222761   2.273   1.752  16.478  1.3625  0.0689  1.6407
 3709SOL     OW22762   4.575   1.386  12.373 -0.4904 -0.3674  0.0318
 3709SOL    HW122763   4.544   1.341  12.294 -0.3083  3.0419 -1.9680
 3709SOL    HW222764   4.668   1.367  12.358 -0.3645  0.5163 -0.3230
 3710SOL     OW22765   0.681   4.459  16.104  0.3555 -0.2799  0.5464
 3710SOL    HW122766   0.693   4.380  16.157 -0.2929 -1.2624 -0.7788
 3710SOL    HW222767   0.771   4.489  16.089  0.1403 -0.1629 -0.5296
 3711SOL     OW22768   0.553   4.404   5.956  0.2107 -0.0744 -0.3232
 3711SOL    HW122769   0.543   4.476   6.018  1.5204 -0.0147 -0.1681
 3711SOL    HW222770   0.564   4.461   5.880  0.0287  1.5347  0.8749
 3712SOL     OW22771   4.074   2.732   2.829 -0.8720  0.0813 -0.5242
 3712SOL    HW122772   4.133   2.730   2.905 -1.2187 -4.3232 -0.3297
 3712SOL    HW222773   4.067   2.636   2.821 -1.0977  0.0102  0.5243
 3713SOL     OW22774   1.625   4.562   4.478  0.2812  0.6023  0.0226
 3713SOL    HW122775   1.563   4.630   4.451  0.6047  0.4877 -1.0228
 3713SOL    HW222776   1.578   4.524   4.552  1.0065 -1.1988 -0.4402
 3714SOL     OW22777   3.238   2.980   4.157 -0.4012 -0.4551 -0.1356
 3714SOL    HW122778   3.150   2.954   4.187  0.5513 -0.7138  2.4708
 3714SOL    HW222779   3.256   2.909   4.096 -1.5905 -1.1632  0.3493
 3715SOL     OW22780   4.495   2.117  15.803 -0.2072 -0.0991 -0.3004
 3715SOL    HW122781   4.560   2.115  15.732  1.8333 -0.3987  1.5787
 3715SOL    HW222782   4.413   2.124  15.755  0.9696 -0.9323 -2.4371
 3716SOL     OW22783   3.059   1.579   7.451  0.1993 -0.6205  0.4041
 3716SOL    HW122784   3.120   1.645   7.484 -0.3620  0.2420 -0.2847
 3716SOL    HW222785   2.989   1.634   7.415  1.0909  1.1886  1.4520
 3717SOL     OW22786   1.808   0.671   9.004 -0.0188  0.0875 -0.0048
 3717SOL    HW122787   1.832   0.731   8.933  1.7798 -1.1004 -0.4015
 3717SOL    HW222788   1.733   0.626   8.964 -0.4690  0.8104  0.0101
 3718SOL     OW22789   2.991   1.086   5.874  0.4451  0.3178  0.3842
 3718SOL    HW122790   3.040   1.157   5.915 -1.5624  2.4732 -0.9204
 3718SOL    HW222791   2.979   1.031   5.951  1.5956  0.2199  0.4942
 3719SOL     OW22792   3.276   2.926   1.112  0.6878 -0.1132 -0.3786
 3719SOL    HW122793   3.207   2.862   1.094 -0.5563  1.3857 -0.9876
 3719SOL    HW222794   3.245   3.000   1.060  0.6317  0.9984  1.2411
 3720SOL     OW22795   2.917   1.563   8.008  0.0177 -0.3722  0.0919
 3720SOL    HW122796   2.824   1.573   8.027  0.5281  2.6496  0.9988
 3720SOL    HW222797   2.933   1.607   7.925  2.1775 -1.2291  0.0577
 3721SOL     OW22798   1.058   0.373   1.698 -0.3652 -0.3800 -0.1642
 3721SOL    HW122799   1.073   0.368   1.604 -1.8352  1.6281 -0.4967
 3721SOL    HW222800   1.080   0.463   1.719  2.0703 -0.5172 -2.2031
 3722SOL     OW22801   4.398   0.405   8.240  0.2042 -0.3653 -0.6250
 3722SOL    HW122802   4.447   0.423   8.160  1.1620  0.1018  0.0596
 3722SOL    HW222803   4.371   0.497   8.246 -1.4695 -0.8757 -0.5837
 3723SOL     OW22804   3.354   0.695  13.728 -0.7428  0.4841 -0.9731
 3723SOL    HW122805   3.272   0.745  13.729 -0.1572  1.3413  2.0012
 3723SOL    HW222806   3.423   0.761  13.724 -1.0068  0.7967 -0.1838
 3724SOL     OW22807   3.985   2.320   5.705  0.2340  0.9398  0.1095
 3724SOL    HW122808   4.076   2.330   5.730  0.5802 -1.9230  0.0080
 3724SOL    HW222809   4.000   2.267   5.627 -1.2211 -1.9593  1.7968
 3725SOL     OW22810   4.289   2.177   2.929  0.0286 -0.1468 -0.2222
 3725SOL    HW122811   4.320   2.266   2.914  0.0275  0.1420  1.5034
 3725SOL    HW222812   4.310   2.173   3.023  0.0627  2.3873 -0.1134
 3726SOL     OW22813   2.467   4.153  14.844  0.0585 -0.6562 -0.5882
 3726SOL    HW122814   2.424   4.079  14.802  2.6878 -3.5357  1.7690
 3726SOL    HW222815   2.532   4.175  14.777 -0.5232  1.1989 -0.5453
 3727SOL     OW22816   3.145   1.516   3.453 -0.0082 -0.1192 -0.0510
 3727SOL    HW122817   3.061   1.505   3.496 -1.6673 -0.1246 -3.3132
 3727SOL    HW222818   3.148   1.597   3.402  0.1992 -1.0646 -1.5596
 3728SOL     OW22819   3.767   2.325  10.939  0.3045 -0.6846  0.1404
 3728SOL    HW122820   3.763   2.345  10.845 -1.2756  1.9981  0.7890
 3728SOL    HW222821   3.859   2.343  10.959  0.5666 -0.2936 -1.3668
 3729SOL     OW22822   3.512   1.339   3.276 -0.4112 -0.1007  0.2528
 3729SOL    HW122823   3.555   1.378   3.352 -0.2785 -1.3850  0.8400
 3729SOL    HW222824   3.480   1.411   3.222  0.3534  0.1171  0.0842
 3730SOL     OW22825   3.095   0.567   6.272  0.0920 -0.1624  0.4164
 3730SOL    HW122826   3.029   0.616   6.321 -1.4607 -0.9198 -0.9070
 3730SOL    HW222827   3.051   0.482   6.256  1.4796 -0.4891 -1.7181
 3731SOL     OW22828   1.147   2.428  12.816  0.2015 -0.0467  0.1802
 3731SOL    HW122829   1.134   2.345  12.770 -1.0126  0.6808 -0.7552
 3731SOL    HW222830   1.060   2.461  12.837 -0.1228 -0.8870  0.1600
 3732SOL     OW22831   0.585   0.286   8.169 -0.1694  0.0213  0.0358
 3732SOL    HW122832   0.594   0.255   8.260 -0.3496  0.0704  0.0713
 3732SOL    HW222833   0.661   0.245   8.129 -2.1287 -1.9804 -1.6529
 3733SOL     OW22834   0.492   1.018   1.766 -0.1681 -0.3483 -0.3973
 3733SOL    HW122835   0.434   1.038   1.693 -2.0925 -1.1897  0.8848
 3733SOL    HW222836   0.574   1.057   1.735 -0.2594 -1.8245 -2.4701
 3734SOL     OW22837   1.282   4.171   2.838  0.2727  0.7281 -0.5467
 3734SOL    HW122838   1.187   4.174   2.852  0.1327 -0.6062 -1.2551
 3734SOL    HW222839   1.312   4.256   2.869 -0.4072  1.0190 -0.6711
 3735SOL     OW22840   4.634   1.061  11.983 -0.3792  0.3159  0.1314
 3735SOL    HW122841   4.702   1.004  12.018  1.7809  2.3525 -0.7209
 3735SOL    HW222842   4.640   1.138  12.040  0.4665 -0.0798  0.5833
 3736SOL     OW22843   3.591   4.219   1.058  0.3492 -0.2621 -0.3554
 3736SOL    HW122844   3.615   4.309   1.036 -0.9230  0.5842  1.6392
 3736SOL    HW222845   3.667   4.176   1.021 -0.4370 -0.4441 -1.7444
 3737SOL     OW22846   2.305   1.460   6.884  0.7643 -0.5431 -0.7407
 3737SOL    HW122847   2.243   1.429   6.818  0.1216  1.0483 -0.8739
 3737SOL    HW222848   2.366   1.493   6.818 -0.2859  0.1544 -1.3746
 3738SOL     OW22849   2.420   0.898   6.741  0.0622 -0.1431 -0.6470
 3738SOL    HW122850   2.461   0.812   6.735 -2.2614 -1.2148 -1.2037
 3738SOL    HW222851   2.481   0.926   6.809 -0.9975 -2.8781  1.4497
 3739SOL     OW22852   1.586   3.583   7.836 -0.8947  0.6071  0.4726
 3739SOL    HW122853   1.616   3.558   7.748  0.1011  0.2028  0.9252
 3739SOL    HW222854   1.634   3.665   7.849 -1.3493  1.0395 -0.5336
 3740SOL     OW22855   0.423   4.515   2.270  0.2988 -0.0374  0.0655
 3740SOL    HW122856   0.422   4.424   2.241 -4.7131 -0.1312  0.4784
 3740SOL    HW222857   0.329   4.523   2.286  0.5716  3.6831 -0.1955
 3741SOL     OW22858   3.700   4.466   4.273 -0.2090 -0.5533  0.1262
 3741SOL    HW122859   3.691   4.539   4.213 -1.5689 -0.0582  0.9514
 3741SOL    HW222860   3.627   4.410   4.247 -0.5697  0.1083 -0.2781
 3742SOL     OW22861   3.208   2.866   2.033  0.5584 -0.0495  0.6313
 3742SOL    HW122862   3.181   2.774   2.036  0.1082  0.0561 -0.2961
 3742SOL    HW222863   3.278   2.871   1.967 -1.5730 -1.9871 -1.7740
 3743SOL     OW22864   2.778   1.225   4.298  0.1734 -0.1931  0.1413
 3743SOL    HW122865   2.833   1.247   4.222  2.5834  0.0274  1.9583
 3743SOL    HW222866   2.722   1.159   4.258  2.6895 -0.6124 -2.7780
 3744SOL     OW22867   3.227   3.350  16.873 -0.0772 -0.3734  0.8229
 3744SOL    HW122868   3.283   3.348  16.795 -0.8373 -1.8311  0.2996
 3744SOL    HW222869   3.139   3.340  16.836  0.0146 -0.1908  0.5555
 3745SOL     OW22870   1.867   4.727  14.040  0.3515 -0.0057  0.5550
 3745SOL    HW122871   1.819   0.044  13.976  0.7452  0.6433  0.7851
 3745SOL    HW222872   1.951   4.726  13.994 -1.3839 -1.5554 -2.5279
 3746SOL     OW22873   1.577   2.083   5.620 -0.7070  0.1648 -0.2571
 3746SOL    HW122874   1.565   2.170   5.657 -1.8589  1.2803 -3.2773
 3746SOL    HW222875   1.673   2.077   5.613 -0.6879  0.3189 -0.1238
 3747SOL     OW22876   2.643   3.935   2.851  0.1981 -1.0531 -0.2495
 3747SOL    HW122877   2.575   3.877   2.816  1.9237 -2.7625 -0.8328
 3747SOL    HW222878   2.611   3.941   2.941  0.1022  2.7108 -0.5360
 3748SOL     OW22879   0.945   3.320  13.522  0.2330 -0.1846 -0.6993
 3748SOL    HW122880   0.950   3.232  13.484 -3.0359 -1.1701  1.1745
 3748SOL    HW222881   1.025   3.325  13.574  0.9282 -0.3050 -1.7513
 3749SOL     OW22882   3.762   1.174   8.928  0.0053  0.4018 -0.3531
 3749SOL    HW122883   3.855   1.165   8.909 -0.0852  0.1668 -0.6966
 3749SOL    HW222884   3.736   1.216   8.846 -0.2402  1.3657  0.2197
 3750SOL     OW22885   1.749   3.550  12.109 -0.8462 -0.2267  0.7029
 3750SOL    HW122886   1.769   3.489  12.180  0.4055 -0.5138  0.0971
 3750SOL    HW222887   1.776   3.629  12.157 -0.9350 -0.3302  0.9239
 3751SOL     OW22888   3.622   3.651   2.160 -0.2602 -0.1528 -0.4129
 3751SOL    HW122889   3.635   3.740   2.128  0.7167 -0.5127 -1.0380
 3751SOL    HW222890   3.527   3.647   2.164 -0.2575  1.4462  1.4312
 3752SOL     OW22891   2.152   4.424   2.910 -0.0476  0.3450  0.9084
 3752SOL    HW122892   2.107   4.489   2.964 -3.0594  0.0810 -1.2730
 3752SOL    HW222893   2.229   4.392   2.957 -0.4700  0.9191  1.9775
 3753SOL     OW22894   1.553   4.377   4.294 -0.2340  0.0306 -0.3698
 3753SOL    HW122895   1.509   4.432   4.229 -1.4033 -1.0531 -0.5046
 3753SOL    HW222896   1.594   4.431   4.361  0.6035  3.7499 -3.8626
 3754SOL     OW22897   2.502   2.599   5.278  0.1233 -0.5401  0.1567
 3754SOL    HW122898   2.539   2.596   5.190  1.7078  0.8790  0.7733
 3754SOL    HW222899   2.535   2.514   5.308  0.2679 -0.6779 -0.3935
 3755SOL     OW22900   0.224   2.708   5.640 -0.1021 -0.2576  0.7532
 3755SOL    HW122901   0.288   2.708   5.568 -1.3163  1.2135 -0.3320
 3755SOL    HW222902   0.281   2.748   5.706  0.7927 -0.5453  0.1564
 3756SOL     OW22903   4.038   3.195   1.706 -0.1351 -0.2571  0.2151
 3756SOL    HW122904   4.114   3.193   1.764  1.1703 -2.4845 -1.5455
 3756SOL    HW222905   4.080   3.170   1.624  1.0257 -1.7650  1.2595
 3757SOL     OW22906   2.838   0.949  15.819 -0.1566  0.3215  0.0081
 3757SOL    HW122907   2.871   0.897  15.746  3.7131 -1.2958  2.8919
 3757SOL    HW222908   2.890   1.028  15.810  0.4144 -0.2407 -1.6197
 3758SOL     OW22909   2.828   2.603  10.029  0.0507 -0.2313  0.6092
 3758SOL    HW122910   2.848   2.511  10.010  0.5017  0.2020 -1.0748
 3758SOL    HW222911   2.733   2.604  10.041 -0.1427  1.5615 -1.1023
 3759SOL     OW22912   1.065   0.670   6.066 -0.4274 -0.1509 -0.2044
 3759SOL    HW122913   1.077   0.576   6.060  0.3133  0.0498 -1.8980
 3759SOL    HW222914   0.972   0.691   6.057 -0.1743  1.5887  1.0321
 3760SOL     OW22915   0.567   1.953   5.771  0.2252  0.0682 -0.2377
 3760SOL    HW122916   0.558   2.044   5.741 -1.6897 -0.2602 -0.6546
 3760SOL    HW222917   0.572   1.907   5.687 -1.0375  2.7089 -1.7477
 3761SOL     OW22918   3.983   0.605   9.591 -0.5389 -0.3426  0.4004
 3761SOL    HW122919   4.077   0.612   9.574 -1.1447  3.5662 -1.2912
 3761SOL    HW222920   3.955   0.696   9.598  0.8951  0.2207 -1.2293
 3762SOL     OW22921   2.899   2.994   6.029  0.1153  0.1501 -0.0995
 3762SOL    HW122922   2.862   3.060   6.088 -2.0507 -1.5938  0.4561
 3762SOL    HW222923   2.991   3.021   6.031  0.0135  0.6314 -1.8836
 3763SOL     OW22924   1.672   3.098   6.524  0.0406 -0.0224  0.0412
 3763SOL    HW122925   1.751   3.065   6.480 -0.6590  1.4584 -2.3058
 3763SOL    HW222926   1.600   3.066   6.470  1.6916 -2.2307 -0.8656
 3764SOL     OW22927   1.988   1.502   8.662  0.1415  0.1182 -0.2016
 3764SOL    HW122928   1.938   1.424   8.686 -1.2066  0.6115 -1.3777
 3764SOL    HW222929   2.072   1.463   8.637  0.5915  0.3441  0.9742
 3765SOL     OW22930   0.454   2.172  14.695  0.4103  0.7356  0.0157
 3765SOL    HW122931   0.373   2.200  14.738 -0.9412 -3.5047  0.2212
 3765SOL    HW222932   0.496   2.124  14.766 -0.9890  2.0805  1.7391
 3766SOL     OW22933   1.993   0.163   6.258  0.5527  0.5769 -0.5348
 3766SOL    HW122934   1.958   0.150   6.170  0.1943 -0.7751 -0.1983
 3766SOL    HW222935   2.021   0.255   6.253  3.0814 -0.0591  1.6471
 3767SOL     OW22936   2.894   4.539   3.524  0.1161  0.0388  0.6224
 3767SOL    HW122937   2.829   4.556   3.456  0.1833 -1.3398  0.2143
 3767SOL    HW222938   2.975   4.551   3.474 -1.1476 -2.5044 -2.0234
 3768SOL     OW22939   2.428   3.787   3.291  0.6335 -0.1379 -0.7187
 3768SOL    HW122940   2.450   3.821   3.377 -3.7689 -1.2393  0.8425
 3768SOL    HW222941   2.418   3.693   3.308 -1.6111  0.3926  0.8026
 3769SOL     OW22942   2.205   0.303   6.406  0.1556 -0.1969  0.3463
 3769SOL    HW122943   2.194   0.294   6.501 -2.6173 -0.4204  0.0046
 3769SOL    HW222944   2.279   0.243   6.402  0.8088  0.7126 -1.2401
 3770SOL     OW22945   0.443   3.791  14.766  0.4944  0.0622  0.7384
 3770SOL    HW122946   0.443   3.877  14.724 -0.7671  0.7710  2.2143
 3770SOL    HW222947   0.517   3.752  14.718 -0.9625 -0.7785 -0.8418
 3771SOL     OW22948   2.019   0.748  16.466 -0.7538 -0.0155  0.0274
 3771SOL    HW122949   1.959   0.674  16.470  1.9854 -2.2106  0.9351
 3771SOL    HW222950   2.100   0.723  16.422 -0.3317  0.7104  0.3810
 3772SOL     OW22951   0.272   4.568  16.069 -0.0897 -0.2818 -0.3673
 3772SOL    HW122952   0.270   4.652  16.025 -3.0080 -1.0410 -1.6908
 3772SOL    HW222953   0.180   4.551  16.088  0.0291 -1.7274 -1.1215
 3773SOL     OW22954   1.320   0.321   5.987  0.1250 -0.0789  0.1044
 3773SOL    HW122955   1.230   0.352   5.998 -0.3842 -1.8518  0.9347
 3773SOL    HW222956   1.368   0.372   6.053  0.1425 -1.9827  1.5429
 3774SOL     OW22957   0.969   0.507   2.405  0.6056  0.9584 -0.1266
 3774SOL    HW122958   1.048   0.454   2.393  0.8512  1.9080 -2.7985
 3774SOL    HW222959   0.982   0.579   2.343  0.2038  1.7449  0.7060
 3775SOL     OW22960   0.869   0.079  12.508 -0.1871 -0.2806 -0.1148
 3775SOL    HW122961   0.900   0.001  12.554  1.8069 -0.1368 -1.1995
 3775SOL    HW222962   0.790   0.094  12.559 -0.4927 -1.5126 -0.2413
 3776SOL     OW22963   4.135   0.238   9.898 -0.1692  0.3643  0.0397
 3776SOL    HW122964   4.084   0.305   9.854 -0.1242  0.7628  0.5898
 3776SOL    HW222965   4.136   0.173   9.827 -1.4044  3.2571 -2.6017
 3777SOL     OW22966   0.508   1.655   6.913 -0.2703  0.2121 -0.1473
 3777SOL    HW122967   0.418   1.670   6.941 -0.5407  1.2626 -1.6104
 3777SOL    HW222968   0.544   1.634   6.999 -0.0897 -1.2757 -0.5911
 3778SOL     OW22969   1.569   3.416   6.741 -0.1100 -0.0748  0.2504
 3778SOL    HW122970   1.544   3.470   6.667  0.9442 -0.0906 -0.1215
 3778SOL    HW222971   1.598   3.486   6.799  3.1624 -0.9836 -0.2666
 3779SOL     OW22972   1.275   3.928   5.846  0.4910  0.1945 -0.1607
 3779SOL    HW122973   1.256   3.838   5.818 -0.7566  0.5178 -0.3399
 3779SOL    HW222974   1.245   3.923   5.937 -0.9404  0.5787 -0.6178
 3780SOL     OW22975   2.443   0.277  11.927  0.1944 -0.1942 -0.5614
 3780SOL    HW122976   2.523   0.241  11.964  0.6442 -1.4218 -2.7729
 3780SOL    HW222977   2.439   0.366  11.962 -0.3421 -0.1930 -0.6179
 3781SOL     OW22978   0.038   4.118   3.614  0.1388 -0.2847 -0.5069
 3781SOL    HW122979   4.727   4.202   3.618  1.5787  0.5463 -1.1068
 3781SOL    HW222980   0.070   4.107   3.703  0.1007 -0.5819 -0.5314
 3782SOL     OW22981   2.767   3.560   3.110  0.0156  0.0474 -0.0637
 3782SOL    HW122982   2.715   3.541   3.188  0.4252 -0.7450  0.0226
 3782SOL    HW222983   2.826   3.627   3.143 -0.6779  1.2989 -1.3544
 3783SOL     OW22984   3.024   3.014  15.248  0.0101  0.3053  0.0127
 3783SOL    HW122985   3.081   2.974  15.182 -0.1560  0.7979 -0.4363
 3783SOL    HW222986   2.950   3.020  15.187  0.6896  0.6106 -0.7773
 3784SOL     OW22987   1.292   0.790  16.975  0.2041  0.2076 -0.5732
 3784SOL    HW122988   1.198   0.780  16.991  0.2890 -1.0712 -0.9075
 3784SOL    HW222989   1.318   0.861  17.033 -0.1395 -0.3901  0.3208
 3785SOL     OW22990   0.262   3.496   5.666 -0.2882 -0.4712  0.3699
 3785SOL    HW122991   0.238   3.497   5.573 -1.8630 -1.6677  0.7560
 3785SOL    HW222992   0.329   3.565   5.673  0.9266 -1.1012 -4.8896
 3786SOL     OW22993   0.348   3.496   6.086 -0.0798  0.7407 -0.6077
 3786SOL    HW122994   0.329   3.435   6.015 -1.8155  0.9307 -0.3005
 3786SOL    HW222995   0.260   3.521   6.115 -0.2875  0.3662 -0.9192
 3787SOL     OW22996   1.424   0.626   3.538  0.1605 -0.5501 -0.4144
 3787SOL    HW122997   1.395   0.535   3.542  0.8873 -0.7842 -0.4787
 3787SOL    HW222998   1.400   0.651   3.448 -2.6813 -0.5758  0.3415
 3788SOL     OW22999   4.024   0.891   7.182 -0.1116 -0.0421  0.3863
 3788SOL    HW123000   4.011   0.948   7.106  0.4393 -1.1153 -0.5186
 3788SOL    HW223001   3.945   0.912   7.231  0.5674  1.5041  0.8261
 3789SOL     OW23002   0.938   3.666   4.674  0.2942  0.1186 -0.3587
 3789SOL    HW123003   0.983   3.665   4.590  0.2029 -1.7516 -0.3863
 3789SOL    HW223004   0.985   3.595   4.717 -1.5375 -1.3544 -0.7279
 3790SOL     OW23005   3.611   3.109   3.396 -0.3874  0.2977  0.4554
 3790SOL    HW123006   3.613   3.065   3.311 -1.9362  0.5807  0.2629
 3790SOL    HW223007   3.678   3.175   3.379  0.8283 -0.4736  2.2811
 3791SOL     OW23008   0.259   0.438   6.747  0.3427  0.0369  0.6691
 3791SOL    HW123009   0.277   0.430   6.654 -2.0663 -0.3046  0.2176
 3791SOL    HW223010   0.343   0.421   6.790  0.1386 -2.2743  0.1639
 3792SOL     OW23011   4.343   1.704  16.900 -0.2259 -0.2530 -0.1698
 3792SOL    HW123012   4.426   1.752  16.893 -0.4081 -0.2806 -2.6010
 3792SOL    HW223013   4.375   1.614  16.908 -0.5046 -0.1944  1.6377
 3793SOL     OW23014   1.362   1.971  17.320  0.3205 -0.8420  0.0025
 3793SOL    HW123015   1.328   2.027  17.251  2.4760  1.2887  0.6368
 3793SOL    HW223016   1.375   1.893  17.267  0.9090 -0.7887  0.0604
 3794SOL     OW23017   1.593   2.790   0.332  0.1346 -0.2139 -0.0899
 3794SOL    HW123018   1.631   2.829   0.253  0.0331  1.9631  0.9260
 3794SOL    HW223019   1.653   2.836   0.391 -0.6598 -0.9557  1.3059
 3795SOL     OW23020   3.051   0.603  16.622  0.9244  0.3245  0.5310
 3795SOL    HW123021   3.067   0.522  16.671 -2.3190 -1.4443 -1.3881
 3795SOL    HW223022   3.063   0.568  16.534 -1.0928  1.5079 -0.1941
 3796SOL     OW23023   1.823   2.425   3.267  0.0001 -0.1881  0.5183
 3796SOL    HW123024   1.894   2.398   3.208  1.2521  1.2425  1.3645
 3796SOL    HW223025   1.820   2.338   3.307  0.3630  0.6012  2.2537
 3797SOL     OW23026   1.069   1.927   6.241  0.3495 -0.0554 -0.2146
 3797SOL    HW123027   0.998   1.987   6.222  0.1513 -1.9954 -5.4389
 3797SOL    HW223028   1.132   1.952   6.173 -0.3204 -2.7527 -1.8351
 3798SOL     OW23029   2.413   2.606   4.823 -0.7237  0.4193  0.0118
 3798SOL    HW123030   2.336   2.661   4.836 -2.5479 -2.3132  0.7188
 3798SOL    HW223031   2.400   2.595   4.728 -1.4586  0.5186  0.0995
 3799SOL     OW23032   2.555   3.961  13.560  0.0955 -0.6379 -0.0685
 3799SOL    HW123033   2.521   3.950  13.471 -0.3296  0.6165 -0.0608
 3799SOL    HW223034   2.519   3.888  13.611 -1.7498  0.6348  0.4317
 3800SOL     OW23035   0.550   1.808  16.013 -0.0821 -0.4041  0.4299
 3800SOL    HW123036   0.466   1.853  16.000  0.2031  0.3931  1.2903
 3800SOL    HW223037   0.577   1.815  15.922 -1.8151 -0.0682 -0.0609
 3801SOL     OW23038   1.253   2.352   5.778 -0.1898 -0.2323  0.0224
 3801SOL    HW123039   1.267   2.373   5.870  0.6153  0.7216 -0.3202
 3801SOL    HW223040   1.292   2.265   5.778 -1.7548 -0.9422  0.8728
 3802SOL     OW23041   3.217   0.957   3.823 -0.2966  0.0780  0.1592
 3802SOL    HW123042   3.310   0.952   3.846 -0.6494 -0.6870  1.4141
 3802SOL    HW223043   3.223   1.038   3.772 -0.0253  0.8345  1.4056
 3803SOL     OW23044   2.282   1.515  11.606 -0.0669  0.3591 -0.5276
 3803SOL    HW123045   2.293   1.515  11.701  0.2824 -0.8138 -0.5669
 3803SOL    HW223046   2.372   1.525  11.575  1.0208 -0.9160  2.2310
 3804SOL     OW23047   3.252   4.224   7.364  0.6760  0.5923 -0.4128
 3804SOL    HW123048   3.219   4.290   7.303 -0.3116  0.4000 -0.1016
 3804SOL    HW223049   3.342   4.251   7.378  1.1458 -0.6537 -0.9988
 3805SOL     OW23050   2.063   4.582   5.541  0.6142  0.5503  0.8327
 3805SOL    HW123051   2.102   4.538   5.466 -2.2883 -0.9441  0.2127
 3805SOL    HW223052   1.973   4.585   5.507  0.3002  1.3343  1.7374
 3806SOL     OW23053   0.297   1.501   8.069  0.3559 -0.6051  0.0029
 3806SOL    HW123054   0.236   1.536   8.004  1.6936  0.0971 -0.8730
 3806SOL    HW223055   0.372   1.491   8.010 -0.0448 -0.4217 -0.5418
 3807SOL     OW23056   2.227   2.128  16.890  0.0593 -0.4409 -0.4922
 3807SOL    HW123057   2.208   2.155  16.800  0.1020 -0.0532 -0.3865
 3807SOL    HW223058   2.291   2.195  16.916 -2.5379  0.9191  2.4468
 3808SOL     OW23059   0.835   2.852   9.630 -0.0460  0.3732  0.0277
 3808SOL    HW123060   0.875   2.930   9.590  2.6053  0.0165  1.9206
 3808SOL    HW223061   0.876   2.788   9.572 -3.4724 -0.4460 -1.4394
 3809SOL     OW23062   3.042   0.698   0.735 -0.6278  0.3932 -0.0190
 3809SOL    HW123063   3.122   0.648   0.750 -1.2928 -1.0733 -1.3441
 3809SOL    HW223064   3.073   0.780   0.698  0.0013 -1.0507 -2.6763
 3810SOL     OW23065   2.224   3.788   5.157  0.0582  0.1033 -0.6684
 3810SOL    HW123066   2.191   3.869   5.196 -2.3371 -0.9057 -0.6108
 3810SOL    HW223067   2.262   3.818   5.074  0.7169  1.4214  0.1003
 3811SOL     OW23068   2.322   1.227   8.124  0.8325  0.3874 -0.2740
 3811SOL    HW123069   2.300   1.230   8.031  0.8958  0.0593 -0.2993
 3811SOL    HW223070   2.357   1.138   8.127  0.6381  0.3040 -0.5494
 3812SOL     OW23071   2.619   2.582   5.733  0.1059  0.0303  0.0020
 3812SOL    HW123072   2.703   2.621   5.755  1.3689 -1.8685 -1.4365
 3812SOL    HW223073   2.608   2.635   5.653 -0.4455  0.1718  0.1686
 3813SOL     OW23074   3.682   1.207   6.282 -0.2609  0.0548 -0.0781
 3813SOL    HW123075   3.598   1.182   6.323 -0.1965 -1.9648 -1.1651
 3813SOL    HW223076   3.713   1.122   6.250 -0.5636 -1.0535  2.5263
 3814SOL     OW23077   3.321   0.747   0.503  0.1176  0.2203 -0.1340
 3814SOL    HW123078   3.319   0.684   0.575 -4.7684  0.5941  0.1076
 3814SOL    HW223079   3.415   0.753   0.489  0.3380  0.9174  1.6400
 3815SOL     OW23080   3.402   3.719   1.238 -0.3636  0.3535  0.1952
 3815SOL    HW123081   3.432   3.771   1.313  1.4303  0.0544 -0.3131
 3815SOL    HW223082   3.436   3.632   1.257 -1.6122 -0.3507 -0.8412
 3816SOL     OW23083   0.113   4.568  13.082  0.1927  0.3231 -0.4958
 3816SOL    HW123084   0.154   4.482  13.081 -1.2652 -0.3746 -0.2530
 3816SOL    HW223085   0.025   4.553  13.046 -0.0846 -1.5124  0.9834
 3817SOL     OW23086   2.949   0.889   7.618 -0.3758  0.0905 -0.2066
 3817SOL    HW123087   2.968   0.809   7.567 -0.0663 -0.5785  0.9652
 3817SOL    HW223088   2.854   0.883   7.615 -0.3860  0.0710  0.1819
 3818SOL     OW23089   3.412   4.239   8.398  0.3876 -0.1854  0.2820
 3818SOL    HW123090   3.441   4.148   8.387 -0.0389 -0.4935  1.7095
 3818SOL    HW223091   3.318   4.237   8.382  0.3185 -0.5050  0.7314
 3819SOL     OW23092   0.217   3.801  16.831  0.8517  0.8597 -0.2119
 3819SOL    HW123093   0.277   3.874  16.817  1.9307  0.4545  2.3062
 3819SOL    HW223094   0.159   3.826  16.759  0.8344 -0.9726 -0.8364
 3820SOL     OW23095   4.425   3.143   6.923 -0.0737 -0.4090 -0.2230
 3820SOL    HW123096   4.467   3.228   6.937  0.7672 -0.5148 -2.0939
 3820SOL    HW223097   4.355   3.170   6.864 -0.8029  0.2658  0.9474
 3821SOL     OW23098   0.950   2.800  16.262 -0.2631  0.2996 -0.5873
 3821SOL    HW123099   0.971   2.784  16.354 -0.1305 -0.0854 -0.6853
 3821SOL    HW223100   1.000   2.726  16.228  1.1583  0.2048  1.7211
 3822SOL     OW23101   0.227   2.023   0.163  0.6404 -0.4858  0.3894
 3822SOL    HW123102   0.321   2.036   0.152  0.2278  0.0415 -2.5352
 3822SOL    HW223103   0.201   2.113   0.183  0.6450 -0.2008 -0.9335
 3823SOL     OW23104   1.517   1.613   1.685  0.1527  1.1598 -0.6840
 3823SOL    HW123105   1.509   1.547   1.754 -2.4915  1.0822 -1.0709
 3823SOL    HW223106   1.452   1.675   1.719 -1.3423 -0.3037 -0.8321
 3824SOL     OW23107   3.311   2.090   9.686  0.0893 -0.1069  0.5248
 3824SOL    HW123108   3.273   2.161   9.738  1.7198  0.3821  1.0409
 3824SOL    HW223109   3.349   2.033   9.753  2.4627  0.2444 -0.5234
 3825SOL     OW23110   1.041   3.103   3.473 -0.3374  0.3621  0.2461
 3825SOL    HW123111   1.127   3.131   3.443 -0.2989 -1.1010 -0.9856
 3825SOL    HW223112   1.047   3.008   3.470  0.9579  0.3809  2.1917
 3826SOL     OW23113   0.714   0.627  13.029 -0.3202  0.3015  0.6892
 3826SOL    HW123114   0.697   0.657  12.940  2.5759  2.5064  0.8598
 3826SOL    HW223115   0.669   0.543  13.020 -0.7989  0.5166  1.0922
 3827SOL     OW23116   3.206   1.845   6.184  0.1307 -0.0951  0.1883
 3827SOL    HW123117   3.200   1.842   6.088 -0.6958 -1.5592  0.2938
 3827SOL    HW223118   3.299   1.865   6.188  0.8196 -2.9646 -1.1702
 3828SOL     OW23119   0.609   0.558   3.672 -0.0506  0.1633 -0.0373
 3828SOL    HW123120   0.645   0.646   3.672  2.4389 -0.8530 -0.0543
 3828SOL    HW223121   0.592   0.544   3.765 -0.3889 -3.0395 -0.5648
 3829SOL     OW23122   3.389   2.714   8.310 -0.3956 -0.4091  0.4821
 3829SOL    HW123123   3.315   2.757   8.267  0.4449 -1.1444 -1.6634
 3829SOL    HW223124   3.426   2.790   8.354 -1.5078 -0.1926  1.0501
 3830SOL     OW23125   0.876   4.457   1.219  0.0964  0.3393  0.2848
 3830SOL    HW123126   0.916   4.532   1.176  2.5233 -0.1132  1.7724
 3830SOL    HW223127   0.936   4.389   1.187  0.7059  1.0148  0.0047
 3831SOL     OW23128   0.608   1.865   3.316 -0.2039 -0.5014  0.3430
 3831SOL    HW123129   0.626   1.950   3.277 -1.8635 -0.0465  0.5697
 3831SOL    HW223130   0.520   1.859   3.280  0.4834  0.9434 -1.5929
 3832SOL     OW23131   1.655   3.309   1.905  0.3238  0.0366  0.1652
 3832SOL    HW123132   1.583   3.256   1.939 -1.0281  2.4865  1.1858
 3832SOL    HW223133   1.617   3.362   1.834 -0.8417 -1.9434 -0.6752
 3833SOL     OW23134   1.851   3.215   4.925 -0.7207 -0.3240  0.4752
 3833SOL    HW123135   1.808   3.129   4.916  0.2970 -0.5576 -2.4618
 3833SOL    HW223136   1.810   3.269   4.857 -2.4357 -0.3386  1.5160
 3834SOL     OW23137   2.029   1.154   0.507 -0.5746 -0.5794 -0.1614
 3834SOL    HW123138   2.081   1.165   0.428 -0.2806 -2.2092 -0.1811
 3834SOL    HW223139   2.049   1.233   0.558  0.6616 -0.4218 -0.9073
 3835SOL     OW23140   1.682   1.420   7.256  0.3236 -0.8348  0.4671
 3835SOL    HW123141   1.612   1.473   7.294 -1.0444 -2.5265  0.3344
 3835SOL    HW223142   1.645   1.355   7.196 -0.3023  2.1271 -2.3531
 3836SOL     OW23143   4.344   3.944  17.717  0.4007  0.6869  0.0318
 3836SOL    HW123144   4.352   4.032   0.015 -0.3989  0.5410  0.5513
 3836SOL    HW223145   4.435   3.932  17.690 -0.1026 -2.3702 -0.3501
 3837SOL     OW23146   1.017   0.171   1.021 -0.2996 -0.4987 -0.0946
 3837SOL    HW123147   1.029   0.265   1.009 -1.8944  0.1597  3.4949
 3837SOL    HW223148   0.922   0.165   1.025 -0.5685  3.4880 -0.3598
 3838SOL     OW23149   3.802   3.841   3.667 -0.1975  0.2331 -0.3778
 3838SOL    HW123150   3.778   3.766   3.613 -2.2262 -0.5565  1.5773
 3838SOL    HW223151   3.779   3.809   3.754  1.7281  0.5489  0.2506
 3839SOL     OW23152   2.094   2.050   4.024 -0.3832  0.0540 -0.1331
 3839SOL    HW123153   2.068   2.014   3.939 -0.8360  1.6602 -0.6886
 3839SOL    HW223154   2.187   2.039   4.004 -0.4975 -1.0416 -0.0627
 3840SOL     OW23155   3.296   4.332  16.906 -0.7119 -0.7044 -0.3618
 3840SOL    HW123156   3.356   4.354  16.836 -0.5356 -0.5802 -0.1712
 3840SOL    HW223157   3.272   4.420  16.933  0.3152 -0.2225 -1.0370
 3841SOL     OW23158   3.391   3.870  13.162  0.0179  0.6708  0.1364
 3841SOL    HW123159   3.357   3.951  13.200 -1.7048  0.0220 -0.0283
 3841SOL    HW223160   3.464   3.845  13.219 -0.1396 -0.5070 -0.1984
 3842SOL     OW23161   0.982   3.325   3.311  0.5061  0.4038 -0.2479
 3842SOL    HW123162   0.965   3.238   3.347  0.6178  0.2814 -0.4901
 3842SOL    HW223163   0.976   3.372   3.394 -1.1337 -0.6743  0.2199
 3843SOL     OW23164   1.416   2.941  10.482  0.6159 -0.0964 -0.0028
 3843SOL    HW123165   1.396   2.967  10.572 -0.0512  0.3610 -0.2844
 3843SOL    HW223166   1.336   2.896  10.452  0.7472 -1.4598  1.7262
 3844SOL     OW23167   0.404   4.677   4.840  0.5168 -0.1302 -0.1189
 3844SOL    HW123168   0.347   0.015   4.861  0.1705 -0.3686 -0.2422
 3844SOL    HW223169   0.453   4.678   4.922  0.7435 -0.9250 -0.2433
 3845SOL     OW23170   4.298   0.084   5.328  0.1228  0.8251 -0.5684
 3845SOL    HW123171   4.236   0.157   5.325 -2.7452 -1.6469 -1.0369
 3845SOL    HW223172   4.371   0.145   5.331  1.8933 -1.1248 -3.4701
 3846SOL     OW23173   0.515   0.317   1.953 -0.7027  0.0223  0.2452
 3846SOL    HW123174   0.599   0.270   1.954 -0.4009  0.5697  0.2347
 3846SOL    HW223175   0.501   0.332   2.046  0.2857 -1.1732  0.5911
 3847SOL     OW23176   1.216   4.622   3.313 -0.3768 -0.0568 -0.6409
 3847SOL    HW123177   1.150   4.689   3.293 -0.0799  0.3859 -0.1168
 3847SOL    HW223178   1.166   4.554   3.267  1.5361 -0.5642 -1.9510
 3848SOL     OW23179   3.764   3.074   8.240 -0.1673  0.8537 -0.1429
 3848SOL    HW123180   3.781   3.145   8.301  0.7616 -0.0016  0.5961
 3848SOL    HW223181   3.672   3.050   8.252  0.1743 -1.4405 -1.9695
 3849SOL     OW23182   3.250   0.297   3.067 -0.8155  0.1329  0.3682
 3849SOL    HW123183   3.187   0.358   3.104 -2.1288  0.4572 -2.3715
 3849SOL    HW223184   3.227   0.294   2.974 -1.1987  0.0747  0.4647
 3850SOL     OW23185   0.175   4.617  14.813  0.0374  0.2746 -0.0965
 3850SOL    HW123186   0.254   4.586  14.857 -0.4202 -0.2509  0.3568
 3850SOL    HW223187   0.108   4.579  14.870 -0.4511  0.1005 -0.7957
 3851SOL     OW23188   0.916   3.750   5.017 -0.3179  0.2582 -0.2241
 3851SOL    HW123189   0.928   3.689   5.090 -0.0327  0.5094 -0.0640
 3851SOL    HW223190   0.842   3.714   4.968 -1.1004 -2.1219  2.7222
 3852SOL     OW23191   1.151   1.110   5.103  0.6477  0.2928  0.0215
 3852SOL    HW123192   1.087   1.133   5.171 -0.7865  2.0320 -1.9239
 3852SOL    HW223193   1.228   1.104   5.161 -1.4910 -2.0652  2.6503
 3853SOL     OW23194   3.976   0.465   4.434  0.7549 -0.0040 -0.1062
 3853SOL    HW123195   4.033   0.513   4.495  0.8642  1.2714 -1.2113
 3853SOL    HW223196   3.904   0.528   4.434  0.2094 -0.6354 -1.1326
 3854SOL     OW23197   4.588   1.659  12.781  1.2157  0.3563  0.1979
 3854SOL    HW123198   4.560   1.609  12.858  0.4318  0.2074 -0.1849
 3854SOL    HW223199   4.537   1.605  12.722  0.7426 -2.3034  3.0434
 3855SOL     OW23200   2.578   3.856  14.266 -0.2093 -0.1348 -0.4531
 3855SOL    HW123201   2.556   3.773  14.223 -0.4464 -1.5867  2.4365
 3855SOL    HW223202   2.640   3.891  14.203 -0.6621 -1.3715 -1.5736
 3856SOL     OW23203   3.605   1.531   9.686  0.6977  0.5483 -0.1475
 3856SOL    HW123204   3.666   1.491   9.624  1.3309 -1.8587  2.0476
 3856SOL    HW223205   3.625   1.486   9.768 -0.5344 -2.3453 -1.4401
 3857SOL     OW23206   2.645   0.048   8.067 -0.2003  0.6388  0.1063
 3857SOL    HW123207   2.556   0.056   8.032 -0.6265  0.9130  1.2528
 3857SOL    HW223208   2.646   4.692   8.097 -0.9522  1.2900  2.1006
 3858SOL     OW23209   1.015   2.111  14.694  0.3216  0.0456  0.0075
 3858SOL    HW123210   0.987   2.132  14.605 -0.8984  0.4774  0.4960
 3858SOL    HW223211   1.111   2.104  14.688  0.2076 -0.5104 -1.2730
 3859SOL     OW23212   4.222   3.368   1.467 -0.0186  0.1486 -0.9395
 3859SOL    HW123213   4.242   3.279   1.496 -1.5944 -0.1815 -0.8742
 3859SOL    HW223214   4.127   3.375   1.475  0.4199  2.4013  2.4100
 3860SOL     OW23215   3.585   0.271   8.404 -0.3437 -0.5176  0.1471
 3860SOL    HW123216   3.540   0.354   8.390  0.0866 -0.2886  0.1232
 3860SOL    HW223217   3.623   0.290   8.490 -1.2708 -0.4475  0.5520
 3861SOL     OW23218   3.053   2.708  12.307 -0.2035 -0.0492 -0.2589
 3861SOL    HW123219   3.140   2.736  12.338 -1.2953  1.0110  1.8549
 3861SOL    HW223220   3.044   2.618  12.337  2.7007 -0.5735 -0.9111
 3862SOL     OW23221   4.380   2.428   2.717  0.1512  0.4847  0.5675
 3862SOL    HW123222   4.430   2.346   2.713 -0.3697  0.1430  1.2411
 3862SOL    HW223223   4.441   2.472   2.658 -1.5279  0.3014 -1.3416
 3863SOL     OW23224   0.760   0.119   3.942 -0.0086  0.1726 -0.2012
 3863SOL    HW123225   0.731   0.210   3.933  0.4891  0.5166  1.6810
 3863SOL    HW223226   0.854   0.130   3.958  0.3192 -1.0073 -1.3693
 3864SOL     OW23227   1.636   1.674   2.293  0.2088  0.1373 -0.4875
 3864SOL    HW123228   1.550   1.708   2.319  1.6585  2.0720  1.7586
 3864SOL    HW223229   1.604   1.595   2.249  2.5345 -1.2153  0.3140
 3865SOL     OW23230   4.537   1.288   2.312  0.7655 -0.3896 -0.0819
 3865SOL    HW123231   4.515   1.206   2.269 -2.3588  0.4841 -0.1449
 3865SOL    HW223232   4.508   1.279   2.403 -1.6914  0.7575 -0.7480
 3866SOL     OW23233   0.150   4.298  13.142  0.3910 -0.6274  0.0183
 3866SOL    HW123234   0.121   4.278  13.231  1.9435 -3.1788 -0.0369
 3866SOL    HW223235   0.178   4.209  13.122 -0.4855 -0.3872 -2.3205
 3867SOL     OW23236   1.478   0.283   3.700 -0.3896  0.2490  0.0455
 3867SOL    HW123237   1.542   0.228   3.656 -0.0482  0.8563 -0.2126
 3867SOL    HW223238   1.487   0.263   3.793  0.0017  0.6606  0.0932
 3868SOL     OW23239   2.087   2.110  15.509 -0.1574 -0.5930 -0.2721
 3868SOL    HW123240   2.095   2.143  15.419 -2.7113  1.0672  0.1072
 3868SOL    HW223241   1.992   2.112  15.521 -0.4398 -0.9123 -2.3370
 3869SOL     OW23242   0.651   2.667   5.201  0.4646  0.2399  0.0019
 3869SOL    HW123243   0.673   2.649   5.110 -0.1352 -2.6278  0.4222
 3869SOL    HW223244   0.559   2.649   5.181 -0.1250  0.0145  2.9069
 3870SOL     OW23245   0.791   1.056   7.458  0.2044  0.2341  0.2572
 3870SOL    HW123246   0.727   1.116   7.496 -0.9811 -0.9937  0.2004
 3870SOL    HW223247   0.786   1.001   7.536  0.9360  0.0181  0.1547
 3871SOL     OW23248   2.961   2.528   3.218  0.4213 -0.8180  0.3980
 3871SOL    HW123249   3.018   2.552   3.145 -0.1774  2.3298  0.9470
 3871SOL    HW223250   3.029   2.508   3.283  0.8707  3.1464  1.1761
 3872SOL     OW23251   0.373   4.529   1.323  0.0492 -0.0651  0.1628
 3872SOL    HW123252   0.339   4.470   1.391  1.3171  1.2894  1.9803
 3872SOL    HW223253   0.465   4.504   1.335  0.2445  0.2345 -0.7280
 3873SOL     OW23254   2.852   0.444  15.972 -0.1616  0.6164  0.2173
 3873SOL    HW123255   2.888   0.531  15.989  0.0027  0.5336  0.2975
 3873SOL    HW223256   2.910   0.400  15.910  1.6157  2.0106  0.8896
 3874SOL     OW23257   3.183   3.730   7.447  0.9977 -0.0916 -0.0419
 3874SOL    HW123258   3.193   3.817   7.408  0.3152  0.5759  1.2893
 3874SOL    HW223259   3.100   3.696   7.414  0.9414 -0.4751  0.5014
 3875SOL     OW23260   4.495   0.003   3.970  0.0143  0.9278  0.5485
 3875SOL    HW123261   4.564   0.069   3.974 -1.0643  2.0553  0.7225
 3875SOL    HW223262   4.422   0.065   3.983 -0.4385  0.4878  0.0835
 3876SOL     OW23263   0.294   1.500   2.778 -0.2336  0.2168 -0.0094
 3876SOL    HW123264   0.367   1.519   2.720 -0.0111 -2.0590 -0.4925
 3876SOL    HW223265   0.235   1.457   2.717 -1.2201 -1.7272  2.2918
 3877SOL     OW23266   2.424   1.102   9.373  0.3361  0.1066  0.9192
 3877SOL    HW123267   2.465   1.105   9.286 -2.3600  1.1724 -0.3348
 3877SOL    HW223268   2.465   1.021   9.401 -0.1888 -0.7055 -0.6378
 3878SOL     OW23269   4.363   3.357   7.974  0.5734  0.2438 -0.5006
 3878SOL    HW123270   4.423   3.412   7.923 -0.9922  0.9625 -1.5414
 3878SOL    HW223271   4.387   3.386   8.063  0.5664  0.3207 -0.5233
 3879SOL     OW23272   2.650   1.115  12.603  0.2930 -0.2101 -0.2439
 3879SOL    HW123273   2.632   1.082  12.691 -0.7350 -0.8986 -0.7111
 3879SOL    HW223274   2.568   1.099  12.556  1.1900 -1.3272 -1.4237
 3880SOL     OW23275   4.265   1.688   3.833  0.1595 -0.0401 -0.0516
 3880SOL    HW123276   4.202   1.739   3.783 -0.2057  0.3469  0.7948
 3880SOL    HW223277   4.232   1.599   3.841 -1.5002  0.6010  0.1473
 3881SOL     OW23278   0.019   3.249   1.003  0.4576 -0.0657  0.5752
 3881SOL    HW123279   0.104   3.206   1.001  1.6183  2.2100 -0.0005
 3881SOL    HW223280   0.052   3.338   1.019  2.3710 -1.4516  4.1510
 3882SOL     OW23281   1.543   4.032  13.339  0.1092 -0.1298 -0.0925
 3882SOL    HW123282   1.545   3.989  13.424 -0.0400 -0.7927 -0.4279
 3882SOL    HW223283   1.449   4.050  13.337 -0.2569 -2.3633 -3.0338
 3883SOL     OW23284   0.765   1.448   7.918 -0.1945  0.4858 -0.2840
 3883SOL    HW123285   0.849   1.411   7.945  0.0956  1.8918  0.7608
 3883SOL    HW223286   0.774   1.475   7.827  0.1554 -1.9057 -0.9593
 3884SOL     OW23287   1.516   3.574   5.900  0.0707  0.4461  0.6010
 3884SOL    HW123288   1.480   3.516   5.966  1.8451 -0.1506  1.0569
 3884SOL    HW223289   1.606   3.589   5.929 -0.0017 -2.0454  2.0672
 3885SOL     OW23290   3.041   3.075   1.410  0.3717  0.0682 -0.1553
 3885SOL    HW123291   3.126   3.084   1.367 -0.6634 -1.5168 -2.5907
 3885SOL    HW223292   3.041   3.127   1.490  0.7365  0.5387 -0.4589
 3886SOL     OW23293   4.193   1.943  15.865  0.2280 -0.1867  0.2344
 3886SOL    HW123294   4.169   1.994  15.942  0.6779 -1.1827  1.0321
 3886SOL    HW223295   4.109   1.905  15.840 -1.0344  0.4708  3.4608
 3887SOL     OW23296   4.458   4.305   0.709  0.4393  0.1090 -0.3116
 3887SOL    HW123297   4.536   4.330   0.660  1.5339 -1.7168  0.5088
 3887SOL    HW223298   4.481   4.332   0.798  0.0607  1.7982 -0.7213
 3888SOL     OW23299   0.319   3.744  11.057 -0.4678  0.4886 -0.0158
 3888SOL    HW123300   0.266   3.800  11.113  0.7643  0.4362  1.1897
 3888SOL    HW223301   0.379   3.811  11.023  0.8865  0.2836  1.9537
 3889SOL     OW23302   4.366   1.687   6.316  0.3755  0.0969 -0.1987
 3889SOL    HW123303   4.439   1.745   6.335  0.6927 -0.5559  0.5443
 3889SOL    HW223304   4.311   1.697   6.394  1.6642 -0.1517  0.7335
 3890SOL     OW23305   3.241   4.097  12.973  0.4777  0.6638  0.0222
 3890SOL    HW123306   3.279   4.093  12.885  1.0650  1.7954  0.2184
 3890SOL    HW223307   3.165   4.150  12.948 -0.8904  0.4491  3.7121
 3891SOL     OW23308   4.061   0.526  14.151 -0.5418  0.5218  0.4878
 3891SOL    HW123309   4.095   0.600  14.202  1.8928 -0.9364  0.9941
 3891SOL    HW223310   3.969   0.551  14.146 -0.0623  2.3425  0.9534
 3892SOL     OW23311   2.743   2.569   7.971 -0.2401  0.7355 -0.2132
 3892SOL    HW123312   2.716   2.610   7.889 -2.9786  0.2268  0.4310
 3892SOL    HW223313   2.775   2.487   7.932  0.5272  1.0206 -0.1798
 3893SOL     OW23314   0.766   3.766   3.495 -0.2863 -0.6916  0.9202
 3893SOL    HW123315   0.778   3.830   3.424 -0.2227  0.8844  2.3576
 3893SOL    HW223316   0.673   3.783   3.513 -0.0940  0.7982  0.4690
 3894SOL     OW23317   1.564   0.032  14.413 -0.1395  0.7058 -0.0738
 3894SOL    HW123318   1.476   0.004  14.440  0.1917  0.4445  0.7454
 3894SOL    HW223319   1.561   0.033  14.317  1.7888 -0.6557 -0.1430
 3895SOL     OW23320   2.189   2.595   0.029  0.0672  0.0829  0.0057
 3895SOL    HW123321   2.120   2.542   0.067  0.7113 -2.2018 -2.0484
 3895SOL    HW223322   2.228   2.636   0.106 -0.4668 -2.0447  1.3882
 3896SOL     OW23323   0.510   2.510  16.761  0.1868  0.0258 -0.1045
 3896SOL    HW123324   0.476   2.495  16.673  2.8458  0.0390 -1.1480
 3896SOL    HW223325   0.430   2.545  16.801  0.0822 -1.4421  0.9890
 3897SOL     OW23326   1.804   4.090   5.340 -0.0238 -0.4241  0.0698
 3897SOL    HW123327   1.729   4.043   5.374 -1.7422  0.2858 -2.7811
 3897SOL    HW223328   1.780   4.179   5.366 -0.7648 -0.7200  0.3835
 3898SOL     OW23329   0.092   2.674   9.923  0.4012  0.0438  0.5657
 3898SOL    HW123330   0.092   2.580   9.943 -0.0737 -0.3054 -1.0850
 3898SOL    HW223331   0.149   2.706   9.992 -0.6405 -0.4382  1.6610
 3899SOL     OW23332   1.726   2.815   4.065  0.3193  0.2091  0.2086
 3899SOL    HW123333   1.695   2.883   4.005  1.1621  0.2192 -0.2170
 3899SOL    HW223334   1.771   2.765   3.996  0.6545  0.1598  0.4619
 3900SOL     OW23335   0.904   0.919   1.899 -0.2738 -0.2265  0.2652
 3900SOL    HW123336   0.949   0.996   1.864 -1.6504  1.1550  1.5683
 3900SOL    HW223337   0.866   0.876   1.822 -0.4232 -0.0845  0.2604
 3901SOL     OW23338   2.841   2.646   3.546  0.0445  0.7332 -0.1135
 3901SOL    HW123339   2.899   2.716   3.514 -1.3318  2.0683  0.2823
 3901SOL    HW223340   2.868   2.577   3.486 -0.3087 -0.0630  0.6607
 3902SOL     OW23341   3.562   2.972   5.649 -0.2293  0.0617  0.1320
 3902SOL    HW123342   3.623   2.949   5.580  0.8267  0.3143  0.9866
 3902SOL    HW223343   3.606   3.035   5.707  1.3539 -1.2098  0.2927
 3903SOL     OW23344   3.291   4.003  12.443  0.0231 -0.1841 -0.9187
 3903SOL    HW123345   3.382   4.027  12.431  0.2813 -0.6305  0.1893
 3903SOL    HW223346   3.274   3.963  12.357 -1.6686 -1.0718 -0.1840
 3904SOL     OW23347   4.194   0.851   2.415 -0.5304  0.0571 -0.4548
 3904SOL    HW123348   4.102   0.831   2.431 -0.1444 -2.0428 -0.9034
 3904SOL    HW223349   4.234   0.796   2.482 -0.4157 -1.3856 -1.6903
 3905SOL     OW23350   0.531   3.701   6.425  0.8298  0.2870  0.7691
 3905SOL    HW123351   0.533   3.707   6.329 -0.3450 -0.7906  0.6674
 3905SOL    HW223352   0.447   3.655   6.432  0.6704  0.4770  0.1797
 3906SOL     OW23353   0.180   0.250  12.001 -0.2410  0.4011 -0.1323
 3906SOL    HW123354   0.147   0.311  11.935  1.4600  1.5853  0.0995
 3906SOL    HW223355   0.112   0.182  11.998 -0.2797  0.5036 -2.0252
 3907SOL     OW23356   4.228   3.098   1.544  0.7351  0.0937  0.5273
 3907SOL    HW123357   4.236   3.075   1.451  1.1544  0.2498  0.5266
 3907SOL    HW223358   4.313   3.081   1.583  1.4611  2.5739  0.0178
 3908SOL     OW23359   1.633   3.237  16.379 -0.7772  0.0184 -0.0455
 3908SOL    HW123360   1.687   3.161  16.397  1.5410  2.3043  2.6789
 3908SOL    HW223361   1.607   3.272  16.464 -0.0574  1.4051 -0.3960
 3909SOL     OW23362   4.042   0.170  16.672 -0.0684  0.5951 -0.2371
 3909SOL    HW123363   4.124   0.184  16.720 -0.4383 -2.3271  1.2320
 3909SOL    HW223364   3.978   0.209  16.731 -0.2728 -0.7322  0.4024
 3910SOL     OW23365   2.960   1.302   7.937  0.3184  0.1546  0.9293
 3910SOL    HW123366   3.054   1.283   7.933  0.3453  0.6068 -0.9611
 3910SOL    HW223367   2.962   1.391   7.974  1.4507  0.7958 -0.6440
 3911SOL     OW23368   4.235   0.529   6.086 -0.0410 -0.1128 -0.5457
 3911SOL    HW123369   4.313   0.546   6.139 -0.3112  2.7960 -1.1186
 3911SOL    HW223370   4.280   0.535   6.002 -0.9965  0.5837 -1.0042
 3912SOL     OW23371   4.442   4.592   9.756 -0.4973 -0.6291 -0.4028
 3912SOL    HW123372   4.356   4.621   9.725  0.0719  2.6911  1.0447
 3912SOL    HW223373   4.452   4.663   9.820  1.0288  0.1822 -1.5389
 3913SOL     OW23374   2.325   1.078   6.390 -0.5082 -0.5641  0.0216
 3913SOL    HW123375   2.385   1.012   6.355 -1.8120 -1.9167  0.3397
 3913SOL    HW223376   2.249   1.068   6.332 -0.3599  1.8540 -0.6022
 3914SOL     OW23377   4.108   1.019  17.559  0.4473 -0.0510 -0.3627
 3914SOL    HW123378   4.115   0.937  17.511  1.9087 -1.0774  1.5862
 3914SOL    HW223379   4.051   1.010  17.635 -2.4029  1.4851 -2.3422
 3915SOL     OW23380   3.954   4.115  12.721  0.5436 -0.3869  0.0313
 3915SOL    HW123381   3.862   4.131  12.738  0.2084 -2.7559  0.5292
 3915SOL    HW223382   3.988   4.186  12.776  1.4566 -1.3849  0.7593
 3916SOL     OW23383   4.205   0.979  16.447 -0.1032  0.0437 -0.1529
 3916SOL    HW123384   4.139   0.954  16.511  0.0302  1.3691  0.5012
 3916SOL    HW223385   4.264   0.904  16.458  1.9113  1.5642 -0.5409
 3917SOL     OW23386   0.285   1.933   3.984  0.8830  0.4510 -0.5047
 3917SOL    HW123387   0.329   1.930   3.900  2.5171 -0.8036  0.4003
 3917SOL    HW223388   0.255   2.024   3.986  0.6274  0.3886 -1.9331
 3918SOL     OW23389   3.279   1.894   2.967  0.1459 -0.6072 -0.4233
 3918SOL    HW123390   3.326   1.973   2.941 -0.4144 -1.1960 -3.2304
 3918SOL    HW223391   3.348   1.832   2.990  1.1054  0.6730  0.1143
 3919SOL     OW23392   2.195   0.603   3.083 -0.1514  0.0778 -0.0003
 3919SOL    HW123393   2.253   0.652   3.142  0.2748 -1.0308  0.4972
 3919SOL    HW223394   2.154   0.546   3.147  1.2389 -1.4274 -0.4577
 3920SOL     OW23395   4.396   3.253   9.199  0.1017 -1.0244 -0.0545
 3920SOL    HW123396   4.338   3.215   9.133 -1.9985  2.3229 -0.1719
 3920SOL    HW223397   4.373   3.196   9.272 -0.9338 -1.0215 -0.3683
 3921SOL     OW23398   2.855   2.022   8.987 -0.2889 -0.3215  0.1192
 3921SOL    HW123399   2.795   2.068   8.928  0.4081 -1.0605 -1.1738
 3921SOL    HW223400   2.857   1.934   8.950 -0.3887 -0.9417  1.5808
 3922SOL     OW23401   1.376   3.307   6.513  0.1018 -0.4097  0.1628
 3922SOL    HW123402   1.392   3.222   6.471  0.1158  0.1868 -1.0349
 3922SOL    HW223403   1.435   3.362   6.461 -0.1262  0.0399  0.3833
 3923SOL     OW23404   3.806   3.724   5.557 -0.1438 -0.2628 -0.1970
 3923SOL    HW123405   3.852   3.710   5.474 -0.4824  2.1929 -0.8049
 3923SOL    HW223406   3.837   3.813   5.574 -0.3917  0.3197 -2.7868
 3924SOL     OW23407   2.720   1.775   3.601 -0.0432  0.1207 -0.2540
 3924SOL    HW123408   2.710   1.863   3.563 -2.5302 -0.1376 -0.1620
 3924SOL    HW223409   2.704   1.722   3.523 -1.3305 -0.9969  0.7911
 3925SOL     OW23410   4.411   4.273   1.693 -0.3863  0.3521 -0.0111
 3925SOL    HW123411   4.454   4.330   1.757  0.4993  0.1749 -0.4616
 3925SOL    HW223412   4.412   4.189   1.739 -0.6127 -0.1704 -0.9691
 3926SOL     OW23413   1.778   4.380   1.679  0.3568  0.0828 -0.1567
 3926SOL    HW123414   1.833   4.351   1.751  0.9542 -0.6400 -0.9074
 3926SOL    HW223415   1.715   4.435   1.726  0.3884  0.9658 -1.1374
 3927SOL     OW23416   2.478   4.103   9.085  0.0762 -0.2548  0.6750
 3927SOL    HW123417   2.421   4.161   9.135  1.0339 -0.3304  1.8428
 3927SOL    HW223418   2.428   4.078   9.007 -1.4270  3.0206  0.6016
 3928SOL     OW23419   3.615   4.678   5.036  0.3097 -0.1412  0.4039
 3928SOL    HW123420   3.703   4.694   5.002  1.0110 -0.1143  2.2287
 3928SOL    HW223421   3.625   4.683   5.131 -0.4823 -0.4776  0.5045
 3929SOL     OW23422   0.485   2.959   4.409  0.1332  0.2363  0.0617
 3929SOL    HW123423   0.536   2.885   4.377  0.8005 -0.0902  1.8646
 3929SOL    HW223424   0.407   2.956   4.353  0.0717 -1.4812  0.2344
 3930SOL     OW23425   0.389   0.025   8.337 -0.2339  0.0186  0.0871
 3930SOL    HW123426   0.375   0.057   8.426 -1.2240  0.6236 -0.2896
 3930SOL    HW223427   0.406   0.104   8.286  0.5679  0.6890  1.4047
 3931SOL     OW23428   1.950   4.235  13.027  0.3933 -0.0623 -0.7635
 3931SOL    HW123429   1.906   4.276  12.953  1.6704  1.5647 -0.6329
 3931SOL    HW223430   1.880   4.186  13.070 -1.8053  1.3596 -2.6967
 3932SOL     OW23431   2.595   2.989   1.437  0.2816 -0.9987 -0.1008
 3932SOL    HW123432   2.569   2.976   1.346 -0.5299  0.1726 -0.0293
 3932SOL    HW223433   2.515   2.986   1.490  0.1268  2.0171 -0.1404
 3933SOL     OW23434   1.786   1.660   9.853 -0.3636 -0.1225  0.1129
 3933SOL    HW123435   1.732   1.710   9.914  0.1175  1.4447 -0.7395
 3933SOL    HW223436   1.737   1.579   9.835 -0.3068  0.1958 -1.5172
 3934SOL     OW23437   1.747   4.297  16.907  0.6933 -0.0588 -0.1828
 3934SOL    HW123438   1.687   4.234  16.867  0.4586 -1.6581  2.6138
 3934SOL    HW223439   1.819   4.311  16.845  0.7136 -0.3387 -0.2261
 3935SOL     OW23440   4.004   1.012   6.935  0.0839  0.2050  0.2000
 3935SOL    HW123441   3.939   0.984   6.870  1.1476 -1.1790 -0.2746
 3935SOL    HW223442   4.083   1.018   6.881  0.6509  2.2440  1.2685
 3936SOL     OW23443   0.727   0.160  11.224  0.7675  0.3475 -0.1619
 3936SOL    HW123444   0.785   0.174  11.149 -0.7880 -1.4113 -1.7044
 3936SOL    HW223445   0.725   0.064  11.226 -3.1032  0.4571  0.5490
 3937SOL     OW23446   2.711   2.703  11.482 -0.1494  0.6769  0.3601
 3937SOL    HW123447   2.639   2.765  11.479 -1.4187 -0.8782 -1.5630
 3937SOL    HW223448   2.737   2.694  11.390 -2.3496  1.5740 -0.3405
 3938SOL     OW23449   3.898   3.671  10.941 -0.0457 -0.0355  0.0314
 3938SOL    HW123450   3.874   3.582  10.915 -0.3439 -0.8718  3.0768
 3938SOL    HW223451   3.813   3.716  10.946 -0.3091 -0.4352 -0.8324
 3939SOL     OW23452   2.831   3.159  15.416  0.3720 -0.0104  0.5787
 3939SOL    HW123453   2.905   3.112  15.377 -0.5972 -1.8010  0.9438
 3939SOL    HW223454   2.876   3.222  15.473 -0.8716 -0.4186  2.0297
 3940SOL     OW23455   1.177   2.558   0.605 -0.0738 -1.0445  0.7903
 3940SOL    HW123456   1.146   2.641   0.641 -1.7796 -2.1587  1.8617
 3940SOL    HW223457   1.265   2.575   0.572 -1.0233 -1.3414 -1.9302
 3941SOL     OW23458   0.011   2.738   4.978 -0.7613 -0.3635 -0.0968
 3941SOL    HW123459   0.052   2.671   4.924 -1.1277  0.9577 -2.0109
 3941SOL    HW223460   0.054   2.723   5.063 -1.3155  0.9123  0.4029
 3942SOL     OW23461   1.419   0.262  13.825 -0.1378 -0.0227 -0.0951
 3942SOL    HW123462   1.339   0.214  13.802  0.1517  0.0948 -1.3820
 3942SOL    HW223463   1.464   0.196  13.878  1.7497  0.1495 -1.4968
 3943SOL     OW23464   1.743   3.705  15.682 -0.1242 -0.1297 -0.3963
 3943SOL    HW123465   1.770   3.775  15.622 -0.3211  1.3136  1.1806
 3943SOL    HW223466   1.683   3.750  15.741  0.8092  0.6406 -0.0217
 3944SOL     OW23467   2.139   4.409  16.894  0.2935  0.1494 -0.5843
 3944SOL    HW123468   2.110   4.472  16.960 -1.7540 -1.7923  0.3827
 3944SOL    HW223469   2.112   4.441  16.808 -2.5776  0.1123  0.3133
 3945SOL     OW23470   0.384   3.926  17.638  0.0192  0.0196 -0.6379
 3945SOL    HW123471   0.395   3.960  17.726  0.2749 -0.0895 -0.6277
 3945SOL    HW223472   0.478   3.924  17.621 -0.1671 -0.6442 -1.5898
 3946SOL     OW23473   1.746   4.519   8.933  0.2165  0.2470  0.7516
 3946SOL    HW123474   1.769   4.608   8.958  3.3418 -0.9729  2.0994
 3946SOL    HW223475   1.756   4.518   8.837 -2.3019  0.2783  0.4881
 3947SOL     OW23476   4.207   3.585   1.649  0.4283 -0.1772  0.4604
 3947SOL    HW123477   4.294   3.620   1.629 -0.5120  1.5848 -0.4751
 3947SOL    HW223478   4.223   3.516   1.584  2.5459 -2.2170  3.1620
 3948SOL     OW23479   3.550   0.104   4.686  1.0346  0.3499  0.4952
 3948SOL    HW123480   3.566   0.153   4.606 -0.0248  0.8300  0.5708
 3948SOL    HW223481   3.570   0.015   4.658 -0.3345  0.9394 -2.3329
 3949SOL     OW23482   2.175   1.455   7.382  0.0424  0.4331 -0.1514
 3949SOL    HW123483   2.215   1.369   7.374  0.0038  0.4631 -0.7109
 3949SOL    HW223484   2.155   1.476   7.291 -0.3077 -1.5408 -0.5364
 3950SOL     OW23485   3.177   0.193   5.698  0.0862  0.4074  0.0131
 3950SOL    HW123486   3.259   0.148   5.677  1.1353  1.7190  1.2147
 3950SOL    HW223487   3.119   0.137   5.648  0.4933  0.5997 -0.6750
 3951SOL     OW23488   2.677   3.234   1.624  0.1177  0.0795  0.1791
 3951SOL    HW123489   2.767   3.212   1.649  0.2313  1.0247  0.6008
 3951SOL    HW223490   2.655   3.167   1.560  0.4602 -0.8067  0.9877
 3952SOL     OW23491   4.464   3.724   6.437 -0.0855  0.0592 -0.0642
 3952SOL    HW123492   4.380   3.756   6.405  0.6133  0.3448 -1.6083
 3952SOL    HW223493   4.499   3.811   6.456 -1.7784  1.1360 -1.9453
 3953SOL     OW23494   3.231   1.033   3.014 -0.4653 -0.3584 -0.2478
 3953SOL    HW123495   3.253   0.968   3.081 -1.5471 -0.9055 -0.4227
 3953SOL    HW223496   3.247   0.978   2.938 -0.0792 -1.2733  0.4989
 3954SOL     OW23497   2.219   4.702  11.951  0.2758  0.1379  0.0877
 3954SOL    HW123498   2.307   4.686  11.983  0.7786  1.9600 -0.3855
 3954SOL    HW223499   2.219   4.644  11.874 -2.8407  0.2270 -0.0065
 3955SOL     OW23500   2.764   0.789   3.898  0.0585  0.8359  0.1581
 3955SOL    HW123501   2.790   0.707   3.856  1.7113  1.2297  0.3777
 3955SOL    HW223502   2.670   0.796   3.887  0.2150  2.2781 -0.2679
 3956SOL     OW23503   4.526   0.866   8.166  0.1341  0.1992 -0.7739
 3956SOL    HW123504   4.464   0.931   8.135 -1.5728 -0.3503  1.4891
 3956SOL    HW223505   4.469   0.793   8.191  0.4985  0.8311  1.9822
 3957SOL     OW23506   3.930   0.885  15.217  0.3063 -0.3470 -0.0046
 3957SOL    HW123507   3.952   0.812  15.159 -0.0949 -0.4895  0.0260
 3957SOL    HW223508   3.843   0.902  15.181 -0.6500  0.7408  2.8598
 3958SOL     OW23509   1.209   1.679   5.799  0.1670 -0.7712 -0.5731
 3958SOL    HW123510   1.279   1.701   5.861  1.5269 -1.1748 -1.9485
 3958SOL    HW223511   1.149   1.752   5.812  1.3771 -0.3387  2.6414
 3959SOL     OW23512   1.330   1.035   6.364  0.3400 -0.0299  0.5916
 3959SOL    HW123513   1.423   1.009   6.365  0.4271  0.3120  1.3760
 3959SOL    HW223514   1.291   0.978   6.298 -1.4626 -0.2158  1.8448
 3960SOL     OW23515   3.862   1.727   9.838  0.6720 -0.5404  0.2349
 3960SOL    HW123516   3.840   1.695   9.751  0.9303  1.6232 -0.6261
 3960SOL    HW223517   3.867   1.820   9.814  1.0766 -0.6795 -0.2080
 3961SOL     OW23518   2.347   4.006   2.192 -0.3982  0.1871 -0.1899
 3961SOL    HW123519   2.412   4.070   2.221 -1.1938  2.2469 -2.9932
 3961SOL    HW223520   2.324   4.033   2.103 -0.9802 -0.9245 -0.3799
 3962SOL     OW23521   1.829   2.544  13.693  0.1369  0.2232 -0.5094
 3962SOL    HW123522   1.808   2.633  13.666 -0.6326  0.0509 -0.4925
 3962SOL    HW223523   1.896   2.523  13.628  0.3596  0.6362 -0.4068
 3963SOL     OW23524   4.603   2.494   5.399  0.1496  0.3152  0.4590
 3963SOL    HW123525   4.667   2.427   5.376 -1.3032 -0.9115  0.0316
 3963SOL    HW223526   4.544   2.495   5.324 -0.6560  1.8752  1.1106
 3964SOL     OW23527   0.770   2.906   7.615 -0.5311 -0.1058 -0.3507
 3964SOL    HW123528   0.844   2.948   7.658 -0.1577  1.1888 -2.2493
 3964SOL    HW223529   0.809   2.909   7.527 -1.9445 -1.7983 -1.0369
 3965SOL     OW23530   4.032   1.190  13.384  0.2804 -0.3020  0.2039
 3965SOL    HW123531   4.031   1.253  13.457  3.3959 -0.5670  0.4704
 3965SOL    HW223532   3.950   1.146  13.407 -0.0342  0.4056  0.4177
 3966SOL     OW23533   1.121   3.479   3.871 -0.2421 -0.3780  0.0484
 3966SOL    HW123534   1.085   3.564   3.899 -2.1568 -0.8089 -1.0807
 3966SOL    HW223535   1.106   3.423   3.947  0.4582 -1.1882 -0.4181
 3967SOL     OW23536   2.023   4.597   7.290  0.0640 -0.0584  0.6664
 3967SOL    HW123537   2.067   4.682   7.290  1.6880 -0.9177 -0.6453
 3967SOL    HW223538   2.083   4.538   7.337  1.1458 -0.5459 -1.3444
 3968SOL     OW23539   2.965   1.919   4.305  0.6219  0.2591 -0.0970
 3968SOL    HW123540   2.898   1.938   4.371  0.2348  0.3619 -0.5240
 3968SOL    HW223541   2.944   1.988   4.242  0.8488  0.3183 -0.1062
 3969SOL     OW23542   4.685   1.355   7.158 -0.2432 -0.2225 -0.2179
 3969SOL    HW123543   4.644   1.373   7.243 -1.3701  3.1288 -1.4801
 3969SOL    HW223544   4.688   1.260   7.155  1.5686 -0.1281 -1.0083
 3970SOL     OW23545   1.104   1.906   6.516  0.3584  0.5235 -0.9835
 3970SOL    HW123546   1.187   1.955   6.515  1.8313 -1.9686  0.3214
 3970SOL    HW223547   1.085   1.906   6.422 -0.3914 -0.9126 -0.8240
 3971SOL     OW23548   0.737   0.385   3.953  0.1746  0.3534  0.1557
 3971SOL    HW123549   0.712   0.478   3.946  0.8128  0.3885 -1.6464
 3971SOL    HW223550   0.797   0.385   4.028 -0.1647  1.9817  0.4476
 3972SOL     OW23551   2.498   3.623   9.446  0.1073  0.0023  0.4453
 3972SOL    HW123552   2.537   3.629   9.359  0.1346 -0.8541  0.3964
 3972SOL    HW223553   2.474   3.715   9.452  0.2318  0.1313 -1.1213
 3973SOL     OW23554   0.754   4.498  14.110 -0.2402  0.4540  0.8892
 3973SOL    HW123555   0.820   4.554  14.150  0.5972  0.1893 -0.1012
 3973SOL    HW223556   0.673   4.543  14.132  1.1934  2.9230  1.1469
 3974SOL     OW23557   4.241   0.254  15.960 -0.1967  0.2726  0.1374
 3974SOL    HW123558   4.326   0.223  15.991 -0.2479 -0.2214 -0.2163
 3974SOL    HW223559   4.273   0.336  15.924  0.4199 -0.4957 -1.0287
 3975SOL     OW23560   3.429   3.917   6.569 -0.2246 -0.1816  0.2434
 3975SOL    HW123561   3.416   3.938   6.661 -2.7424 -0.4783 -0.0231
 3975SOL    HW223562   3.352   3.861   6.557 -1.7504  2.1011 -0.6254
 3976SOL     OW23563   0.352   0.862   5.894 -0.1958  0.1633  0.3988
 3976SOL    HW123564   0.381   0.940   5.941 -1.9762  0.7898  0.4813
 3976SOL    HW223565   0.387   0.797   5.954 -0.9901 -1.8308 -1.3154
 3977SOL     OW23566   4.120   2.525   9.047  0.5031  0.3488 -0.2839
 3977SOL    HW123567   4.104   2.619   9.051 -0.6798  0.0742  1.6445
 3977SOL    HW223568   4.096   2.510   8.956 -1.2585 -1.9532  0.5522
 3978SOL     OW23569   1.250   0.057   5.461  0.3120  0.5756  0.0643
 3978SOL    HW123570   1.320   0.103   5.414  0.5911  0.2035  0.1121
 3978SOL    HW223571   1.307   4.731   5.507  1.4098  0.2201 -1.7637
 3979SOL     OW23572   3.147   1.076   4.408  0.8897 -0.5215  0.0548
 3979SOL    HW123573   3.115   0.986   4.412 -2.8038  0.8248  0.3307
 3979SOL    HW223574   3.232   1.080   4.453 -0.6989  1.0223  2.9196
 3980SOL     OW23575   1.518   4.542   7.851 -0.2119  0.1982  0.0402
 3980SOL    HW123576   1.471   4.493   7.919  0.7060 -0.4294  0.2139
 3980SOL    HW223577   1.446   4.583   7.802 -1.1997 -2.2139 -0.4919
 3981SOL     OW23578   1.822   4.497   7.126 -0.2252  0.2036  0.4616
 3981SOL    HW123579   1.851   4.512   7.036  2.5578  1.3439  1.5431
 3981SOL    HW223580   1.891   4.529   7.183  0.0723 -1.7228  1.1699
 3982SOL     OW23581   3.093   2.501   9.085  0.2874  0.2598  0.3746
 3982SOL    HW123582   3.048   2.541   9.159 -0.5408  1.1448 -0.6111
 3982SOL    HW223583   3.105   2.421   9.136  0.8597  0.4773  0.5853
 3983SOL     OW23584   2.790   0.649  12.429 -0.0554  0.2004  0.1806
 3983SOL    HW123585   2.713   0.594  12.446  0.0245  0.3242  0.9150
 3983SOL    HW223586   2.772   0.713  12.498  1.2900  0.4641  0.2900
 3984SOL     OW23587   0.133   3.536   1.633  0.2895  0.3936  0.0106
 3984SOL    HW123588   0.175   3.539   1.547 -2.7289 -1.0406 -1.5116
 3984SOL    HW223589   0.190   3.597   1.681 -0.9656  2.0754 -0.6111
 3985SOL     OW23590   1.800   3.881   6.389 -0.2002  0.0069  0.3075
 3985SOL    HW123591   1.734   3.830   6.342 -2.0544  1.1129  1.7042
 3985SOL    HW223592   1.859   3.887   6.314 -1.2604 -0.6336 -0.5898
 3986SOL     OW23593   0.235   2.207   3.936  0.2416  0.8094 -0.8700
 3986SOL    HW123594   0.141   2.215   3.953  0.6098  0.4626  1.3228
 3986SOL    HW223595   0.266   2.298   3.941 -2.0271  1.5123  0.9021
 3987SOL     OW23596   0.705   2.261   8.653 -0.4326  0.4464  0.0666
 3987SOL    HW123597   0.786   2.306   8.628 -1.4072  1.0598 -1.9414
 3987SOL    HW223598   0.649   2.332   8.685 -1.0263 -0.1950  0.4356
 3988SOL     OW23599   0.434   2.837   5.757 -0.0601  0.0340  0.5624
 3988SOL    HW123600   0.477   2.896   5.694 -0.2793  0.1872  0.5565
 3988SOL    HW223601   0.426   2.896   5.832 -1.6307  0.9422 -0.3137
 3989SOL     OW23602   3.934   1.951   4.643 -0.0745 -0.1479 -0.4515
 3989SOL    HW123603   3.840   1.944   4.628 -0.6046  4.1288  1.0000
 3989SOL    HW223604   3.926   1.982   4.733  1.9288  1.2079 -0.7448
 3990SOL     OW23605   0.839   3.092   2.976  0.5765  0.2514  0.2292
 3990SOL    HW123606   0.848   3.063   2.885 -3.2128 -2.4073  0.7248
 3990SOL    HW223607   0.858   3.186   2.972 -2.1281  0.7333 -0.6456
 3991SOL     OW23608   2.799   1.487   4.909  0.0081 -0.8863  0.1333
 3991SOL    HW123609   2.876   1.435   4.884  1.7656  1.7772  0.0573
 3991SOL    HW223610   2.804   1.552   4.839 -1.5172  0.9430  1.7355
 3992SOL     OW23611   2.754   3.465   1.923 -0.0178 -0.3684 -0.0627
 3992SOL    HW123612   2.701   3.480   1.845 -0.5446  0.6308  0.4852
 3992SOL    HW223613   2.779   3.554   1.948 -0.2897 -0.5383  0.7963
 3993SOL     OW23614   4.253   1.977  13.103 -0.2223 -0.4795 -0.3094
 3993SOL    HW123615   4.198   1.900  13.086  0.8582 -0.8675 -2.0284
 3993SOL    HW223616   4.250   1.983  13.198 -0.1176 -1.3325 -0.2547
 3994SOL     OW23617   2.622   2.075  17.336  0.4241 -0.0530 -0.4190
 3994SOL    HW123618   2.696   2.101  17.391 -0.3286  1.6257 -0.2048
 3994SOL    HW223619   2.622   2.151  17.277 -0.9555  3.5453  4.2488
 3995SOL     OW23620   4.437   4.137   3.581 -0.0060 -0.0540  0.0112
 3995SOL    HW123621   4.441   4.218   3.531  2.6009 -1.5361 -2.2091
 3995SOL    HW223622   4.449   4.182   3.665 -0.5211  3.8285 -2.0131
 3996SOL     OW23623   3.861   0.832   2.620 -0.2055 -0.1191  0.5057
 3996SOL    HW123624   3.911   0.819   2.701 -0.4040  3.3431  1.1641
 3996SOL    HW223625   3.877   0.924   2.602 -0.5012  0.4185  2.9882
 3997SOL     OW23626   0.972   0.589   0.187 -0.6686 -0.0053  0.4517
 3997SOL    HW123627   0.938   0.500   0.199  0.1595 -0.4451 -0.4833
 3997SOL    HW223628   0.910   0.634   0.129  0.3206 -1.7447 -1.9373
 3998SOL     OW23629   0.759   4.367   7.666  0.2768  0.1985 -0.1873
 3998SOL    HW123630   0.679   4.320   7.642 -0.2331  1.0338 -0.1186
 3998SOL    HW223631   0.816   4.320   7.606 -0.7886 -1.6811  0.2467
 3999SOL     OW23632   0.145   1.082   2.471  0.0208 -0.0082  0.1322
 3999SOL    HW123633   0.228   1.080   2.423 -0.1488 -1.2365 -0.0975
 3999SOL    HW223634   0.168   1.026   2.545 -0.9261  1.5261  1.5757
 4000SOL     OW23635   1.348   3.951   7.917 -0.0440 -0.6814 -0.2399
 4000SOL    HW123636   1.359   4.046   7.924  2.9193 -1.0306 -0.3669
 4000SOL    HW223637   1.272   3.948   7.859 -0.3983  0.3527  0.1558
 4001SOL     OW23638   0.896   3.510   8.466  0.1845  0.2910 -0.0900
 4001SOL    HW123639   0.833   3.496   8.395  0.4668 -1.0899 -0.0825
 4001SOL    HW223640   0.847   3.573   8.519 -0.8051  0.2035 -0.8971
 4002SOL     OW23641   3.915   0.852   1.673 -0.3097  0.3049 -0.1221
 4002SOL    HW123642   3.957   0.786   1.617  0.1018  0.4848 -0.0288
 4002SOL    HW223643   3.895   0.914   1.603 -2.5882  0.7759  0.9424
 4003SOL     OW23644   2.637   2.750   9.529 -0.2583 -0.0726  0.3013
 4003SOL    HW123645   2.679   2.664   9.540 -1.4043 -0.5746  0.7117
 4003SOL    HW223646   2.710   2.808   9.509 -2.0685  1.9364 -0.4927
 4004SOL     OW23647   4.505   3.415  11.981 -0.5036 -0.0091 -0.1445
 4004SOL    HW123648   4.521   3.507  11.963 -1.0320 -0.0407 -0.7549
 4004SOL    HW223649   4.420   3.411  11.939 -0.8456 -2.1261  0.7306
 4005SOL     OW23650   4.464   2.490   3.778  0.0349 -0.5426 -0.9058
 4005SOL    HW123651   4.481   2.409   3.825  1.4612  0.4802  0.3173
 4005SOL    HW223652   4.472   2.568   3.833 -0.8295  0.1163 -1.7102
 4006SOL     OW23653   2.076   0.074   6.863  0.3732  0.1813  0.1826
 4006SOL    HW123654   2.153   0.019   6.849 -0.2145 -0.5013 -0.3613
 4006SOL    HW223655   2.086   0.094   6.956 -0.9759 -1.7926  0.7569
 4007SOL     OW23656   4.609   2.301  12.369  0.2774 -0.1264 -0.3365
 4007SOL    HW123657   4.703   2.293  12.352  0.0374 -1.5276 -1.0456
 4007SOL    HW223658   4.570   2.220  12.336  2.4963 -0.3638 -2.4335
 4008SOL     OW23659   0.372   3.651   5.162  0.0560  0.2316 -0.1473
 4008SOL    HW123660   0.301   3.614   5.109  1.0529 -0.6789 -0.8388
 4008SOL    HW223661   0.358   3.746   5.157  0.8133  0.3492 -0.0678
 4009SOL     OW23662   0.977   4.077   2.219  0.4674  0.7337  1.1773
 4009SOL    HW123663   1.048   4.012   2.220  0.9522  1.2453  0.0630
 4009SOL    HW223664   0.986   4.118   2.305  0.0664  0.3375  1.4078
 4010SOL     OW23665   0.990   3.290   6.752 -0.2324 -0.2210  0.0450
 4010SOL    HW123666   1.080   3.324   6.758 -0.2343  0.0254 -1.2580
 4010SOL    HW223667   0.955   3.354   6.690  1.3952  1.3555  0.7448
 4011SOL     OW23668   0.741   3.396  15.171  0.1418  0.4919  0.2947
 4011SOL    HW123669   0.828   3.390  15.132 -0.9589 -0.8819 -1.9642
 4011SOL    HW223670   0.770   3.354  15.252  0.2714  0.2216  0.1088
 4012SOL     OW23671   2.884   2.482   6.892  0.2332  0.4617 -0.6529
 4012SOL    HW123672   2.972   2.483   6.929  0.0623  1.9881 -0.2851
 4012SOL    HW223673   2.842   2.419   6.950 -1.2492  2.0333 -0.0142
 4013SOL     OW23674   2.185   3.412  16.530  0.1877 -0.8143 -0.3050
 4013SOL    HW123675   2.241   3.343  16.565 -1.5264 -2.0569 -0.0154
 4013SOL    HW223676   2.149   3.380  16.447  0.5288 -1.1235 -0.3334
 4014SOL     OW23677   0.113   1.797   4.175 -0.1092 -0.4740 -0.0559
 4014SOL    HW123678   0.161   1.805   4.257 -0.1195  0.0274 -0.0987
 4014SOL    HW223679   0.158   1.854   4.113 -0.0074  0.4945  0.8956
 4015SOL     OW23680   1.357   2.562   6.230 -0.6258 -0.2125 -0.5709
 4015SOL    HW123681   1.285   2.603   6.276  1.0221  2.6015 -0.4848
 4015SOL    HW223682   1.315   2.514   6.159  2.2180 -0.1906 -2.2796
 4016SOL     OW23683   4.209   0.016   4.170  0.0428 -0.6613 -0.5937
 4016SOL    HW123684   4.270   0.030   4.242 -0.7496  0.0794 -0.0642
 4016SOL    HW223685   4.220   4.659   4.146  1.8563 -0.6902  0.3994
 4017SOL     OW23686   0.304   0.903  16.572  0.0656 -0.2753 -0.3463
 4017SOL    HW123687   0.256   0.968  16.521  1.6171  0.4946 -0.8241
 4017SOL    HW223688   0.393   0.910  16.536 -0.0972  1.4944 -0.4215
 4018SOL     OW23689   4.562   2.481  11.597 -0.1966  0.2492 -0.1140
 4018SOL    HW123690   4.609   2.400  11.612 -1.4080  0.4947  5.1090
 4018SOL    HW223691   4.592   2.535  11.670 -4.8597  0.6462  1.5182
 4019SOL     OW23692   3.984   2.914  12.244 -0.3523  0.2480 -0.1023
 4019SOL    HW123693   4.025   2.834  12.208 -1.3573  0.1903 -1.1104
 4019SOL    HW223694   4.018   2.914  12.334 -0.8963 -1.0282  0.1069
 4020SOL     OW23695   0.317   2.236  12.540  0.1332  0.7682  0.1579
 4020SOL    HW123696   0.256   2.169  12.572 -0.2256  0.1810 -1.7709
 4020SOL    HW223697   0.347   2.273  12.623  2.2005 -1.2840  0.3302
 4021SOL     OW23698   1.809   0.164   2.450  0.0577 -0.2516  0.1955
 4021SOL    HW123699   1.901   0.138   2.448  0.4063  1.1279 -2.5647
 4021SOL    HW223700   1.780   0.086   2.496 -0.4846  0.9918  1.9446
 4022SOL     OW23701   3.108   3.997   6.623 -0.1740  0.2213  0.3436
 4022SOL    HW123702   3.157   4.060   6.571  1.7336 -0.4425  1.3706
 4022SOL    HW223703   3.146   3.918   6.586 -0.3841 -0.4601  1.5759
 4023SOL     OW23704   3.719   4.017  14.296  0.0883  0.1067 -0.3175
 4023SOL    HW123705   3.626   4.028  14.277 -0.4072 -1.6175  1.0602
 4023SOL    HW223706   3.716   3.934  14.343  0.3758  0.0164 -0.4568
 4024SOL     OW23707   0.949   0.684  10.790  0.3595  0.6908  0.0785
 4024SOL    HW123708   0.862   0.692  10.826 -0.2514 -1.5386 -0.8418
 4024SOL    HW223709   0.986   0.620  10.851  1.4631 -1.0950 -2.3981
 4025SOL     OW23710   1.752   2.147  17.719  0.5550 -0.6077 -0.0681
 4025SOL    HW123711   1.688   2.164  17.650 -2.3274  2.7270  3.4396
 4025SOL    HW223712   1.765   2.230   0.024  0.0058 -1.1104  1.0418
 4026SOL     OW23713   0.655   3.070  11.304 -0.1587  0.1687 -0.5763
 4026SOL    HW123714   0.610   3.149  11.274 -0.9929 -0.3873 -0.7993
 4026SOL    HW223715   0.745   3.099  11.320  0.5439 -1.8126 -0.8516
 4027SOL     OW23716   4.554   4.223   7.185  0.3030 -0.0633 -0.1556
 4027SOL    HW123717   4.617   4.168   7.231 -1.1324 -0.5054  1.2645
 4027SOL    HW223718   4.515   4.266   7.261 -1.5315 -1.2079 -0.4573
 4028SOL     OW23719   3.534   1.815   1.298  0.5080 -0.1624 -0.2545
 4028SOL    HW123720   3.487   1.815   1.215 -0.6313  2.0736  0.3968
 4028SOL    HW223721   3.623   1.813   1.263  0.8625 -2.2947  0.7880
 4029SOL     OW23722   3.825   3.286   7.804 -0.5375  0.3674  0.1871
 4029SOL    HW123723   3.861   3.364   7.760  0.2501  0.3302  0.7595
 4029SOL    HW223724   3.784   3.239   7.732 -0.4817 -1.2238  1.2099
 4030SOL     OW23725   1.333   2.608   1.697  0.1069  0.3047 -0.1772
 4030SOL    HW123726   1.380   2.630   1.777 -1.0697  1.6133  0.1496
 4030SOL    HW223727   1.358   2.681   1.640 -0.4037 -0.1913 -1.0434
 4031SOL     OW23728   1.385   1.471  10.360  0.1821  0.7408  0.0300
 4031SOL    HW123729   1.368   1.554  10.404  1.5727  0.8158  0.4126
 4031SOL    HW223730   1.451   1.427  10.414  0.1733  1.8469  0.9319
 4032SOL     OW23731   0.675   1.147  17.044  0.1005 -0.4978  0.1004
 4032SOL    HW123732   0.620   1.221  17.019  0.8551 -0.0112 -0.1177
 4032SOL    HW223733   0.607   1.096  17.089  0.1999  0.2818  1.1272
 4033SOL     OW23734   4.366   4.074   7.601  0.7049 -0.5431  0.2963
 4033SOL    HW123735   4.304   4.002   7.588  0.7174 -0.4081 -0.5054
 4033SOL    HW223736   4.419   4.046   7.676 -2.1462  1.0917  2.9244
 4034SOL     OW23737   3.325   0.715   8.003 -0.0098 -0.3032 -0.2489
 4034SOL    HW123738   3.299   0.630   8.038  0.1736 -0.0214  0.5525
 4034SOL    HW223739   3.266   0.724   7.928 -1.0538  0.0767  0.6238
 4035SOL     OW23740   4.592   2.019  16.438  0.2134  0.2936  0.6514
 4035SOL    HW123741   4.607   2.095  16.495 -2.3430  0.6550  0.8429
 4035SOL    HW223742   4.527   2.061  16.382  0.6392 -1.7233 -1.3385
 4036SOL     OW23743   1.379   4.448   0.138 -0.1875  0.1733 -0.1465
 4036SOL    HW123744   1.288   4.467   0.117  0.0680  0.1488 -1.2767
 4036SOL    HW223745   1.425   4.497   0.070  0.0386 -0.9450 -0.7925
 4037SOL     OW23746   2.407   0.504  16.795  0.2661 -0.6715 -0.4012
 4037SOL    HW123747   2.501   0.485  16.787  0.6293 -0.0389  2.2735
 4037SOL    HW223748   2.392   0.496  16.889  1.4551 -1.1534 -0.2491
 4038SOL     OW23749   1.795   3.746  15.089  0.8386 -0.3892 -0.2705
 4038SOL    HW123750   1.736   3.697  15.147  0.9497 -1.4619 -1.0538
 4038SOL    HW223751   1.874   3.698  15.113  0.7083  0.5728  2.1276
 4039SOL     OW23752   2.098   0.518   4.490  0.2568 -0.1229  0.4269
 4039SOL    HW123753   2.085   0.530   4.584  1.9640 -3.0947  1.0261
 4039SOL    HW223754   2.165   0.449   4.489  0.6755  0.3121 -2.4522
 4040SOL     OW23755   2.420   0.546   5.364  0.2576 -0.0367 -0.0981
 4040SOL    HW123756   2.439   0.595   5.444  0.7824 -1.0376  0.3945
 4040SOL    HW223757   2.495   0.487   5.366  0.0716 -0.2265  1.4177
 4041SOL     OW23758   3.514   4.321   4.122  0.5682  0.0234  0.1091
 4041SOL    HW123759   3.534   4.355   4.035 -0.4738 -2.1174 -0.9702
 4041SOL    HW223760   3.428   4.360   4.139  0.6012  1.4348 -2.9234
 4042SOL     OW23761   1.602   4.020   2.278 -0.3250 -0.2707 -0.3424
 4042SOL    HW123762   1.614   3.956   2.208 -0.6210 -0.7337  0.0288
 4042SOL    HW223763   1.688   4.062   2.281  0.0030 -0.9165 -0.8062
 4043SOL     OW23764   0.592   4.260   4.919  0.0852  0.2008  0.2050
 4043SOL    HW123765   0.679   4.299   4.913  0.3235 -0.3951 -0.1618
 4043SOL    HW223766   0.559   4.258   4.829  0.6303  0.5835 -0.0078
 4044SOL     OW23767   3.433   0.590   2.859 -0.2084 -0.5643 -0.1237
 4044SOL    HW123768   3.480   0.635   2.788  1.0736  1.5881  2.0596
 4044SOL    HW223769   3.488   0.513   2.874  1.0489  0.1551 -1.0107
 4045SOL     OW23770   1.130   3.885   1.443 -0.2491 -0.1375 -0.2777
 4045SOL    HW123771   1.210   3.934   1.467  0.3448 -1.0582 -0.3912
 4045SOL    HW223772   1.070   3.932   1.501 -0.1552 -1.4937  0.9085
 4046SOL     OW23773   1.100   3.647   3.002 -0.0273 -0.0555 -0.5422
 4046SOL    HW123774   1.169   3.619   2.942  0.6640 -0.5062  0.4605
 4046SOL    HW223775   1.027   3.636   2.941  0.8174 -1.2058 -1.3331
 4047SOL     OW23776   3.993   1.056   8.868 -0.2879 -0.5703 -0.3253
 4047SOL    HW123777   4.008   1.004   8.947 -0.5014  2.3765  1.6426
 4047SOL    HW223778   3.932   0.996   8.825 -0.5612  0.6626 -1.6571
 4048SOL     OW23779   0.883   1.151   3.894  0.0448 -0.1801 -0.1339
 4048SOL    HW123780   0.890   1.192   3.808  0.9813  0.0763  0.0601
 4048SOL    HW223781   0.800   1.104   3.895 -0.0925  0.0709  0.2845
 4049SOL     OW23782   0.668   4.117  16.926  0.6761  0.4648  0.0279
 4049SOL    HW123783   0.691   4.180  16.995 -0.1821  2.2434 -1.3354
 4049SOL    HW223784   0.729   4.140  16.856  0.6654 -1.2791 -0.5629
 4050SOL     OW23785   2.387   0.957   8.168  0.5158 -0.5750  0.4617
 4050SOL    HW123786   2.463   0.898   8.167  1.6387  0.7904  3.1251
 4050SOL    HW223787   2.314   0.901   8.143 -0.0935  0.9446 -1.1975
 4051SOL     OW23788   3.860   3.054   1.575  0.1909  0.6662  0.5104
 4051SOL    HW123789   3.920   3.123   1.602  1.7951 -0.6753  0.3429
 4051SOL    HW223790   3.881   2.983   1.635 -1.3778  0.0436  0.3255
 4052SOL     OW23791   1.485   1.908   2.538  0.2625 -0.1640  0.1646
 4052SOL    HW123792   1.412   1.892   2.598  1.3509  0.7750  1.7188
 4052SOL    HW223793   1.429   1.901   2.460  1.5384  3.0023 -1.0645
 4053SOL     OW23794   3.035   2.774   1.136 -0.2625  0.4562 -0.1267
 4053SOL    HW123795   2.965   2.713   1.113 -0.9304  1.0597  0.3120
 4053SOL    HW223796   2.982   2.834   1.188  0.0421 -0.6732  1.4772
 4054SOL     OW23797   1.725   3.102   1.603  0.2478 -0.1717  0.0239
 4054SOL    HW123798   1.705   3.024   1.551  1.3998  0.2070 -1.0003
 4054SOL    HW223799   1.711   3.078   1.694  1.3732 -0.6229  0.0793
 4055SOL     OW23800   3.264   3.899  11.575 -0.2040  0.2328 -0.7688
 4055SOL    HW123801   3.198   3.962  11.604  0.4323  1.9731 -3.0576
 4055SOL    HW223802   3.305   3.889  11.661 -1.5979  3.4650  0.2704
 4056SOL     OW23803   2.544   4.129  17.635 -0.0951 -0.5492  0.1114
 4056SOL    HW123804   2.524   4.081  17.555  0.4003  1.0361 -0.9612
 4056SOL    HW223805   2.455   4.134  17.670  0.6293  1.7965  1.6426
 4057SOL     OW23806   4.220   0.707   3.551 -0.2289 -0.0191 -0.3023
 4057SOL    HW123807   4.141   0.760   3.554 -0.2689  0.0063 -1.8607
 4057SOL    HW223808   4.192   0.620   3.522 -0.2652 -0.6565  1.6392
 4058SOL     OW23809   4.340   0.283   9.669  0.3186 -0.6042 -0.0470
 4058SOL    HW123810   4.381   0.254   9.750 -0.0677 -0.4578  0.2021
 4058SOL    HW223811   4.263   0.229   9.685  0.1710 -0.2352  0.4770
 4059SOL     OW23812   0.084   0.383   7.746 -0.4886 -0.2048 -0.5862
 4059SOL    HW123813   0.097   0.425   7.832 -0.7585  0.5565 -0.9181
 4059SOL    HW223814   0.069   0.297   7.786  0.0940 -1.2696 -2.6847
 4060SOL     OW23815   1.540   3.038   6.099 -0.1851  0.1997  0.2664
 4060SOL    HW123816   1.497   2.972   6.154 -1.8985  1.4882  0.4483
 4060SOL    HW223817   1.509   3.008   6.014  0.2801 -1.0300  0.5263
 4061SOL     OW23818   3.526   1.065   7.848  1.2817 -0.0580  0.1096
 4061SOL    HW123819   3.500   1.102   7.764 -1.2391  2.4178  2.0010
 4061SOL    HW223820   3.506   0.972   7.838  1.7283  0.2377 -3.5047
 4062SOL     OW23821   4.449   4.608   4.652 -0.0907  0.3808  0.0330
 4062SOL    HW123822   4.389   4.539   4.624 -0.3512  0.7923 -0.4089
 4062SOL    HW223823   4.383   4.669   4.684 -0.0672  0.4868 -0.1247
 4063SOL     OW23824   4.359   3.336   5.206 -0.0099 -0.1022  0.0281
 4063SOL    HW123825   4.268   3.334   5.176  0.2033  0.0805 -0.6129
 4063SOL    HW223826   4.400   3.269   5.151  0.6637  1.6857 -1.6358
 4064SOL     OW23827   2.247   0.289   4.426 -0.2856 -0.7278  0.0853
 4064SOL    HW123828   2.315   0.262   4.489  1.2460 -1.4761 -1.9043
 4064SOL    HW223829   2.224   0.202   4.393 -3.3088 -0.0193  0.2938
 4065SOL     OW23830   1.286   0.534   5.739  0.1577  0.1306 -0.5690
 4065SOL    HW123831   1.329   0.577   5.812 -1.3966 -3.1819  2.3078
 4065SOL    HW223832   1.229   0.473   5.786  0.1500  1.3767  1.0260
 4066SOL     OW23833   2.379   4.641   5.539 -0.3056 -0.5032 -0.1166
 4066SOL    HW123834   2.366   4.646   5.634 -0.4426  2.7065 -0.3021
 4066SOL    HW223835   2.398   4.549   5.525 -0.4731 -0.5432 -0.0774
 4067SOL     OW23836   3.676   4.534   8.601  0.0198 -0.0456 -0.2119
 4067SOL    HW123837   3.616   4.609   8.596  2.3120  1.5840 -3.4002
 4067SOL    HW223838   3.625   4.458   8.630  0.5481  0.1943  1.3576
 4068SOL     OW23839   3.439   4.015  14.293 -0.0981 -0.0766  1.1557
 4068SOL    HW123840   3.364   4.024  14.233  0.2077  0.1166  0.8052
 4068SOL    HW223841   3.396   3.991  14.375  2.3723  1.6860  2.9602
 4069SOL     OW23842   2.907   4.594  13.212 -0.3587 -0.2989  1.2898
 4069SOL    HW123843   2.909   4.690  13.212  1.3812 -0.3275  0.5834
 4069SOL    HW223844   2.936   4.572  13.300 -1.5080 -0.8509  1.5226
 4070SOL     OW23845   4.275   4.367  10.044  0.1753  0.7115  0.2378
 4070SOL    HW123846   4.231   4.301  10.099  1.1512  0.2752  0.4911
 4070SOL    HW223847   4.272   4.319   9.961  1.5197 -0.6142  0.9508
 4071SOL     OW23848   2.505   3.494   7.922 -0.3716 -0.0068 -0.3766
 4071SOL    HW123849   2.481   3.461   8.009  1.2217 -1.4751 -0.4987
 4071SOL    HW223850   2.598   3.512   7.937 -0.3011  0.8618 -1.8644
 4072SOL     OW23851   1.431   4.717   4.409 -0.0469  0.1858 -0.0224
 4072SOL    HW123852   1.358   0.033   4.445  0.1990 -0.3930  1.2796
 4072SOL    HW223853   1.461   0.033   4.334 -1.6859 -3.0652 -2.8693
 4073SOL     OW23854   4.042   2.558  15.134 -0.3985 -0.0613 -0.0045
 4073SOL    HW123855   4.122   2.506  15.133 -0.6148 -0.2797 -3.7680
 4073SOL    HW223856   4.077   2.645  15.153 -0.1239  0.0262 -0.9230
 4074SOL     OW23857   1.576   4.062   7.039  0.1026  0.1009 -0.3098
 4074SOL    HW123858   1.649   4.002   7.054 -0.9810 -0.9571  0.7067
 4074SOL    HW223859   1.603   4.128   6.976  1.3911 -1.2227 -1.1427
 4075SOL     OW23860   1.628   1.627   5.969  0.2179 -0.5770 -0.0400
 4075SOL    HW123861   1.594   1.549   5.925  0.7965 -0.2354 -1.0918
 4075SOL    HW223862   1.723   1.624   5.955  0.1758  0.3984 -0.4870
 4076SOL     OW23863   4.478   4.328   0.291 -0.0724  0.0951 -0.3091
 4076SOL    HW123864   4.396   4.299   0.251  0.5550  0.8570 -2.1502
 4076SOL    HW223865   4.515   4.239   0.292 -0.7966 -0.1919  0.7241
 4077SOL     OW23866   3.116   1.107   6.747  0.4132 -0.3756 -0.6275
 4077SOL    HW123867   3.076   1.192   6.766 -0.7786 -0.8571 -1.0066
 4077SOL    HW223868   3.033   1.061   6.740 -1.6583  2.9796  2.0795
 4078SOL     OW23869   2.964   3.952  12.977  0.0294  0.5589  0.0619
 4078SOL    HW123870   2.933   3.995  13.057 -0.8853 -2.7271  1.4832
 4078SOL    HW223871   3.059   3.950  12.991  0.6156  1.4148 -3.7857
 4079SOL     OW23872   1.127   0.930   2.638  0.7406 -0.8963 -0.0775
 4079SOL    HW123873   1.045   0.955   2.595  1.4565  0.5642 -0.5923
 4079SOL    HW223874   1.124   0.834   2.642  1.3849 -1.0042 -1.9728
 4080SOL     OW23875   4.675   0.767   1.361  0.4877  0.3949 -1.1384
 4080SOL    HW123876   4.655   0.845   1.412 -1.1354  0.5505 -2.0222
 4080SOL    HW223877   4.646   0.698   1.421  1.3971  0.7360 -0.3168
 4081SOL     OW23878   2.520   2.590   3.025  0.7323  0.6314  0.0839
 4081SOL    HW123879   2.465   2.666   3.010 -1.9243 -1.4495 -0.8102
 4081SOL    HW223880   2.594   2.635   3.065  1.6797 -1.3568  0.5920
 4082SOL     OW23881   4.172   4.083   8.328 -0.2925  0.2983 -0.1622
 4082SOL    HW123882   4.238   4.036   8.278  0.4827  1.7044 -0.4425
 4082SOL    HW223883   4.148   4.024   8.400  0.7495 -0.1550 -0.1977
 4083SOL     OW23884   2.104   0.687   3.664  0.4355 -0.0805  0.3079
 4083SOL    HW123885   2.031   0.627   3.647  0.8411 -0.0772 -1.5080
 4083SOL    HW223886   2.095   0.712   3.756 -0.8575 -1.0931  0.4546
 4084SOL     OW23887   2.912   3.529  17.356  0.0161  0.1415 -0.5030
 4084SOL    HW123888   2.830   3.480  17.350 -0.2342  0.3688  1.0135
 4084SOL    HW223889   2.875   3.606  17.400 -1.6067 -1.6900  1.3026
 4085SOL     OW23890   0.048   4.608   5.092  0.6363 -0.4659 -0.3459
 4085SOL    HW123891   0.030   4.627   5.000 -2.5298  0.8980  0.5461
 4085SOL    HW223892   0.100   4.528   5.081  3.5121  1.1417  1.5082
 4086SOL     OW23893   4.275   0.549   9.591  0.0371  0.4551 -0.0328
 4086SOL    HW123894   4.303   0.458   9.601  2.0354  0.7929 -2.7151
 4086SOL    HW223895   4.309   0.585   9.674 -0.2710  1.0232 -0.1507
 4087SOL     OW23896   2.427   2.500  16.283  0.1093 -0.0577 -0.2871
 4087SOL    HW123897   2.359   2.564  16.305 -0.1500 -0.3623 -0.2014
 4087SOL    HW223898   2.491   2.562  16.249  1.2899 -0.4023  1.3220
 4088SOL     OW23899   3.294   0.815   3.161 -1.2090 -0.2663 -0.2094
 4088SOL    HW123900   3.389   0.809   3.173 -1.1555  0.4420 -0.3173
 4088SOL    HW223901   3.271   0.813   3.254 -2.6684  0.8391 -0.5395
 4089SOL     OW23902   3.277   4.456   8.000  0.2125  0.2478 -0.2982
 4089SOL    HW123903   3.252   4.501   8.081 -0.0764  0.3144 -0.4218
 4089SOL    HW223904   3.214   4.506   7.947 -0.5306 -1.7309 -1.2647
 4090SOL     OW23905   3.041   1.383   1.877 -0.2740  0.5892  0.3048
 4090SOL    HW123906   3.097   1.316   1.916 -0.3997 -0.2227 -0.8839
 4090SOL    HW223907   3.083   1.466   1.894  1.5755 -0.6899  1.9145
 4091SOL     OW23908   1.675   4.495  12.570 -0.4175 -0.2380 -0.3361
 4091SOL    HW123909   1.706   4.559  12.635  0.4567 -0.8576 -0.1461
 4091SOL    HW223910   1.750   4.481  12.512 -1.2740 -0.0293 -1.4998
 4092SOL     OW23911   2.740   3.035   5.761 -0.1980  0.0425 -0.1378
 4092SOL    HW123912   2.783   3.037   5.846 -1.6949 -0.2584  0.6308
 4092SOL    HW223913   2.731   2.942   5.743 -2.2071  0.5346 -1.6781
 4093SOL     OW23914   2.881   4.468   4.067  0.1515 -0.2145 -0.3535
 4093SOL    HW123915   2.972   4.465   4.037  0.5355 -2.5078  1.0105
 4093SOL    HW223916   2.868   4.374   4.054 -1.8150  0.1043 -0.7522
 4094SOL     OW23917   3.350   2.588   1.648  0.5612 -0.0256  0.0576
 4094SOL    HW123918   3.279   2.540   1.690 -1.4796  2.9864  0.0522
 4094SOL    HW223919   3.389   2.516   1.598  0.1006  0.8469 -1.5498
 4095SOL     OW23920   3.460   2.349   4.248 -0.1696  0.2960 -0.8849
 4095SOL    HW123921   3.382   2.356   4.193 -0.9451 -0.8223  0.0807
 4095SOL    HW223922   3.436   2.283   4.313  2.7257 -0.2236 -0.3129
 4096SOL     OW23923   1.541   4.108   8.298  1.2929 -0.0978 -0.0402
 4096SOL    HW123924   1.591   4.069   8.226  1.4291 -0.3618  0.1956
 4096SOL    HW223925   1.450   4.106   8.270  0.5412 -0.9308  2.4278
 4097SOL     OW23926   2.580   0.805   8.661 -0.5143 -0.8586  0.0073
 4097SOL    HW123927   2.638   0.761   8.723 -2.5840 -0.0037  2.5421
 4097SOL    HW223928   2.535   0.729   8.624 -2.5628 -0.3253  1.4334
 4098SOL     OW23929   2.871   3.906   2.706 -0.3772  0.3405 -0.2303
 4098SOL    HW123930   2.797   3.928   2.763  0.0756  0.9736  0.1067
 4098SOL    HW223931   2.881   3.812   2.720  0.0931  0.5505  0.8458
 4099SOL     OW23932   0.311   1.982   6.225  0.3083 -0.3566  0.2951
 4099SOL    HW123933   0.347   2.060   6.268 -0.0733 -0.2684  0.4504
 4099SOL    HW223934   0.228   1.973   6.271 -0.0468 -0.8600 -0.4497
 4100SOL     OW23935   3.341   1.331   3.952 -0.0602 -0.0501  0.7865
 4100SOL    HW123936   3.314   1.363   3.867  3.3519 -1.3003 -0.7549
 4100SOL    HW223937   3.290   1.390   4.008 -1.0280 -0.6852  0.5810
 4101SOL     OW23938   2.125   3.999   6.866  0.0352  0.1129  0.1763
 4101SOL    HW123939   2.168   4.013   6.781 -1.1235 -1.2045 -0.6416
 4101SOL    HW223940   2.202   4.032   6.913  1.1104  0.0499 -1.5156
 4102SOL     OW23941   4.720   2.835  10.885 -0.0846 -0.2160 -0.3310
 4102SOL    HW123942   4.712   2.826  10.790 -0.5872 -0.3293 -0.2806
 4102SOL    HW223943   0.080   2.837  10.897 -0.0307 -0.5561 -0.7062
 4103SOL     OW23944   2.209   2.274  14.572 -0.0431  0.1932 -0.2939
 4103SOL    HW123945   2.133   2.219  14.555 -0.6535  0.3895  1.7584
 4103SOL    HW223946   2.250   2.255  14.487  0.4976  0.1359 -0.0210
 4104SOL     OW23947   1.827   2.230  14.942 -0.0777  0.1506  0.6172
 4104SOL    HW123948   1.826   2.190  15.029  2.1228  0.0585  0.5903
 4104SOL    HW223949   1.743   2.277  14.939  1.1623  2.3346  0.4399
 4105SOL     OW23950   2.855   1.995   0.851  0.1250 -0.3624 -0.2463
 4105SOL    HW123951   2.926   1.932   0.857  2.5440  2.3726 -0.0811
 4105SOL    HW223952   2.850   2.007   0.946  1.2822 -4.5234  0.3258
 4106SOL     OW23953   1.150   0.281   2.417 -0.0530  0.3622 -0.3446
 4106SOL    HW123954   1.127   0.246   2.503 -1.6827 -0.0746 -0.9582
 4106SOL    HW223955   1.240   0.248   2.412 -0.0969  0.0180  1.1925
 4107SOL     OW23956   1.649   2.319  17.421  0.2089 -0.1838  0.0587
 4107SOL    HW123957   1.601   2.244  17.456  0.8440  0.2567  1.8739
 4107SOL    HW223958   1.576   2.374  17.395  1.4871  1.7164  0.5020
 4108SOL     OW23959   0.253   1.757   7.124 -0.1697 -0.1576  0.6428
 4108SOL    HW123960   0.302   1.837   7.104  0.9304 -0.3687  2.4745
 4108SOL    HW223961   0.177   1.794   7.170 -0.8972  0.2284 -0.8794
 4109SOL     OW23962   0.843   3.285   7.852 -0.0283  0.4316 -0.1728
 4109SOL    HW123963   0.867   3.201   7.814  2.4724  0.7267  0.7460
 4109SOL    HW223964   0.875   3.274   7.942  0.6828 -2.3886 -0.7794
 4110SOL     OW23965   3.838   2.169   6.090  0.5287 -0.1400  0.5462
 4110SOL    HW123966   3.815   2.077   6.080 -0.7241  0.0479  1.6833
 4110SOL    HW223967   3.764   2.204   6.041  0.7427 -1.8245 -0.9862
 4111SOL     OW23968   1.304   1.783   0.392 -0.2912  0.0057  0.1826
 4111SOL    HW123969   1.317   1.854   0.329  0.8401 -0.7601 -0.4633
 4111SOL    HW223970   1.211   1.761   0.396 -0.4148  0.3186 -1.0230
 4112SOL     OW23971   2.419   0.157   7.148  0.0924 -0.3467 -0.5628
 4112SOL    HW123972   2.476   0.095   7.102  1.7459  0.8264 -0.0843
 4112SOL    HW223973   2.481   0.207   7.200  0.7743 -1.3342 -0.4248
 4113SOL     OW23974   1.067   2.815   0.640 -0.2662  0.2224 -0.4033
 4113SOL    HW123975   0.988   2.840   0.688  0.4343 -0.0791  0.9036
 4113SOL    HW223976   1.054   2.850   0.552  1.1862 -2.4018 -1.6793
 4114SOL     OW23977   1.350   0.835   1.962  0.1203 -0.5315 -0.0572
 4114SOL    HW123978   1.441   0.845   1.989 -0.5079 -1.0209  2.2412
 4114SOL    HW223979   1.352   0.740   1.950 -0.9792 -0.9391  3.1786
 4115SOL     OW23980   0.538   2.508   0.025  0.0108 -0.0952 -0.1747
 4115SOL    HW123981   0.479   2.498   0.100  1.3628 -0.6586  0.8115
 4115SOL    HW223982   0.585   2.588   0.047 -1.3498  1.0074 -1.2944
 4116SOL     OW23983   3.977   0.680   3.993  0.0801  0.4633 -0.4522
 4116SOL    HW123984   4.019   0.596   4.011  2.1854  1.5985 -0.1317
 4116SOL    HW223985   4.047   0.722   3.943 -0.6078  3.6400  1.2186
 4117SOL     OW23986   4.581   2.983   1.414  0.0550  0.0258  0.0457
 4117SOL    HW123987   4.566   2.955   1.323  0.8644  0.6128 -0.2666
 4117SOL    HW223988   4.620   3.069   1.402  0.8463 -0.2538  0.6487
 4118SOL     OW23989   1.449   0.106  12.189  0.5839  0.3159  0.2324
 4118SOL    HW123990   1.504   0.184  12.193  2.3814 -1.0296  1.8901
 4118SOL    HW223991   1.362   0.141  12.208  0.6564 -0.2705  1.6351
 4119SOL     OW23992   2.185   2.849   4.413 -0.3652 -0.7090  0.0269
 4119SOL    HW123993   2.190   2.910   4.339 -0.9850  0.3623  0.8634
 4119SOL    HW223994   2.092   2.827   4.416  0.2883 -3.2237  1.0621
 4120SOL     OW23995   0.509   0.866   2.814 -0.0857 -0.0432 -0.7915
 4120SOL    HW123996   0.517   0.803   2.885 -1.9740 -1.3625 -1.7428
 4120SOL    HW223997   0.599   0.873   2.781  1.0998 -1.5414  2.1486
 4121SOL     OW23998   0.410   0.991   4.462  0.2562  0.3088 -0.0540
 4121SOL    HW123999   0.494   1.002   4.507 -0.0719 -0.2803  0.7030
 4121SOL    HW224000   0.389   1.078   4.428 -1.3710  0.2169  0.6917
 4122SOL     OW24001   3.411   0.547  10.923  0.2973 -0.1118 -0.3764
 4122SOL    HW124002   3.378   0.460  10.943 -0.6214  0.4775  0.6748
 4122SOL    HW224003   3.504   0.529  10.909  0.6659  0.3659  1.4380
 4123SOL     OW24004   0.410   4.023  16.814 -0.1149  0.0688  0.0732
 4123SOL    HW124005   0.373   4.111  16.809  0.5616  0.2863 -1.0217
 4123SOL    HW224006   0.496   4.052  16.843 -0.0658  1.3780 -1.4465
 4124SOL     OW24007   2.700   1.875  11.183 -0.3600  0.5033 -0.3806
 4124SOL    HW124008   2.643   1.897  11.257 -1.1794  2.9186 -1.7191
 4124SOL    HW224009   2.732   1.962  11.160 -2.9428  2.2152  2.4245
 4125SOL     OW24010   2.645   2.680   2.361 -0.0992  0.5826 -0.4613
 4125SOL    HW124011   2.554   2.681   2.331 -0.2166  0.3890 -0.1172
 4125SOL    HW224012   2.692   2.703   2.281 -0.7634  2.2930 -0.3570
 4126SOL     OW24013   3.460   0.057  11.910  0.0955  0.2266 -0.4560
 4126SOL    HW124014   3.410   0.069  11.991  0.1978 -1.7819 -0.0932
 4126SOL    HW224015   3.544   0.023  11.942  0.3510  1.9538  0.7121
 4127SOL     OW24016   0.511   0.843   0.197 -0.8967  0.2217  0.7594
 4127SOL    HW124017   0.587   0.865   0.252  1.6303 -0.7442 -2.3235
 4127SOL    HW224018   0.473   0.929   0.178  0.1568  0.1259 -1.6995
 4128SOL     OW24019   2.127   1.894   6.768 -0.0288 -0.1444 -0.1084
 4128SOL    HW124020   2.083   1.823   6.815 -0.1215 -1.5400 -2.3068
 4128SOL    HW224021   2.161   1.837   6.700  1.7236 -1.1247  1.5966
 4129SOL     OW24022   3.344   2.579   6.173 -0.2220  0.0737  0.8045
 4129SOL    HW124023   3.319   2.584   6.081 -1.8911 -0.9095  1.1855
 4129SOL    HW224024   3.436   2.553   6.165 -0.0605  0.7608  0.4781
 4130SOL     OW24025   3.802   2.129  16.679 -0.1786 -0.2421  0.0479
 4130SOL    HW124026   3.785   2.121  16.773  4.4378  2.1470  1.1031
 4130SOL    HW224027   3.711   2.136  16.651  0.2065  0.0693 -1.1196
 4131SOL     OW24028   4.383   1.766   3.068  0.4831 -0.5507 -0.4138
 4131SOL    HW124029   4.356   1.820   2.994 -1.5413  0.4555  1.0481
 4131SOL    HW224030   4.400   1.684   3.023 -0.4466 -0.9689 -0.0090
 4132SOL     OW24031   3.187   4.567  11.205  0.3751  0.1090  0.0237
 4132SOL    HW124032   3.278   4.542  11.225  0.9028  0.5103 -1.9395
 4132SOL    HW224033   3.203   4.608  11.120 -0.8353  0.5510  0.0088
 4133SOL     OW24034   0.385   4.093  12.782  0.0581 -0.0566  0.3571
 4133SOL    HW124035   0.446   4.164  12.801 -3.8731  2.6461  2.8587
 4133SOL    HW224036   0.353   4.078  12.871  1.0119  1.4248  0.9537
 4134SOL     OW24037   0.429   2.757   6.876 -0.0078  0.0527 -0.5829
 4134SOL    HW124038   0.354   2.805   6.840  1.2263  2.4753  0.1621
 4134SOL    HW224039   0.412   2.759   6.970  2.0831  1.0078 -0.2247
 4135SOL     OW24040   0.251   3.240   2.800  0.3570  0.1528 -0.2032
 4135SOL    HW124041   0.273   3.152   2.769  2.4104  1.1143 -1.4898
 4135SOL    HW224042   0.328   3.264   2.851  1.0508 -1.1649 -0.6205
 4136SOL     OW24043   2.443   4.174   4.392 -0.5660 -0.3750  0.1552
 4136SOL    HW124044   2.462   4.254   4.342  0.3964 -1.5418 -1.3417
 4136SOL    HW224045   2.407   4.226   4.463 -0.9481 -0.6549  0.1660
 4137SOL     OW24046   4.491   0.679  13.831 -0.9173  0.1761  0.3583
 4137SOL    HW124047   4.519   0.771  13.831 -1.3323  0.3096 -2.4136
 4137SOL    HW224048   4.418   0.687  13.892  0.5174 -3.9906  2.5936
 4138SOL     OW24049   2.344   1.697  12.551 -0.2049  0.3462  0.2279
 4138SOL    HW124050   2.381   1.749  12.479 -2.6021  2.8939  0.8675
 4138SOL    HW224051   2.413   1.636  12.577 -0.6463 -1.0202 -1.7672
 4139SOL     OW24052   4.649   0.451  11.267 -0.6016 -0.5681 -0.2225
 4139SOL    HW124053   4.629   0.397  11.343  0.3850 -1.5347 -0.6374
 4139SOL    HW224054   4.665   0.531  11.317  0.1284 -0.5448 -0.4875
 4140SOL     OW24055   3.771   3.042  12.831 -0.7682  0.0894 -0.8835
 4140SOL    HW124056   3.754   3.136  12.824  0.1915  0.3074 -0.3477
 4140SOL    HW224057   3.686   3.000  12.821 -1.1066  0.7459 -0.7455
 4141SOL     OW24058   2.620   0.996   5.558 -0.0515 -0.6724  0.3304
 4141SOL    HW124059   2.710   1.028   5.566 -0.2059 -0.2551  0.4093
 4141SOL    HW224060   2.608   0.968   5.467  0.3835 -1.0156  0.3732
 4142SOL     OW24061   4.166   0.182   2.550  0.2645  0.2966 -0.1090
 4142SOL    HW124062   4.208   0.139   2.625 -0.1068  0.7746  0.3664
 4142SOL    HW224063   4.174   0.272   2.581 -4.3793  0.6617 -0.0332
 4143SOL     OW24064   1.056   2.730   6.598  0.4961 -0.0765 -0.6564
 4143SOL    HW124065   1.044   2.825   6.588 -0.8917 -0.4479 -2.2501
 4143SOL    HW224066   1.020   2.726   6.687  1.5807  0.2035 -0.2018
 4144SOL     OW24067   3.273   1.555   6.592 -0.6414  0.2555 -0.1410
 4144SOL    HW124068   3.330   1.518   6.524  0.8296  3.3696 -0.6033
 4144SOL    HW224069   3.279   1.650   6.583 -1.1408  0.5152  2.2741
 4145SOL     OW24070   4.003   0.128   6.241  0.1823  0.4263  0.7113
 4145SOL    HW124071   4.078   0.069   6.246  1.0961  1.3659 -1.8199
 4145SOL    HW224072   3.941   0.080   6.186  0.8545  1.3112 -0.8054
 4146SOL     OW24073   0.055   2.234   0.056  0.3659 -0.3944 -0.2727
 4146SOL    HW124074   0.141   2.251   0.017  1.7274 -1.7595  2.1136
 4146SOL    HW224075   0.074   2.250   0.148 -2.0097 -0.5159  0.2371
 4147SOL     OW24076   2.677   2.981   2.668  0.0067  0.5176  0.4274
 4147SOL    HW124077   2.771   2.998   2.675 -0.1096  0.4965  1.8576
 4147SOL    HW224078   2.643   3.033   2.739  0.3798  0.2555  0.7998
 4148SOL     OW24079   4.396   2.648   6.551 -0.2985  0.0607  0.9321
 4148SOL    HW124080   4.404   2.593   6.474  1.8451  0.8553  0.5799
 4148SOL    HW224081   4.462   2.619   6.614  0.3874  0.2628  0.3022
 4149SOL     OW24082   0.531   2.928   4.687 -0.3676 -0.7781 -0.0307
 4149SOL    HW124083   0.527   2.933   4.592 -2.6062  0.2514  0.0956
 4149SOL    HW224084   0.520   3.021   4.708  0.7123 -0.6575 -0.0427
 4150SOL     OW24085   4.703   4.471   6.517 -0.1660  0.0759 -0.2085
 4150SOL    HW124086   0.050   4.497   6.561  0.4773  2.0867 -2.5832
 4150SOL    HW224087   4.643   4.491   6.589  1.3813  0.0811  1.0944
 4151SOL     OW24088   2.321   1.937   7.553  0.6673  0.0739  0.0013
 4151SOL    HW124089   2.233   1.941   7.591  0.9463  0.5562  0.5961
 4151SOL    HW224090   2.312   2.004   7.485  2.0390 -0.8231 -1.0586
 4152SOL     OW24091   0.346   3.630  12.862  0.0569  0.1625  0.1688
 4152SOL    HW124092   0.417   3.567  12.854  0.5969  0.8836 -0.7597
 4152SOL    HW224093   0.388   3.706  12.822  1.5608 -0.5533  0.3968
 4153SOL     OW24094   0.421   1.010  15.270 -0.0933  0.3307 -0.9886
 4153SOL    HW124095   0.476   1.026  15.193  0.4953  2.2860 -0.1748
 4153SOL    HW224096   0.474   0.945  15.315  0.0354  0.6512 -0.6824
 4154SOL     OW24097   0.128   1.065   3.218 -0.7339  0.5002  0.2294
 4154SOL    HW124098   0.195   1.095   3.279  1.1857 -0.2700 -1.5102
 4154SOL    HW224099   0.181   1.038   3.143 -2.0504 -1.1903 -0.0951
 4155SOL     OW24100   4.256   2.308   3.446  0.0604  0.2084  0.5193
 4155SOL    HW124101   4.258   2.396   3.485  0.7137  0.4030  0.0458
 4155SOL    HW224102   4.241   2.250   3.521  1.3716  1.0236  1.4085
 4156SOL     OW24103   3.973   0.299  14.458 -0.3381 -0.0419 -0.3442
 4156SOL    HW124104   3.982   0.351  14.378  2.0285  0.3345  0.1727
 4156SOL    HW224105   4.042   0.341  14.509 -1.7182  2.3619 -0.4456
 4157SOL     OW24106   4.129   4.624   6.934  0.2012 -0.1118 -0.2108
 4157SOL    HW124107   4.100   4.710   6.904 -1.6878 -0.6927 -0.0494
 4157SOL    HW224108   4.218   4.623   6.899  0.4370 -3.0360  0.4878
 4158SOL     OW24109   4.374   0.417   7.032  0.0097  0.4513  0.3320
 4158SOL    HW124110   4.318   0.437   6.957 -0.9603  2.0532  1.4839
 4158SOL    HW224111   4.320   0.453   7.102  0.6735 -2.2263  2.2336
 4159SOL     OW24112   0.560   4.251  16.468  0.1777 -0.1554 -0.3622
 4159SOL    HW124113   0.609   4.238  16.387 -0.3537 -1.4221 -0.4862
 4159SOL    HW224114   0.519   4.166  16.482 -0.0760  0.1575  0.7918
 4160SOL     OW24115   4.531   1.693   4.070  0.9610 -0.4356  0.5000
 4160SOL    HW124116   4.515   1.651   3.985  1.1285  2.5974 -1.0317
 4160SOL    HW224117   4.448   1.680   4.116  0.2785  0.7105 -0.4077
 4161SOL     OW24118   3.827   4.280   4.914 -0.4435  0.2691 -0.0669
 4161SOL    HW124119   3.868   4.352   4.962 -1.6981  0.4317  0.7684
 4161SOL    HW224120   3.814   4.220   4.988  0.1041 -1.1305 -1.1070
 4162SOL     OW24121   0.060   0.211   1.205 -0.7033  0.0295 -1.0438
 4162SOL    HW124122   0.138   0.186   1.254 -1.3812 -2.5936 -1.3531
 4162SOL    HW224123   0.095   0.273   1.142  1.0032 -0.5411 -0.6397
 4163SOL     OW24124   0.762   1.024   8.969 -0.1320  0.4791  0.2111
 4163SOL    HW124125   0.829   1.007   9.036  1.6722 -0.7960 -1.9337
 4163SOL    HW224126   0.724   0.936   8.964  0.8632 -0.0065  1.0059
 4164SOL     OW24127   1.364   1.718   6.389 -0.2628 -0.8272 -0.2095
 4164SOL    HW124128   1.293   1.676   6.439  0.4849 -0.5948  1.0530
 4164SOL    HW224129   1.366   1.804   6.431  1.8101 -1.0560  0.1160
 4165SOL     OW24130   2.083   2.838   2.231 -0.0472 -0.8993  0.0942
 4165SOL    HW124131   2.126   2.918   2.262  0.4438 -2.3904  3.2157
 4165SOL    HW224132   2.044   2.803   2.311  1.8063 -1.3117  0.8165
 4166SOL     OW24133   3.516   1.672   1.805 -0.6713 -0.1524 -0.2178
 4166SOL    HW124134   3.526   1.735   1.876  1.8777 -0.3510 -0.4013
 4166SOL    HW224135   3.605   1.638   1.797 -1.9434 -2.8699 -2.8408
 4167SOL     OW24136   1.262   0.753   3.298  0.2612 -0.8773 -0.2407
 4167SOL    HW124137   1.305   0.835   3.274 -0.0292  0.2332  3.0429
 4167SOL    HW224138   1.309   0.690   3.243 -0.2255  0.5723 -2.3376
 4168SOL     OW24139   1.218   1.900   2.969  0.3674  0.5419  0.6119
 4168SOL    HW124140   1.269   1.862   3.041 -1.0572  1.0107  1.8844
 4168SOL    HW224141   1.169   1.968   3.016 -0.8821 -0.9985  1.5572
 4169SOL     OW24142   4.051   0.250   7.986  0.2997 -0.3878  0.2781
 4169SOL    HW124143   4.085   0.221   8.071  0.7285  0.7426  0.4818
 4169SOL    HW224144   4.123   0.281   7.931 -0.1451 -0.9365 -0.6162
 4170SOL     OW24145   2.174   1.100   4.328 -0.1060  0.4418  0.4534
 4170SOL    HW124146   2.184   1.182   4.376  4.1450  1.4737 -2.1687
 4170SOL    HW224147   2.086   1.112   4.294 -0.3245  1.7485  1.4769
 4171SOL     OW24148   1.896   3.066  10.954 -0.0017  0.1865 -0.6700
 4171SOL    HW124149   1.829   3.017  11.002  0.0543  0.7831  0.0193
 4171SOL    HW224150   1.841   3.096  10.881  0.2055 -0.9901 -1.3033
 4172SOL     OW24151   2.942   2.645   8.155 -0.2322 -0.2050  0.4479
 4172SOL    HW124152   2.972   2.555   8.172  1.1039 -0.1709 -1.7443
 4172SOL    HW224153   2.855   2.637   8.117  0.3768  0.0103 -0.9684
 4173SOL     OW24154   3.959   0.429   7.746 -0.3784  0.1933 -0.1033
 4173SOL    HW124155   3.942   0.498   7.683  0.4661  0.0902 -0.4496
 4173SOL    HW224156   3.885   0.370   7.739 -0.6822  0.5007  0.5034
 4174SOL     OW24157   0.242   0.242   5.415  0.0036  0.0098 -0.1627
 4174SOL    HW124158   0.162   0.212   5.458 -0.4275  0.2966 -0.7707
 4174SOL    HW224159   0.241   0.193   5.333  0.3838 -0.4627  0.1095
 4175SOL     OW24160   2.577   1.010   2.809  0.3301 -0.0469  0.0264
 4175SOL    HW124161   2.640   0.939   2.794 -0.1185 -0.1284 -1.4237
 4175SOL    HW224162   2.628   1.067   2.752  0.1746 -0.2336 -0.2962
 4176SOL     OW24163   1.179   2.303  14.281  0.3827 -0.7050 -0.0733
 4176SOL    HW124164   1.221   2.254  14.351  3.7971  0.3373 -1.3781
 4176SOL    HW224165   1.145   2.227  14.233 -0.1362  0.5574 -1.7008
 4177SOL     OW24166   4.486   3.636   8.103  0.1335 -0.0714 -0.4984
 4177SOL    HW124167   4.489   3.552   8.149 -1.7642  1.1500  1.8356
 4177SOL    HW224168   4.412   3.681   8.144  0.7711 -0.5114  1.0976
 4178SOL     OW24169   0.975   4.489   2.728 -0.3689 -0.1276 -0.1205
 4178SOL    HW124170   0.935   4.576   2.722  2.1325  0.8419 -2.5085
 4178SOL    HW224171   0.905   4.441   2.772  0.4557 -2.0231 -0.8364
 4179SOL     OW24172   1.668   1.130  15.334 -0.1501  0.2229 -0.2722
 4179SOL    HW124173   1.693   1.207  15.284  0.6024  0.4785  0.4899
 4179SOL    HW224174   1.679   1.169  15.421  0.5633  1.6668 -1.0104
 4180SOL     OW24175   1.656   1.889   5.156  0.2771  0.5010 -0.1733
 4180SOL    HW124176   1.719   1.924   5.093  0.8088 -1.7752 -0.9086
 4180SOL    HW224177   1.578   1.929   5.118  0.9809  0.7365 -1.3535
 4181SOL     OW24178   0.073   2.490   2.604  0.5093 -0.2843 -0.3226
 4181SOL    HW124179   0.127   2.529   2.535  0.5098 -0.1977 -0.2742
 4181SOL    HW224180   4.721   2.516   2.576 -0.0203 -0.1063  1.4581
 4182SOL     OW24181   4.484   4.010   7.013 -0.3102 -0.1049 -0.4823
 4182SOL    HW124182   4.553   3.999   6.948 -0.2760 -1.4768 -0.1965
 4182SOL    HW224183   4.511   4.091   7.056 -0.1812  0.3201 -1.3572
 4183SOL     OW24184   0.844   4.370   6.449  0.7544 -0.0644 -0.0069
 4183SOL    HW124185   0.759   4.363   6.406  0.5982 -1.8138  0.5904
 4183SOL    HW224186   0.897   4.401   6.376 -0.3025 -2.5980 -1.8715
 4184SOL     OW24187   1.460   3.931  14.909  0.0028 -0.0784 -0.7949
 4184SOL    HW124188   1.422   3.848  14.880 -0.1733 -0.1508 -0.3522
 4184SOL    HW224189   1.449   3.973  14.824  0.8616  0.0823 -0.8207
 4185SOL     OW24190   0.872   4.305   0.711  0.0701 -0.3082 -0.3299
 4185SOL    HW124191   0.962   4.313   0.745 -0.6041  0.6802  1.2053
 4185SOL    HW224192   0.829   4.385   0.741 -2.3526 -1.5612 -0.5118
 4186SOL     OW24193   4.430   2.395  12.917  0.1708  0.0577  0.2331
 4186SOL    HW124194   4.504   2.438  12.960  0.2310  0.3736 -0.1802
 4186SOL    HW224195   4.428   2.319  12.974  1.2548 -0.3155 -0.2197
 4187SOL     OW24196   2.411   0.781   5.557  0.2146  0.4551  0.7384
 4187SOL    HW124197   2.494   0.828   5.564 -0.2537  1.6782 -1.9072
 4187SOL    HW224198   2.345   0.845   5.584  0.4828  1.0747 -0.0645
 4188SOL     OW24199   2.696   1.043  13.125 -0.0447  0.2691  0.5314
 4188SOL    HW124200   2.743   1.094  13.191  3.1330  1.3569 -2.5953
 4188SOL    HW224201   2.619   1.017  13.175  0.8937  0.6718  2.1858
 4189SOL     OW24202   4.323   4.523  14.026  0.6909  0.2697  0.3845
 4189SOL    HW124203   4.312   4.429  14.035  0.6273  0.3137  0.7920
 4189SOL    HW224204   4.366   4.527  13.941  0.5465 -0.3643  0.2828
 4190SOL     OW24205   3.221   2.129   8.176  0.2068  0.0592  0.1691
 4190SOL    HW124206   3.222   2.219   8.210 -2.6808  0.1067  0.1342
 4190SOL    HW224207   3.286   2.082   8.228 -0.1396  0.4493  0.9603
 4191SOL     OW24208   3.528   0.090   3.485  0.0764  0.1493  0.2074
 4191SOL    HW124209   3.529   0.075   3.391 -1.7128 -0.6738  0.3193
 4191SOL    HW224210   3.611   0.134   3.502  0.6887 -1.1317  0.5169
 4192SOL     OW24211   2.808   3.315  10.610 -0.2013  0.2013  0.2195
 4192SOL    HW124212   2.721   3.339  10.642 -0.3280  0.0531 -0.0091
 4192SOL    HW224213   2.839   3.397  10.571  2.0795 -1.6194 -1.7848
 4193SOL     OW24214   3.370   1.721  15.074 -0.0847  0.5682 -0.2834
 4193SOL    HW124215   3.400   1.791  15.016  0.2653 -0.0410 -0.8360
 4193SOL    HW224216   3.344   1.767  15.154  0.3975 -1.0162  0.7770
 4194SOL     OW24217   4.383   4.491   4.368  0.8942  0.0973 -0.0185
 4194SOL    HW124218   4.371   4.451   4.282  0.0364  1.1671 -0.3825
 4194SOL    HW224219   4.332   4.431   4.422  0.2293  2.4917  1.9903
 4195SOL     OW24220   0.856   0.981   8.538 -0.1278 -0.2552 -0.4387
 4195SOL    HW124221   0.843   1.075   8.552  0.3760 -0.3678  0.7473
 4195SOL    HW224222   0.772   0.946   8.566  0.4977 -1.5125 -0.1245
 4196SOL     OW24223   0.767   0.193   6.459 -0.3281 -0.2395 -0.2806
 4196SOL    HW124224   0.734   0.279   6.483  0.6817  0.7375 -2.4220
 4196SOL    HW224225   0.862   0.194   6.465 -0.4236  2.9542  0.6724
 4197SOL     OW24226   1.690   2.850  10.440 -0.1167  0.0343 -0.0003
 4197SOL    HW124227   1.714   2.870  10.530  0.0210  0.6087 -0.1607
 4197SOL    HW224228   1.595   2.865  10.445  0.0234  0.8572  0.2043
 4198SOL     OW24229   2.518   3.870   5.443  0.0717 -0.3067  0.5259
 4198SOL    HW124230   2.607   3.834   5.450  1.4540  2.5964 -1.6619
 4198SOL    HW224231   2.499   3.866   5.349  1.0985  0.6828  0.2749
 4199SOL     OW24232   2.904   2.374  16.809 -0.6278 -0.1709 -0.4925
 4199SOL    HW124233   2.865   2.460  16.789 -0.0591  0.4031  0.9227
 4199SOL    HW224234   2.829   2.315  16.802  0.1856 -1.5110  2.2056
 4200SOL     OW24235   0.612   0.894   5.262 -0.1469 -0.4214  0.2675
 4200SOL    HW124236   0.705   0.873   5.259  0.1977  1.0798  0.1378
 4200SOL    HW224237   0.606   0.942   5.345 -0.8064  0.1445 -0.1074
 4201SOL     OW24238   1.464   2.653  10.906  0.5337  0.0987  0.3764
 4201SOL    HW124239   1.438   2.745  10.906  1.2958  0.3072 -2.8201
 4201SOL    HW224240   1.499   2.655  10.995 -0.3549 -1.2001  0.7601
 4202SOL     OW24241   0.849   1.851   5.318 -0.3720 -0.1993 -0.0109
 4202SOL    HW124242   0.799   1.927   5.288  2.4699  1.3444 -0.8419
 4202SOL    HW224243   0.795   1.823   5.392  0.1248  1.9494  1.1893
 4203SOL     OW24244   1.277   3.685  15.964  0.2311 -0.2144  0.1031
 4203SOL    HW124245   1.240   3.649  16.045  0.4043 -0.2027  0.1887
 4203SOL    HW224246   1.229   3.646  15.891  3.7024 -1.5746 -1.4928
 4204SOL     OW24247   2.422   1.661   6.658 -0.0416  0.1959 -0.5976
 4204SOL    HW124248   2.452   1.692   6.743 -0.8134  1.8604 -0.9120
 4204SOL    HW224249   2.497   1.668   6.600 -0.6719  1.1240 -1.3088
 4205SOL     OW24250   3.039   1.795   3.389  0.0775  0.0117 -0.5044
 4205SOL    HW124251   3.084   1.879   3.398  3.0554 -1.7172  0.6813
 4205SOL    HW224252   2.977   1.820   3.320 -2.2002  1.7511  2.1666
 4206SOL     OW24253   4.533   3.518  13.224 -0.0795 -0.1210 -0.3342
 4206SOL    HW124254   4.621   3.553  13.234  0.2324 -0.7097 -0.9714
 4206SOL    HW224255   4.546   3.447  13.287  0.0009  0.7258  0.5991
 4207SOL     OW24256   2.200   4.282  13.101 -0.7027  0.2446 -0.0707
 4207SOL    HW124257   2.117   4.276  13.053  0.0763 -4.2075 -0.9110
 4207SOL    HW224258   2.197   4.375  13.122 -0.6903  0.5419 -1.3689
 4208SOL     OW24259   3.756   4.231  10.376 -0.6092  0.2490 -0.4026
 4208SOL    HW124260   3.791   4.319  10.359 -2.1999  0.8635 -0.4750
 4208SOL    HW224261   3.669   4.252  10.409 -0.5803 -0.6112  0.1970
 4209SOL     OW24262   3.457   2.430  16.539  0.3179 -1.1034  0.0770
 4209SOL    HW124263   3.484   2.488  16.468  2.1183  0.7479  2.2718
 4209SOL    HW224264   3.404   2.371  16.485 -1.8426  2.2741 -1.5015
 4210SOL     OW24265   1.541   1.362   3.398  0.3264 -0.5883  0.7943
 4210SOL    HW124266   1.628   1.378   3.433 -0.1248  0.2572  1.5503
 4210SOL    HW224267   1.555   1.343   3.305 -1.7096  0.2416  0.3113
 4211SOL     OW24268   3.295   2.693   8.960  0.2251 -0.0130  0.3571
 4211SOL    HW124269   3.213   2.648   8.981  0.3429 -0.0452  0.7480
 4211SOL    HW224270   3.367   2.644   9.000 -0.5408 -1.1202  0.3764
 4212SOL     OW24271   3.002   0.847   6.895  0.6629  0.8295 -0.4870
 4212SOL    HW124272   2.946   0.831   6.818  1.3658  2.8512 -1.4263
 4212SOL    HW224273   2.942   0.904   6.944  0.3672  0.7246 -0.7245
 4213SOL     OW24274   2.789   3.924  10.502 -0.1968  0.5258  0.1741
 4213SOL    HW124275   2.829   4.004  10.535  0.5056  0.0800  0.4190
 4213SOL    HW224276   2.848   3.854  10.532 -0.0007  0.3235 -0.6679
 4214SOL     OW24277   1.813   2.759  13.941  0.0284 -0.3343 -0.2766
 4214SOL    HW124278   1.732   2.766  13.890 -1.1105  0.0311  1.5816
 4214SOL    HW224279   1.876   2.799  13.882 -0.2645 -0.3594 -0.6077
 4215SOL     OW24280   1.464   2.408   1.591  0.0992 -0.5368 -0.1560
 4215SOL    HW124281   1.440   2.415   1.499  1.9570 -1.1320 -0.6782
 4215SOL    HW224282   1.422   2.490   1.617 -0.6039 -1.4725  1.6563
 4216SOL     OW24283   1.446   1.087   0.563 -0.4353 -0.0062 -0.9768
 4216SOL    HW124284   1.521   1.045   0.605 -0.9628  2.3869  2.3615
 4216SOL    HW224285   1.371   1.049   0.609 -1.7324  1.7778 -1.5747
 4217SOL     OW24286   4.528   1.860   3.618 -0.3697 -0.0480  0.4715
 4217SOL    HW124287   4.540   1.949   3.653 -0.0744  0.9374 -2.1350
 4217SOL    HW224288   4.449   1.871   3.564 -0.3367 -1.9314  0.0405
 4218SOL     OW24289   1.873   3.757   2.270 -0.1568 -0.7090  0.0451
 4218SOL    HW124290   1.935   3.746   2.342  0.2681  1.1791 -0.0110
 4218SOL    HW224291   1.791   3.744   2.318 -0.3037 -2.1695 -0.6215
 4219SOL     OW24292   4.361   2.902   6.818  0.1538  0.0617  0.1272
 4219SOL    HW124293   4.337   2.853   6.897 -0.8139  0.3438  0.0109
 4219SOL    HW224294   4.388   2.988   6.850  0.7853 -0.5021  1.1241
 4220SOL     OW24295   1.748   3.447   4.749  0.2122 -0.5338  0.1489
 4220SOL    HW124296   1.748   3.484   4.838  0.4307  0.9227 -0.4575
 4220SOL    HW224297   1.710   3.521   4.702 -2.4483 -0.9536  1.6298
 4221SOL     OW24298   0.304   1.723   7.644  0.3240 -0.2235  0.0802
 4221SOL    HW124299   0.233   1.745   7.583 -1.3127 -0.9254  1.7137
 4221SOL    HW224300   0.372   1.787   7.626 -0.5348  0.8390  0.6205
 4222SOL     OW24301   3.013   3.127   3.569 -0.0867 -0.0555 -0.2418
 4222SOL    HW124302   3.108   3.130   3.584 -0.2574  0.6082  0.7428
 4222SOL    HW224303   2.981   3.116   3.659  0.5040 -0.4165 -0.0716
 4223SOL     OW24304   4.329   2.454   7.379  0.3932  0.0519  0.0020
 4223SOL    HW124305   4.234   2.451   7.378  0.3910 -0.1560  0.6992
 4223SOL    HW224306   4.338   2.528   7.318 -0.3055 -0.7564 -1.0762
 4224SOL     OW24307   3.491   4.307   7.905  0.0422 -0.4811 -0.5815
 4224SOL    HW124308   3.427   4.360   7.954  0.0251 -0.3787 -0.7146
 4224SOL    HW224309   3.456   4.220   7.923 -0.4733 -0.2106 -0.2537
 4225SOL     OW24310   1.054   0.651   8.685  0.4514 -0.3270  0.5343
 4225SOL    HW124311   1.033   0.721   8.746 -2.0689 -0.0140 -0.6627
 4225SOL    HW224312   0.985   0.591   8.712 -0.9142  0.2358 -1.6662
 4226SOL     OW24313   1.133   4.173   5.895  0.0945  0.7360 -0.0503
 4226SOL    HW124314   1.060   4.156   5.955  1.0072  1.2359  1.1984
 4226SOL    HW224315   1.149   4.087   5.855 -0.4948  0.3199  0.6117
 4227SOL     OW24316   1.891   3.635   7.113  0.1305 -0.0738 -0.2409
 4227SOL    HW124317   1.965   3.668   7.062 -0.3112  0.7756 -0.3257
 4227SOL    HW224318   1.857   3.713   7.155 -1.9375 -0.0935 -1.8951
 4228SOL     OW24319   0.314   1.045   5.386 -0.2894  0.0792  0.2325
 4228SOL    HW124320   0.267   0.962   5.388  0.2020 -0.2972 -3.6151
 4228SOL    HW224321   0.403   1.029   5.416 -0.4254  1.8522  1.5830
 4229SOL     OW24322   1.124   4.012  13.762 -0.2517 -0.5429 -0.0989
 4229SOL    HW124323   1.057   4.074  13.734 -0.8610 -1.7869 -1.3701
 4229SOL    HW224324   1.127   4.018  13.858  1.1035 -0.0227 -0.1681
 4230SOL     OW24325   3.720   3.449   5.618 -0.2032  0.5151 -0.0740
 4230SOL    HW124326   3.714   3.542   5.596  1.3438  1.3794  3.3013
 4230SOL    HW224327   3.805   3.444   5.660 -0.3356 -0.2854  0.1030
 4231SOL     OW24328   4.018   1.482   6.269 -0.2074  0.2000  0.2839
 4231SOL    HW124329   4.053   1.518   6.188  0.5450 -2.7456 -0.6648
 4231SOL    HW224330   3.974   1.558   6.308  0.9428  0.6202  0.7931
 4232SOL     OW24331   4.323   3.578   4.580  0.0830 -0.0208 -0.0619
 4232SOL    HW124332   4.353   3.581   4.671 -0.1156 -0.2369  0.0114
 4232SOL    HW224333   4.367   3.497   4.552  2.2317  0.1257  2.8337
 4233SOL     OW24334   2.983   2.315   1.973 -0.0580  0.1452  0.0779
 4233SOL    HW124335   3.042   2.247   1.941  0.1269  0.3014  0.0804
 4233SOL    HW224336   2.950   2.270   2.051 -0.1202  0.7366  0.3940
 4234SOL     OW24337   0.859   4.146   8.647 -0.7201  0.1048 -0.1325
 4234SOL    HW124338   0.794   4.205   8.610 -0.7035 -0.2643 -0.7602
 4234SOL    HW224339   0.808   4.068   8.670 -1.1579  0.7722  1.1484
 4235SOL     OW24340   2.388   3.709  12.478 -0.2734 -0.4797  0.1982
 4235SOL    HW124341   2.429   3.722  12.563  0.2215  2.5974 -0.4796
 4235SOL    HW224342   2.298   3.727  12.507 -0.0051  2.2918 -0.6468
 4236SOL     OW24343   0.221   3.281   5.121 -0.2211 -0.3075 -0.6189
 4236SOL    HW124344   0.211   3.353   5.059 -0.8628 -0.1186 -0.2951
 4236SOL    HW224345   0.166   3.305   5.196  0.9952 -1.0321  0.5018
 4237SOL     OW24346   0.662   0.329   8.717 -0.6159 -0.3520 -0.1034
 4237SOL    HW124347   0.608   0.317   8.795 -0.0549  1.2166  0.5282
 4237SOL    HW224348   0.662   0.242   8.677  0.0787 -0.3442 -0.1191
 4238SOL     OW24349   1.765   2.034   1.676  0.2828 -0.5464  0.3880
 4238SOL    HW124350   1.845   2.055   1.723  0.4357 -0.8982  0.2879
 4238SOL    HW224351   1.710   2.013   1.752 -2.4484 -1.7895 -1.9039
 4239SOL     OW24352   1.993   0.852  11.134  0.2633 -0.6275 -0.1851
 4239SOL    HW124353   1.970   0.775  11.186 -0.4769  0.5339  1.2236
 4239SOL    HW224354   1.987   0.922  11.199 -2.4136 -2.0197  1.0750
 4240SOL     OW24355   1.425   2.720   1.069 -0.4607 -0.1600 -0.2735
 4240SOL    HW124356   1.438   2.714   0.974 -0.6583  2.2080 -0.4429
 4240SOL    HW224357   1.501   2.766   1.105  0.7114 -1.9475 -0.4391
 4241SOL     OW24358   4.093   2.401   3.799 -0.1103 -0.3104  0.2293
 4241SOL    HW124359   4.159   2.399   3.867 -1.5589 -0.7288  1.6319
 4241SOL    HW224360   4.066   2.493   3.805 -0.2070 -0.2718 -0.6977
 4242SOL     OW24361   0.228   3.292  10.189  0.4455  0.1445  0.1610
 4242SOL    HW124362   0.281   3.257  10.261  2.2597  2.0546 -0.2855
 4242SOL    HW224363   0.178   3.212  10.172 -3.3122  2.3672  0.6951
 4243SOL     OW24364   3.024   4.717   8.682  0.1066 -0.1203 -0.5680
 4243SOL    HW124365   3.027   4.679   8.770 -0.3033 -1.1742 -1.0061
 4243SOL    HW224366   2.943   4.674   8.653  1.4088 -1.6811 -1.9025
 4244SOL     OW24367   3.804   3.003  16.976  0.2144 -0.3175 -0.5162
 4244SOL    HW124368   3.894   2.970  16.974  0.7848  1.2176 -0.1538
 4244SOL    HW224369   3.789   3.004  17.070  0.8775  0.1676 -0.4139
 4245SOL     OW24370   4.135   2.464   4.165  0.3078 -0.4442  0.5344
 4245SOL    HW124371   4.095   2.379   4.184 -0.6950  0.1958  1.3017
 4245SOL    HW224372   4.085   2.477   4.084  1.6986  0.8018 -0.1069
 4246SOL     OW24373   3.628   2.967   3.135 -0.5898  0.3317 -0.1394
 4246SOL    HW124374   3.638   2.966   3.040  0.6218  1.4364 -0.0125
 4246SOL    HW224375   3.710   2.921   3.152 -0.3478  0.2752 -1.4147
 4247SOL     OW24376   4.027   3.427  17.041  0.4600  0.0090 -0.5717
 4247SOL    HW124377   4.062   3.515  17.056  1.9325 -0.6193 -0.3238
 4247SOL    HW224378   4.020   3.397  17.132  2.0272 -0.1515 -0.5049
 4248SOL     OW24379   1.411   0.495   2.395 -0.3054 -0.2059  0.4907
 4248SOL    HW124380   1.451   0.419   2.352 -0.5031 -0.3720  0.6003
 4248SOL    HW224381   1.356   0.539   2.331  0.4276 -1.6699 -1.1560
 4249SOL     OW24382   2.719   3.790   3.727  0.1339  0.4605  0.2799
 4249SOL    HW124383   2.768   3.787   3.645 -0.0821 -2.5210  0.2433
 4249SOL    HW224384   2.702   3.696   3.741 -0.9558  0.4216 -1.3255
 4250SOL     OW24385   3.363   4.425   2.341  0.4495  0.0324 -0.1311
 4250SOL    HW124386   3.370   4.329   2.341  0.3311  0.0256  0.6773
 4250SOL    HW224387   3.361   4.456   2.431  0.4680 -0.5113  0.0578
 4251SOL     OW24388   0.881   0.258   7.204 -0.4102  0.4234  1.1512
 4251SOL    HW124389   0.820   0.264   7.278 -0.7411 -0.1481  0.9236
 4251SOL    HW224390   0.827   0.253   7.125  1.2773  1.4288 -0.0450
 4252SOL     OW24391   4.091   0.953   3.548  0.1504 -0.8279  0.1033
 4252SOL    HW124392   4.015   0.944   3.606  0.6182 -1.4112  0.6214
 4252SOL    HW224393   4.121   1.041   3.570  0.9006 -0.4025 -2.6428
 4253SOL     OW24394   0.659   0.725   7.073 -0.1315 -0.5836  0.5292
 4253SOL    HW124395   0.625   0.783   7.141 -1.0168 -1.5032  0.8658
 4253SOL    HW224396   0.625   0.641   7.102 -0.2183 -1.1408 -1.1851
 4254SOL     OW24397   3.998   3.222   4.149  0.1920 -0.0704  0.1371
 4254SOL    HW124398   4.057   3.284   4.192 -1.5636  0.5942  1.5786
 4254SOL    HW224399   3.983   3.161   4.221 -1.4444  0.0245 -0.1102
 4255SOL     OW24400   2.273   3.384  12.211 -0.0388  0.1813 -0.3047
 4255SOL    HW124401   2.346   3.440  12.185 -0.0198  0.8597  1.2195
 4255SOL    HW224402   2.291   3.380  12.305 -0.7370 -1.6177 -0.2391
 4256SOL     OW24403   0.285   2.913  10.716 -0.1575  0.1497  0.3079
 4256SOL    HW124404   0.233   2.976  10.665 -0.7387  0.5243  1.3653
 4256SOL    HW224405   0.255   2.834  10.671 -1.0937  0.0424  1.1122
 4257SOL     OW24406   1.230   3.422  11.451 -0.6739  0.0945  0.2035
 4257SOL    HW124407   1.296   3.478  11.409 -1.2130  0.4962 -0.1154
 4257SOL    HW224408   1.179   3.380  11.381 -0.0102  0.5459 -0.5584
 4258SOL     OW24409   3.076   2.770   4.649 -0.6891  0.2222  0.5613
 4258SOL    HW124410   2.992   2.815   4.652  0.0534  1.4740  2.8032
 4258SOL    HW224411   3.135   2.820   4.705  0.1155  1.0499 -1.0146
 4259SOL     OW24412   3.371   1.222  15.992 -0.1015 -0.4093  0.2637
 4259SOL    HW124413   3.402   1.261  15.910 -3.2743  0.3681 -0.5528
 4259SOL    HW224414   3.426   1.271  16.054 -1.5194  0.6523  0.6903
 4260SOL     OW24415   1.504   0.041   6.222  0.2537 -0.2534 -0.1549
 4260SOL    HW124416   1.497   0.066   6.130  0.7747  0.4602  0.0005
 4260SOL    HW224417   1.538   4.686   6.215  1.3534  0.2025 -0.7579
 4261SOL     OW24418   2.363   2.621   8.632  0.0523 -1.0596 -0.2256
 4261SOL    HW124419   2.417   2.545   8.608  0.1521 -1.1936  0.4020
 4261SOL    HW224420   2.408   2.641   8.715 -0.9529 -0.8434  0.2696
 4262SOL     OW24421   4.628   2.224   2.267 -0.6982 -0.0889  0.6681
 4262SOL    HW124422   4.552   2.279   2.250 -2.0722 -2.0516  0.5060
 4262SOL    HW224423   4.650   2.256   2.355  2.5266 -0.1439 -0.1289
 4263SOL     OW24424   3.507   2.847   8.053  0.1754 -0.1404 -0.1433
 4263SOL    HW124425   3.445   2.776   8.040  0.9914 -1.0603  0.9473
 4263SOL    HW224426   3.453   2.924   8.069  1.7914  1.7090 -3.6568
 4264SOL     OW24427   2.404   4.052   7.274  0.0141 -0.6646  0.5451
 4264SOL    HW124428   2.354   4.027   7.351 -0.8533  2.9175  1.1459
 4264SOL    HW224429   2.484   4.004   7.295 -0.3710 -1.7004 -0.3750
 4265SOL     OW24430   0.236   3.128   1.790  0.2533 -0.3040 -0.3887
 4265SOL    HW124431   0.197   3.210   1.821  1.9176 -0.4990  2.1414
 4265SOL    HW224432   0.244   3.141   1.695  0.7915 -0.4823 -0.3656
 4266SOL     OW24433   0.811   4.381   6.786  0.1877 -0.2579 -0.7875
 4266SOL    HW124434   0.816   4.468   6.747  1.3944  1.1971  2.6134
 4266SOL    HW224435   0.904   4.361   6.796 -0.0834 -1.0504  0.1857
 4267SOL     OW24436   1.898   2.889   0.951  0.0019  0.0638  0.6128
 4267SOL    HW124437   1.948   2.947   0.893 -1.5212 -1.0789 -1.8524
 4267SOL    HW224438   1.970   2.844   0.994 -1.2264 -3.4535 -0.9981
 4268SOL     OW24439   3.172   0.364  16.678  0.4726 -0.0545  0.3423
 4268SOL    HW124440   3.215   0.287  16.642  0.6984  0.5630 -0.7190
 4268SOL    HW224441   3.097   0.324  16.722  0.7691 -0.2474  0.6652
 4269SOL     OW24442   2.756   2.587   0.133  0.4420 -0.0531  0.0031
 4269SOL    HW124443   2.743   2.671   0.177 -1.4504  0.6298 -1.8617
 4269SOL    HW224444   2.718   2.524   0.193 -0.9583  0.7009 -0.0813
 4270SOL     OW24445   0.378   4.210   4.412 -0.0435 -1.2541 -0.7435
 4270SOL    HW124446   0.294   4.166   4.405  0.5737 -2.5457  0.0319
 4270SOL    HW224447   0.379   4.257   4.329  2.9077  0.2362  0.1158
 4271SOL     OW24448   1.851   4.361   1.937  0.1014 -0.4558 -0.3923
 4271SOL    HW124449   1.775   4.373   1.994  1.3849 -0.9854  1.4382
 4271SOL    HW224450   1.914   4.427   1.968  0.2527 -0.8306  0.1003
 4272SOL     OW24451   2.778   4.691   6.817  0.2557 -0.0228 -0.1931
 4272SOL    HW124452   2.779   4.702   6.722 -0.7794 -0.1620 -0.2174
 4272SOL    HW224453   2.739   4.604   6.822  1.2382 -0.4962 -0.7688
 4273SOL     OW24454   2.180   2.194  16.637 -0.4194  0.4414  0.7336
 4273SOL    HW124455   2.242   2.234  16.576  1.1516 -1.1426  1.2925
 4273SOL    HW224456   2.113   2.263  16.642 -1.3172 -0.3139 -0.8096
 4274SOL     OW24457   0.837   1.837   7.381  1.3018 -0.0397  0.0811
 4274SOL    HW124458   0.819   1.835   7.475  0.7217  0.1037 -0.0255
 4274SOL    HW224459   0.808   1.747   7.370  1.7476 -0.1568 -0.1380
 4275SOL     OW24460   1.666   2.188  12.503  0.2860  0.5792  0.2696
 4275SOL    HW124461   1.665   2.275  12.462  0.7282 -0.1842 -1.3559
 4275SOL    HW224462   1.743   2.198  12.560 -0.5544 -0.7700  1.6386
 4276SOL     OW24463   4.376   2.646   4.564  0.3126 -0.2780  0.9484
 4276SOL    HW124464   4.311   2.602   4.510  3.1633 -2.8104 -0.4572
 4276SOL    HW224465   4.356   2.738   4.548  0.5031 -0.1429  1.4760
 4277SOL     OW24466   2.356   1.554   8.895 -0.0822 -0.0303  0.5432
 4277SOL    HW124467   2.431   1.531   8.950  0.4013  1.0098  0.3177
 4277SOL    HW224468   2.342   1.473   8.845  2.9918 -1.3149  1.7488
 4278SOL     OW24469   1.357   2.422   7.946  0.2335  0.1302  0.3072
 4278SOL    HW124470   1.405   2.500   7.976  0.0173 -0.0039  1.0069
 4278SOL    HW224471   1.272   2.437   7.988  1.5703  0.0384  3.0329
 4279SOL     OW24472   1.895   2.283  10.146  0.4546  0.2026 -0.0522
 4279SOL    HW124473   1.874   2.334  10.225  0.2457 -1.6383  1.0695
 4279SOL    HW224474   1.915   2.196  10.181 -2.9503 -1.0463 -1.2460
 4280SOL     OW24475   1.268   3.422  13.914  0.2084  0.1456 -0.0734
 4280SOL    HW124476   1.194   3.482  13.923  1.1344  1.3382 -0.4763
 4280SOL    HW224477   1.237   3.373  13.837  2.0247  1.2154 -1.4904
 4281SOL     OW24478   4.714   0.028  14.022 -0.5110  0.1972 -0.1216
 4281SOL    HW124479   4.647   0.050  13.958 -0.5003  2.3689  0.5916
 4281SOL    HW224480   4.680   0.032  14.112  0.6967 -2.8888  0.4574
 4282SOL     OW24481   3.944   2.778   6.840  0.7505  0.3735 -0.6339
 4282SOL    HW124482   4.007   2.747   6.774 -2.0989 -0.8689 -2.7950
 4282SOL    HW224483   3.900   2.838   6.779  0.7676 -0.1167 -1.1247
 4283SOL     OW24484   4.609   2.076   7.796 -0.1096 -0.1785  0.5490
 4283SOL    HW124485   4.680   2.042   7.741  0.6692  1.2764  0.6331
 4283SOL    HW224486   4.620   2.031   7.880 -1.2293  0.9626  1.3069
 4284SOL     OW24487   3.358   2.512   2.158 -0.3011 -0.1685  0.5180
 4284SOL    HW124488   3.385   2.470   2.076  0.3759 -0.7996  1.0682
 4284SOL    HW224489   3.276   2.545   2.122  0.1240 -0.5747 -0.8329
 4285SOL     OW24490   3.172   0.868   9.058  0.1156  0.1019 -0.1379
 4285SOL    HW124491   3.190   0.892   9.149 -0.8459 -0.9281  0.3143
 4285SOL    HW224492   3.258   0.887   9.020 -0.2015 -1.4779 -1.6421
 4286SOL     OW24493   1.433   4.076  16.578 -0.3564 -0.3184 -0.3092
 4286SOL    HW124494   1.421   4.163  16.538 -2.0671 -0.8486 -0.9532
 4286SOL    HW224495   1.526   4.084  16.599 -0.9440 -0.3534  2.3047
 4287SOL     OW24496   0.825   2.754  11.297 -0.8702  0.1690  0.9718
 4287SOL    HW124497   0.866   2.680  11.342 -0.4961  1.0264  2.0533
 4287SOL    HW224498   0.852   2.828  11.352 -1.4537  1.9464 -1.1298
 4288SOL     OW24499   0.164   2.389   7.823 -0.3170 -0.4930  0.7891
 4288SOL    HW124500   0.119   2.392   7.738  2.4478  1.6058 -0.6070
 4288SOL    HW224501   0.241   2.336   7.801 -0.6730  1.2642 -4.6181
 4289SOL     OW24502   3.711   2.366  10.676  0.1014  0.5193 -0.4591
 4289SOL    HW124503   3.649   2.365  10.603  0.3250  0.0258 -0.6422
 4289SOL    HW224504   3.784   2.339  10.620 -0.3613 -0.3987 -0.6221
 4290SOL     OW24505   1.395   2.096   6.177 -0.2289  0.1294  0.2877
 4290SOL    HW124506   1.398   2.002   6.162  0.9574 -0.4798  4.2146
 4290SOL    HW224507   1.455   2.088   6.251  1.2348 -3.5896 -1.2954
 4291SOL     OW24508   1.786   3.824   3.911 -0.3704  0.3577 -0.4442
 4291SOL    HW124509   1.863   3.848   3.962 -0.3377 -0.8065  0.0514
 4291SOL    HW224510   1.786   3.896   3.847 -0.1799  1.2812  0.5807
 4292SOL     OW24511   2.917   0.868   5.379 -0.0208  0.4026 -0.2760
 4292SOL    HW124512   2.877   0.841   5.296  0.3263  0.1755 -0.3726
 4292SOL    HW224513   2.912   0.963   5.367 -0.9624  0.7253  2.9756
 4293SOL     OW24514   2.258   2.959   0.182  0.0273 -0.1323 -0.1081
 4293SOL    HW124515   2.280   2.933   0.092  0.9304 -0.6093  0.2466
 4293SOL    HW224516   2.242   3.053   0.174  1.2103  0.1537  0.9428
 4294SOL     OW24517   0.795   3.488   3.128  0.3765 -0.3290  0.1619
 4294SOL    HW124518   0.828   3.429   3.060 -0.8002 -0.9489  0.1414
 4294SOL    HW224519   0.812   3.443   3.211  0.5439 -2.4553 -1.0409
 4295SOL     OW24520   1.214   1.825   1.534  0.3297 -0.1764 -0.1187
 4295SOL    HW124521   1.307   1.843   1.547 -0.4846  3.9332  0.2817
 4295SOL    HW224522   1.215   1.731   1.549 -1.9227  0.0338  1.3889
 4296SOL     OW24523   0.772   1.523   7.654 -0.2714 -0.4596 -0.2265
 4296SOL    HW124524   0.787   1.616   7.664  0.7523 -0.5337 -1.0967
 4296SOL    HW224525   0.676   1.523   7.650 -0.2235 -0.0317 -1.2880
 4297SOL     OW24526   1.596   0.416  13.721 -0.3405  1.0200  0.9118
 4297SOL    HW124527   1.523   0.373  13.765  0.7407 -2.6830 -0.8841
 4297SOL    HW224528   1.622   0.488  13.779  1.2564 -0.0378  1.5048
 4298SOL     OW24529   1.042   0.325   3.339 -0.1775  0.7120 -0.2341
 4298SOL    HW124530   0.978   0.375   3.389  1.6316  3.4018 -0.5970
 4298SOL    HW224531   1.125   0.343   3.384 -0.0207 -1.7365  0.4669
 4299SOL     OW24532   0.881   0.206  17.189 -0.3721  0.3290  0.4295
 4299SOL    HW124533   0.874   0.212  17.093 -0.1530 -2.5882  0.2354
 4299SOL    HW224534   0.860   0.114  17.204 -0.6367  0.4118  0.5626
 4300SOL     OW24535   3.084   4.458   8.453 -0.1275  0.0443 -0.2084
 4300SOL    HW124536   3.011   4.420   8.501  0.1090 -1.3492 -0.9488
 4300SOL    HW224537   3.149   4.481   8.519  0.8891 -1.0964 -0.7980
 4301SOL     OW24538   0.494   1.684   9.140 -0.3332 -0.5013 -0.5099
 4301SOL    HW124539   0.417   1.628   9.141 -0.0710 -0.8640 -0.4784
 4301SOL    HW224540   0.450   1.768   9.157 -4.8289 -2.9995  0.0829
 4302SOL     OW24541   2.203   0.164   7.667  0.1048  0.3803  0.1954
 4302SOL    HW124542   2.220   0.256   7.687 -2.0849  0.7098  0.5965
 4302SOL    HW224543   2.193   0.129   7.756  0.2761  0.3303  0.1952
 4303SOL     OW24544   1.326   3.539   2.866  0.1471 -0.2673  0.1131
 4303SOL    HW124545   1.353   3.540   2.957  1.3641  1.5502 -0.2758
 4303SOL    HW224546   1.323   3.446   2.843  1.7465  0.0001 -1.1703
 4304SOL     OW24547   0.727   2.153  14.768  0.8239  0.1484  0.4927
 4304SOL    HW124548   0.720   2.097  14.845  2.2114  0.7592  1.0515
 4304SOL    HW224549   0.810   2.125  14.730  1.8594  1.4367  1.8416
 4305SOL     OW24550   2.562   3.213   6.028  0.4550  0.4732 -0.1789
 4305SOL    HW124551   2.495   3.203   5.960 -1.2030  0.3280  1.4704
 4305SOL    HW224552   2.581   3.306   6.017  0.3884  0.5457  0.3526
 4306SOL     OW24553   0.525   1.524   5.255 -0.8518 -0.1644 -0.2715
 4306SOL    HW124554   0.518   1.619   5.265 -0.7601 -0.3591  1.6449
 4306SOL    HW224555   0.435   1.494   5.244 -0.7696  0.4539 -2.5218
 4307SOL     OW24556   2.563   2.953   7.577  0.7268  0.1332 -0.4951
 4307SOL    HW124557   2.522   3.033   7.546  0.4219  0.8101  1.6300
 4307SOL    HW224558   2.558   2.957   7.673 -1.6296  1.3175 -0.6884
 4308SOL     OW24559   1.835   2.035   5.008  0.1675  0.0163 -0.4870
 4308SOL    HW124560   1.826   2.120   5.051 -3.7089 -0.1229 -0.9935
 4308SOL    HW224561   1.855   2.061   4.918 -1.0624  1.3376 -0.3685
 4309SOL     OW24562   4.623   0.769   7.051 -0.7472  0.4353 -0.4340
 4309SOL    HW124563   4.718   0.767   7.046 -0.6864  2.2599 -0.1232
 4309SOL    HW224564   4.596   0.783   6.960 -0.7903 -2.2443 -0.8357
 4310SOL     OW24565   4.276   1.236  14.030  0.0848  0.0321  0.1115
 4310SOL    HW124566   4.360   1.205  13.998  0.8642  0.8845  1.3328
 4310SOL    HW224567   4.307   1.325  14.047 -1.4217  0.8508 -1.5137
 4311SOL     OW24568   3.894   3.457  14.431  0.0630 -0.2597 -0.2836
 4311SOL    HW124569   3.958   3.481  14.364  1.1978  1.8979  1.5894
 4311SOL    HW224570   3.857   3.535  14.472  1.4490  0.8021 -1.0846
 4312SOL     OW24571   2.376   2.577   4.556  0.4487  0.0494  0.4100
 4312SOL    HW124572   2.343   2.549   4.471  4.7854 -3.1384 -0.2653
 4312SOL    HW224573   2.471   2.570   4.544  0.1502  1.2993 -2.5725
 4313SOL     OW24574   2.363   4.176   5.467 -0.0597 -0.2609  0.0718
 4313SOL    HW124575   2.371   4.190   5.373 -1.6450 -0.8964 -0.1498
 4313SOL    HW224576   2.388   4.084   5.472  0.8511 -0.0399 -0.4621
 4314SOL     OW24577   4.147   4.468   5.416 -0.1868 -0.9230  0.1214
 4314SOL    HW124578   4.127   4.442   5.506  0.7189 -2.0132  0.0029
 4314SOL    HW224579   4.079   4.534   5.402  0.2609 -0.0976  1.7802
 4315SOL     OW24580   1.881   4.162   8.299  0.0081  0.0363  0.0085
 4315SOL    HW124581   1.844   4.203   8.377 -0.9559  2.0615 -1.5135
 4315SOL    HW224582   1.809   4.112   8.262  1.3181 -1.0859 -1.0357
 4316SOL     OW24583   3.633   3.933   2.673  0.0393  0.5963 -0.4465
 4316SOL    HW124584   3.621   4.026   2.694  0.8578  0.2944  1.3346
 4316SOL    HW224585   3.552   3.918   2.623 -1.6888  0.2757  2.4191
 4317SOL     OW24586   3.878   0.988   8.596  0.2240 -0.3031  0.3916
 4317SOL    HW124587   3.812   1.055   8.615 -1.5812 -1.3869 -1.9964
 4317SOL    HW224588   3.836   0.907   8.569  0.4433 -0.8607  1.7804
 4318SOL     OW24589   3.224   2.277   7.201 -0.0598  0.3862  0.2763
 4318SOL    HW124590   3.312   2.292   7.168  0.1031 -0.9144  0.1410
 4318SOL    HW224591   3.183   2.361   7.180 -0.6290 -0.1054 -0.5904
 4319SOL     OW24592   0.040   1.171   9.272 -0.5246 -0.3585 -0.2841
 4319SOL    HW124593   4.688   1.173   9.312 -1.0871 -0.0134 -1.5434
 4319SOL    HW224594   0.068   1.082   9.294 -0.2511 -0.4780 -1.1075
 4320SOL     OW24595   0.880   0.237  16.236  0.2835 -0.1079  0.4923
 4320SOL    HW124596   0.788   0.221  16.258  0.2747 -0.2851  0.3305
 4320SOL    HW224597   0.876   0.324  16.275  2.2351 -0.1833  0.8328
 4321SOL     OW24598   2.962   2.362   5.834 -0.2181  0.8309  0.1709
 4321SOL    HW124599   2.937   2.270   5.821  1.4091  0.2139  1.2848
 4321SOL    HW224600   2.917   2.386   5.915  2.4010  3.0101  0.9636
 4322SOL     OW24601   1.056   1.835   9.380  0.0801  0.2283 -0.3034
 4322SOL    HW124602   1.055   1.928   9.405  2.1466  0.3180 -0.5608
 4322SOL    HW224603   0.993   1.834   9.308  1.2932 -0.2943 -1.3494
 4323SOL     OW24604   0.145   0.919   2.712  0.2158 -0.1021 -0.5732
 4323SOL    HW124605   0.127   1.010   2.738 -1.2517 -0.6513  0.3930
 4323SOL    HW224606   0.058   0.883   2.731  0.6087 -1.8371 -2.0928
 4324SOL     OW24607   2.863   1.116   5.639 -0.3765  0.4828 -0.1506
 4324SOL    HW124608   2.870   1.210   5.626  1.3977  0.2414 -0.9338
 4324SOL    HW224609   2.920   1.110   5.716  0.7208 -0.0162 -0.9912
 4325SOL     OW24610   2.247   2.739   5.275  0.5070  0.3254  0.3883
 4325SOL    HW124611   2.314   2.680   5.309  0.6228  0.5729  0.5970
 4325SOL    HW224612   2.274   2.757   5.185  1.0899  0.2025  0.5403
 4326SOL     OW24613   1.109   2.458   8.064 -0.0860 -0.5517  0.1450
 4326SOL    HW124614   1.091   2.366   8.044 -0.6897  0.1613 -2.5830
 4326SOL    HW224615   1.049   2.494   7.999  0.2245 -1.3183 -0.5663
 4327SOL     OW24616   2.007   3.698   7.718  0.2726 -0.6625  0.1390
 4327SOL    HW124617   2.054   3.781   7.710  1.3719 -1.4627 -1.7825
 4327SOL    HW224618   1.989   3.671   7.628 -0.5378  1.3450 -0.2910
 4328SOL     OW24619   0.010   3.973   9.998 -0.3648 -0.3120 -0.1034
 4328SOL    HW124620   0.032   3.904  10.061 -0.8227 -1.2330 -0.9613
 4328SOL    HW224621   0.086   4.032   9.995 -2.1074  1.9128 -0.5058
 4329SOL     OW24622   2.790   0.422  10.141  0.5286 -0.2208  0.1588
 4329SOL    HW124623   2.852   0.356  10.172  1.3565 -1.1949 -3.5979
 4329SOL    HW224624   2.712   0.365  10.147 -0.7239  1.3106 -1.5851
 4330SOL     OW24625   2.348   0.085   6.050  0.3422 -0.0688  0.3380
 4330SOL    HW124626   2.386   0.170   6.070  0.9820 -0.5252  1.0229
 4330SOL    HW224627   2.341   0.053   6.140 -2.1531  0.3666  0.3184
 4331SOL     OW24628   2.555   3.125   8.722 -0.7516  0.7297 -0.4226
 4331SOL    HW124629   2.641   3.120   8.764 -1.6645 -1.9647  1.1468
 4331SOL    HW224630   2.537   3.218   8.732 -0.5960  0.8508 -1.2320
 4332SOL     OW24631   1.227   1.358   2.367 -0.0059 -0.1664  0.1292
 4332SOL    HW124632   1.276   1.280   2.394 -1.4457 -1.4296 -0.9116
 4332SOL    HW224633   1.143   1.368   2.412  1.3639  1.2344  2.3424
 4333SOL     OW24634   3.940   1.807   1.627  0.1934 -0.6422  0.1327
 4333SOL    HW124635   3.941   1.714   1.650 -0.2051 -0.8304 -0.6011
 4333SOL    HW224636   3.852   1.813   1.590  0.7846 -0.4166 -1.2276
 4334SOL     OW24637   4.645   0.773   2.725  0.4544  0.2054  0.9204
 4334SOL    HW124638   4.682   0.687   2.743  0.9145  0.4540  1.1727
 4334SOL    HW224639   4.572   0.782   2.785  0.1927  1.3349  0.4364
 4335SOL     OW24640   3.505   3.730   5.552 -0.3461  0.2967  0.1341
 4335SOL    HW124641   3.519   3.793   5.481  0.2645  2.4105  2.1381
 4335SOL    HW224642   3.553   3.777   5.620  0.0964  0.0851 -0.0382
 4336SOL     OW24643   0.293   4.181   0.933 -0.0873  0.2868  0.1622
 4336SOL    HW124644   0.356   4.217   0.870 -1.6234  1.3409 -0.7671
 4336SOL    HW224645   0.357   4.151   0.997 -1.0236  0.8778  1.3706
 4337SOL     OW24646   2.501   2.970  13.001 -0.2392 -0.2742  0.3854
 4337SOL    HW124647   2.495   3.019  12.919 -0.2778  1.0275  1.1658
 4337SOL    HW224648   2.420   2.999  13.042 -0.0555 -0.2167  0.7124
 4338SOL     OW24649   3.234   3.887   2.742  0.3053  0.2148  0.7063
 4338SOL    HW124650   3.250   3.905   2.649  0.7388 -0.1702  0.7107
 4338SOL    HW224651   3.194   3.800   2.739  1.6227 -0.3281 -1.4389
 4339SOL     OW24652   1.588   2.399   7.265 -0.3579 -0.0879 -0.0011
 4339SOL    HW124653   1.520   2.379   7.329 -0.3126 -2.6645 -0.7598
 4339SOL    HW224654   1.667   2.421   7.316 -0.0858  0.5010 -0.6784
 4340SOL     OW24655   3.579   1.640   6.743 -0.5385 -0.6348  0.5769
 4340SOL    HW124656   3.522   1.699   6.791  0.8157  1.4310 -0.3782
 4340SOL    HW224657   3.667   1.645   6.781 -1.5269  0.1205  2.7710
 4341SOL     OW24658   2.298   3.642   7.835 -0.3896  0.2948  0.3113
 4341SOL    HW124659   2.216   3.598   7.858 -0.6254 -0.2780 -1.6268
 4341SOL    HW224660   2.356   3.577   7.876  3.4752  1.3106 -3.5128
 4342SOL     OW24661   2.652   3.940   3.392  0.4128 -0.4433  0.9309
 4342SOL    HW124662   2.740   3.940   3.428  0.5707  0.1910  0.5527
 4342SOL    HW224663   2.625   4.023   3.430 -1.1060 -0.2552 -0.5494
 4343SOL     OW24664   3.740   2.736   4.842 -0.5079  0.5045 -0.4586
 4343SOL    HW124665   3.658   2.770   4.806 -0.3677  2.0736  0.7702
 4343SOL    HW224666   3.792   2.755   4.764  0.4001 -1.6542 -0.3938
 4344SOL     OW24667   4.227   4.187   8.645 -0.1403  0.6511  0.8163
 4344SOL    HW124668   4.180   4.110   8.614 -0.5195  0.7537  1.1440
 4344SOL    HW224669   4.244   4.174   8.738  1.1258  0.0524  0.5124
 4345SOL     OW24670   1.316   2.800   2.455  0.4388  0.0904  0.1177
 4345SOL    HW124671   1.297   2.886   2.416  0.5564  0.4747  0.9111
 4345SOL    HW224672   1.229   2.776   2.488  0.3573  3.8267  2.5942
 4346SOL     OW24673   3.605   2.805   1.620  0.2042  0.2012 -0.3338
 4346SOL    HW124674   3.520   2.761   1.606  0.3645 -0.4652  0.7671
 4346SOL    HW224675   3.658   2.780   1.544 -0.2296 -2.2626  0.1501
 4347SOL     OW24676   1.159   1.976   4.182 -0.0211  0.0944 -0.3971
 4347SOL    HW124677   1.196   1.909   4.125  1.7201  0.3641  0.4140
 4347SOL    HW224678   1.135   2.043   4.117  0.8696 -1.0768 -1.9281
 4348SOL     OW24679   1.402   1.370  11.101 -0.6301 -0.6443 -0.4943
 4348SOL    HW124680   1.370   1.457  11.127  1.8398 -0.6149  2.4141
 4348SOL    HW224681   1.492   1.381  11.131 -1.0924 -0.6971  0.8986
 4349SOL     OW24682   4.617   2.273  14.867  0.3833  0.9037  0.5983
 4349SOL    HW124683   4.649   2.340  14.807 -0.4187  0.8459  0.0996
 4349SOL    HW224684   4.614   2.317  14.951  3.6208 -0.9324  1.6644
 4350SOL     OW24685   3.833   2.937   7.334 -0.2627 -0.6503 -0.1165
 4350SOL    HW124686   3.855   2.847   7.358  4.9935  0.6514 -0.1417
 4350SOL    HW224687   3.878   2.940   7.249 -0.3233 -2.0593 -0.2058
 4351SOL     OW24688   2.117   3.516   1.500 -0.7498  0.1033  0.2623
 4351SOL    HW124689   2.096   3.424   1.485 -0.3919 -0.0388  0.6305
 4351SOL    HW224690   2.143   3.500   1.591 -0.0715  1.2528  0.2704
 4352SOL     OW24691   4.692   0.288   4.326  0.0815 -0.3515  0.3370
 4352SOL    HW124692   4.647   0.310   4.407 -0.0053  1.4423 -0.1844
 4352SOL    HW224693   4.641   0.208   4.317  1.0042 -1.0025  0.8598
 4353SOL     OW24694   3.407   1.575  13.504  0.4628  0.0922 -0.1779
 4353SOL    HW124695   3.471   1.604  13.569 -0.0221 -2.5217  1.4442
 4353SOL    HW224696   3.362   1.654  13.472 -0.8250  0.6152  2.9079
 4354SOL     OW24697   3.218   3.976   0.631 -0.2282  0.1962  0.2771
 4354SOL    HW124698   3.163   3.974   0.552  0.5268 -0.9468 -0.2101
 4354SOL    HW224699   3.270   3.897   0.619  0.4613  0.5194  1.0969
 4355SOL     OW24700   4.177   0.804  15.036  0.3010  0.5339  0.2455
 4355SOL    HW124701   4.235   0.829  15.107 -0.1049  0.0989  0.7292
 4355SOL    HW224702   4.142   0.889  15.009  0.8174  0.3180 -1.1225
 4356SOL     OW24703   1.788   1.939   3.555 -0.2734  0.2366  0.0144
 4356SOL    HW124704   1.829   1.865   3.600  0.4975  0.3720 -0.4746
 4356SOL    HW224705   1.706   1.959   3.600 -1.2966 -0.6343 -1.4801
 4357SOL     OW24706   2.500   2.854   4.429 -0.2551  0.1629  0.2831
 4357SOL    HW124707   2.530   2.843   4.520  2.0210 -1.5304 -0.6643
 4357SOL    HW224708   2.405   2.840   4.432 -0.5161  2.0456  0.7334
 4358SOL     OW24709   3.301   1.550   1.936 -0.1782  0.4019 -0.0420
 4358SOL    HW124710   3.286   1.643   1.955  3.8573  0.9862  0.5000
 4358SOL    HW224711   3.376   1.560   1.878  1.0750 -2.0119  1.1256
 4359SOL     OW24712   4.678   3.228  11.378  0.4952 -0.1281  0.1807
 4359SOL    HW124713   4.660   3.244  11.285  0.7603 -0.4594  0.0720
 4359SOL    HW224714   0.003   3.300  11.396  1.3924 -0.9625  0.5096
 4360SOL     OW24715   0.333   1.912   2.212  0.5438 -0.0083 -0.1119
 4360SOL    HW124716   0.252   1.959   2.231  1.4808  2.3339 -1.8083
 4360SOL    HW224717   0.352   1.871   2.296  1.1930 -2.0707 -1.2667
 4361SOL     OW24718   1.706   0.990  12.328 -0.5821 -0.4036  0.4335
 4361SOL    HW124719   1.639   0.936  12.371 -1.9344  0.5347 -0.4733
 4361SOL    HW224720   1.722   1.047  12.403 -1.3948 -0.5622  0.7284
 4362SOL     OW24721   0.575   1.553   5.579 -0.1566  0.2349 -0.0167
 4362SOL    HW124722   0.552   1.541   5.671  2.1424  1.9474  0.7919
 4362SOL    HW224723   0.568   1.465   5.542 -0.6196 -0.9013  2.8523
 4363SOL     OW24724   2.825   3.072   3.800 -0.5449 -0.1070 -0.5762
 4363SOL    HW124725   2.805   3.001   3.861  1.1426 -0.1160 -0.0282
 4363SOL    HW224726   2.740   3.099   3.764 -0.7907 -1.8089 -1.2629
 4364SOL     OW24727   1.335   2.795   1.381 -0.4562  0.4167 -0.0114
 4364SOL    HW124728   1.329   2.863   1.314  2.3423  1.5752  0.9334
 4364SOL    HW224729   1.428   2.805   1.402  0.0297 -0.5152 -1.7552
 4365SOL     OW24730   1.639   4.000   6.594  0.3190 -0.1173  0.5424
 4365SOL    HW124731   1.683   3.946   6.528 -0.8179  0.3602 -0.6103
 4365SOL    HW224732   1.549   3.969   6.591  0.0515  0.4931  2.3530
 4366SOL     OW24733   1.343   1.490   8.328 -0.0295 -0.0576  0.3717
 4366SOL    HW124734   1.380   1.402   8.320 -1.3636 -0.6223  0.5400
 4366SOL    HW224735   1.324   1.497   8.421 -1.7999  0.3151 -0.0214
 4367SOL     OW24736   1.909   1.633   4.871 -0.0048  0.2716 -0.2663
 4367SOL    HW124737   1.850   1.580   4.817  2.2582 -2.1381 -0.3982
 4367SOL    HW224738   1.915   1.722   4.837 -0.9634  0.3053 -0.3281
 4368SOL     OW24739   1.889   2.586   0.861  0.3182  0.3329  0.1378
 4368SOL    HW124740   1.887   2.491   0.850  1.1354  0.2293  0.8584
 4368SOL    HW224741   1.942   2.591   0.941 -2.5836 -0.0766  2.0661
 4369SOL     OW24742   4.613   1.570  13.286 -0.0872  0.2094 -0.0181
 4369SOL    HW124743   4.587   1.657  13.256  1.2969  1.6573  3.0602
 4369SOL    HW224744   4.706   1.575  13.262  0.1073 -1.5874  0.4008
 4370SOL     OW24745   0.533   2.757  17.596  0.1084 -0.1432 -0.3019
 4370SOL    HW124746   0.512   2.694  17.526  0.6980 -1.0425  0.3395
 4370SOL    HW224747   0.626   2.744  17.612  0.1473 -1.4691 -1.5443
 4371SOL     OW24748   0.271   0.631   6.384  0.7673 -0.0934  0.1487
 4371SOL    HW124749   0.313   0.568   6.442 -1.0986  0.0491  1.6324
 4371SOL    HW224750   0.273   0.705   6.444 -0.3703 -1.0034  1.3043
 4372SOL     OW24751   3.045   1.189   2.883 -0.0518  0.4668  0.1028
 4372SOL    HW124752   3.103   1.139   2.941 -3.0624 -2.5176  0.5716
 4372SOL    HW224753   3.052   1.141   2.800 -0.5813 -2.8327  1.9735
 4373SOL     OW24754   0.704   1.543   5.060 -0.5193 -0.5693  0.6273
 4373SOL    HW124755   0.629   1.544   5.119 -2.0381 -3.6875 -1.2449
 4373SOL    HW224756   0.672   1.561   4.972 -2.9470 -0.6480  1.5019
 4374SOL     OW24757   4.332   3.191   1.035 -0.0277  0.3994 -0.0715
 4374SOL    HW124758   4.373   3.227   0.956 -0.8872 -0.3051 -0.8396
 4374SOL    HW224759   4.240   3.191   1.009  0.1018 -3.2100 -0.5097
 4375SOL     OW24760   1.094   1.015   7.054  0.8756 -0.3997  0.2950
 4375SOL    HW124761   1.131   1.009   7.142  0.8120  1.7473  0.4667
 4375SOL    HW224762   1.006   0.977   7.060 -0.5807  3.0140  0.7520
 4376SOL     OW24763   2.866   4.313   7.567 -0.7350  0.9239  0.2123
 4376SOL    HW124764   2.897   4.361   7.491 -1.8843 -1.5490 -1.7958
 4376SOL    HW224765   2.856   4.232   7.518 -0.7812 -0.5874  2.7173
 4377SOL     OW24766   0.636   4.036  10.504 -0.2665  0.1649  0.1456
 4377SOL    HW124767   0.671   4.095  10.438  0.3831  0.9077  1.1480
 4377SOL    HW224768   0.541   4.029  10.497 -0.1894  0.4836 -1.1769
 4378SOL     OW24769   3.855   1.333   4.628 -1.0466  0.0242 -0.0354
 4378SOL    HW124770   3.914   1.369   4.693 -1.0339 -1.1415  0.6072
 4378SOL    HW224771   3.772   1.348   4.673 -1.3681  0.0802 -0.6498
 4379SOL     OW24772   2.142   4.137   3.031  0.8758  0.2586  0.6501
 4379SOL    HW124773   2.054   4.100   3.034  1.2016 -0.5625  0.1505
 4379SOL    HW224774   2.162   4.193   3.106  1.7823 -0.9457  1.3077
 4380SOL     OW24775   0.394   3.282   3.838 -0.1793  0.4155 -0.0357
 4380SOL    HW124776   0.300   3.294   3.825 -0.3355 -0.4919  0.2267
 4380SOL    HW224777   0.422   3.373   3.830  0.1307  0.5845  2.8742
 4381SOL     OW24778   1.713   0.064  17.637 -0.0960 -0.0598 -0.3765
 4381SOL    HW124779   1.776   0.032  17.573 -0.3558  0.9755 -1.1542
 4381SOL    HW224780   1.756   0.040  17.718  1.5623 -0.2698 -1.3242
 4382SOL     OW24781   2.454   2.707   9.710  0.6002 -0.1102 -0.0646
 4382SOL    HW124782   2.511   2.746   9.644  1.3003  1.6580  1.5816
 4382SOL    HW224783   2.493   2.624   9.735 -0.3772 -0.6774 -0.4281
 4383SOL     OW24784   4.390   0.642   2.504 -0.5199 -0.5188 -0.0125
 4383SOL    HW124785   4.363   0.550   2.503 -0.8406 -0.4121 -2.2322
 4383SOL    HW224786   4.485   0.635   2.501 -0.2457  3.0131 -0.2869
 4384SOL     OW24787   3.251   4.521   5.312  0.1009  0.6110 -0.0573
 4384SOL    HW124788   3.247   4.607   5.272  0.7026 -0.0678 -1.5928
 4384SOL    HW224789   3.165   4.489   5.285  1.9002 -3.3039 -1.2240
 4385SOL     OW24790   3.116   3.556   3.063  0.1145 -0.7350 -0.5401
 4385SOL    HW124791   3.126   3.628   3.125 -0.9810 -1.2814  0.2826
 4385SOL    HW224792   3.208   3.532   3.058  0.2700 -0.5957  1.7860
 4386SOL     OW24793   4.668   1.513   2.430 -0.2961  0.4196  0.4041
 4386SOL    HW124794   4.639   1.431   2.389 -0.8697  0.9324 -0.2204
 4386SOL    HW224795   4.590   1.563   2.403 -1.0213 -1.3036 -0.6805
 4387SOL     OW24796   2.100   2.762  12.644 -0.2481 -0.0484  0.2770
 4387SOL    HW124797   2.193   2.739  12.652 -0.0510  0.2908 -1.0736
 4387SOL    HW224798   2.092   2.800  12.732  1.0522 -0.0770  0.4189
 4388SOL     OW24799   1.745   3.184   5.792 -0.2273  0.4136  0.4988
 4388SOL    HW124800   1.777   3.148   5.875  1.8402 -0.1028 -0.5361
 4388SOL    HW224801   1.778   3.272   5.813 -0.1227  0.7854 -1.2699
 4389SOL     OW24802   3.995   4.055   9.795  0.4857  0.6936  0.7106
 4389SOL    HW124803   3.985   3.964   9.765 -1.0813  0.6765  1.3023
 4389SOL    HW224804   3.905   4.083   9.810 -0.2892  0.0689 -2.8457
 4390SOL     OW24805   3.852   1.989  15.558 -0.1605 -0.1879  0.5657
 4390SOL    HW124806   3.915   1.949  15.498 -0.7692 -0.7537  0.3001
 4390SOL    HW224807   3.869   1.931  15.632  3.6808  2.1608  1.5440
 4391SOL     OW24808   1.031   0.911  15.794  0.2415  0.9610  0.0479
 4391SOL    HW124809   1.087   0.834  15.806 -0.9909  0.2683  1.4085
 4391SOL    HW224810   1.005   0.905  15.702  0.1613  0.3930  0.1037
 4392SOL     OW24811   1.510   1.173   9.564  0.3827 -0.0891  0.1186
 4392SOL    HW124812   1.585   1.149   9.620  2.6229 -1.1449 -3.3694
 4392SOL    HW224813   1.521   1.090   9.518 -0.9344  0.3805 -1.0156
 4393SOL     OW24814   1.510   3.165   8.703 -0.0816 -0.1479  0.0287
 4393SOL    HW124815   1.450   3.121   8.764 -0.0321  1.0905  0.9881
 4393SOL    HW224816   1.519   3.248   8.750  0.7926  0.3567 -1.0488
 4394SOL     OW24817   4.008   3.920   7.017 -0.4484 -0.5118 -0.1494
 4394SOL    HW124818   4.042   3.947   6.932 -0.7760 -0.5113 -0.2805
 4394SOL    HW224819   4.090   3.939   7.060  1.0957  1.4191 -3.9669
 4395SOL     OW24820   0.211   3.817  17.462 -0.0809 -0.0547 -0.5693
 4395SOL    HW124821   0.281   3.847  17.521 -1.4204  0.0243  0.9634
 4395SOL    HW224822   0.248   3.744  17.414 -0.0970 -1.1026  1.0161
 4396SOL     OW24823   3.621   2.707   6.339 -0.3457  0.7783  0.5436
 4396SOL    HW124824   3.642   2.683   6.429  0.7905  1.4990  0.4797
 4396SOL    HW224825   3.670   2.787   6.317  2.2206 -0.7947  0.4861
 4397SOL     OW24826   1.886   3.131   6.052  0.0861 -0.2464 -0.1376
 4397SOL    HW124827   1.934   3.195   6.104 -1.6230  1.4241 -0.6110
 4397SOL    HW224828   1.931   3.047   6.061 -0.0852 -0.4938 -1.5704
 4398SOL     OW24829   0.258   4.411  12.897  0.2309 -0.4577 -0.5505
 4398SOL    HW124830   0.202   4.362  12.837  1.4735 -1.7577 -0.6271
 4398SOL    HW224831   0.244   4.362  12.978  2.2539 -1.0182 -0.5433
 4399SOL     OW24832   2.333   4.327   6.719 -0.5118 -0.2500 -0.1954
 4399SOL    HW124833   2.267   4.337   6.650  0.8973  0.3026 -1.4651
 4399SOL    HW224834   2.270   4.348   6.788  0.8123 -1.5340  1.4019
 4400SOL     OW24835   0.637   0.657  16.278 -0.4400  0.3851  0.0839
 4400SOL    HW124836   0.616   0.564  16.287  1.8604 -0.3563 -1.9421
 4400SOL    HW224837   0.587   0.702  16.345 -1.9868 -1.5132  0.2010
 4401SOL     OW24838   4.263   2.462   7.006 -0.0321 -0.2360  0.0318
 4401SOL    HW124839   4.250   2.523   6.934 -0.5388  0.6804  0.9158
 4401SOL    HW224840   4.280   2.520   7.080  1.7436  0.2954 -0.7968
 4402SOL     OW24841   1.948   2.439  13.301  0.4570 -0.2852 -0.5765
 4402SOL    HW124842   1.992   2.469  13.381  0.5300 -1.1294 -0.3006
 4402SOL    HW224843   1.935   2.346  13.317 -0.0058 -0.4286 -1.8195
 4403SOL     OW24844   3.082   0.878   0.489 -0.4463 -0.4897  0.3551
 4403SOL    HW124845   3.112   0.923   0.410 -4.5043  0.9741 -0.3457
 4403SOL    HW224846   3.144   0.805   0.496 -0.4790 -0.3759  1.8178
 4404SOL     OW24847   4.696   2.638  11.785 -0.4202  0.2197  0.2842
 4404SOL    HW124848   0.026   2.642  11.715  1.5276 -1.7761  1.9740
 4404SOL    HW224849   0.016   2.598  11.852  0.8622  1.3514 -0.0911
 4405SOL     OW24850   4.284   4.398   6.497 -0.2593  0.0950 -0.6921
 4405SOL    HW124851   4.310   4.481   6.458 -0.2321  1.0385  1.2962
 4405SOL    HW224852   4.251   4.433   6.581  0.6736  0.8001 -0.6230
 4406SOL     OW24853   0.432   4.530   1.631 -0.4928 -0.4790 -0.1586
 4406SOL    HW124854   0.353   4.583   1.625 -0.1378  0.0116 -0.4460
 4406SOL    HW224855   0.404   4.449   1.589 -1.3636 -0.0800 -0.3429
 4407SOL     OW24856   3.408   2.330   3.384  0.6964  0.4408 -0.0873
 4407SOL    HW124857   3.429   2.282   3.464  0.4597 -2.1168 -1.5426
 4407SOL    HW224858   3.493   2.326   3.340  0.3526 -0.7011 -0.6595
 4408SOL     OW24859   1.870   1.901  16.539  0.4982  1.1314 -0.1586
 4408SOL    HW124860   1.962   1.924  16.528 -0.1189  2.4825 -2.7323
 4408SOL    HW224861   1.874   1.850  16.619  0.7151 -0.1589 -0.9840
 4409SOL     OW24862   3.655   2.926   5.365  0.4492  0.4948 -0.8246
 4409SOL    HW124863   3.697   3.005   5.332  1.2888 -0.5465 -2.2455
 4409SOL    HW224864   3.573   2.916   5.318  0.2900 -1.0085 -0.2397
 4410SOL     OW24865   3.870   0.122  16.171  0.4380 -0.0766  0.6239
 4410SOL    HW124866   3.804   0.177  16.212  1.7339  2.7783 -1.1594
 4410SOL    HW224867   3.900   0.168  16.092  0.2669  0.6628  0.9932
 4411SOL     OW24868   4.332   1.653   5.307  0.1435  0.1099  0.1514
 4411SOL    HW124869   4.380   1.639   5.389 -0.4841 -0.1855  0.4693
 4411SOL    HW224870   4.246   1.663   5.348  1.1547 -0.2996  2.3678
 4412SOL     OW24871   4.444   1.770  10.793  0.2092  1.1837 -0.6160
 4412SOL    HW124872   4.395   1.737  10.868 -0.4013  2.3851 -0.4808
 4412SOL    HW224873   4.530   1.742  10.823 -1.5244 -1.3521  2.0407
 4413SOL     OW24874   3.924   0.122   2.785  0.7704  0.0319  0.1508
 4413SOL    HW124875   4.012   0.155   2.767  0.4360 -0.1585 -1.8214
 4413SOL    HW224876   3.871   0.153   2.712  0.8628  0.2045  0.1568
 4414SOL     OW24877   2.124   0.763   3.926 -0.0025 -0.2814  0.3581
 4414SOL    HW124878   2.040   0.773   3.972 -0.3464  0.9115 -0.5125
 4414SOL    HW224879   2.164   0.697   3.982  1.8119  0.2332 -0.3332
 4415SOL     OW24880   1.597   4.331   6.367 -0.7000 -0.4169 -0.3691
 4415SOL    HW124881   1.596   4.405   6.307 -0.4597  0.7247  1.0343
 4415SOL    HW224882   1.509   4.298   6.349 -0.9558  0.3676 -0.5601
 4416SOL     OW24883   0.006   3.063   8.706  0.3557  0.0875  0.8334
 4416SOL    HW124884   0.088   3.109   8.687 -0.3880  1.7996  1.8730
 4416SOL    HW224885   4.703   3.064   8.618  0.1828  1.1805  0.9249
 4417SOL     OW24886   2.148   1.698   4.657 -0.2271 -0.5664  0.7922
 4417SOL    HW124887   2.201   1.745   4.722  0.4640 -1.2438  0.7169
 4417SOL    HW224888   2.070   1.753   4.662 -0.5870 -0.9779 -0.4373
 4418SOL     OW24889   0.937   1.652   6.399 -0.3239 -0.3150 -0.2938
 4418SOL    HW124890   0.992   1.730   6.395 -0.0740 -0.5082 -0.6071
 4418SOL    HW224891   0.903   1.649   6.310 -0.8887  2.0838 -0.1560
 4419SOL     OW24892   0.208   1.481  14.385  0.4339 -0.1194  0.0559
 4419SOL    HW124893   0.223   1.575  14.392 -2.9901  0.5105 -0.9763
 4419SOL    HW224894   0.301   1.462  14.393  0.3294 -0.6754 -0.0408
 4420SOL     OW24895   4.190   0.047   4.741  0.3873  0.3176 -0.3527
 4420SOL    HW124896   4.114   4.733   4.774  0.0744  1.1774  0.2117
 4420SOL    HW224897   4.166   0.079   4.655  1.0309 -1.2584 -1.1307
 4421SOL     OW24898   2.094   3.457   3.556  0.5193  0.6164  0.0379
 4421SOL    HW124899   2.172   3.505   3.582  1.1678 -0.9222  0.9699
 4421SOL    HW224900   2.023   3.492   3.609 -1.3145 -0.7422 -1.5112
 4422SOL     OW24901   1.042   0.533   9.059  0.1086  0.0954 -0.2475
 4422SOL    HW124902   1.032   0.439   9.076 -0.9539  0.0210 -1.2714
 4422SOL    HW224903   0.965   0.545   9.003  0.0094  2.5763  0.3978
 4423SOL     OW24904   1.070   2.749   7.446 -0.1515 -0.1601  0.5781
 4423SOL    HW124905   1.086   2.757   7.540 -0.5646 -3.8499  0.9604
 4423SOL    HW224906   0.991   2.695   7.451 -0.7639  0.6225 -0.6000
 4424SOL     OW24907   0.121   0.695   2.030  0.8669 -0.2798  0.9534
 4424SOL    HW124908   0.185   0.657   2.090 -0.2243 -0.6992  1.8538
 4424SOL    HW224909   0.148   0.786   2.023 -0.4792  0.1070  0.7945
 4425SOL     OW24910   3.076   3.308  12.456  0.1404 -0.7859  0.2003
 4425SOL    HW124911   2.984   3.283  12.466 -0.7767  1.4840 -2.5741
 4425SOL    HW224912   3.113   3.307  12.545  2.4748 -0.3628 -0.7742
 4426SOL     OW24913   3.202   1.394   5.201  0.8484 -0.6199  0.2420
 4426SOL    HW124914   3.295   1.372   5.192  1.0832  0.2781  0.5325
 4426SOL    HW224915   3.182   1.424   5.112 -1.7058 -1.9303  0.3776
 4427SOL     OW24916   0.002   2.882   2.480 -0.2811 -0.0376  0.9987
 4427SOL    HW124917   4.715   2.973   2.498  0.1320  0.2276  0.1339
 4427SOL    HW224918   4.650   2.861   2.447 -0.9450  1.3300  1.8529
 4428SOL     OW24919   1.699   2.775   8.555  0.0527  0.4671 -0.2892
 4428SOL    HW124920   1.793   2.780   8.571 -0.1539 -1.8183  1.4981
 4428SOL    HW224921   1.666   2.810   8.638 -3.3419  2.1403 -2.3445
 4429SOL     OW24922   4.669   3.647   6.793 -0.2234  0.3565 -0.1236
 4429SOL    HW124923   4.682   3.581   6.861 -1.8506  2.1775  1.9474
 4429SOL    HW224924   4.651   3.589   6.719  0.0266  0.7967 -0.5354
 4430SOL     OW24925   3.039   3.764   5.673 -0.5385  0.4951  0.0425
 4430SOL    HW124926   3.028   3.676   5.707  0.8936  0.2762 -0.0626
 4430SOL    HW224927   3.115   3.757   5.614 -0.6842 -0.2027 -0.0661
 4431SOL     OW24928   3.436   3.135   9.741  0.1044  0.2519 -0.3235
 4431SOL    HW124929   3.522   3.122   9.782  0.7363  1.6430 -1.2164
 4431SOL    HW224930   3.442   3.070   9.672  1.5747 -1.2371  1.2171
 4432SOL     OW24931   3.481   2.134  15.149 -0.4036  0.5026 -0.8890
 4432SOL    HW124932   3.574   2.118  15.157 -0.6612 -0.7792 -0.5878
 4432SOL    HW224933   3.485   2.198  15.077  0.5388 -0.0909 -1.3673
 4433SOL     OW24934   0.907   1.352   4.079 -0.5064 -0.1161  0.7837
 4433SOL    HW124935   0.930   1.421   4.016 -1.0989  1.0074  1.7902
 4433SOL    HW224936   0.880   1.286   4.015  1.9861 -0.0865 -0.2794
 4434SOL     OW24937   1.724   2.325   1.479  0.1961 -0.0607 -0.2481
 4434SOL    HW124938   1.746   2.275   1.558  0.7801  2.0141  0.9132
 4434SOL    HW224939   1.629   2.318   1.469  0.3945 -1.0567 -1.3102
 4435SOL     OW24940   3.110   0.590  15.197 -0.3286  0.0999  0.1077
 4435SOL    HW124941   3.184   0.610  15.140  1.0192 -1.4399  1.2956
 4435SOL    HW224942   3.153   0.530  15.258  0.3302  0.6634  0.1876
 4436SOL     OW24943   1.285   2.665  12.747 -0.3098  0.0102 -0.1031
 4436SOL    HW124944   1.376   2.637  12.747  0.4432  2.4375 -2.1643
 4436SOL    HW224945   1.241   2.582  12.765 -0.8805 -0.2884 -2.8420
 4437SOL     OW24946   0.071   4.232  12.735  0.2961 -0.6037  0.0176
 4437SOL    HW124947   4.716   4.242  12.766  1.1007  0.0853  2.1539
 4437SOL    HW224948   0.085   4.142  12.766 -1.2261 -0.5717  0.8331
 4438SOL     OW24949   0.977   1.185   5.332  0.2719  0.1734 -0.0468
 4438SOL    HW124950   0.900   1.243   5.334  0.4339  0.3238  2.0203
 4438SOL    HW224951   0.984   1.182   5.428 -1.2889  0.8177  0.0883
 4439SOL     OW24952   3.066   0.062  13.624 -0.3904  0.0683  0.6681
 4439SOL    HW124953   3.092   0.150  13.599  0.8672 -0.2925  0.6773
 4439SOL    HW224954   3.131   0.044  13.693  0.6013  2.8372  0.4523
 4440SOL     OW24955   2.760   1.681   6.884  0.0655  0.3311  0.3730
 4440SOL    HW124956   2.787   1.758   6.834 -0.5425  0.5252  0.3368
 4440SOL    HW224957   2.668   1.702   6.905  0.2846  0.5930  1.0944
 4441SOL     OW24958   3.869   0.805   5.164  0.3336 -0.5924 -0.4017
 4441SOL    HW124959   3.818   0.815   5.244  2.0031 -3.7764  1.0567
 4441SOL    HW224960   3.824   0.737   5.115 -0.7591 -0.1951  0.0523
 4442SOL     OW24961   2.874   2.364   0.574 -0.0713 -0.4640 -0.3311
 4442SOL    HW124962   2.886   2.301   0.645 -0.9796 -0.1524  0.0955
 4442SOL    HW224963   2.816   2.428   0.615  0.9927  0.9326 -1.0073
 4443SOL     OW24964   0.799   0.322   2.722  0.4556 -0.8583 -0.0924
 4443SOL    HW124965   0.796   0.381   2.798  1.2130 -0.5180 -0.3182
 4443SOL    HW224966   0.759   0.241   2.753  0.6201 -0.4833  1.0894
 4444SOL     OW24967   0.698   3.932  12.578 -0.1439 -0.0738 -0.4269
 4444SOL    HW124968   0.727   3.987  12.505 -0.5168 -1.6001 -1.7421
 4444SOL    HW224969   0.746   3.968  12.652 -1.4256  0.4221  0.1709
 4445SOL     OW24970   3.013   0.406   5.069  0.2076 -0.2858 -0.3116
 4445SOL    HW124971   3.060   0.347   5.010 -0.9858 -1.2207 -0.3502
 4445SOL    HW224972   2.922   0.401   5.037 -0.9943 -0.3518  3.0665
 4446SOL     OW24973   0.901   4.296  16.464 -0.0231  0.4186 -0.1779
 4446SOL    HW124974   0.871   4.362  16.527 -1.0546 -1.5682  1.3935
 4446SOL    HW224975   0.911   4.221  16.521 -2.8826 -1.6241 -2.3209
 4447SOL     OW24976   1.736   0.852  17.187 -0.2307 -0.2110  0.0932
 4447SOL    HW124977   1.807   0.790  17.171  0.4100  1.1217 -2.3340
 4447SOL    HW224978   1.717   0.880  17.097 -0.5084  0.1152  0.2525
 4448SOL     OW24979   2.795   3.574   4.922  0.3676  0.0121  0.2826
 4448SOL    HW124980   2.716   3.558   4.974  1.9795  0.0979  2.7640
 4448SOL    HW224981   2.809   3.480   4.906  3.1654  0.3850  0.5570
 4449SOL     OW24982   4.148   3.065  13.789 -0.2224 -0.1858 -0.2923
 4449SOL    HW124983   4.110   3.044  13.875 -1.1119  1.5802 -0.2466
 4449SOL    HW224984   4.189   2.983  13.764 -0.3167  0.6730 -3.2413
 4450SOL     OW24985   1.574   4.405   8.290  0.1260 -0.4673  0.3930
 4450SOL    HW124986   1.575   4.316   8.326  0.0995 -0.7219 -0.2206
 4450SOL    HW224987   1.588   4.443   8.376 -0.4655  0.7542 -0.0542
 4451SOL     OW24988   1.948   2.623   0.163  0.0995 -0.5212  0.3115
 4451SOL    HW124989   1.949   2.627   0.258  1.3997  0.9189  0.2528
 4451SOL    HW224990   1.858   2.652   0.149  0.5349  0.1751 -1.1749
 4452SOL     OW24991   3.346   1.161   4.206 -0.2211  0.5217 -0.1198
 4452SOL    HW124992   3.271   1.109   4.179 -0.2688 -0.0148  1.0370
 4452SOL    HW224993   3.345   1.231   4.142  0.0230  0.4548 -0.1967
 4453SOL     OW24994   4.555   3.693   3.077  0.1766  0.1224  0.8879
 4453SOL    HW124995   4.630   3.725   3.027  0.8674 -0.3692  1.6122
 4453SOL    HW224996   4.587   3.604   3.095  0.3645  0.3259  1.5765
 4454SOL     OW24997   4.600   3.857   5.306  0.4820  0.0035  0.4569
 4454SOL    HW124998   4.622   3.949   5.321  2.7418 -0.2356 -1.2325
 4454SOL    HW224999   4.634   3.823   5.389 -0.2512  0.9310  1.1411
 4455SOL     OW25000   1.332   1.182   9.230 -0.2254  0.3504 -0.5573
 4455SOL    HW125001   1.325   1.260   9.174  1.3021  0.6627 -0.3051
 4455SOL    HW225002   1.294   1.214   9.312 -2.5771 -0.5731 -1.2777
 4456SOL     OW25003   4.259   2.678   5.166  0.1125 -0.0344  0.0698
 4456SOL    HW125004   4.264   2.713   5.077 -3.2526 -0.6473 -0.3671
 4456SOL    HW225005   4.317   2.602   5.168  0.3783  0.1887  0.7510
 4457SOL     OW25006   1.409   2.168   7.972 -0.1859  1.0819  0.5323
 4457SOL    HW125007   1.453   2.180   8.056  3.7590  0.0769 -1.3433
 4457SOL    HW225008   1.397   2.260   7.948 -1.2927  0.8722  0.2900
 4458SOL     OW25009   1.909   3.300   0.535  0.2003 -0.0079 -0.0867
 4458SOL    HW125010   1.929   3.292   0.628  0.2316 -1.6027 -0.2280
 4458SOL    HW225011   1.941   3.216   0.501 -0.1354 -1.1096  2.3521
 4459SOL     OW25012   3.812   2.602  13.181  0.7690  0.1058 -0.4238
 4459SOL    HW125013   3.798   2.628  13.272  0.3963  1.9614 -1.0203
 4459SOL    HW225014   3.871   2.531  13.205 -1.1939 -1.3972 -0.0539
 4460SOL     OW25015   2.992   3.835  17.246 -0.5220 -0.2536 -0.5006
 4460SOL    HW125016   2.934   3.760  17.252 -0.2533 -0.3970  0.4069
 4460SOL    HW225017   2.930   3.907  17.242 -0.1226  0.3242  3.3726
 4461SOL     OW25018   4.172   2.156  15.376  0.4713  0.0991  0.0326
 4461SOL    HW125019   4.228   2.205  15.315  1.4069 -1.3383 -0.2491
 4461SOL    HW225020   4.100   2.219  15.382  0.5457 -0.2119  3.6206
 4462SOL     OW25021   2.800   0.333  13.057  0.7708  0.1675  0.2117
 4462SOL    HW125022   2.809   0.274  13.132 -2.5032  0.0187  0.4826
 4462SOL    HW225023   2.867   0.398  13.074  1.4727 -0.3451 -0.5429
 4463SOL     OW25024   2.944   1.913  17.445  0.1252 -0.3547  0.2216
 4463SOL    HW125025   2.886   1.989  17.455  1.1812  0.4604  0.2746
 4463SOL    HW225026   3.026   1.962  17.459 -0.2207 -0.4132  2.4763
 4464SOL     OW25027   3.789   4.692   2.303  0.6085 -0.6818 -0.2479
 4464SOL    HW125028   3.713   0.011   2.325  0.9689 -0.1992 -0.1846
 4464SOL    HW225029   3.844   0.031   2.275  0.5031 -0.3027  0.5575
 4465SOL     OW25030   0.551   1.748  13.399 -0.4390 -0.3126 -0.0876
 4465SOL    HW125031   0.464   1.713  13.381 -0.4775  0.2390 -1.0026
 4465SOL    HW225032   0.580   1.754  13.308  0.9228  2.4364  0.4971
 4466SOL     OW25033   1.390   2.610   1.991  0.4418 -0.1185 -0.2867
 4466SOL    HW125034   1.383   2.515   1.999 -0.4890 -0.0498 -0.2995
 4466SOL    HW225035   1.470   2.627   2.041 -0.4266 -2.7966  2.0379
 4467SOL     OW25036   3.872   3.842   7.975 -0.2644 -0.2741  0.4330
 4467SOL    HW125037   3.841   3.779   8.040  1.5836 -2.2872 -0.6366
 4467SOL    HW225038   3.848   3.919   8.026 -0.9200  0.3556 -0.8351
 4468SOL     OW25039   1.813   4.073   3.432  0.0070 -0.0096  0.0926
 4468SOL    HW125040   1.724   4.077   3.397 -0.0974  0.3809  0.4027
 4468SOL    HW225041   1.835   4.165   3.416  0.3847 -0.1248 -0.0679
 4469SOL     OW25042   4.109   4.324  14.386 -0.5404  0.1497 -0.2526
 4469SOL    HW125043   4.027   4.277  14.396 -1.1748  1.7150  2.0457
 4469SOL    HW225044   4.117   4.364  14.473  1.9353 -0.1576 -0.3359
 4470SOL     OW25045   0.416   1.962   7.105 -0.4749 -0.7431  0.6304
 4470SOL    HW125046   0.477   2.010   7.049 -2.3595  1.0419  0.1104
 4470SOL    HW225047   0.445   1.998   7.188  1.8746 -1.4389  0.1166
 4471SOL     OW25048   4.659   1.764   7.858 -0.7573 -0.5684 -0.8157
 4471SOL    HW125049   4.582   1.748   7.912 -1.4981  0.0513 -1.6846
 4471SOL    HW225050   4.623   1.808   7.781  2.2480  2.2913 -0.5670
 4472SOL     OW25051   1.430   4.631   5.565  0.3569  0.2630 -0.5645
 4472SOL    HW125052   1.487   4.705   5.586 -0.5501  0.7744  0.1170
 4472SOL    HW225053   1.461   4.623   5.475 -0.3950  0.4291 -0.8393
 4473SOL     OW25054   1.076   1.531   7.269 -0.4492 -0.4239  0.4551
 4473SOL    HW125055   1.112   1.554   7.354  0.4481 -0.4509  0.0850
 4473SOL    HW225056   1.047   1.442   7.292  0.7178 -1.0393 -0.4686
 4474SOL     OW25057   3.560   1.354   7.018 -0.0512 -0.1561 -0.4272
 4474SOL    HW125058   3.492   1.367   6.952  1.3321 -1.9433 -2.2022
 4474SOL    HW225059   3.498   1.394   7.080  0.9388 -1.0659  1.1657
 4475SOL     OW25060   3.467   3.894   4.283 -0.0667  0.0366  0.6884
 4475SOL    HW125061   3.521   3.852   4.216 -2.3606  0.2040 -1.2723
 4475SOL    HW225062   3.379   3.887   4.245  0.1302 -3.3183  0.7891
 4476SOL     OW25063   0.077   3.670   5.955 -0.4610  0.0276 -0.4625
 4476SOL    HW125064   0.079   3.643   6.047 -1.7894 -0.9950 -0.7285
 4476SOL    HW225065   0.139   3.742   5.959 -0.0209 -0.4100  0.5816
 4477SOL     OW25066   3.601   3.708   2.441 -0.3023  0.3022 -0.4340
 4477SOL    HW125067   3.631   3.691   2.351  0.8901 -0.3590  0.0895
 4477SOL    HW225068   3.548   3.629   2.455 -1.4997  1.1467 -0.2160
 4478SOL     OW25069   0.747   1.175   1.777  0.0053 -0.6614  0.7883
 4478SOL    HW125070   0.827   1.145   1.734 -0.9495 -0.9116 -0.8215
 4478SOL    HW225071   0.753   1.269   1.757 -1.0172 -1.0398 -1.3265
 4479SOL     OW25072   4.255   1.978  12.799  0.0857  0.1168 -0.5197
 4479SOL    HW125073   4.250   1.984  12.894  2.2725  2.0648 -0.5375
 4479SOL    HW225074   4.350   1.987  12.792  0.1653  0.2072  0.6376
 4480SOL     OW25075   1.012   3.779  12.490  0.2546 -0.4249 -0.4333
 4480SOL    HW125076   1.078   3.761  12.424 -1.1941 -0.6337 -1.8288
 4480SOL    HW225077   0.985   3.866  12.460 -2.4873 -0.5882  1.4816
 4481SOL     OW25078   2.575   2.486  14.704  0.0901  0.4009  1.1846
 4481SOL    HW125079   2.493   2.481  14.753 -0.2590 -0.5621  0.5116
 4481SOL    HW225080   2.569   2.405  14.653 -1.0165  1.3115 -0.1361
 4482SOL     OW25081   2.477   1.063  15.052 -0.0186 -0.7820 -0.2123
 4482SOL    HW125082   2.477   1.001  14.979  0.0658 -0.2959 -0.6271
 4482SOL    HW225083   2.565   1.100  15.064 -0.6249  0.8550 -0.7430
 4483SOL     OW25084   2.413   0.739   0.623 -0.0480  0.1966 -0.0110
 4483SOL    HW125085   2.359   0.723   0.546 -0.4569 -1.9188  0.7179
 4483SOL    HW225086   2.342   0.766   0.681  2.5927  2.0720  2.3446
 4484SOL     OW25087   2.111   1.766   9.306 -0.0438 -0.0620 -0.8902
 4484SOL    HW125088   2.079   1.855   9.322  0.6050 -0.3213  1.8776
 4484SOL    HW225089   2.110   1.731   9.395 -0.8798  1.8502 -0.1397
 4485SOL     OW25090   4.727   4.514  15.026  0.3214 -0.0230  0.3822
 4485SOL    HW125091   4.729   4.463  15.107 -1.6422  2.0751  1.7835
 4485SOL    HW225092   4.634   4.527  15.006 -0.0712 -2.1589  0.8336
 4486SOL     OW25093   1.976   0.091   7.512  0.7801 -0.0336 -0.1095
 4486SOL    HW125094   2.055   0.107   7.564  1.3171 -0.7192 -0.7131
 4486SOL    HW225095   1.951   0.005   7.547  0.3534  0.7187  1.4614
 4487SOL     OW25096   0.478   1.661   7.405  0.2807 -0.3950 -0.8486
 4487SOL    HW125097   0.483   1.753   7.431 -2.2252 -0.2815 -0.7508
 4487SOL    HW225098   0.566   1.638   7.377 -0.0402  1.2276 -3.1525
 4488SOL     OW25099   4.527   3.995   9.456 -0.1749  0.3955 -0.1332
 4488SOL    HW125100   4.437   4.022   9.438  0.9951  2.2098 -3.2455
 4488SOL    HW225101   4.583   4.047   9.399 -1.8857  2.8953  0.4800
 4489SOL     OW25102   0.034   0.860  11.613 -0.9382  0.1598  0.3079
 4489SOL    HW125103   0.098   0.921  11.648 -0.5418 -0.3092  0.3943
 4489SOL    HW225104   4.700   0.919  11.581 -1.3061 -0.2047  0.4343
 4490SOL     OW25105   1.907   1.595  10.331  0.3104 -0.3560 -0.0645
 4490SOL    HW125106   1.993   1.634  10.345 -0.4412  1.2706 -0.0734
 4490SOL    HW225107   1.862   1.679  10.320  0.3855 -0.2613  0.3500
 4491SOL     OW25108   3.533   0.110   9.060 -0.1997 -0.2061  0.1247
 4491SOL    HW125109   3.503   0.127   9.149  0.7335 -0.3422  0.4555
 4491SOL    HW225110   3.470   0.040   9.042 -0.1736 -0.6549  1.8342
 4492SOL     OW25111   0.345   1.629   8.642 -0.2601  0.2607  0.3421
 4492SOL    HW125112   0.280   1.634   8.573 -0.2429 -1.4646  0.2004
 4492SOL    HW225113   0.291   1.643   8.720  3.2190 -0.1604  2.8583
 4493SOL     OW25114   0.555   2.601  12.449  0.7327  0.0891 -0.3379
 4493SOL    HW125115   0.557   2.577  12.356  0.8056  0.5867 -0.4648
 4493SOL    HW225116   0.639   2.646  12.450  1.4296 -1.1829 -2.4533
 4494SOL     OW25117   2.171   2.716  13.482 -0.3282  0.2296  0.0675
 4494SOL    HW125118   2.121   2.702  13.401 -0.0161 -0.8043  0.0539
 4494SOL    HW225119   2.189   2.810  13.471  1.0882 -0.1245 -0.6174
 4495SOL     OW25120   3.267   0.832   6.094  0.4333  0.2417 -0.4460
 4495SOL    HW125121   3.259   0.833   6.190 -0.2801 -0.1134 -0.5053
 4495SOL    HW225122   3.288   0.741   6.076 -0.5242  0.1449 -1.0399
 4496SOL     OW25123   2.283   2.506   4.304 -0.0674 -0.0678 -0.0435
 4496SOL    HW125124   2.288   2.421   4.261  0.2538  0.5505 -1.2045
 4496SOL    HW225125   2.287   2.572   4.236  0.3935  0.2165  0.2562
 4497SOL     OW25126   3.703   4.197   4.551 -0.4512 -0.9463  0.0050
 4497SOL    HW125127   3.639   4.194   4.480  1.3425  0.4710 -1.6720
 4497SOL    HW225128   3.683   4.116   4.597 -1.3114 -0.4822  0.4560
 4498SOL     OW25129   4.261   3.503  13.286 -0.0610  0.1451 -0.1010
 4498SOL    HW125130   4.254   3.417  13.245  0.7863 -1.0235  2.1876
 4498SOL    HW225131   4.354   3.524  13.274 -0.2621  0.3808 -1.2120
 4499SOL     OW25132   2.207   1.165   3.605  0.0167 -0.2615  0.1095
 4499SOL    HW125133   2.196   1.169   3.700  2.2093  2.1999  0.2746
 4499SOL    HW225134   2.170   1.081   3.579 -1.9928  0.3268  1.0670
 4500SOL     OW25135   1.665   4.018  12.880  0.2098 -0.4577  0.2916
 4500SOL    HW125136   1.748   4.010  12.832  0.2018 -1.5331  0.4631
 4500SOL    HW225137   1.691   4.020  12.972  0.9399 -1.9840  0.1256
 4501SOL     OW25138   1.540   4.369   2.554 -0.3814 -0.5228 -0.2281
 4501SOL    HW125139   1.475   4.299   2.549  0.3125 -1.4277  3.0315
 4501SOL    HW225140   1.622   4.321   2.571 -0.5568 -1.1710 -1.2160
 4502SOL     OW25141   2.221   0.586   4.997 -0.2561 -0.2792 -0.0993
 4502SOL    HW125142   2.183   0.509   5.037  0.2736 -0.9208 -0.8288
 4502SOL    HW225143   2.203   0.648   5.068 -0.6036  0.8493 -1.1569
 4503SOL     OW25144   2.421   3.664   1.498  0.5973 -0.4217  0.2125
 4503SOL    HW125145   2.340   3.697   1.538  1.3587  1.0136  0.5759
 4503SOL    HW225146   2.436   3.724   1.425  0.1163 -0.0124  0.4461
 4504SOL     OW25147   1.936   3.939  14.131  0.1821  0.4188  0.2847
 4504SOL    HW125148   1.875   3.877  14.171 -1.0900  1.5208  0.0826
 4504SOL    HW225149   1.947   3.990  14.211 -0.1434 -2.7140  2.3135
 4505SOL     OW25150   2.906   4.505   5.568 -0.0090  0.2951  0.0358
 4505SOL    HW125151   2.873   4.565   5.501  0.1367 -1.4613 -1.5988
 4505SOL    HW225152   2.882   4.545   5.652  2.0574 -0.0361  0.7857
 4506SOL     OW25153   2.376   0.196   9.109 -0.0841 -0.0715  0.3764
 4506SOL    HW125154   2.322   0.156   9.177  0.2001 -1.5554 -0.2567
 4506SOL    HW225155   2.378   0.123   9.047 -0.7578 -1.1274  1.5779
 4507SOL     OW25156   2.066   3.792   6.563  0.3527 -0.2526 -0.0449
 4507SOL    HW125157   2.125   3.742   6.619  0.4982  0.9056  0.8283
 4507SOL    HW225158   2.137   3.850   6.537 -0.1485 -0.1155 -1.1160
 4508SOL     OW25159   3.817   1.976   9.697 -0.0884 -0.3741 -0.5448
 4508SOL    HW125160   3.742   1.937   9.652 -0.2594 -0.5037 -0.1513
 4508SOL    HW225161   3.771   2.047   9.740 -0.5943 -1.1964  0.2623
 4509SOL     OW25162   0.211   4.594   7.324 -0.3214  0.3550 -0.4041
 4509SOL    HW125163   0.278   4.526   7.322  0.9752  1.6204 -0.2751
 4509SOL    HW225164   0.257   4.672   7.292 -0.9411  0.8513 -0.0750
 4510SOL     OW25165   1.569   0.102   6.924  0.3367  0.0917 -0.2861
 4510SOL    HW125166   1.496   0.163   6.933 -0.5976 -0.8569 -1.4042
 4510SOL    HW225167   1.610   0.146   6.998 -1.8275  1.5151  0.0589
 4511SOL     OW25168   3.724   4.528   0.011  0.0454  0.2755 -0.0789
 4511SOL    HW125169   3.753   4.481   0.089 -1.0176  0.5357  0.4676
 4511SOL    HW225170   3.748   4.616   0.039  1.8372 -1.2215  3.0459
 4512SOL     OW25171   2.475   1.161   4.177 -0.0294  0.1867  0.2006
 4512SOL    HW125172   2.491   1.165   4.083  0.1722 -0.2084  0.2193
 4512SOL    HW225173   2.463   1.068   4.199 -0.1209 -0.3239 -2.0113
 4513SOL     OW25174   1.598   1.143   4.388 -0.1397  0.7491  0.3968
 4513SOL    HW125175   1.621   1.179   4.303 -1.0273  0.5903  0.0949
 4513SOL    HW225176   1.594   1.227   4.434 -0.4532 -0.4122  2.4935
 4514SOL     OW25177   0.829   0.261   5.208  0.5146  0.8404  0.2290
 4514SOL    HW125178   0.773   0.332   5.179 -0.2521 -0.5875 -1.7808
 4514SOL    HW225179   0.786   0.193   5.156 -1.8900  1.3080  1.6082
 4515SOL     OW25180   1.561   4.723   7.255  0.8631  0.2063  0.4458
 4515SOL    HW125181   1.591   0.058   7.197  0.6496 -0.2732 -0.2363
 4515SOL    HW225182   1.602   0.022   7.334 -0.8361  1.6670  0.7101
 4516SOL     OW25183   2.645   0.494   2.946  0.6166  0.0123  0.1018
 4516SOL    HW125184   2.679   0.492   3.036  0.7483 -1.0434  0.0330
 4516SOL    HW225185   2.562   0.539   2.959  0.0939 -0.6276 -1.0737
 4517SOL     OW25186   1.050   0.548   9.448  0.2646  0.7992  0.6190
 4517SOL    HW125187   0.961   0.524   9.422  0.0706  2.4194 -0.2703
 4517SOL    HW225188   1.094   0.463   9.443  0.0490  0.6579  1.0956
 4518SOL     OW25189   0.203   0.017   3.258  0.4353 -0.4789 -0.2383
 4518SOL    HW125190   0.180   4.696   3.332  2.1700 -0.0575  0.6010
 4518SOL    HW225191   0.212   4.698   3.179  0.5012 -0.8347  0.0094
 4519SOL     OW25192   3.652   2.867   4.262  0.7991 -0.7393  0.0081
 4519SOL    HW125193   3.658   2.905   4.350  0.2840 -0.2930 -0.1586
 4519SOL    HW225194   3.637   2.775   4.286 -0.9675 -0.7461 -1.1491
 4520SOL     OW25195   2.665   2.996   2.032 -0.4152  0.1065 -0.7866
 4520SOL    HW125196   2.579   3.031   2.055  1.3398  1.6577  3.5137
 4520SOL    HW225197   2.722   3.062   2.072 -0.2065  0.2066 -1.2497
 4521SOL     OW25198   2.326   2.278   9.197  0.7721 -0.2739 -0.4040
 4521SOL    HW125199   2.288   2.286   9.110 -0.2184  2.3283  0.2613
 4521SOL    HW225200   2.267   2.330   9.251  0.4586 -0.0910 -0.9258
 4522SOL     OW25201   4.493   2.156  14.484  0.3394  0.0754  0.9223
 4522SOL    HW125202   4.489   2.186  14.574  0.7596  2.2389  0.2112
 4522SOL    HW225203   4.416   2.100  14.495  1.5121 -1.9453 -0.9577
 4523SOL     OW25204   1.620   0.084   5.597  0.3288  0.0730 -0.4305
 4523SOL    HW125205   1.685   0.124   5.539 -0.1324  1.2017 -0.1835
 4523SOL    HW225206   1.565   0.163   5.605  0.1396 -0.1825  0.8127
 4524SOL     OW25207   1.863   2.270   0.524 -0.1046 -0.2147 -0.0644
 4524SOL    HW125208   1.889   2.178   0.512  0.6850  0.2465 -2.0856
 4524SOL    HW225209   1.880   2.276   0.618  1.1929 -2.4661 -0.1593
 4525SOL     OW25210   1.238   3.708  16.718  0.5462 -0.1044  0.3711
 4525SOL    HW125211   1.171   3.646  16.748  1.3705 -1.2214 -0.0995
 4525SOL    HW225212   1.302   3.655  16.671  2.3652  0.3396  2.3613
 4526SOL     OW25213   3.826   1.573   7.223  0.2187 -0.3464 -0.2451
 4526SOL    HW125214   3.869   1.612   7.299  1.2096  0.1792 -1.0825
 4526SOL    HW225215   3.900   1.573   7.163  0.1726 -0.3926 -0.3010
 4527SOL     OW25216   2.072   2.670  17.394 -0.3819 -0.3379  0.5360
 4527SOL    HW125217   2.010   2.611  17.435 -1.5454 -0.7446 -1.8371
 4527SOL    HW225218   2.060   2.641  17.304 -1.6785  0.9574  0.3027
 4528SOL     OW25219   0.791   1.669   2.660 -0.3528  0.6306  1.0717
 4528SOL    HW125220   0.741   1.731   2.607  1.5970 -0.4988 -2.1401
 4528SOL    HW225221   0.872   1.671   2.608 -2.6233 -1.2938 -2.5518
 4529SOL     OW25222   1.000   3.227  13.913 -0.4832 -0.2799  0.5855
 4529SOL    HW125223   1.081   3.244  13.961  0.3685 -0.8268 -0.6784
 4529SOL    HW225224   1.003   3.304  13.856 -0.3310 -0.5855  0.1857
 4530SOL     OW25225   1.834   2.167   8.990  0.2481 -0.2794  0.6811
 4530SOL    HW125226   1.832   2.121   8.906  1.0997 -1.4038  1.2733
 4530SOL    HW225227   1.872   2.098   9.043  1.3199 -0.2659 -0.0813
 4531SOL     OW25228   1.232   1.792   8.961 -0.5760 -0.6173 -0.0143
 4531SOL    HW125229   1.258   1.884   8.958 -2.9438  0.0845  1.3199
 4531SOL    HW225230   1.310   1.742   8.939 -0.7033 -0.3131 -1.1472
 4532SOL     OW25231   0.565   3.404   1.991 -0.1122  0.0337  0.2489
 4532SOL    HW125232   0.521   3.318   1.987 -1.6848  0.9318 -2.2746
 4532SOL    HW225233   0.543   3.449   1.909  0.7008  0.6732  0.3864
 4533SOL     OW25234   0.679   2.824   3.090  0.4581 -0.3943  0.3800
 4533SOL    HW125235   0.758   2.850   3.043  1.2994 -1.6039  1.1180
 4533SOL    HW225236   0.644   2.754   3.034  1.4546 -0.4629 -0.1577
 4534SOL     OW25237   1.494   1.149   0.309  0.1379  0.1948 -0.0459
 4534SOL    HW125238   1.580   1.192   0.315  0.3276 -0.2571  0.4605
 4534SOL    HW225239   1.483   1.105   0.393 -0.2577  2.3640  1.0351
 4535SOL     OW25240   2.664   2.683   7.741  0.2272  0.6378 -0.1751
 4535SOL    HW125241   2.575   2.677   7.707  0.1350 -1.1100  0.3556
 4535SOL    HW225242   2.717   2.624   7.688 -0.4251  1.2562 -1.5282
 4536SOL     OW25243   3.423   2.137   2.926  0.5006 -0.2137 -0.1582
 4536SOL    HW125244   3.516   2.125   2.941  0.8507  0.3163 -1.8591
 4536SOL    HW225245   3.397   2.194   2.998  0.6484 -0.0928 -0.2019
 4537SOL     OW25246   0.363   4.291   9.810 -0.3810 -0.4767  0.3031
 4537SOL    HW125247   0.327   4.263   9.726  0.5969 -1.7604  0.3046
 4537SOL    HW225248   0.296   4.253   9.867 -1.4884  0.9126 -0.0644
 4538SOL     OW25249   4.079   2.714   3.727  0.1654  0.4717 -0.5757
 4538SOL    HW125250   3.987   2.710   3.755 -0.0566 -0.8137 -1.4667
 4538SOL    HW225251   4.123   2.782   3.778  1.8191 -0.3039 -0.9608
 4539SOL     OW25252   3.501   2.809  10.690 -0.0898  0.2317 -0.7337
 4539SOL    HW125253   3.428   2.758  10.723 -0.8576  0.4376 -2.1139
 4539SOL    HW225254   3.466   2.898  10.700 -1.0702 -0.4714  1.9670
 4540SOL     OW25255   0.523   3.217   5.620  0.0187 -0.3662 -0.0678
 4540SOL    HW125256   0.550   3.143   5.566  1.7600  1.5418 -1.7945
 4540SOL    HW225257   0.444   3.252   5.577  0.8327  1.3767 -0.1590
 4541SOL     OW25258   0.356   2.237   1.996 -0.1074 -0.6103  0.0935
 4541SOL    HW125259   0.261   2.251   1.993 -0.1240 -0.7388 -0.0046
 4541SOL    HW225260   0.381   2.325   1.966  0.2780 -0.2229  1.5595
 4542SOL     OW25261   3.492   4.263  17.245  0.6249  0.4349  0.1851
 4542SOL    HW125262   3.470   4.276  17.153 -0.5579 -0.0172  0.4014
 4542SOL    HW225263   3.483   4.168  17.254  0.4762  0.5141  0.8714
 4543SOL     OW25264   3.712   2.408  16.268 -0.3697  0.0053  0.8885
 4543SOL    HW125265   3.783   2.428  16.207 -0.0418  0.7532  1.5171
 4543SOL    HW225266   3.649   2.481  16.263 -3.1263 -2.3949  0.6779
 4544SOL     OW25267   3.905   3.972   3.979 -0.0624  0.9967  0.1939
 4544SOL    HW125268   3.927   3.959   4.071  1.1163 -0.2261 -0.2649
 4544SOL    HW225269   3.831   3.911   3.973 -2.1642  3.5282  0.5633
 4545SOL     OW25270   0.211   3.377   9.381  0.4664 -0.5326  0.1250
 4545SOL    HW125271   0.158   3.366   9.302  3.1843  0.6295 -1.8237
 4545SOL    HW225272   0.296   3.362   9.341 -0.1097 -0.5827 -1.0755
 4546SOL     OW25273   1.811   2.174   3.362  0.3774  0.2216  0.1904
 4546SOL    HW125274   1.851   2.137   3.283  0.9118 -0.2669  0.6889
 4546SOL    HW225275   1.831   2.109   3.429  0.4405 -0.6201 -0.6387
 4547SOL     OW25276   2.159   3.709   7.232  0.7826 -0.1508  0.4211
 4547SOL    HW125277   2.112   3.689   7.152 -2.6952 -2.1619  2.9653
 4547SOL    HW225278   2.252   3.702   7.211  0.1622 -1.4618 -1.8700
 4548SOL     OW25279   3.327   4.534   1.087  0.1675  0.4378 -0.2060
 4548SOL    HW125280   3.360   4.461   1.139 -2.0221  0.0000  0.5922
 4548SOL    HW225281   3.326   4.488   1.003  0.0369  0.4680 -0.2220
 4549SOL     OW25282   1.036   1.519   6.997 -0.0417 -0.6083  0.7861
 4549SOL    HW125283   1.052   1.526   7.091 -0.0615 -0.5527  0.7848
 4549SOL    HW225284   1.098   1.447   6.980 -0.6918 -0.9217 -0.2611
 4550SOL     OW25285   2.540   0.097  17.035  0.2266  0.6616 -0.1924
 4550SOL    HW125286   2.568   0.027  16.975 -0.2513 -0.8443  1.3410
 4550SOL    HW225287   2.490   0.157  16.979 -1.4605  0.6360  1.2827
 4551SOL     OW25288   4.495   3.853   3.965 -0.2535  0.3292 -0.6566
 4551SOL    HW125289   4.422   3.884   3.911 -1.9833 -3.3737 -0.4392
 4551SOL    HW225290   4.454   3.880   4.047  1.6356  1.2830 -0.0334
 4552SOL     OW25291   3.363   3.260   6.960 -0.5008 -0.1304 -0.0549
 4552SOL    HW125292   3.448   3.284   6.997  0.5266 -1.7960 -1.3265
 4552SOL    HW225293   3.386   3.234   6.870 -1.4360 -0.2660 -0.2520
 4553SOL     OW25294   3.753   0.601   5.025 -0.3992  0.0407  0.4931
 4553SOL    HW125295   3.682   0.539   5.011  0.2543 -0.8448  1.0644
 4553SOL    HW225296   3.729   0.667   4.961 -2.6189 -1.5681 -0.3544
 4554SOL     OW25297   1.958   1.755   1.502 -0.1463  0.2730  0.4375
 4554SOL    HW125298   1.890   1.737   1.567 -0.7414  1.2978  0.1109
 4554SOL    HW225299   1.918   1.723   1.422 -0.8341  0.0045  0.8918
 4555SOL     OW25300   3.813   0.845   1.944 -0.0945 -1.0544  0.0095
 4555SOL    HW125301   3.841   0.835   1.853 -0.0889  0.7050 -0.1735
 4555SOL    HW225302   3.877   0.786   1.986  0.4290  1.4432  2.7027
 4556SOL     OW25303   1.140   4.201   8.444  0.3518  0.1732 -0.1134
 4556SOL    HW125304   1.204   4.269   8.421  1.4863 -0.8868 -0.1265
 4556SOL    HW225305   1.126   4.216   8.537 -1.0437 -1.0907 -0.1340
 4557SOL     OW25306   3.874   4.149   2.817  0.7383 -0.4695  0.2065
 4557SOL    HW125307   3.789   4.108   2.828  0.2331  0.5322 -0.0079
 4557SOL    HW225308   3.916   4.067   2.790 -2.5472 -1.8978 -0.5917
 4558SOL     OW25309   4.095   4.206   4.255 -0.1945  0.3718 -0.0490
 4558SOL    HW125310   4.047   4.123   4.260 -0.3978  0.5807  1.3918
 4558SOL    HW225311   4.047   4.269   4.309  2.3010  2.4911 -0.3598
 4559SOL     OW25312   0.124   2.658   5.219  0.0682 -0.1378 -0.3678
 4559SOL    HW125313   0.219   2.670   5.218  0.0454 -0.0074 -1.7713
 4559SOL    HW225314   0.122   2.569   5.184 -1.4905  0.0409 -0.7145
 4560SOL     OW25315   4.539   4.422   1.902 -0.4469 -0.6397 -0.1343
 4560SOL    HW125316   4.554   4.423   1.996  2.0051  0.4542 -0.5428
 4560SOL    HW225317   4.631   4.424   1.877  0.3751 -0.3196  3.0107
 4561SOL     OW25318   1.664   2.624  16.154  0.1226 -0.3441  0.2315
 4561SOL    HW125319   1.629   2.653  16.069 -0.8586 -2.6053 -0.1171
 4561SOL    HW225320   1.638   2.533  16.163  0.7735 -0.6451 -0.8894
 4562SOL     OW25321   2.506   0.870   9.388  0.4726 -0.4764 -0.2190
 4562SOL    HW125322   2.547   0.821   9.460 -0.4347 -2.9187 -1.3619
 4562SOL    HW225323   2.440   0.812   9.351 -1.7879  2.4436 -0.7814
 4563SOL     OW25324   4.266   1.151   8.530  0.2696  0.1109  0.3420
 4563SOL    HW125325   4.306   1.227   8.572  1.3823 -0.6096  0.5886
 4563SOL    HW225326   4.298   1.159   8.440  1.3564  1.0876  0.8230
 4564SOL     OW25327   1.145   3.440   5.377  0.0897 -0.4574 -0.1287
 4564SOL    HW125328   1.161   3.486   5.459 -0.2525  2.7742 -1.8472
 4564SOL    HW225329   1.117   3.354   5.407  0.1378  0.1177  1.5346
 4565SOL     OW25330   2.527   0.775   9.080  0.1916  0.5205 -1.1607
 4565SOL    HW125331   2.572   0.715   9.140 -0.2735 -0.5118 -1.8592
 4565SOL    HW225332   2.572   0.752   8.999 -1.2652  0.3007 -1.9031
 4566SOL     OW25333   1.697   2.736   8.177  0.2589 -0.6842  0.4678
 4566SOL    HW125334   1.753   2.813   8.173 -2.2269  1.1477  0.8359
 4566SOL    HW225335   1.718   2.707   8.266  0.4879  1.4589  1.1070
 4567SOL     OW25336   1.761   2.703   5.662  0.2816 -0.5656 -0.2738
 4567SOL    HW125337   1.753   2.729   5.570  3.1886  0.7697 -0.1382
 4567SOL    HW225338   1.679   2.728   5.705 -1.4981 -2.1474 -2.7274
 4568SOL     OW25339   0.403   1.730  14.256 -0.0106  0.1678  0.2668
 4568SOL    HW125340   0.401   1.824  14.235  1.3502  0.4706  1.5147
 4568SOL    HW225341   0.320   1.726  14.302 -0.9173  2.1519 -1.1752
 4569SOL     OW25342   0.370   2.843   0.051  0.1865 -0.6734 -0.1056
 4569SOL    HW125343   0.433   2.800  17.732  0.9494  0.1421  0.1155
 4569SOL    HW225344   0.305   2.775   0.068 -0.5958  0.3095  0.8475
 4570SOL     OW25345   0.106   0.414   8.378 -0.5203  0.0290 -0.3682
 4570SOL    HW125346   0.190   0.448   8.346  0.9356 -2.3816  0.8804
 4570SOL    HW225347   0.052   0.492   8.365  2.9781  2.5763  0.6241
 4571SOL     OW25348   2.075   0.558   4.760 -0.0297  0.3870 -0.0929
 4571SOL    HW125349   2.133   0.560   4.836 -0.7181 -0.9358  0.4676
 4571SOL    HW225350   2.031   0.642   4.748  0.5141  0.5118 -1.2406
 4572SOL     OW25351   2.552   4.245   6.922  0.1155  0.2209  0.2313
 4572SOL    HW125352   2.604   4.165   6.919 -0.8375 -0.4142  0.6140
 4572SOL    HW225353   2.470   4.208   6.889  0.0199 -0.4312  1.1786
 4573SOL     OW25354   2.403   2.347   0.810  0.5275  0.3933 -0.3622
 4573SOL    HW125355   2.317   2.315   0.838  0.2800  0.8556 -0.6028
 4573SOL    HW225356   2.468   2.312   0.871 -0.2052  0.1889  0.3069
 4574SOL     OW25357   4.629   2.546   9.130 -0.2430 -0.3965  0.1956
 4574SOL    HW125358   4.573   2.582   9.062 -0.6356 -4.6313 -1.7479
 4574SOL    HW225359   4.671   2.473   9.085  0.4679  0.2957 -0.2677
 4575SOL     OW25360   2.484   1.261   5.725  0.5470  0.0954 -0.8204
 4575SOL    HW125361   2.521   1.325   5.663  1.6539 -0.2600 -0.5339
 4575SOL    HW225362   2.403   1.310   5.736  0.2170 -0.5619 -0.3305
 4576SOL     OW25363   3.525   0.631   5.619  0.2395  0.3670  0.2405
 4576SOL    HW125364   3.439   0.657   5.651  0.4806  0.7688  0.5666
 4576SOL    HW225365   3.581   0.647   5.695 -1.2899  1.1756  1.1939
 4577SOL     OW25366   0.475   0.474   8.561  0.1961  0.2934  0.2807
 4577SOL    HW125367   0.507   0.562   8.538 -1.1578  1.4679  2.9002
 4577SOL    HW225368   0.555   0.430   8.590  0.5804  0.8302  0.0198
 4578SOL     OW25369   4.469   3.043   3.755  0.0186 -0.6520 -0.0542
 4578SOL    HW125370   4.507   3.024   3.840 -1.4294 -2.5756  0.1443
 4578SOL    HW225371   4.546   3.022   3.702 -0.6615 -1.2462 -0.8145
 4579SOL     OW25372   0.189   1.752  14.443  0.3029  0.2504 -0.5252
 4579SOL    HW125373   0.099   1.768  14.472 -0.9976 -1.0142 -3.8922
 4579SOL    HW225374   0.233   1.827  14.484 -0.7112  0.8353 -0.5081
 4580SOL     OW25375   2.838   1.692  17.314 -0.0642  0.7677 -0.1004
 4580SOL    HW125376   2.809   1.656  17.398 -1.8393  1.2131 -0.5087
 4580SOL    HW225377   2.883   1.771  17.343  0.3926  0.2075  0.7066
 4581SOL     OW25378   2.766   0.119  17.212  0.6397 -0.4329  0.1292
 4581SOL    HW125379   2.693   0.124  17.150 -0.5364 -0.8397  1.5031
 4581SOL    HW225380   2.751   0.196  17.266 -1.4456 -1.3949  0.8931
 4582SOL     OW25381   3.640   3.235   1.745 -0.1802 -0.0859  0.1546
 4582SOL    HW125382   3.700   3.221   1.818 -2.2736  1.0080  2.0949
 4582SOL    HW225383   3.674   3.323   1.729 -1.1526  0.4633  1.0962
 4583SOL     OW25384   4.651   2.414   8.566  0.1940 -0.4667  0.2323
 4583SOL    HW125385   4.730   2.372   8.532  0.7762  0.8235 -0.0173
 4583SOL    HW225386   4.687   2.454   8.646 -0.3638  0.4271  0.0367
 4584SOL     OW25387   2.728   1.355  17.706 -0.3827 -0.5257  0.2309
 4584SOL    HW125388   2.706   1.437   0.011  1.3216 -0.2059  0.4860
 4584SOL    HW225389   2.759   1.310   0.046  0.7989  0.1220  0.1287
 4585SOL     OW25390   1.472   0.421   7.841  0.2282  0.0854  0.2275
 4585SOL    HW125391   1.558   0.380   7.849  1.7781  2.8935 -1.9556
 4585SOL    HW225392   1.419   0.342   7.852  1.6722 -0.9346 -0.1611
 4586SOL     OW25393   0.517   1.531   2.504  0.2190 -0.4389  0.1310
 4586SOL    HW125394   0.519   1.475   2.425 -0.3462 -0.2017 -0.0473
 4586SOL    HW225395   0.603   1.572   2.517 -0.9816  1.6663  1.3103
 4587SOL     OW25396   0.162   4.565   8.848  0.1550 -0.2719 -0.2670
 4587SOL    HW125397   0.088   4.619   8.877  0.9378  0.5724  0.1640
 4587SOL    HW225398   0.128   4.545   8.761 -1.0053  1.4779 -0.2392
 4588SOL     OW25399   0.735   0.392   3.238  0.4626 -0.2363 -0.0912
 4588SOL    HW125400   0.754   0.326   3.305 -0.7996  1.2621  1.7522
 4588SOL    HW225401   0.645   0.411   3.264  0.5726  2.2697 -1.6163
 4589SOL     OW25402   0.957   2.753   9.390  0.6283 -0.4438  0.6134
 4589SOL    HW125403   0.995   2.730   9.305  0.5709 -1.3129  0.8237
 4589SOL    HW225404   0.878   2.699   9.385  0.3820  0.1583 -1.7274
 4590SOL     OW25405   0.760   4.028   0.051  0.4044  0.5961  0.1716
 4590SOL    HW125406   0.771   3.964   0.121  0.7801 -0.4408 -0.8382
 4590SOL    HW225407   0.714   3.979  17.721  2.1239  0.6061 -0.9649
 4591SOL     OW25408   3.775   2.267   8.622  0.6380  0.5960  0.1220
 4591SOL    HW125409   3.739   2.305   8.541 -0.7567 -0.3198  0.3023
 4591SOL    HW225410   3.711   2.283   8.691  2.2159 -1.0898  1.9860
 4592SOL     OW25411   0.080   4.345  15.593 -0.3384 -0.0216  0.0566
 4592SOL    HW125412   0.046   4.419  15.543 -0.2307 -0.3263 -0.4597
 4592SOL    HW225413   0.067   4.356  15.688 -1.5585 -0.0470 -0.1050
 4593SOL     OW25414   4.494   4.055  17.153 -0.6736 -0.6366  0.8966
 4593SOL    HW125415   4.542   3.979  17.188  2.4605  0.2583 -1.4164
 4593SOL    HW225416   4.563   4.082  17.092 -1.7032 -2.1876 -0.9365
 4594SOL     OW25417   4.643   4.720   7.494  0.2646  0.3753 -0.4844
 4594SOL    HW125418   4.691   0.065   7.475 -1.8222  1.7012 -0.1218
 4594SOL    HW225419   4.577   4.717   7.425  0.3879  0.2388 -0.5958
 4595SOL     OW25420   2.798   1.209   1.436  0.1162 -0.1106 -0.0091
 4595SOL    HW125421   2.749   1.259   1.371  3.0957 -1.7629 -3.5049
 4595SOL    HW225422   2.809   1.273   1.506  0.0289  2.3761 -2.2604
 4596SOL     OW25423   4.145   1.596   2.984  0.0309  0.4874 -0.0475
 4596SOL    HW125424   4.237   1.610   3.008 -0.1319 -1.8870  2.0098
 4596SOL    HW225425   4.107   1.632   3.065 -0.5578 -2.4102  0.9811
 4597SOL     OW25426   0.012   0.960   8.756 -0.4642  0.8059 -0.0926
 4597SOL    HW125427   0.041   0.969   8.847  3.4755  0.4521 -1.2929
 4597SOL    HW225428   4.675   1.019   8.777 -1.4880 -0.4806  0.0056
 4598SOL     OW25429   0.057   3.506   0.750  0.2704 -0.6639  0.0236
 4598SOL    HW125430   0.042   3.451   0.673 -1.0112  0.8219 -0.7942
 4598SOL    HW225431   0.134   3.470   0.794 -0.4669  0.9210  2.6347
 4599SOL     OW25432   1.628   3.933   5.472 -0.0792 -0.3414  0.1183
 4599SOL    HW125433   1.613   3.860   5.412  0.4176 -0.0888 -0.3183
 4599SOL    HW225434   1.627   3.891   5.557 -2.9800  1.7282  1.1351
 4600SOL     OW25435   0.500   3.798  10.746 -0.1210 -0.4864  0.3021
 4600SOL    HW125436   0.583   3.842  10.728 -0.2667 -0.8980 -1.3641
 4600SOL    HW225437   0.460   3.862  10.805  2.2959 -0.9593  2.4688
 4601SOL     OW25438   1.562   3.145  16.650 -1.0125  0.2694  0.1491
 4601SOL    HW125439   1.581   3.158  16.742  0.2172  2.3189 -0.4027
 4601SOL    HW225440   1.466   3.153  16.650 -0.9318  1.1887 -0.6301
 4602SOL     OW25441   0.163   4.548  16.990  0.2810  0.4475 -0.3724
 4602SOL    HW125442   0.170   4.596  16.907 -2.1225  1.5679  0.0744
 4602SOL    HW225443   0.216   4.606  17.045 -0.0251  0.0764  0.3163
 4603SOL     OW25444   0.203   0.134   5.141 -0.4277 -0.5743 -0.4617
 4603SOL    HW125445   0.215   0.039   5.150  2.8574 -0.1520 -0.3712
 4603SOL    HW225446   0.169   0.135   5.052 -1.1759 -2.3214 -0.2072
 4604SOL     OW25447   3.470   3.967   8.395  0.5790  0.1734 -0.4622
 4604SOL    HW125448   3.478   3.884   8.347 -0.8269 -0.9840  1.2908
 4604SOL    HW225449   3.500   3.934   8.480 -2.5095 -2.3339 -0.3411
 4605SOL     OW25450   0.791   1.522   9.513  0.3106  0.1204 -0.3828
 4605SOL    HW125451   0.819   1.592   9.572  1.1929 -0.4567 -0.1194
 4605SOL    HW225452   0.797   1.570   9.430  0.6454  0.6293 -0.0668
 4606SOL     OW25453   1.001   0.134   6.620 -0.7562 -0.0597  0.2235
 4606SOL    HW125454   0.979   0.192   6.693  2.3556  1.7597 -0.2712
 4606SOL    HW225455   1.095   0.149   6.615 -0.4878 -1.7721  0.3575
 4607SOL     OW25456   4.088   2.461   7.251 -0.0727  0.1021  0.1315
 4607SOL    HW125457   4.000   2.467   7.290  0.6304  1.3355  1.5062
 4607SOL    HW225458   4.073   2.401   7.177 -3.4416 -0.2769  1.1212
 4608SOL     OW25459   1.738   0.297   0.611  0.1447  0.1863  0.2755
 4608SOL    HW125460   1.647   0.317   0.634  0.4264  1.6149  0.1468
 4608SOL    HW225461   1.761   0.219   0.662  0.6553 -0.0447 -0.3119
 4609SOL     OW25462   3.649   0.864  11.134  0.3836 -0.8160  0.0499
 4609SOL    HW125463   3.597   0.883  11.212  3.5610  2.5381  1.3574
 4609SOL    HW225464   3.725   0.834  11.184  0.1286 -1.6478 -0.0552
 4610SOL     OW25465   2.477   1.776   2.192  0.0642 -0.2002 -0.4900
 4610SOL    HW125466   2.431   1.707   2.144  1.8581  0.6523 -3.4181
 4610SOL    HW225467   2.439   1.858   2.159 -0.5099  1.0478  3.2548
 4611SOL     OW25468   3.004   0.019   8.294 -0.4732 -0.2582 -0.2075
 4611SOL    HW125469   3.065   0.091   8.310 -0.2278 -0.6913  0.7620
 4611SOL    HW225470   3.016   4.710   8.378  1.5095 -0.2159 -0.4842
 4612SOL     OW25471   1.330   4.213   6.806  0.3488  0.0186  0.1263
 4612SOL    HW125472   1.424   4.204   6.825  0.1751 -0.6896  0.6222
 4612SOL    HW225473   1.325   4.299   6.763 -3.7386  0.3481  1.2767
 4613SOL     OW25474   2.383   3.172   7.534 -0.5235  0.7353  0.7300
 4613SOL    HW125475   2.327   3.224   7.477  1.8932  0.7451 -1.6338
 4613SOL    HW225476   2.412   3.242   7.592 -0.5958  1.4648 -0.1293
 4614SOL     OW25477   1.167   2.126   4.396  0.0776 -0.3852  0.3516
 4614SOL    HW125478   1.160   2.071   4.318  3.0308 -1.2032  0.6893
 4614SOL    HW225479   1.133   2.065   4.462  0.8094 -0.7264  0.4034
 4615SOL     OW25480   0.308   0.982   6.267 -0.5209  0.2390  0.1468
 4615SOL    HW125481   0.294   1.072   6.237  1.9257  0.4923 -0.1926
 4615SOL    HW225482   0.290   0.987   6.361  2.1667 -2.0210  0.7742
 4616SOL     OW25483   0.827   3.821   8.639  0.5195  0.3805  0.3147
 4616SOL    HW125484   0.732   3.822   8.628  0.7113 -0.0121 -1.3817
 4616SOL    HW225485   0.845   3.765   8.715  0.3783  0.3024  0.2926
 4617SOL     OW25486   1.200   0.092   9.558 -0.2214  0.2727 -0.2838
 4617SOL    HW125487   1.202   0.070   9.465  0.5439  0.1472 -0.2402
 4617SOL    HW225488   1.131   0.157   9.571  0.5878  1.2925 -1.1651
 4618SOL     OW25489   1.020   0.075   6.172 -0.1838 -0.2435 -0.2004
 4618SOL    HW125490   1.095   0.068   6.112 -0.7426  1.4427 -1.0831
 4618SOL    HW225491   1.061   0.056   6.257  2.6270 -2.4466 -2.0424
 4619SOL     OW25492   2.456   0.547  12.034  0.0861  0.0689 -0.1185
 4619SOL    HW125493   2.406   0.578  11.959  2.2400  2.9296 -0.3490
 4619SOL    HW225494   2.500   0.628  12.061  1.2368  0.0950 -2.0827
 4620SOL     OW25495   1.450   4.724  11.401  0.0399 -0.3912 -0.9227
 4620SOL    HW125496   1.535   4.690  11.429 -0.5758 -2.7698 -1.9066
 4620SOL    HW225497   1.390   4.656  11.434 -2.9637  1.8626 -1.6823
 4621SOL     OW25498   1.539   0.412  12.178 -0.1914 -0.5732 -0.2347
 4621SOL    HW125499   1.468   0.465  12.143  0.9074  1.8462  1.2379
 4621SOL    HW225500   1.601   0.443  12.112  1.3847  0.2423  1.6209
 4622SOL     OW25501   2.234   2.033   5.923  0.0257  0.3781 -0.5654
 4622SOL    HW125502   2.312   1.987   5.955 -2.1183 -2.7495  0.1175
 4622SOL    HW225503   2.207   2.086   5.998  0.6517 -0.9099  0.5554
 4623SOL     OW25504   2.786   4.248  11.284  0.4224 -0.1702  0.8550
 4623SOL    HW125505   2.858   4.311  11.283  0.4081 -0.1550  0.7722
 4623SOL    HW225506   2.770   4.245  11.190  0.0855 -0.6124  0.9270
 4624SOL     OW25507   0.495   2.303  14.304  0.2082 -0.1592  0.8016
 4624SOL    HW125508   0.413   2.351  14.301  0.1838 -0.2452  0.2114
 4624SOL    HW225509   0.510   2.304  14.399 -1.3033  3.0584  0.9846
 4625SOL     OW25510   3.065   1.645   9.364  0.1444  0.9219  1.1551
 4625SOL    HW125511   3.117   1.714   9.405 -0.2033  0.2038  2.7803
 4625SOL    HW225512   2.980   1.689   9.357 -0.4854 -0.3537  0.6720
 4626SOL     OW25513   1.465   2.591   7.619  0.4280 -0.0553  0.9282
 4626SOL    HW125514   1.422   2.507   7.607  2.2003 -0.5632 -2.0021
 4626SOL    HW225515   1.559   2.572   7.607 -0.0898 -0.9437 -1.7817
 4627SOL     OW25516   3.362   2.242  16.367  0.1833 -0.4428 -0.3108
 4627SOL    HW125517   3.340   2.232  16.275 -1.1581  0.5328 -0.0993
 4627SOL    HW225518   3.449   2.202  16.371  0.7392  0.8848  0.9820
 4628SOL     OW25519   1.845   1.428   5.530 -0.3576 -0.1163  0.0721
 4628SOL    HW125520   1.781   1.492   5.498 -0.0027  0.0057 -0.4001
 4628SOL    HW225521   1.841   1.436   5.625  0.8588 -0.2521  0.1260
 4629SOL     OW25522   0.833   2.798   3.408  0.1525 -0.2593  0.7961
 4629SOL    HW125523   0.739   2.786   3.399 -0.4513  2.4433  3.3637
 4629SOL    HW225524   0.867   2.819   3.321 -1.4992 -2.1107 -0.2952
 4630SOL     OW25525   4.676   2.366   7.986 -0.3183 -0.0726  0.3174
 4630SOL    HW125526   4.718   2.405   7.910 -1.5153 -0.9504 -0.7859
 4630SOL    HW225527   4.620   2.296   7.953 -0.1228 -0.0361 -0.0926
 4631SOL     OW25528   4.699   3.859   1.736 -0.1868 -0.1020  0.5190
 4631SOL    HW125529   0.033   3.794   1.722 -1.0168 -0.6068 -1.2063
 4631SOL    HW225530   4.725   3.911   1.660  0.8341 -1.4289 -0.0474
 4632SOL     OW25531   1.662   3.265   6.160 -0.4866 -0.0391 -0.3645
 4632SOL    HW125532   1.614   3.182   6.151  1.1136 -1.0313  0.2029
 4632SOL    HW225533   1.752   3.232   6.153 -0.5011  0.2576 -1.9575
 4633SOL     OW25534   1.681   2.253   4.326  0.1268 -0.2790 -0.0938
 4633SOL    HW125535   1.735   2.196   4.272  0.4410  3.2098 -3.4628
 4633SOL    HW225536   1.597   2.208   4.325  0.4659 -0.9311  1.1513
 4634SOL     OW25537   1.036   4.478   5.367 -0.5964 -0.0602  0.6545
 4634SOL    HW125538   1.062   4.466   5.458  1.1529 -1.7950 -0.0733
 4634SOL    HW225539   1.038   4.390   5.329  1.4128  0.6509 -0.8870
 4635SOL     OW25540   0.069   1.230   7.800 -0.5412  0.1732  0.2358
 4635SOL    HW125541   0.103   1.214   7.888  1.9984 -3.5334 -1.4343
 4635SOL    HW225542   0.013   1.306   7.818 -2.3461 -0.5676 -2.2467
 4636SOL     OW25543   3.591   2.160   2.193 -0.7776  0.1095  0.3384
 4636SOL    HW125544   3.504   2.153   2.231 -0.8717  1.0314  0.2973
 4636SOL    HW225545   3.635   2.182   2.275 -0.7995 -2.0349  0.9114
 4637SOL     OW25546   2.305   1.434   4.741  0.7392 -0.3571  0.4866
 4637SOL    HW125547   2.237   1.499   4.759  0.5863 -1.0662  2.5436
 4637SOL    HW225548   2.379   1.491   4.762 -1.1886  1.6295  1.8794
 4638SOL     OW25549   2.852   0.633   8.291 -0.7063  0.1679 -0.1535
 4638SOL    HW125550   2.778   0.576   8.268  0.1696 -1.1782  0.3397
 4638SOL    HW225551   2.924   0.588   8.246 -0.4295 -1.4517  1.9157
 4639SOL     OW25552   2.651   2.477   4.524  0.2398  0.5223  0.0865
 4639SOL    HW125553   2.692   2.522   4.598  0.0427  3.0309 -1.3099
 4639SOL    HW225554   2.713   2.485   4.451  0.7145  2.4026  0.7003
 4640SOL     OW25555   2.337   3.688   6.795 -0.2896  0.2970 -0.9094
 4640SOL    HW125556   2.295   3.613   6.753  0.7538 -1.1455  0.6160
 4640SOL    HW225557   2.405   3.651   6.851 -1.7779 -0.0893  0.6393
 4641SOL     OW25558   3.346   0.279   4.112  0.1359 -0.0618  0.5782
 4641SOL    HW125559   3.352   0.374   4.101 -0.4492 -0.0667  0.1941
 4641SOL    HW225560   3.402   0.254   4.037  0.3826 -1.0118  1.0787
 4642SOL     OW25561   4.673   4.390   0.557  0.0651  0.0330 -0.6073
 4642SOL    HW125562   4.690   4.484   0.562  0.7691 -0.1316  0.2324
 4642SOL    HW225563   0.030   4.364   0.547 -0.2783 -1.2714 -0.4747
 4643SOL     OW25564   4.388   0.150   8.340  0.1506  0.1476 -0.4799
 4643SOL    HW125565   4.400   0.172   8.432 -0.1692  2.8996 -1.0880
 4643SOL    HW225566   4.380   0.233   8.293  1.4032 -0.3812 -1.6487
 4644SOL     OW25567   3.543   1.680   7.839  0.6625  0.0311 -0.2957
 4644SOL    HW125568   3.585   1.739   7.776 -2.3648  1.0294 -1.3668
 4644SOL    HW225569   3.491   1.624   7.780  1.6323 -1.4170  0.2276
 4645SOL     OW25570   4.421   1.752  15.215  0.2328  0.2732  0.0813
 4645SOL    HW125571   4.352   1.763  15.280  0.4660 -1.4412  0.6072
 4645SOL    HW225572   4.482   1.690  15.255 -0.8739 -0.5420  0.4719
 4646SOL     OW25573   0.063   2.163   6.914 -0.1926 -0.2283  0.0410
 4646SOL    HW125574   4.721   2.107   6.906 -1.0080  0.7537  1.0846
 4646SOL    HW225575   0.129   2.135   6.850  0.0052 -2.5500  1.2837
 4647SOL     OW25576   3.089   4.236   3.057 -0.0640  0.3090  0.1211
 4647SOL    HW125577   3.086   4.266   3.148  0.1776 -1.3323  0.6771
 4647SOL    HW225578   3.046   4.311   3.015 -0.6480 -0.6817 -1.0436
 4648SOL     OW25579   1.213   1.526   4.114  0.5266 -0.2639  0.1247
 4648SOL    HW125580   1.154   1.541   4.040 -2.2673  0.3232  2.4579
 4648SOL    HW225581   1.205   1.431   4.109  1.5729 -0.2881 -1.0590
 4649SOL     OW25582   4.164   3.924   5.307  0.3668  0.1349 -0.1498
 4649SOL    HW125583   4.246   3.896   5.267  0.5446  1.7491 -0.9212
 4649SOL    HW225584   4.186   3.961   5.393  0.1089 -1.4713  0.5943
 4650SOL     OW25585   0.749   3.890   3.035 -0.0476 -0.7350  0.1634
 4650SOL    HW125586   0.802   3.844   3.099  1.1508  0.0699 -0.2490
 4650SOL    HW225587   0.801   3.882   2.955  0.7607  0.5303  0.5655
 4651SOL     OW25588   3.917   3.199   8.034 -0.0989  0.1768  0.0939
 4651SOL    HW125589   3.858   3.220   7.961 -0.3749 -2.0751 -0.3368
 4651SOL    HW225590   3.856   3.162   8.099 -2.3051  0.1243 -1.9935
 4652SOL     OW25591   4.194   2.265   4.760 -0.2757 -0.1553 -0.0596
 4652SOL    HW125592   4.148   2.300   4.684 -1.0937 -0.0291  0.4941
 4652SOL    HW225593   4.147   2.191   4.798 -1.5512 -0.5380 -2.3943
 4653SOL     OW25594   1.039   1.466   1.497  0.4054  0.1768 -0.5040
 4653SOL    HW125595   1.028   1.478   1.403 -0.0599  1.1805 -0.3239
 4653SOL    HW225596   1.030   1.371   1.506 -0.8297  0.1477 -2.0512
 4654SOL     OW25597   0.573   1.719   9.707  0.1230  0.4680  0.2514
 4654SOL    HW125598   0.532   1.690   9.626  3.7061 -1.4636 -0.8930
 4654SOL    HW225599   0.505   1.741   9.770  0.2762 -0.0289  0.5918
 4655SOL     OW25600   2.040   4.716   5.923  0.5131  0.1856  0.3141
 4655SOL    HW125601   1.970   4.697   5.861 -0.2247  0.8727  0.9450
 4655SOL    HW225602   2.037   4.632   5.969 -3.2437  0.9193  1.4015
 4656SOL     OW25603   3.023   4.340   8.979 -0.3882  0.0465 -0.2929
 4656SOL    HW125604   3.035   4.280   9.052  0.6301  1.9997  1.1509
 4656SOL    HW225605   2.933   4.339   8.949  0.0108  3.5362 -1.5970
 4657SOL     OW25606   2.032   2.963   3.992 -0.0704 -0.2903  0.2817
 4657SOL    HW125607   2.030   2.868   3.983 -1.8999 -0.3527  1.3685
 4657SOL    HW225608   1.955   2.998   3.948 -0.8662 -0.9494  1.1645
 4658SOL     OW25609   2.817   2.950   1.277 -0.4254 -0.4636 -0.2387
 4658SOL    HW125610   2.889   2.993   1.322 -0.3855 -1.9547  1.1299
 4658SOL    HW225611   2.747   2.944   1.342 -0.9906 -0.2623 -0.8232
 4659SOL     OW25612   3.336   2.948  16.105 -0.1790 -0.1283  0.1052
 4659SOL    HW125613   3.429   2.925  16.101 -0.1169  0.5856 -2.7342
 4659SOL    HW225614   3.337   2.973  16.197 -2.2387  1.0334 -0.1862
 4660SOL     OW25615   1.469   4.308  17.131  0.4742  0.3766 -0.7892
 4660SOL    HW125616   1.480   4.229  17.184 -1.6783  1.2263  0.9198
 4660SOL    HW225617   1.516   4.288  17.051 -1.0391 -0.6967 -1.3904
 4661SOL     OW25618   0.525   0.412   2.206 -0.2675  0.5235  0.4209
 4661SOL    HW125619   0.561   0.365   2.281 -0.6056 -1.4493 -0.6645
 4661SOL    HW225620   0.594   0.476   2.185  0.0038  0.0251 -0.2071
 4662SOL     OW25621   0.624   2.485   6.172  0.3961 -0.0849 -0.1867
 4662SOL    HW125622   0.658   2.555   6.117  1.0145 -0.1651  0.0898
 4662SOL    HW225623   0.547   2.469   6.118 -0.6502  2.6530  0.4981
 4663SOL     OW25624   4.032   0.238   9.484  0.0347  0.1170 -0.1930
 4663SOL    HW125625   4.066   0.327   9.497  1.5652 -0.7083  1.4982
 4663SOL    HW225626   4.067   0.209   9.400 -0.9612 -0.8451 -0.2722
 4664SOL     OW25627   0.987   3.382   7.172 -0.2859  0.8164  0.2111
 4664SOL    HW125628   1.046   3.457   7.160  0.4195  0.7701  3.3617
 4664SOL    HW225629   0.939   3.402   7.253  2.7568  0.1967  2.1571
 4665SOL     OW25630   3.023   4.355  11.827 -0.0572  0.4807 -0.1798
 4665SOL    HW125631   3.073   4.428  11.865  0.1859  0.9648 -1.4416
 4665SOL    HW225632   2.934   4.386  11.837 -0.3312 -1.1436  2.4919
 4666SOL     OW25633   4.613   4.519   7.795  0.3091 -0.3491 -0.1098
 4666SOL    HW125634   4.618   4.572   7.875  0.2632 -1.2418  0.4791
 4666SOL    HW225635   4.518   4.526   7.781  0.1746 -0.0361  0.9681
 4667SOL     OW25636   0.375   3.694   6.792  0.4086 -0.1848  0.3268
 4667SOL    HW125637   0.443   3.745   6.748 -0.1066 -0.1719 -0.4451
 4667SOL    HW225638   0.303   3.695   6.729  1.7360 -0.3668 -1.2086
 4668SOL     OW25639   2.782   2.655   1.443  0.2088 -0.0418  0.0168
 4668SOL    HW125640   2.696   2.685   1.475  0.3592  1.5808 -1.0974
 4668SOL    HW225641   2.802   2.592   1.512 -1.6672 -0.7914 -0.1154
 4669SOL     OW25642   1.083   2.176   4.012  0.4010 -0.2553 -0.0667
 4669SOL    HW125643   1.067   2.184   3.918  0.8498 -5.2029 -0.5303
 4669SOL    HW225644   1.137   2.255   4.018 -0.1188 -0.1295  3.1724
 4670SOL     OW25645   0.024   2.659  10.360 -0.2159  0.4424 -0.0462
 4670SOL    HW125646   0.035   2.729  10.295 -1.4229  0.6246 -0.0552
 4670SOL    HW225647   4.719   2.717  10.425  0.1159 -0.0233  0.5759
 4671SOL     OW25648   2.235   3.468   6.311 -0.1838 -0.3833 -0.2110
 4671SOL    HW125649   2.296   3.486   6.239  0.7679 -0.7047  0.5162
 4671SOL    HW225650   2.246   3.377   6.338  1.4197  0.9042  3.4893
 4672SOL     OW25651   1.606   2.924   3.147  0.0408 -0.1576  0.2832
 4672SOL    HW125652   1.662   2.892   3.077  0.3571  1.9191 -0.4168
 4672SOL    HW225653   1.587   2.847   3.201 -1.6376 -0.6585 -1.0167
 4673SOL     OW25654   2.164   1.660   7.964  0.2618  0.6955  0.0114
 4673SOL    HW125655   2.169   1.588   8.027  1.1932 -0.2009 -1.0838
 4673SOL    HW225656   2.143   1.622   7.878  1.7753  0.9347 -0.4788
 4674SOL     OW25657   1.026   4.071  14.532  0.2524  0.0825 -0.6515
 4674SOL    HW125658   0.967   4.036  14.465 -0.3131  1.9757 -1.1356
 4674SOL    HW225659   0.968   4.075  14.608  0.3247  1.8465 -0.6829
 4675SOL     OW25660   3.217   0.631   8.522  0.2893 -0.3294  0.1627
 4675SOL    HW125661   3.123   0.641   8.508  0.5196 -1.2634 -1.9886
 4675SOL    HW225662   3.224   0.556   8.581  0.7041  0.9843  1.7986
 4676SOL     OW25663   3.629   2.528   5.216 -0.1610  0.4271 -0.0164
 4676SOL    HW125664   3.591   2.466   5.278  1.3277  0.0328  0.5113
 4676SOL    HW225665   3.719   2.496   5.203  0.0007 -0.1773  2.5994
 4677SOL     OW25666   4.302   3.127   8.757  0.3290 -0.5374 -0.0492
 4677SOL    HW125667   4.344   3.046   8.786  3.3917  1.9726  2.3572
 4677SOL    HW225668   4.238   3.102   8.690  1.1296  0.0680 -1.0415
 4678SOL     OW25669   3.143   3.780   3.236 -0.8074 -0.2413 -0.4922
 4678SOL    HW125670   3.072   3.831   3.197 -2.1997 -1.3286  0.6181
 4678SOL    HW225671   3.222   3.833   3.231 -0.4494 -0.7087  0.1859
 4679SOL     OW25672   1.076   3.353   6.145 -0.2083  0.1678 -0.4953
 4679SOL    HW125673   1.061   3.295   6.219 -0.7651  1.2975  0.2798
 4679SOL    HW225674   1.112   3.426   6.196 -0.3700  0.4772 -0.8271
 4680SOL     OW25675   3.707   0.293   5.576  1.0072 -0.1618 -0.2010
 4680SOL    HW125676   3.682   0.324   5.489  1.5490  0.8492  0.0045
 4680SOL    HW225677   3.777   0.353   5.602  0.9727 -0.4943  0.6572
 4681SOL     OW25678   2.628   4.661  17.729 -0.2994  0.0685 -0.1483
 4681SOL    HW125679   2.587   4.621   0.067 -1.5863 -1.9466 -1.9090
 4681SOL    HW225680   2.667   4.734   0.039  0.8742 -0.9789  0.4854
 4682SOL     OW25681   4.306   2.941  16.901 -0.5126 -0.4261 -0.3482
 4682SOL    HW125682   4.351   2.875  16.953 -0.7530  0.9259  1.5418
 4682SOL    HW225683   4.375   2.959  16.837 -1.1579 -1.1362 -1.2422
 4683SOL     OW25684   3.410   2.468  15.339  0.6403 -0.1197 -0.8039
 4683SOL    HW125685   3.409   2.563  15.339  0.8996 -0.0973 -3.0693
 4683SOL    HW225686   3.318   2.443  15.323 -0.3042  2.4807  0.6415
 4684SOL     OW25687   4.411   1.403   5.210  0.0487  0.0074 -0.0814
 4684SOL    HW125688   4.381   1.494   5.217 -0.5505 -0.3156  1.7853
 4684SOL    HW225689   4.417   1.399   5.115 -2.3105 -3.3601 -0.0763
 4685SOL     OW25690   3.220   2.352  11.455 -0.6799 -0.0413  0.4107
 4685SOL    HW125691   3.272   2.431  11.469 -0.6396  0.0213 -0.0816
 4685SOL    HW225692   3.159   2.368  11.526 -0.2312 -1.0815  1.0240
 4686SOL     OW25693   2.185   3.062   8.616  0.1881  0.2042  0.3049
 4686SOL    HW125694   2.255   3.096   8.561  0.5721 -1.0055  0.0569
 4686SOL    HW225695   2.195   2.969   8.598 -0.9498  0.3397 -1.0839
 4687SOL     OW25696   3.371   2.660   4.699  0.8813  0.4594  0.2958
 4687SOL    HW125697   3.302   2.600   4.727 -0.6105  1.7816 -0.5431
 4687SOL    HW225698   3.442   2.613   4.743  2.1755  0.3822 -1.8582
 4688SOL     OW25699   2.443   2.701   0.533  0.0664 -0.1941 -0.3808
 4688SOL    HW125700   2.385   2.777   0.536  0.7348  0.3555 -1.5177
 4688SOL    HW225701   2.527   2.742   0.516  0.7669 -1.2646  0.5501
 4689SOL     OW25702   0.263   1.522   9.150  0.3108  0.0167  0.2341
 4689SOL    HW125703   0.182   1.492   9.189 -0.1362 -0.1586 -0.8142
 4689SOL    HW225704   0.233   1.548   9.063 -2.3876  0.2097  1.2363
 4690SOL     OW25705   2.628   3.950  14.986 -0.4426  0.0315  0.4642
 4690SOL    HW125706   2.577   3.979  14.911  0.1765 -0.5240 -0.1717
 4690SOL    HW225707   2.608   4.025  15.043  0.3827 -0.2292  1.1006
 4691SOL     OW25708   0.537   3.921  17.086 -0.6363 -0.2436  0.3736
 4691SOL    HW125709   0.591   3.977  17.029  0.5338 -1.4445  0.2886
 4691SOL    HW225710   0.467   3.895  17.026  0.2122 -3.3089  0.7329
 4692SOL     OW25711   1.248   1.963   3.340  0.0560  0.2421 -0.6709
 4692SOL    HW125712   1.337   1.990   3.362  0.2261  0.9071 -2.1787
 4692SOL    HW225713   1.242   1.885   3.396  0.2659  0.9400  0.3146
 4693SOL     OW25714   2.608   3.027   3.609 -0.1619 -0.3388  0.2822
 4693SOL    HW125715   2.612   3.019   3.514 -0.1731  2.3769  0.0770
 4693SOL    HW225716   2.619   2.936   3.639 -1.4686 -0.9341 -1.0301
 4694SOL     OW25717   0.604   2.101   9.414  0.3352  0.1274  0.3204
 4694SOL    HW125718   0.510   2.083   9.408  0.3734 -0.7367  2.1160
 4694SOL    HW225719   0.639   2.021   9.454 -0.7285 -0.3217  0.3646
 4695SOL     OW25720   4.342   4.660   2.437  0.0068 -0.2054  0.1836
 4695SOL    HW125721   4.285   4.721   2.390  0.3878  1.0180  1.3116
 4695SOL    HW225722   4.302   4.658   2.524 -0.5544  2.9685 -0.0098
 4696SOL     OW25723   4.551   0.847   5.062 -0.1727 -0.2161 -0.2226
 4696SOL    HW125724   4.551   0.781   4.992 -0.9564 -0.8295  0.3532
 4696SOL    HW225725   4.546   0.796   5.143  0.5235 -0.4611 -0.3321
 4697SOL     OW25726   4.201   1.433   0.842 -0.4451 -0.3446 -0.0400
 4697SOL    HW125727   4.235   1.481   0.766 -1.6573  1.2874  0.4392
 4697SOL    HW225728   4.229   1.492   0.912 -0.6867  0.6102 -0.7452
 4698SOL     OW25729   1.511   0.521   3.995  0.0089  0.2289 -0.0797
 4698SOL    HW125730   1.543   0.450   3.940 -2.6235  0.6498 -2.1769
 4698SOL    HW225731   1.551   0.497   4.078  1.5581  1.3339 -0.5061
 4699SOL     OW25732   0.413   2.017  14.237 -0.3718 -0.2059  0.1160
 4699SOL    HW125733   0.495   1.992  14.278 -0.5394 -1.6104 -0.4187
 4699SOL    HW225734   0.437   2.105  14.210 -0.3016 -0.4723 -0.6844
 4700SOL     OW25735   3.753   0.941   4.528 -0.4749 -0.3468 -0.2763
 4700SOL    HW125736   3.829   0.937   4.586  0.5157  0.3134 -1.5417
 4700SOL    HW225737   3.775   0.870   4.468 -1.6270  0.7077 -1.9495
 4701SOL     OW25738   2.031   3.407   0.983 -0.4454 -0.0968  0.0603
 4701SOL    HW125739   2.113   3.456   0.983 -0.3850 -0.1977  0.0109
 4701SOL    HW225740   2.019   3.390   0.889  0.8058 -0.5795 -0.0195
 4702SOL     OW25741   3.545   2.956   2.032  0.0217  0.1595  0.4080
 4702SOL    HW125742   3.528   2.883   2.091  0.2969 -0.0034  0.2823
 4702SOL    HW225743   3.610   2.915   1.976 -0.7155  2.7673 -2.3541
 4703SOL     OW25744   0.070   3.723   9.228 -0.0097 -0.0531  0.9783
 4703SOL    HW125745   0.060   3.818   9.230  0.3457  0.0224 -1.9093
 4703SOL    HW225746   0.059   3.692   9.138 -0.6832  1.2983  0.5997
 4704SOL     OW25747   1.369   0.240   8.308  0.9725  0.4519  0.0072
 4704SOL    HW125748   1.383   0.327   8.270 -2.5455  1.6111  1.3349
 4704SOL    HW225749   1.401   0.181   8.240  0.7096 -0.9523  1.1104
 4705SOL     OW25750   1.209   1.809  14.485 -0.2428 -0.4884  0.2692
 4705SOL    HW125751   1.274   1.738  14.475  2.3328  1.7691  0.9003
 4705SOL    HW225752   1.173   1.788  14.571  0.3673  0.3702  0.7353
 4706SOL     OW25753   0.037   0.928   7.456  0.1321  0.1040 -0.0075
 4706SOL    HW125754   4.718   0.963   7.527  0.6596  1.0849 -0.0954
 4706SOL    HW225755   4.726   0.845   7.438 -1.5767  1.3636 -1.4957
 4707SOL     OW25756   4.493   3.415   6.994  0.0235  0.1781  0.1264
 4707SOL    HW125757   4.464   3.372   7.075 -0.2079 -0.3632 -0.2501
 4707SOL    HW225758   4.425   3.483   6.992 -0.3521 -0.1896  0.4313
 4708SOL     OW25759   2.447   3.595  12.216  0.0733 -0.1106  0.0423
 4708SOL    HW125760   2.412   3.637  12.295 -0.6914 -1.1023  0.2276
 4708SOL    HW225761   2.476   3.677  12.176  0.1028 -0.4131 -0.5568
 4709SOL     OW25762   0.002   0.462  10.452 -0.3220  0.2109 -0.3694
 4709SOL    HW125763   0.049   0.488  10.532  1.1432  1.9810 -1.8027
 4709SOL    HW225764   4.661   0.414  10.483  0.7517 -0.7355  0.8110
 4710SOL     OW25765   0.459   0.773   1.651  0.6778 -0.0176  0.3245
 4710SOL    HW125766   0.455   0.856   1.700 -0.2148  0.6510 -0.8822
 4710SOL    HW225767   0.513   0.715   1.705  0.8887  0.4273  0.6019
 4711SOL     OW25768   3.974   0.533   5.950 -0.3678  0.4529  0.6619
 4711SOL    HW125769   4.067   0.520   5.970 -0.3944 -1.0541 -0.1849
 4711SOL    HW225770   3.951   0.525   6.043  1.2188 -2.7631  0.7856
 4712SOL     OW25771   3.274   3.019   8.057 -0.1840 -0.1063  0.0209
 4712SOL    HW125772   3.238   3.090   8.004  0.9497  0.6339  0.2572
 4712SOL    HW225773   3.193   2.977   8.086 -1.1594  0.7115 -1.4765
 4713SOL     OW25774   2.623   3.033   3.330  0.3612 -0.0305  0.6942
 4713SOL    HW125775   2.590   2.957   3.281  0.9907  1.2091 -1.6267
 4713SOL    HW225776   2.682   3.076   3.268 -1.3443  2.8775  1.1147
 4714SOL     OW25777   1.509   0.062   5.925 -0.4226 -0.0626  0.4330
 4714SOL    HW125778   1.489   0.146   5.884 -1.2150  0.4449  1.8183
 4714SOL    HW225779   1.586   0.032   5.877  0.3021  1.1350  0.8505
 4715SOL     OW25780   1.524   2.178   8.254  0.4939  0.3638  0.4799
 4715SOL    HW125781   1.484   2.121   8.320  0.8251 -1.4750 -0.9066
 4715SOL    HW225782   1.480   2.259   8.280  1.1791 -0.0590  2.9106
 4716SOL     OW25783   3.207   1.516  14.980  0.2148  0.1321  0.5202
 4716SOL    HW125784   3.126   1.566  14.970  0.0218 -0.4884 -0.9996
 4716SOL    HW225785   3.258   1.578  15.031 -0.4204 -0.7427  2.2488
 4717SOL     OW25786   0.092   0.396  12.243  0.2150 -0.1141  0.2749
 4717SOL    HW125787   0.139   0.479  12.238  1.3506 -0.8007 -0.5180
 4717SOL    HW225788   0.121   0.345  12.166 -0.0786  1.2473 -0.7318
 4718SOL     OW25789   0.497   2.146   6.018  0.2798 -0.0603  0.0934
 4718SOL    HW125790   0.539   2.105   6.093  1.2744 -0.5731 -0.7490
 4718SOL    HW225791   0.577   2.173   5.975  0.1913 -2.0865 -1.3368
 4719SOL     OW25792   2.407   2.472   5.585 -0.7574  0.1120  0.1033
 4719SOL    HW125793   2.500   2.491   5.593 -0.4426 -1.0478 -0.7472
 4719SOL    HW225794   2.374   2.543   5.639 -2.1384 -0.0700 -0.4738
 4720SOL     OW25795   2.976   4.148   9.186  0.3601 -0.0782 -0.0557
 4720SOL    HW125796   2.966   4.147   9.281 -3.9269 -1.2131 -0.4890
 4720SOL    HW225797   2.900   4.098   9.154  0.4854 -0.1636 -0.2197
 4721SOL     OW25798   2.443   3.087   7.175 -0.0465 -0.1524 -0.1027
 4721SOL    HW125799   2.379   3.105   7.243  0.0805  2.2412 -0.6244
 4721SOL    HW225800   2.386   3.059   7.104 -2.2365  0.7738  1.3093
 4722SOL     OW25801   2.392   1.043   0.103 -0.3710 -0.2206  0.5034
 4722SOL    HW125802   2.444   0.978   0.055 -2.3421 -1.8174  0.5297
 4722SOL    HW225803   2.370   1.105   0.034  1.0314 -0.1514  0.1173
 4723SOL     OW25804   0.004   0.501   2.778  0.2002 -0.2101 -0.1266
 4723SOL    HW125805   0.090   0.472   2.747 -0.1030 -3.6732  2.2656
 4723SOL    HW225806   0.014   0.514   2.873  1.7488  3.8981 -0.8447
 4724SOL     OW25807   3.849   1.654   6.887  0.2575 -0.0211  0.3833
 4724SOL    HW125808   3.917   1.631   6.950  0.9309  2.6573  0.6298
 4724SOL    HW225809   3.853   1.750   6.886  1.8818 -0.1163 -2.4259
 4725SOL     OW25810   1.266   4.080  14.409 -0.4411 -0.4396 -0.2811
 4725SOL    HW125811   1.191   4.109  14.461  0.1745  0.4577  0.0971
 4725SOL    HW225812   1.227   4.048  14.327 -0.5918  0.1239 -0.4359
 4726SOL     OW25813   1.184   2.242   1.062 -0.2832  0.2726  0.4430
 4726SOL    HW125814   1.193   2.327   1.019 -3.2938  0.9425  1.0903
 4726SOL    HW225815   1.275   2.213   1.068  0.7043  3.3848  0.4554
 4727SOL     OW25816   4.115   1.567  16.280 -0.4938 -0.5391 -0.5401
 4727SOL    HW125817   4.058   1.626  16.230  0.0472  0.2817 -0.1876
 4727SOL    HW225818   4.182   1.535  16.220  2.0029 -1.9281  3.0498
 4728SOL     OW25819   1.026   1.727   6.814  0.2641  0.0915  0.5145
 4728SOL    HW125820   1.011   1.666   6.887 -1.2691  0.6156  0.6197
 4728SOL    HW225821   1.052   1.808   6.857 -0.0159  0.3951  0.1140
 4729SOL     OW25822   1.077   1.839   5.471 -0.8815  0.6506 -0.6591
 4729SOL    HW125823   1.107   1.765   5.417  0.5953 -0.1950  1.3210
 4729SOL    HW225824   1.011   1.862   5.406  0.0256  3.1027 -0.7265
 4730SOL     OW25825   4.558   4.356  12.807 -0.3747  0.4613  0.4639
 4730SOL    HW125826   4.581   4.382  12.896 -0.0915 -0.8181  0.7506
 4730SOL    HW225827   4.466   4.377  12.822  0.0418  2.4292  0.3884
 4731SOL     OW25828   1.513   1.105  10.424  0.0325  0.3138 -0.4965
 4731SOL    HW125829   1.589   1.051  10.405 -0.2094 -0.4092  0.6127
 4731SOL    HW225830   1.452   1.037  10.452  0.6667 -0.2870 -0.5574
 4732SOL     OW25831   3.810   4.534  10.357 -0.5573 -0.1488 -0.0432
 4732SOL    HW125832   3.743   4.577  10.303  2.2001  2.7003 -1.2123
 4732SOL    HW225833   3.864   4.603  10.396  2.0982 -2.7644  0.8342
 4733SOL     OW25834   2.230   4.461   4.186 -0.0007 -0.2155 -0.0132
 4733SOL    HW125835   2.246   4.546   4.146 -0.9659 -0.6725 -1.3740
 4733SOL    HW225836   2.320   4.445   4.214  0.5672  1.0329 -1.1334
 4734SOL     OW25837   1.840   2.213   6.127 -0.2562 -0.1796  0.0841
 4734SOL    HW125838   1.813   2.135   6.176  2.1287 -1.0093  0.1172
 4734SOL    HW225839   1.844   2.281   6.194  0.1458 -1.1329  1.0340
 4735SOL     OW25840   2.842   0.950   8.630  0.3899 -0.5073 -0.6647
 4735SOL    HW125841   2.786   0.892   8.578 -0.8828 -0.7730  0.9886
 4735SOL    HW225842   2.907   0.963   8.562  0.8292 -0.3983 -0.2209
 4736SOL     OW25843   2.012   4.350   4.381  0.3484  0.2213 -0.2521
 4736SOL    HW125844   1.999   4.403   4.460  0.6404 -1.3397  0.8663
 4736SOL    HW225845   2.062   4.404   4.320  2.4728 -1.1072  0.2742
 4737SOL     OW25846   0.867   3.559  11.471  0.4638 -0.1430 -0.2859
 4737SOL    HW125847   0.839   3.468  11.479 -1.8827  0.4963 -1.2674
 4737SOL    HW225848   0.912   3.558  11.386 -1.4619  2.5122 -1.3287
 4738SOL     OW25849   0.004   2.693   8.813 -0.1104  0.2267 -0.0121
 4738SOL    HW125850   4.681   2.736   8.876  0.2817  0.4259  0.2093
 4738SOL    HW225851   4.670   2.676   8.748  0.0569 -2.5699  0.5477
 4739SOL     OW25852   1.041   3.723   6.231 -0.1493  0.1789  0.7094
 4739SOL    HW125853   0.981   3.671   6.178  0.2243 -1.0166  1.4564
 4739SOL    HW225854   0.979   3.774   6.282  1.8852  2.9310  0.4650
 4740SOL     OW25855   4.382   4.418   1.079 -0.4877  0.0115  0.4988
 4740SOL    HW125856   4.448   4.382   1.020 -1.0960 -0.8097  0.3199
 4740SOL    HW225857   4.320   4.346   1.073 -0.3070 -0.1169  0.1282
 4741SOL     OW25858   2.977   0.386   5.814  0.2230  0.2752 -0.1911
 4741SOL    HW125859   3.023   0.311   5.775  1.7254 -0.1005  2.3029
 4741SOL    HW225860   2.967   0.435   5.732  1.5051  0.3839 -0.2956
 4742SOL     OW25861   1.548   2.406   5.579  0.3120 -0.1714  0.2765
 4742SOL    HW125862   1.463   2.406   5.535  1.0541 -0.4273 -1.1565
 4742SOL    HW225863   1.596   2.461   5.517 -0.8306  1.2199  0.6389
 4743SOL     OW25864   1.825   2.333  14.650 -0.1803  0.0199  0.2340
 4743SOL    HW125865   1.872   2.268  14.597 -0.8315  1.1140 -1.6997
 4743SOL    HW225866   1.824   2.287  14.733  0.4319 -0.8880 -0.2605
 4744SOL     OW25867   1.579   1.951   9.009 -0.2074 -0.0409 -0.3986
 4744SOL    HW125868   1.495   1.913   8.984 -0.4286 -0.3966  0.8673
 4744SOL    HW225869   1.599   2.012   8.938  0.1536  1.0986  0.6748
 4745SOL     OW25870   4.088   1.581   8.011 -0.3689 -0.2756 -0.1695
 4745SOL    HW125871   4.007   1.543   8.045 -0.3167 -1.4897 -1.4277
 4745SOL    HW225872   4.055   1.670   8.002  0.7638  0.2481  0.8974
 4746SOL     OW25873   4.314   1.257   4.879 -0.5498 -0.0170  0.6857
 4746SOL    HW125874   4.368   1.328   4.914 -3.7445  0.9575  3.5960
 4746SOL    HW225875   4.339   1.193   4.946  0.0863 -0.8037 -0.2972
 4747SOL     OW25876   2.562   3.381   2.121  0.0420 -0.0955 -0.2949
 4747SOL    HW125877   2.525   3.449   2.178 -1.0951 -0.7334 -0.2772
 4747SOL    HW225878   2.616   3.436   2.063 -1.0294  0.2016 -0.9971
 4748SOL     OW25879   0.520   3.014   1.210  0.0608  0.1919  0.2332
 4748SOL    HW125880   0.590   3.007   1.145  1.8221  0.2487  2.1254
 4748SOL    HW225881   0.557   2.982   1.293 -1.7953  1.3982  1.5024
 4749SOL     OW25882   1.057   2.683   4.650  0.0280 -0.3206  0.6466
 4749SOL    HW125883   1.133   2.660   4.597 -0.8953 -1.3808 -0.2483
 4749SOL    HW225884   1.080   2.628   4.725 -0.2470 -1.5888 -0.1915
 4750SOL     OW25885   1.085   1.905   4.676 -0.5314  0.6145  0.3678
 4750SOL    HW125886   1.068   1.825   4.725 -1.0293  0.0819 -0.6643
 4750SOL    HW225887   1.081   1.878   4.584 -0.4098  1.5784  0.0770
 4751SOL     OW25888   0.095   3.629   7.290 -0.2475 -0.6895  0.1257
 4751SOL    HW125889   0.085   3.714   7.248  0.0822 -0.5188  0.3854
 4751SOL    HW225890   0.179   3.640   7.335  1.1344 -0.2691 -2.5119
 4752SOL     OW25891   3.794   3.705   9.176  0.4504 -0.1632 -0.0377
 4752SOL    HW125892   3.854   3.684   9.105  1.1575 -1.1050  0.8373
 4752SOL    HW225893   3.804   3.633   9.238 -0.6974 -0.8454 -0.6653
 4753SOL     OW25894   1.230   1.665   0.750 -0.1475  0.6227  0.1287
 4753SOL    HW125895   1.269   1.683   0.665  1.5273  1.1964  1.0141
 4753SOL    HW225896   1.269   1.719   0.819  1.6013  0.8436 -1.0567
 4754SOL     OW25897   2.464   2.628   8.068 -0.1238  0.0115 -0.0799
 4754SOL    HW125898   2.507   2.555   8.023 -0.8852 -0.5512  0.1077
 4754SOL    HW225899   2.421   2.582   8.140  1.7812 -0.1167  0.9679
 4755SOL     OW25900   3.299   3.839   5.938  0.1319 -0.4812 -0.3490
 4755SOL    HW125901   3.376   3.799   5.897  0.9569  0.1057  0.6047
 4755SOL    HW225902   3.288   3.918   5.886 -3.0549 -0.2010  0.7814
 4756SOL     OW25903   1.344   2.877   3.594 -0.1533  0.2033 -0.5522
 4756SOL    HW125904   1.405   2.810   3.562 -0.0773  0.0139 -0.0163
 4756SOL    HW225905   1.257   2.844   3.571 -0.0276  0.7318 -1.7928
 4757SOL     OW25906   3.119   2.325   4.670  0.1350  0.2684 -0.1242
 4757SOL    HW125907   3.054   2.255   4.677 -0.3646  0.5909 -1.5270
 4757SOL    HW225908   3.086   2.397   4.724 -2.0451 -0.3230 -0.6820
 4758SOL     OW25909   2.001   4.097   7.740 -0.3710  0.2035 -0.4202
 4758SOL    HW125910   2.036   4.015   7.777 -0.6797  0.1186 -0.3102
 4758SOL    HW225911   2.008   4.162   7.810 -2.5126  0.8708 -0.8382
 4759SOL     OW25912   2.022   1.782  10.001  0.2345  0.3726 -0.2577
 4759SOL    HW125913   2.107   1.738   9.997 -1.0101 -2.1015  0.5533
 4759SOL    HW225914   1.956   1.714   9.987 -0.6590  1.3422 -0.8214
 4760SOL     OW25915   2.206   0.909  12.094  0.2444  0.1686  0.6162
 4760SOL    HW125916   2.172   0.924  12.005 -0.9211 -0.0761  1.0192
 4760SOL    HW225917   2.299   0.904  12.073  0.5304 -0.8014  2.1394
 4761SOL     OW25918   1.364   2.736  11.434  0.0736  0.5002 -0.0789
 4761SOL    HW125919   1.349   2.680  11.510  0.0150  0.4327 -0.1392
 4761SOL    HW225920   1.423   2.802  11.471 -1.6777  2.5294 -0.8863
 4762SOL     OW25921   0.950   0.351   5.427 -0.0888  0.1002  0.4786
 4762SOL    HW125922   0.922   0.324   5.339 -2.2369  1.5083  0.7264
 4762SOL    HW225923   1.008   0.282   5.459 -1.3072 -1.9648 -1.7072
 4763SOL     OW25924   1.479   1.650  15.375  0.5718  0.1445 -0.0718
 4763SOL    HW125925   1.554   1.695  15.337  0.7971 -0.0318  0.1594
 4763SOL    HW225926   1.465   1.580  15.312 -0.2260 -0.2957  0.5915
 4764SOL     OW25927   4.626   1.293   9.035  0.2389  0.6176  0.0328
 4764SOL    HW125928   4.674   1.331   9.108  0.8377  2.5832 -1.3822
 4764SOL    HW225929   4.625   1.357   8.964  1.0642 -0.6182 -1.1177
 4765SOL     OW25930   4.165   1.949   8.793 -0.0815 -0.3059  0.0739
 4765SOL    HW125931   4.089   1.899   8.823 -1.4285  0.9636 -1.2090
 4765SOL    HW225932   4.129   2.038   8.793  0.1365 -0.2170  0.0255
 4766SOL     OW25933   3.258   3.438  15.644 -0.5435  0.1947 -0.4592
 4766SOL    HW125934   3.320   3.507  15.618 -1.3360  1.2827  0.5152
 4766SOL    HW225935   3.283   3.427  15.736  0.0992  0.9467 -0.5447
 4767SOL     OW25936   2.747   3.148   8.506  0.2901  0.7937 -0.3324
 4767SOL    HW125937   2.834   3.186   8.520 -0.8806  2.3046  2.6515
 4767SOL    HW225938   2.722   3.123   8.595 -2.9549  3.2478 -0.5724
 4768SOL     OW25939   1.603   3.346   7.973 -0.4207  0.1008 -0.4394
 4768SOL    HW125940   1.617   3.429   7.928 -2.2115  1.9360  2.3533
 4768SOL    HW225941   1.690   3.320   8.004 -0.1890  0.4451 -0.8011
 4769SOL     OW25942   0.192   1.820  17.697 -0.0859 -0.0439 -0.5428
 4769SOL    HW125943   0.174   1.895   0.014 -0.0246  0.3205 -1.0081
 4769SOL    HW225944   0.182   1.855  17.609 -1.7701 -1.1097 -0.7722
 4770SOL     OW25945   2.093   0.852   8.586  0.4113 -0.5167  1.0140
 4770SOL    HW125946   2.152   0.805   8.645  1.9174  1.5478  1.1810
 4770SOL    HW225947   2.048   0.784   8.535  0.4219 -0.2351  0.6265
 4771SOL     OW25948   2.465   1.026   8.739 -0.4922 -0.5625  0.2625
 4771SOL    HW125949   2.494   0.936   8.724 -1.3676 -0.4556 -2.0951
 4771SOL    HW225950   2.494   1.071   8.659 -1.0060  0.2512  0.5369
 4772SOL     OW25951   2.295   3.830   2.382  0.0673 -0.2131 -0.0545
 4772SOL    HW125952   2.309   3.875   2.299 -2.2862 -0.8775 -0.8080
 4772SOL    HW225953   2.345   3.884   2.444 -0.5074 -0.7431  0.8776
 4773SOL     OW25954   2.269   3.557   6.565 -0.5943 -0.2631  0.3866
 4773SOL    HW125955   2.276   3.500   6.488  1.2424  1.7974 -0.9425
 4773SOL    HW225956   2.309   3.636   6.529  0.0026  0.7277  3.2621
 4774SOL     OW25957   3.019   3.383  10.903  0.3309  0.6794 -0.0062
 4774SOL    HW125958   3.057   3.351  10.985 -2.0218  0.0875  0.8428
 4774SOL    HW225959   2.925   3.380  10.922  0.3946 -2.7927 -0.2308
 4775SOL     OW25960   0.666   2.488  16.500 -0.0477 -0.1908  0.6052
 4775SOL    HW125961   0.617   2.441  16.433 -1.2189  0.7571  0.8108
 4775SOL    HW225962   0.654   2.576  16.466  0.4917 -0.1483  0.5158
 4776SOL     OW25963   4.302   2.148  15.609 -0.3992 -0.0932 -0.0820
 4776SOL    HW125964   4.252   2.146  15.527 -1.3506 -0.2452  0.5099
 4776SOL    HW225965   4.278   2.236  15.637  1.3058  0.4061 -0.1497
 4777SOL     OW25966   0.324   1.015   2.948 -0.0380 -0.6373 -0.1233
 4777SOL    HW125967   0.244   1.033   2.898  0.1273  0.1536 -0.1011
 4777SOL    HW225968   0.385   0.986   2.879  0.0916 -0.3318 -0.1346
 4778SOL     OW25969   3.100   4.377   6.423 -0.4161  0.2652  0.1294
 4778SOL    HW125970   3.035   4.378   6.352  0.0849 -0.7547 -0.3479
 4778SOL    HW225971   3.043   4.364   6.499 -0.3181  1.0899  0.3470
 4779SOL     OW25972   3.386   3.200   2.237 -0.0360  0.7461 -0.1583
 4779SOL    HW125973   3.464   3.245   2.269  1.7062 -1.0765 -1.8392
 4779SOL    HW225974   3.410   3.178   2.147  0.1096  1.5460 -0.3121
 4780SOL     OW25975   2.889   2.645   0.889  0.2629 -0.4563  0.6147
 4780SOL    HW125976   2.843   2.572   0.847  0.8027 -0.7891  0.5885
 4780SOL    HW225977   2.876   2.621   0.980 -0.9379 -0.7113  0.3794
 4781SOL     OW25978   1.679   2.562   4.623  0.5765 -0.0442  0.0001
 4781SOL    HW125979   1.687   2.571   4.528 -0.9397  2.1527  0.1004
 4781SOL    HW225980   1.637   2.476   4.628 -0.9378  0.7051  0.2972
 4782SOL     OW25981   2.133   2.431  11.945 -0.1486 -0.0759 -0.0895
 4782SOL    HW125982   2.214   2.428  11.896  1.1754 -0.5752  2.1077
 4782SOL    HW225983   2.124   2.526  11.947 -0.7525 -0.1233 -0.5185
 4783SOL     OW25984   4.722   0.009   8.536 -0.3740  0.6268  0.2135
 4783SOL    HW125985   4.702   0.059   8.458 -0.1181  2.1492  1.1271
 4783SOL    HW225986   0.013   0.084   8.590 -2.8874  0.9539  0.9702
 4784SOL     OW25987   4.215   0.341   0.535  0.2813  0.6856 -0.0265
 4784SOL    HW125988   4.288   0.379   0.486  2.6659 -1.9445  1.5008
 4784SOL    HW225989   4.187   0.276   0.471 -0.1207 -1.7007  2.6012
 4785SOL     OW25990   4.277   1.368   9.596  0.3452  0.2572 -0.1942
 4785SOL    HW125991   4.310   1.385   9.508  0.7909  1.0430  0.1282
 4785SOL    HW225992   4.248   1.455   9.623 -1.1369  1.2709 -5.0886
 4786SOL     OW25993   1.340   3.754  15.655 -0.4217 -0.7485 -0.0649
 4786SOL    HW125994   1.364   3.839  15.619 -0.5096 -2.0069 -3.1156
 4786SOL    HW225995   1.333   3.783  15.746 -2.1887  0.0398 -0.4557
 4787SOL     OW25996   2.262   3.105  13.074  0.1191  0.3018  0.4078
 4787SOL    HW125997   2.219   3.168  13.016 -0.9361  0.2708  1.1508
 4787SOL    HW225998   2.236   3.140  13.159 -0.0349  0.6669  0.2139
 4788SOL     OW25999   2.697   1.606   4.463 -0.3336 -0.4211 -0.6270
 4788SOL    HW126000   2.726   1.539   4.526  0.6573  0.5570 -0.0334
 4788SOL    HW226001   2.675   1.551   4.388  2.2457 -1.3511 -0.6988
 4789SOL     OW26002   0.469   3.113   3.629 -0.5227 -0.2107 -0.2668
 4789SOL    HW126003   0.450   3.173   3.701  1.5035 -0.4549  0.4848
 4789SOL    HW226004   0.386   3.109   3.582 -0.1063  2.1519 -1.2275
 4790SOL     OW26005   3.049   1.357  16.736  0.2242 -0.2681  0.3432
 4790SOL    HW126006   3.012   1.269  16.739 -1.9828  0.7029  1.7613
 4790SOL    HW226007   3.092   1.360  16.821 -0.9043  0.8513  0.8906
 4791SOL     OW26008   2.409   1.640   7.603 -0.3837 -0.0475 -0.4661
 4791SOL    HW126009   2.327   1.599   7.574 -0.5443  0.3103 -0.5123
 4791SOL    HW226010   2.402   1.728   7.567 -0.4837 -0.8667 -2.5032
 4792SOL     OW26011   4.043   1.164   4.454  0.3825  0.2441  0.3698
 4792SOL    HW126012   3.991   1.217   4.515 -0.8634 -2.5997  1.7761
 4792SOL    HW226013   4.124   1.162   4.505  0.2660 -1.0202  0.5081
 4793SOL     OW26014   1.746   4.317   3.363 -0.5807 -0.2306 -0.1279
 4793SOL    HW126015   1.782   4.405   3.373  0.4515 -0.3862 -2.4356
 4793SOL    HW226016   1.676   4.317   3.428 -0.5240  0.4982 -0.0714
 4794SOL     OW26017   4.649   2.913   6.074 -0.1439  0.1220  0.4246
 4794SOL    HW126018   4.579   2.920   6.009 -0.7431  1.6981  1.2456
 4794SOL    HW226019   4.678   2.822   6.067 -0.2749  0.1599 -0.7062
 4795SOL     OW26020   2.343   2.089   3.587  0.3464 -0.7756  0.6061
 4795SOL    HW126021   2.307   2.162   3.638 -0.4310 -0.9242  0.2724
 4795SOL    HW226022   2.337   2.129   3.501 -1.4664 -2.8405 -0.2102
 4796SOL     OW26023   4.521   2.386   1.949  0.1653 -0.2743 -0.5669
 4796SOL    HW126024   4.449   2.324   1.942  0.3847 -0.6633  0.6062
 4796SOL    HW226025   4.551   2.369   1.860 -0.6599  0.2985 -0.9475
 4797SOL     OW26026   3.165   3.572   1.540 -0.4499  0.0055 -0.2949
 4797SOL    HW126027   3.083   3.523   1.540 -0.5589  0.1834 -0.6217
 4797SOL    HW226028   3.148   3.632   1.467  1.1828 -1.0972 -1.5772
 4798SOL     OW26029   4.148   2.551   4.439  0.1027  0.6442 -0.0781
 4798SOL    HW126030   4.131   2.543   4.345 -2.6847 -0.6657  0.5483
 4798SOL    HW226031   4.100   2.479   4.480  1.5542 -0.6589 -0.6462
 4799SOL     OW26032   4.301   1.255  12.954  0.0901 -0.7550  0.3402
 4799SOL    HW126033   4.268   1.296  12.874  1.9524  2.5063  1.2484
 4799SOL    HW226034   4.362   1.324  12.981 -0.8884  0.1770  0.1572
 4800SOL     OW26035   2.036   3.047  17.545 -0.2304  0.3499 -0.4382
 4800SOL    HW126036   2.093   3.038  17.470  0.7114 -0.8641  0.4312
 4800SOL    HW226037   2.033   2.959  17.583  1.1778 -0.1570 -1.5320
 4801SOL     OW26038   4.032   0.727   8.766 -0.5242 -0.0969 -0.3287
 4801SOL    HW126039   4.043   0.767   8.852 -0.9849  0.6530 -0.6181
 4801SOL    HW226040   4.118   0.688   8.750 -0.5132  0.6050 -2.0183
 4802SOL     OW26041   2.376   1.341   6.470 -0.7102  0.0122  0.0548
 4802SOL    HW126042   2.437   1.384   6.409  1.8359 -2.2394  1.0462
 4802SOL    HW226043   2.353   1.267   6.414  0.8459 -0.9761  0.7494
 4803SOL     OW26044   1.644   3.269   7.042 -0.5366 -0.2932 -0.2061
 4803SOL    HW126045   1.738   3.260   7.029 -0.8532 -2.9654 -0.6609
 4803SOL    HW226046   1.611   3.201   6.984 -1.4428 -0.5688  0.6389
 4804SOL     OW26047   3.977   0.027   7.411 -0.1715  0.2216  0.2704
 4804SOL    HW126048   4.051   4.703   7.422 -0.1968  0.0305 -0.6015
 4804SOL    HW226049   4.000   0.099   7.470 -0.6568 -1.3890  2.4080
 4805SOL     OW26050   2.364   1.631  10.825  0.2835  0.1856  0.0260
 4805SOL    HW126051   2.439   1.576  10.802 -0.3208 -0.8600  0.5922
 4805SOL    HW226052   2.393   1.675  10.905 -2.2125  0.7902  0.5800
 4806SOL     OW26053   0.070   1.355  16.344 -0.2323 -0.2371  0.0108
 4806SOL    HW126054   4.726   1.314  16.308 -0.6548 -0.6682  1.4267
 4806SOL    HW226055   0.034   1.411  16.412 -0.5402  0.5743 -0.8171
 4807SOL     OW26056   3.161   2.310   8.574  0.0269  0.5383  0.3988
 4807SOL    HW126057   3.100   2.379   8.600 -1.4691 -0.8228  0.4716
 4807SOL    HW226058   3.129   2.298   8.484  1.8148 -0.2064 -0.1352
 4808SOL     OW26059   1.412   2.829   0.127 -0.0645  0.1308 -0.3615
 4808SOL    HW126060   1.423   2.852   0.219 -0.8871  0.3266 -0.3072
 4808SOL    HW226061   1.334   2.877   0.096  1.0495  2.2793  0.1364
 4809SOL     OW26062   3.749   0.809   3.537  1.0602  0.4000  0.1008
 4809SOL    HW126063   3.657   0.804   3.510  0.9792 -1.2845  0.6681
 4809SOL    HW226064   3.743   0.815   3.632 -2.6662  0.1547 -0.1283
 4810SOL     OW26065   1.664   3.419   8.346  0.2737  0.3477  0.1926
 4810SOL    HW126066   1.597   3.459   8.291  1.2746  0.1590 -1.1526
 4810SOL    HW226067   1.616   3.345   8.383  0.7148  0.0530  0.1787
 4811SOL     OW26068   1.910   1.711   3.665  0.1509  0.6133 -0.8814
 4811SOL    HW126069   1.980   1.648   3.646 -0.5252 -0.3564 -0.1354
 4811SOL    HW226070   1.840   1.647   3.676  0.5628  0.1345 -1.0705
 4812SOL     OW26071   2.112   3.892   5.891  0.0621 -0.5239 -0.0800
 4812SOL    HW126072   2.180   3.946   5.852 -0.5412 -0.5634 -1.1924
 4812SOL    HW226073   2.074   3.957   5.950 -0.2234  0.5641 -1.4491
 4813SOL     OW26074   0.458   3.350   6.776  0.3146  0.4642 -0.2857
 4813SOL    HW126075   0.380   3.383   6.731 -0.6040 -1.8856 -0.4344
 4813SOL    HW226076   0.441   3.389   6.861  1.2145 -0.4413  0.3067
 4814SOL     OW26077   3.238   2.065  11.414 -0.3737 -0.1635  0.3836
 4814SOL    HW126078   3.315   2.030  11.369 -0.1130  3.9384 -2.3300
 4814SOL    HW226079   3.248   2.159  11.395 -1.2238  0.0536  1.0352
 4815SOL     OW26080   3.721   1.332   4.282  0.8021  0.1796  0.2351
 4815SOL    HW126081   3.688   1.352   4.195 -0.1383 -1.3703  0.2295
 4815SOL    HW226082   3.793   1.277   4.254 -1.2211 -2.4292  0.1493
 4816SOL     OW26083   3.601   0.219   9.562 -0.3171 -0.3525 -0.1868
 4816SOL    HW126084   3.530   0.224   9.626  0.2620  1.3633  0.3180
 4816SOL    HW226085   3.638   0.307   9.561  0.1260 -0.4857  3.6443
 4817SOL     OW26086   3.961   2.259  16.497  0.0685 -0.2205 -0.0603
 4817SOL    HW126087   3.936   2.350  16.484  0.5930 -0.2675 -1.4251
 4817SOL    HW226088   3.893   2.226  16.556 -0.2558  0.5911  0.0153
 4818SOL     OW26089   0.319   1.450  10.555 -0.1813  0.7889 -0.2312
 4818SOL    HW126090   0.343   1.542  10.558  0.5796  0.4198  3.8933
 4818SOL    HW226091   0.406   1.411  10.559 -0.0383  1.3672  2.0456
 4819SOL     OW26092   1.265   3.632   6.748 -0.8141  0.2632  0.0812
 4819SOL    HW126093   1.358   3.625   6.771 -0.5028  1.3720 -0.8333
 4819SOL    HW226094   1.239   3.540   6.750 -0.1808  0.0642 -0.6076
 4820SOL     OW26095   2.432   0.856  13.024 -0.3768  0.0481  0.2146
 4820SOL    HW126096   2.488   0.787  12.990  1.0960  0.6434  1.4078
 4820SOL    HW226097   2.464   0.866  13.114 -0.6244 -0.0875  0.3171
 4821SOL     OW26098   4.661   2.961  11.421  0.2380 -0.1099  0.3167
 4821SOL    HW126099   4.574   2.969  11.382  0.6997 -1.5806 -1.0187
 4821SOL    HW226100   4.694   3.044  11.389 -0.8749  0.7297  1.3307
 4822SOL     OW26101   0.973   3.887   8.395 -0.0842 -0.0367 -0.4569
 4822SOL    HW126102   0.918   3.852   8.465  0.3883 -1.5669 -0.8455
 4822SOL    HW226103   0.936   3.973   8.374 -0.2896  0.1798  0.7747
 4823SOL     OW26104   2.794   1.049  15.076  0.1308 -0.1418  0.1122
 4823SOL    HW126105   2.777   1.023  14.985 -0.9028 -4.4626  1.5204
 4823SOL    HW226106   2.851   0.974  15.096  1.1946  1.3641  2.6683
 4824SOL     OW26107   2.499   2.998   0.872 -0.1778  0.1929  0.2447
 4824SOL    HW126108   2.565   2.930   0.889  1.4481  2.1991  2.0090
 4824SOL    HW226109   2.553   3.066   0.831  2.1587 -0.4151  2.2989
 4825SOL     OW26110   4.459   2.489   6.296 -0.5710 -0.1671  0.4811
 4825SOL    HW126111   4.451   2.439   6.215  1.8586 -0.5796  0.5033
 4825SOL    HW226112   4.554   2.498   6.298 -0.8246  3.1065 -0.8228
 4826SOL     OW26113   3.817   3.266  14.849  0.5875 -0.2337  0.1702
 4826SOL    HW126114   3.771   3.327  14.906  0.4855  0.7970 -0.9984
 4826SOL    HW226115   3.890   3.317  14.814 -0.4430  0.3704 -1.1244
 4827SOL     OW26116   3.175   3.970   1.772 -0.0619  0.0209 -0.1953
 4827SOL    HW126117   3.152   4.008   1.687 -0.6248 -0.8539 -0.4324
 4827SOL    HW226118   3.215   3.886   1.747 -1.0633  0.0753 -1.9586
 4828SOL     OW26119   3.886   3.034   0.988 -0.1765 -0.9335  0.0107
 4828SOL    HW126120   3.882   2.976   0.912  0.9649 -1.0066  0.0182
 4828SOL    HW226121   3.794   3.060   1.000 -0.3321  1.1409 -5.6890
 4829SOL     OW26122   3.767   4.612   9.388  0.4398 -0.0710 -0.0221
 4829SOL    HW126123   3.784   4.704   9.365 -2.3175  0.2161 -0.8645
 4829SOL    HW226124   3.823   4.573   9.321 -0.2543  0.8271 -1.1247
 4830SOL     OW26125   1.495   2.892  11.650  0.2622  0.4498  0.3185
 4830SOL    HW126126   1.561   2.937  11.703  1.3732  1.0007 -1.5553
 4830SOL    HW226127   1.413   2.922  11.689 -0.7083 -0.8261 -0.7710
 4831SOL     OW26128   0.148   4.050   3.015 -0.0959  0.0878 -0.1123
 4831SOL    HW126129   0.178   4.096   2.937 -0.3810  0.9589  0.2905
 4831SOL    HW226130   0.053   4.061   3.017  0.0485  1.0717  0.9071
 4832SOL     OW26131   1.613   0.048  13.621  0.3196 -0.4553 -0.2901
 4832SOL    HW126132   1.573   0.052  13.708 -1.8726  1.7580 -1.4240
 4832SOL    HW226133   1.679   4.714  13.632  2.1920  0.7586 -4.0760
 4833SOL     OW26134   4.609   0.156   6.752 -0.3764 -0.6348 -0.1080
 4833SOL    HW126135   4.552   0.168   6.828 -0.9947 -0.1778 -0.6426
 4833SOL    HW226136   4.685   0.194   6.795 -2.1461  2.7715  0.0049
 4834SOL     OW26137   1.569   2.939   8.364 -0.3857 -0.7854 -0.2104
 4834SOL    HW126138   1.622   2.896   8.430  2.1449  0.5673 -1.3598
 4834SOL    HW226139   1.612   2.913   8.283  0.0435  0.5046 -0.3955
 4835SOL     OW26140   2.059   0.865   6.677 -0.0338  0.1887 -0.4368
 4835SOL    HW126141   2.081   0.957   6.663 -2.8182  0.9690  0.2598
 4835SOL    HW226142   1.964   0.869   6.665  0.1556  0.5386 -1.8332
 4836SOL     OW26143   2.884   1.383   2.917 -0.2778 -0.7875 -0.0435
 4836SOL    HW126144   2.844   1.385   2.830 -0.2736 -2.3207 -0.0757
 4836SOL    HW226145   2.954   1.320   2.902  1.3300 -0.0966  4.8715
 4837SOL     OW26146   4.017   2.842   8.600  0.5934  0.7249  0.2471
 4837SOL    HW126147   3.950   2.819   8.536  1.9557 -2.6850  0.0862
 4837SOL    HW226148   4.087   2.882   8.550 -0.1028 -0.4611 -1.6635
 4838SOL     OW26149   0.635   2.446   7.897  0.0740 -0.3465  0.1375
 4838SOL    HW126150   0.666   2.406   7.815  0.6635 -0.7961  0.5792
 4838SOL    HW226151   0.660   2.386   7.967  2.6363  2.2698  1.4307
 4839SOL     OW26152   0.245   3.320   1.289 -0.6951  0.6244 -0.2867
 4839SOL    HW126153   0.252   3.310   1.384  0.6130  0.3305 -0.4120
 4839SOL    HW226154   0.280   3.408   1.274 -0.4275  0.7219  0.9204
 4840SOL     OW26155   4.098   1.707   5.415  0.0927  0.0421 -0.3859
 4840SOL    HW126156   4.067   1.761   5.488 -0.5539 -1.7168  0.6215
 4840SOL    HW226157   4.053   1.629   5.445  0.0054 -0.1023 -0.8929
 4841SOL     OW26158   0.798   2.488   2.153  0.3655  0.0000  0.0412
 4841SOL    HW126159   0.876   2.526   2.112 -1.5592  1.0706 -2.6383
 4841SOL    HW226160   0.789   2.404   2.108  1.3745  0.0396 -0.2454
 4842SOL     OW26161   4.129   3.685   5.611  0.0876  0.2841 -0.0922
 4842SOL    HW126162   4.167   3.699   5.698  2.2441  0.0997 -1.0150
 4842SOL    HW226163   4.068   3.758   5.607 -1.9717 -1.3681  1.4711
 4843SOL     OW26164   1.780   3.534   6.338  1.1730  0.2620 -0.2101
 4843SOL    HW126165   1.859   3.587   6.340  0.5710  1.0705  1.9374
 4843SOL    HW226166   1.820   3.447   6.341 -0.1236 -0.3212  0.4430
 4844SOL     OW26167   3.312   4.188  17.454  0.3018 -0.0929 -0.5970
 4844SOL    HW126168   3.249   4.229  17.396 -2.7946 -3.2134  0.5905
 4844SOL    HW226169   3.389   4.235  17.420 -0.3061  0.0496 -1.7592
 4845SOL     OW26170   3.246   2.649   5.058  0.0297 -0.1320 -0.4597
 4845SOL    HW126171   3.335   2.683   5.066  0.0376 -0.3290  0.3009
 4845SOL    HW226172   3.198   2.725   5.091  0.4240  0.5068 -1.3777
 4846SOL     OW26173   0.029   2.056   8.509 -0.1968  0.3304  0.8690
 4846SOL    HW126174   0.041   2.151   8.498  1.5706  0.0609  0.4332
 4846SOL    HW226175   0.064   2.039   8.597 -0.9117  0.2513  1.1379
 4847SOL     OW26176   3.128   3.934   2.201  0.1201  0.0161  0.1592
 4847SOL    HW126177   3.091   3.916   2.115  0.9411 -1.0619  0.0288
 4847SOL    HW226178   3.057   3.982   2.243  0.6338  1.8821 -1.0941
 4848SOL     OW26179   1.390   2.920  10.997 -0.1010 -0.2951  0.3220
 4848SOL    HW126180   1.341   2.988  11.043 -2.1222 -1.7834  0.3640
 4848SOL    HW226181   1.328   2.909  10.924 -2.3411  0.3515  2.1268
 4849SOL     OW26182   2.114   3.155   4.990  0.3511 -0.5881  0.0743
 4849SOL    HW126183   2.032   3.195   4.962  0.0458 -0.9208  0.4894
 4849SOL    HW226184   2.091   3.147   5.083  1.9681 -0.9707  0.4512
 4850SOL     OW26185   0.076   2.593   6.328  0.4478  0.0598 -0.4601
 4850SOL    HW126186   0.140   2.604   6.258  1.4470 -0.9862  0.2691
 4850SOL    HW226187   0.046   2.681   6.349  0.6112  0.1372 -0.5553
 4851SOL     OW26188   1.286   0.749   8.558  0.0776  0.1914  0.1474
 4851SOL    HW126189   1.199   0.771   8.593 -0.2393 -0.8730  0.0214
 4851SOL    HW226190   1.257   0.696   8.484  0.1327  0.4413 -0.0519
 4852SOL     OW26191   0.100   3.453   3.413  0.5545  0.1875  0.6000
 4852SOL    HW126192   0.022   3.509   3.412  0.3064 -0.1874 -1.0422
 4852SOL    HW226193   0.103   3.425   3.505  1.0843 -0.8212  0.2724
 4853SOL     OW26194   0.632   3.666   2.888 -0.1992  0.3494  0.1159
 4853SOL    HW126195   0.677   3.701   2.965 -1.1480  1.7204  0.0400
 4853SOL    HW226196   0.554   3.720   2.874  1.3283  2.8264  1.2411
 4854SOL     OW26197   2.149   1.490  15.873  0.2071 -0.4457 -0.5624
 4854SOL    HW126198   2.104   1.501  15.956 -1.0934 -0.9729 -1.2057
 4854SOL    HW226199   2.244   1.487  15.889  0.1489  1.4105  0.2087
 4855SOL     OW26200   1.472   1.443   1.877 -0.7720 -0.2057  0.2927
 4855SOL    HW126201   1.551   1.423   1.928 -0.2862 -0.5736 -0.6067
 4855SOL    HW226202   1.414   1.448   1.954 -3.2853 -0.9951 -1.5414
 4856SOL     OW26203   3.270   0.062   3.175  0.0932 -0.0834 -0.6255
 4856SOL    HW126204   3.264   0.148   3.133 -0.2540  0.9691  1.5714
 4856SOL    HW226205   3.199   0.070   3.239  2.0904  2.0791  1.3226
 4857SOL     OW26206   4.294   1.423   7.201  0.1379 -0.0296 -0.0817
 4857SOL    HW126207   4.345   1.378   7.134 -0.4532  1.6541 -1.6881
 4857SOL    HW226208   4.244   1.348   7.233  0.0706  1.2313  2.7872
 4858SOL     OW26209   4.583   0.500   8.635  0.0929 -0.2787 -0.0080
 4858SOL    HW126210   4.672   0.485   8.669  0.1848 -1.8123 -0.8957
 4858SOL    HW226211   4.589   0.589   8.600 -0.8587 -0.1908  0.0698
 4859SOL     OW26212   0.526   3.469  15.473  0.1653  0.5541  0.5008
 4859SOL    HW126213   0.579   3.522  15.413  0.5914 -0.2435  0.1682
 4859SOL    HW226214   0.447   3.496  15.427 -0.5392  0.9730  1.9389
 4860SOL     OW26215   1.199   1.936   8.024 -0.5805 -0.6601 -0.1515
 4860SOL    HW126216   1.164   1.906   8.108 -1.8521  0.0243 -0.4323
 4860SOL    HW226217   1.295   1.930   8.026 -0.5248  0.6616  2.4580
 4861SOL     OW26218   3.592   3.413   3.825  0.8492 -0.2270  0.3043
 4861SOL    HW126219   3.554   3.406   3.737  0.3266 -3.0067  0.7643
 4861SOL    HW226220   3.524   3.454   3.878 -0.0551 -0.6383 -0.5353
 4862SOL     OW26221   0.310   0.534   1.583  1.0303 -0.3565  0.3333
 4862SOL    HW126222   0.357   0.616   1.597  0.7777 -0.3197  0.9304
 4862SOL    HW226223   0.234   0.552   1.637  0.4841 -1.1762 -0.1609
 4863SOL     OW26224   2.888   1.155  17.501  0.0292 -0.6214  0.1537
 4863SOL    HW126225   2.890   1.226  17.565  3.9217 -0.8428  0.2945
 4863SOL    HW226226   2.835   1.198  17.434  0.9988 -2.1323 -1.5690
 4864SOL     OW26227   3.479   1.164   6.705 -0.5725  0.1427  0.1145
 4864SOL    HW126228   3.530   1.245   6.695  1.6858 -1.4302 -1.0651
 4864SOL    HW226229   3.409   1.172   6.640  0.9554  0.5845 -1.4777
 4865SOL     OW26230   0.976   1.090   4.638  0.0269  0.6542  0.0347
 4865SOL    HW126231   1.066   1.112   4.660  0.7168 -0.4002 -1.6957
 4865SOL    HW226232   0.992   1.010   4.587 -0.0495  1.1311 -0.7296
 4866SOL     OW26233   4.715   1.342   6.124 -0.5609  0.0409 -0.5212
 4866SOL    HW126234   4.638   1.396   6.104 -2.4588 -2.8214 -0.9799
 4866SOL    HW226235   4.699   1.317   6.215 -1.3596 -0.4089 -0.7848
 4867SOL     OW26236   1.837   0.271  11.510 -0.2472 -0.0314 -0.6589
 4867SOL    HW126237   1.914   0.322  11.536 -2.1388  2.7965 -0.6111
 4867SOL    HW226238   1.877   0.193  11.472  1.2075  0.2762  0.2060
 4868SOL     OW26239   2.589   1.309  15.658 -0.5614  0.3157 -0.1038
 4868SOL    HW126240   2.559   1.261  15.736 -0.7283  0.2875 -0.1843
 4868SOL    HW226241   2.674   1.269  15.640  0.1583  0.7115  2.3207
 4869SOL     OW26242   0.775   2.457   0.607 -0.3641 -0.7254  0.8178
 4869SOL    HW126243   0.816   2.485   0.688 -2.1626  0.1672  1.4313
 4869SOL    HW226244   0.795   2.363   0.604 -2.2560 -1.1389  0.9948
 4870SOL     OW26245   4.253   0.821   4.808 -0.2383  0.1556  0.0574
 4870SOL    HW126246   4.328   0.784   4.854  0.4953 -0.0987 -1.3637
 4870SOL    HW226247   4.182   0.792   4.865  2.7636  1.1662  4.3437
 4871SOL     OW26248   3.709   2.368   2.056 -0.1764 -0.0149 -0.2407
 4871SOL    HW126249   3.634   2.419   2.027 -1.3969 -0.6866  1.6840
 4871SOL    HW226250   3.671   2.305   2.117  1.0502 -1.2175 -0.7125
 4872SOL     OW26251   0.004   2.959   6.975 -0.0256 -0.2921  0.1813
 4872SOL    HW126252   4.699   2.989   7.056 -3.1824  0.1587 -1.5581
 4872SOL    HW226253   0.090   3.000   6.971 -0.7448  1.2886  1.2056
 4873SOL     OW26254   1.463   2.452   0.690  0.3169 -0.1947  0.7229
 4873SOL    HW126255   1.475   2.479   0.599  0.2941 -0.2092  0.7156
 4873SOL    HW226256   1.448   2.540   0.724 -3.2662 -0.1407 -0.9485
 4874SOL     OW26257   3.503   0.897   6.680  0.0684  0.2179 -0.2958
 4874SOL    HW126258   3.433   0.845   6.640 -0.2857 -0.0941  0.7395
 4874SOL    HW226259   3.461   0.983   6.686 -2.8739 -1.2920  0.6541
 4875SOL     OW26260   4.391   1.369  13.275 -0.0031 -0.1986  0.7747
 4875SOL    HW126261   4.480   1.402  13.283  0.7002 -1.7539 -0.5049
 4875SOL    HW226262   4.336   1.447  13.271  0.1576 -0.0508  1.4598
 4876SOL     OW26263   1.038   0.197   3.930 -0.1372  0.2743 -0.1641
 4876SOL    HW126264   1.057   0.227   4.019  1.7384 -1.3429 -0.0197
 4876SOL    HW226265   1.089   0.263   3.882  1.4313 -1.9631 -1.5685
 4877SOL     OW26266   4.220   0.104   2.967  0.0304 -0.0692  0.1921
 4877SOL    HW126267   4.164   0.028   2.981  1.3352 -0.6948  1.9602
 4877SOL    HW226268   4.179   0.164   3.030  0.5546  0.1735  0.3053
 4878SOL     OW26269   1.982   1.681   9.073 -0.3725  0.2390 -0.1147
 4878SOL    HW126270   2.030   1.689   9.155 -1.7722 -2.2250  0.9290
 4878SOL    HW226271   2.053   1.654   9.015 -0.5350  2.3859 -1.3387
 4879SOL     OW26272   2.386   2.550  13.379  0.9038 -0.1599 -1.0047
 4879SOL    HW126273   2.331   2.542  13.457  0.3644  1.5606 -1.2068
 4879SOL    HW226274   2.362   2.639  13.355 -0.6587 -0.3909 -0.3102
 4880SOL     OW26275   2.805   2.039   7.641 -0.5735  0.2240 -0.0465
 4880SOL    HW126276   2.779   2.113   7.697 -0.7008  0.3884 -0.3204
 4880SOL    HW226277   2.887   2.000   7.671  0.5088  2.0781 -0.5787
 4881SOL     OW26278   1.160   4.303  11.828  0.5721  0.0280  0.0012
 4881SOL    HW126279   1.070   4.324  11.853  0.3063 -0.4846 -0.5194
 4881SOL    HW226280   1.199   4.385  11.799  1.3759 -0.5262 -0.4913
 4882SOL     OW26281   1.612   2.881   1.486  0.1741 -0.1302  0.2729
 4882SOL    HW126282   1.631   2.790   1.510 -0.5277 -0.4605 -0.4087
 4882SOL    HW226283   1.550   2.914   1.551  0.3551  0.8615 -0.0547
 4883SOL     OW26284   2.089   3.695   1.310  1.0692 -0.0677 -0.2655
 4883SOL    HW126285   2.107   3.643   1.388 -0.3327  1.3015  0.9802
 4883SOL    HW226286   2.052   3.622   1.260  0.6274  1.1518 -1.7296
 4884SOL     OW26287   0.743   2.297   1.837  0.0242  0.1613  0.0687
 4884SOL    HW126288   0.765   2.263   1.924  1.6716  1.5714  0.2094
 4884SOL    HW226289   0.822   2.257   1.800  1.1451  2.1492  0.3006
 4885SOL     OW26290   2.669   0.651   8.860 -0.0021  0.3895 -0.0252
 4885SOL    HW126291   2.687   0.574   8.806  1.1608  0.2105  0.5941
 4885SOL    HW226292   2.753   0.650   8.906 -0.1422  0.3580  0.2293
 4886SOL     OW26293   3.202   0.365   0.097 -0.1413  0.3960  0.0660
 4886SOL    HW126294   3.267   0.350   0.165 -1.1576 -1.5284  0.6424
 4886SOL    HW226295   3.231   0.319   0.018 -1.6828 -0.8204  0.2024
 4887SOL     OW26296   1.094   3.935   5.270  0.0908  0.0447 -0.2396
 4887SOL    HW126297   1.157   3.907   5.336  0.7632  0.7722 -0.5728
 4887SOL    HW226298   1.029   3.867   5.253 -0.7760  0.9775 -0.6508
 4888SOL     OW26299   2.969   0.016  14.107 -0.3235  0.0479 -0.2352
 4888SOL    HW126300   2.915   0.094  14.118  0.0712  0.4831 -1.4072
 4888SOL    HW226301   3.033   0.035  14.176  0.3387 -0.0645 -0.8126
 4889SOL     OW26302   4.701   0.486   6.350 -0.5251  0.0154  0.0854
 4889SOL    HW126303   4.650   0.442   6.417  1.4115 -1.5356  0.5236
 4889SOL    HW226304   0.059   0.481   6.374 -0.6784  0.8851  0.8780
 4890SOL     OW26305   3.720   3.234   8.431  0.4874  0.3254 -0.4626
 4890SOL    HW126306   3.658   3.305   8.419  1.2271  0.5122 -3.1886
 4890SOL    HW226307   3.735   3.244   8.525 -0.3295  0.8964 -0.3987
 4891SOL     OW26308   0.460   4.586   4.161  0.7341 -0.2567 -0.2405
 4891SOL    HW126309   0.423   4.631   4.085  1.0677 -0.6769 -0.6541
 4891SOL    HW226310   0.547   4.625   4.156  0.3459  0.6632  0.0864
 4892SOL     OW26311   2.833   1.655  11.752 -0.0046 -0.3796  0.0752
 4892SOL    HW126312   2.881   1.724  11.798  0.0862 -0.0397 -0.5406
 4892SOL    HW226313   2.851   1.687  11.664  0.2354 -0.2896  0.1569
 4893SOL     OW26314   1.807   1.362   3.528  0.0635  0.5183 -0.2670
 4893SOL    HW126315   1.879   1.351   3.467  0.3762  0.1499  0.1681
 4893SOL    HW226316   1.818   1.284   3.583 -0.5281  1.7589  1.6114
 4894SOL     OW26317   2.455   0.194  15.441 -0.6204 -0.1396 -0.1930
 4894SOL    HW126318   2.406   0.276  15.437  0.4694  0.4892 -0.5696
 4894SOL    HW226319   2.384   0.130  15.427  0.3658 -1.3158  0.2099
 4895SOL     OW26320   1.415   1.618   7.049 -0.5232  0.2501 -0.5982
 4895SOL    HW126321   1.439   1.555   6.981  0.7291 -0.4338  0.4564
 4895SOL    HW226322   1.343   1.659   7.003 -0.3020  0.0989 -1.0825
 4896SOL     OW26323   4.691   3.825   0.467 -0.2888  0.3203  0.6114
 4896SOL    HW126324   0.012   3.807   0.543 -1.4357 -0.3191  1.3106
 4896SOL    HW226325   4.609   3.842   0.515 -0.9458 -3.9316  0.9781
 4897SOL     OW26326   2.342   1.464  15.017  0.1722  0.4449  0.7084
 4897SOL    HW126327   2.303   1.504  15.094 -0.3289 -0.7784  1.0771
 4897SOL    HW226328   2.322   1.373  15.037 -0.7756  0.2947 -0.8599
 4898SOL     OW26329   3.892   1.254   6.725 -0.2979 -0.0437 -0.4082
 4898SOL    HW126330   3.810   1.215   6.756  0.9402 -2.4801 -0.1593
 4898SOL    HW226331   3.906   1.313   6.799 -0.2007  0.5780 -0.9162
 4899SOL     OW26332   0.396   1.890  13.963 -0.0087 -0.4130  0.2716
 4899SOL    HW126333   0.328   1.831  13.996  0.2011 -0.8203 -0.0333
 4899SOL    HW226334   0.341   1.952  13.916 -2.9124 -3.8473 -0.8703
 4900SOL     OW26335   1.405   4.490   8.101 -0.2226  0.2840  0.0074
 4900SOL    HW126336   1.314   4.463   8.118  0.5335 -1.7025  0.8567
 4900SOL    HW226337   1.455   4.456   8.174 -0.2999  0.4106  0.1202
 4901SOL     OW26338   1.721   1.539  17.618 -0.8411 -0.3560 -0.4003
 4901SOL    HW126339   1.668   1.545  17.538 -1.0377 -3.8133 -0.5341
 4901SOL    HW226340   1.657   1.528  17.688  0.1869 -0.2086  0.5507
 4902SOL     OW26341   3.300   1.546  10.655  0.8179 -0.2202 -0.4945
 4902SOL    HW126342   3.379   1.513  10.614  0.4748 -0.7947 -0.7084
 4902SOL    HW226343   3.310   1.529  10.749 -0.7551  0.1408 -0.2506
 4903SOL     OW26344   4.013   1.667  14.695  0.0778 -0.3998 -0.1426
 4903SOL    HW126345   3.930   1.714  14.686  0.6388  0.9067  1.3855
 4903SOL    HW226346   4.020   1.644  14.603  0.3082 -2.1481  0.3059
 4904SOL     OW26347   2.852   3.135   7.813  0.1399  0.0931 -0.2939
 4904SOL    HW126348   2.756   3.134   7.807  0.0485  3.8223  0.5833
 4904SOL    HW226349   2.870   3.041   7.812  0.5223  0.1576  0.8383
 4905SOL     OW26350   4.099   1.118   9.189 -0.4383 -0.1716 -0.4768
 4905SOL    HW126351   4.057   1.035   9.166  0.8030 -1.1905  0.9182
 4905SOL    HW226352   4.190   1.104   9.163 -0.3535  0.2257 -0.3904
 4906SOL     OW26353   0.199   3.793   3.631 -0.3484 -0.3783 -0.1493
 4906SOL    HW126354   0.264   3.840   3.683 -0.4342 -0.6469  0.1987
 4906SOL    HW226355   0.145   3.860   3.590  1.1894  1.2685  0.5271
 4907SOL     OW26356   1.005   2.057   8.788  0.7694  0.1926  0.7109
 4907SOL    HW126357   1.019   1.972   8.747 -0.9493  0.4208 -0.3305
 4907SOL    HW226358   0.924   2.036   8.833  0.7541 -1.0946  0.0942
 4908SOL     OW26359   4.691   1.699   9.426 -0.1640 -0.1620 -0.2558
 4908SOL    HW126360   4.671   1.791   9.441  2.9615  0.3257  0.9684
 4908SOL    HW226361   4.635   1.662   9.494 -0.9357  0.0941 -0.7438
 4909SOL     OW26362   3.965   1.172   5.585  0.1953  0.0824 -0.0730
 4909SOL    HW126363   3.930   1.181   5.674  0.0316 -0.5083 -0.0774
 4909SOL    HW226364   4.055   1.201   5.598  0.1933 -0.2348  0.6855
 4910SOL     OW26365   2.622   0.966  15.991  0.2225 -0.5169  0.1875
 4910SOL    HW126366   2.652   1.028  16.057 -2.8670 -0.6745  1.7696
 4910SOL    HW226367   2.691   0.951  15.927 -1.2316 -1.5226 -1.1463
 4911SOL     OW26368   3.799   0.227   4.505  0.6170  0.2119  0.8117
 4911SOL    HW126369   3.781   0.232   4.411  1.2111 -1.0297  0.6294
 4911SOL    HW226370   3.834   0.315   4.516 -2.0032  1.3284  0.3364
 4912SOL     OW26371   2.181   4.174   4.011 -0.0004 -0.3015 -0.0375
 4912SOL    HW126372   2.155   4.115   4.082  0.2567 -0.7971 -0.3556
 4912SOL    HW226373   2.211   4.252   4.059 -0.5711  0.0563 -0.2619
 4913SOL     OW26374   3.994   1.682   2.744  0.5565  0.0480  0.2561
 4913SOL    HW126375   4.031   1.673   2.832  4.4517 -0.5861 -1.4705
 4913SOL    HW226376   3.969   1.774   2.745 -2.6698 -0.7888 -0.1942
 4914SOL     OW26377   2.266   3.703   4.345  0.3083  0.3316 -0.5697
 4914SOL    HW126378   2.211   3.781   4.343 -0.7825 -0.3641  2.0473
 4914SOL    HW226379   2.349   3.746   4.366 -0.3944  2.1477 -1.6190
 4915SOL     OW26380   2.706   2.891   4.118 -0.3031 -0.2293  0.2079
 4915SOL    HW126381   2.683   2.798   4.125 -1.1417 -0.0118  0.3441
 4915SOL    HW226382   2.631   2.935   4.079  0.9981  1.6072 -0.2151
 4916SOL     OW26383   3.490   2.981   9.523 -0.2521 -0.2473 -0.1301
 4916SOL    HW126384   3.489   2.904   9.467 -0.6593 -0.1677 -0.2348
 4916SOL    HW226385   3.555   3.037   9.479 -0.4687 -0.2807 -0.4960
 4917SOL     OW26386   0.029   3.209   2.266 -0.3403  0.8346  0.1060
 4917SOL    HW126387   4.692   3.194   2.327  0.5551 -0.0004  0.9486
 4917SOL    HW226388   0.105   3.190   2.321  1.3384  1.5022 -1.9647
 4918SOL     OW26389   4.137   3.608   4.046 -0.7191 -0.2239 -0.1444
 4918SOL    HW126390   4.120   3.536   4.106  2.2220  0.8657  1.9823
 4918SOL    HW226391   4.091   3.590   3.964 -0.4985 -0.2974 -0.2507
 4919SOL     OW26392   3.127   1.447  15.781 -0.5212  0.4663  0.6022
 4919SOL    HW126393   3.096   1.358  15.800 -1.7944  0.8578  0.3277
 4919SOL    HW226394   3.194   1.450  15.850 -0.5575 -0.3639  0.6701
 4920SOL     OW26395   1.445   1.667   8.818  0.5281  0.4794 -0.0827
 4920SOL    HW126396   1.444   1.576   8.847  0.1624  0.4103 -0.3079
 4920SOL    HW226397   1.539   1.687   8.810  1.1721 -1.6777  2.1507
 4921SOL     OW26398   1.458   2.721  11.185  0.3706  0.4573  0.0654
 4921SOL    HW126399   1.404   2.785  11.139 -2.9339 -1.2861  1.5669
 4921SOL    HW226400   1.414   2.727  11.270 -0.3287 -0.9955 -0.1947
 4922SOL     OW26401   1.857   2.458   5.552 -0.0036  0.2479  0.2567
 4922SOL    HW126402   1.902   2.477   5.469  0.8590 -0.6359  0.5277
 4922SOL    HW226403   1.847   2.544   5.592 -0.6916 -0.4134  1.5120
 4923SOL     OW26404   0.465   2.267  11.920  0.1339 -0.2449  0.2650
 4923SOL    HW126405   0.554   2.292  11.895 -0.1047  0.6647  0.3107
 4923SOL    HW226406   0.406   2.301  11.853 -0.2615 -0.7815  0.3493
 4924SOL     OW26407   0.130   1.469   6.424 -0.6272  0.0067  0.3802
 4924SOL    HW126408   0.080   1.396   6.387 -0.2039 -0.7328  1.2621
 4924SOL    HW226409   0.191   1.493   6.355  1.7497 -3.1906  1.4210
 4925SOL     OW26410   3.246   2.097   8.709  0.3484 -0.3555  0.1441
 4925SOL    HW126411   3.232   2.163   8.641  2.1273  0.4333  0.5370
 4925SOL    HW226412   3.318   2.044   8.675 -0.7408 -1.9440  0.3187
 4926SOL     OW26413   1.546   0.251   2.370 -0.0035 -1.0978 -0.0018
 4926SOL    HW126414   1.625   0.239   2.423 -0.2506  3.7220  1.5309
 4926SOL    HW226415   1.481   0.209   2.426 -1.2777 -1.0915 -1.4861
 4927SOL     OW26416   1.872   3.983   7.517 -0.2445 -0.3932  0.3563
 4927SOL    HW126417   1.873   4.068   7.562 -1.2458 -1.1699  1.8571
 4927SOL    HW226418   1.960   3.979   7.481  0.8342 -0.5209  3.0170
 4928SOL     OW26419   1.126   3.979   5.582 -0.0513  0.1908  0.4386
 4928SOL    HW126420   1.192   3.922   5.542 -1.4837  0.2149 -2.0025
 4928SOL    HW226421   1.185   4.036   5.632  0.1302 -0.1513  0.6162
 4929SOL     OW26422   3.068   3.559   1.910  0.0156  0.1088  0.1408
 4929SOL    HW126423   3.141   3.608   1.873 -1.2758  1.9191 -0.0166
 4929SOL    HW226424   2.993   3.590   1.859  0.6452  0.6017 -0.4806
 4930SOL     OW26425   1.618   3.242   7.445 -0.0348 -0.5311 -0.1514
 4930SOL    HW126426   1.675   3.268   7.372 -0.9484 -0.7259 -0.9280
 4930SOL    HW226427   1.536   3.248   7.397 -0.5105 -0.6254  0.6573
 4931SOL     OW26428   3.950   0.816   6.287  0.0026 -0.6913  0.7744
 4931SOL    HW126429   3.923   0.804   6.378 -3.2771  0.3409 -0.0499
 4931SOL    HW226430   4.045   0.811   6.286  0.0581  0.4598 -0.5915
 4932SOL     OW26431   2.803   2.253  11.606 -0.4129  0.3474  0.0779
 4932SOL    HW126432   2.870   2.250  11.674  1.4186 -1.2262 -1.7897
 4932SOL    HW226433   2.841   2.315  11.543 -0.6562 -0.6292 -1.0361
 4933SOL     OW26434   3.458   2.605   7.045 -0.1396  0.4946  0.1499
 4933SOL    HW126435   3.495   2.682   7.089  0.8282  1.7944 -2.9322
 4933SOL    HW226436   3.365   2.613   7.063 -0.2374  0.3960 -0.2958
 4934SOL     OW26437   3.116   3.088   3.872  0.2959  0.1007  0.4871
 4934SOL    HW126438   3.027   3.054   3.874  0.1160  0.4425 -1.3995
 4934SOL    HW226439   3.161   3.003   3.873 -1.3844 -0.7714  1.9602
 4935SOL     OW26440   2.516   2.182   0.091 -0.4583 -0.0269 -0.1375
 4935SOL    HW126441   2.438   2.131   0.070  0.4337 -1.5921  0.3374
 4935SOL    HW226442   2.524   2.218   0.003 -2.7211 -1.7791 -1.0648
 4936SOL     OW26443   4.235   3.955  11.446 -0.6138 -0.0309 -0.3682
 4936SOL    HW126444   4.209   4.020  11.512  1.5935 -0.7238  1.1890
 4936SOL    HW226445   4.202   4.000  11.368 -0.4608 -0.7495 -0.8474
 4937SOL     OW26446   4.109   2.128   5.947  0.2537  0.1869 -0.1507
 4937SOL    HW126447   4.159   2.179   5.884  1.1809 -0.3863  0.1233
 4937SOL    HW226448   4.025   2.173   5.953  1.3715  2.1571  0.8285
 4938SOL     OW26449   4.330   1.204  17.660 -0.4406  0.6238  0.1416
 4938SOL    HW126450   4.384   1.128  17.681 -0.8870 -0.3559 -2.2150
 4938SOL    HW226451   4.248   1.157  17.646 -1.0007  2.1923 -1.9752
 4939SOL     OW26452   0.206   2.715   7.422  0.6623 -0.2695 -0.6989
 4939SOL    HW126453   0.121   2.678   7.399 -0.0965  0.6758  0.5429
 4939SOL    HW226454   0.177   2.804   7.443  1.1279 -0.8456  2.3264
 4940SOL     OW26455   2.348   0.979   7.118 -0.1997 -0.0349 -0.6660
 4940SOL    HW126456   2.399   1.005   7.195  0.2602 -1.4108 -0.4937
 4940SOL    HW226457   2.337   0.886   7.139  1.2365  0.1193  0.7703
 4941SOL     OW26458   4.618   1.009   2.440  0.2988 -0.6955 -0.1378
 4941SOL    HW126459   4.567   1.079   2.480 -0.6891 -0.6417 -1.4685
 4941SOL    HW226460   4.707   1.035   2.463  0.6469 -2.7536  0.8177
 4942SOL     OW26461   2.203   1.691   8.484 -0.0010 -0.1008  0.0353
 4942SOL    HW126462   2.192   1.689   8.579 -0.4235  1.0194  0.0104
 4942SOL    HW226463   2.267   1.621   8.474  1.0862  1.1819 -1.9491
 4943SOL     OW26464   4.122   3.016   6.691 -0.3521 -0.7960  0.6251
 4943SOL    HW126465   4.204   2.985   6.729  0.4545  2.3564  1.4392
 4943SOL    HW226466   4.087   2.954   6.627 -2.0919 -0.7983  1.5887
 4944SOL     OW26467   3.848   0.707   2.328  0.1330  0.1306 -0.2127
 4944SOL    HW126468   3.849   0.745   2.417  0.2771  0.0242 -0.1699
 4944SOL    HW226469   3.755   0.685   2.321  0.0708  0.2576  0.2019
 4945SOL     OW26470   3.577   0.102   8.758  0.4407 -0.1461 -0.2953
 4945SOL    HW126471   3.579   0.062   8.845 -0.8271  0.8835  0.2108
 4945SOL    HW226472   3.503   0.060   8.714 -0.1691  0.1766  0.4377
 4946SOL     OW26473   2.271   0.638  11.856 -0.2699  0.1520  0.0951
 4946SOL    HW126474   2.186   0.625  11.897  0.7947  0.2016  2.3326
 4946SOL    HW226475   2.239   0.647  11.766  0.1940  0.9609  0.0025
 4947SOL     OW26476   3.734   3.526   1.787 -0.0513  0.0115  0.0787
 4947SOL    HW126477   3.787   3.565   1.718 -0.9492  0.2245 -0.4987
 4947SOL    HW226478   3.793   3.503   1.858 -0.5358 -0.1267  0.4368
 4948SOL     OW26479   2.556   4.024   7.999  0.5872 -0.5049 -0.4218
 4948SOL    HW126480   2.461   4.024   8.009  0.2262  0.1087 -3.6857
 4948SOL    HW226481   2.568   4.100   7.942 -1.3877  0.6478  0.7139
 4949SOL     OW26482   4.147   2.326   9.236 -0.2096  0.1663  0.0142
 4949SOL    HW126483   4.097   2.260   9.188 -1.2052  0.6470  0.3742
 4949SOL    HW226484   4.140   2.400   9.176 -2.4147 -2.1212 -2.5689
 4950SOL     OW26485   0.887   1.281   6.772 -0.3699  0.0887  0.3466
 4950SOL    HW126486   0.801   1.275   6.814 -0.5429 -1.1665 -0.1707
 4950SOL    HW226487   0.866   1.340   6.700 -1.2452 -1.7373 -0.8792
 4951SOL     OW26488   3.983   2.634   4.961 -0.4023  0.3613 -0.0878
 4951SOL    HW126489   3.896   2.666   4.936 -1.7550 -2.3362  1.2402
 4951SOL    HW226490   3.961   2.603   5.049  1.0211 -0.7953 -0.1471
 4952SOL     OW26491   2.388   0.575   2.902 -0.0647  0.6371  0.3248
 4952SOL    HW126492   2.322   0.584   2.971 -1.1186  1.0096 -0.7210
 4952SOL    HW226493   2.354   0.640   2.840  1.4315 -1.0063 -2.2324
 4953SOL     OW26494   2.576   3.341   8.385 -0.0844 -0.8038 -0.4073
 4953SOL    HW126495   2.636   3.269   8.403 -0.7742 -0.9120  1.4294
 4953SOL    HW226496   2.647   3.404   8.374 -2.3872  1.6567 -1.1451
 4954SOL     OW26497   3.203   4.491  12.434  0.2576  0.0480 -0.2489
 4954SOL    HW126498   3.187   4.434  12.509  2.0082 -0.2861 -0.1206
 4954SOL    HW226499   3.141   4.454  12.371  2.3808 -2.4464 -0.8957
 4955SOL     OW26500   3.456   0.407   6.550  0.7942  0.0826  0.0405
 4955SOL    HW126501   3.527   0.468   6.566  1.4037 -0.1222 -1.8099
 4955SOL    HW226502   3.475   0.321   6.588 -1.0471 -0.3000  0.0870
 4956SOL     OW26503   1.834   1.182  15.736  0.5107 -0.4880  0.7276
 4956SOL    HW126504   1.757   1.212  15.689  0.3363 -0.0333  1.3019
 4956SOL    HW226505   1.897   1.253  15.725 -1.0231  0.8328  0.5397
 4957SOL     OW26506   4.573   2.382  14.351 -0.2242 -0.5666  0.2721
 4957SOL    HW126507   4.545   2.308  14.405  1.7347 -2.7152 -1.6408
 4957SOL    HW226508   4.650   2.342  14.311  0.6625  1.1522  0.2373
 4958SOL     OW26509   1.868   0.144   8.212 -0.1071 -0.1714 -0.0520
 4958SOL    HW126510   1.825   0.060   8.200 -0.3711  0.2791 -2.3442
 4958SOL    HW226511   1.816   0.200   8.270 -0.6320 -0.0473 -0.6486
 4959SOL     OW26512   4.575   2.805   8.604 -0.5176  0.4684 -0.1368
 4959SOL    HW126513   4.532   2.762   8.529 -0.2385  1.3773 -0.8197
 4959SOL    HW226514   4.652   2.844   8.562  1.0246 -1.4063  1.0080
 4960SOL     OW26515   4.160   3.533   0.955 -0.3827  0.0486  0.1373
 4960SOL    HW126516   4.209   3.468   0.906 -0.3510 -0.8117  1.3267
 4960SOL    HW226517   4.163   3.498   1.044 -0.4796 -0.3917 -0.0344
 4961SOL     OW26518   4.728   4.592   6.197 -0.1448  0.3605  0.0885
 4961SOL    HW126519   0.002   4.535   6.274  1.5582  1.1894  0.5061
 4961SOL    HW226520   0.056   4.664   6.206  0.7478 -0.3522 -0.4551
 4962SOL     OW26521   3.299   0.081   3.599  0.0638  0.3362 -0.0483
 4962SOL    HW126522   3.264   4.727   3.599  0.7646  0.0529 -0.7075
 4962SOL    HW226523   3.383   0.070   3.554  0.2503  2.5410 -0.2355
 4963SOL     OW26524   1.075   0.681  10.011  0.2546  0.0622 -0.0948
 4963SOL    HW126525   1.158   0.726  10.027 -0.4195  1.6084 -0.9292
 4963SOL    HW226526   1.092   0.635   9.928 -0.5471  1.4205 -1.0241
 4964SOL     OW26527   3.788   0.932   0.815 -0.0564 -0.0950  0.0016
 4964SOL    HW126528   3.732   0.879   0.759 -0.6626  1.1609 -0.5811
 4964SOL    HW226529   3.874   0.889   0.811  0.4097  1.0040 -1.4669
 4965SOL     OW26530   3.635   2.184   2.451 -0.2303 -0.1815 -0.0996
 4965SOL    HW126531   3.633   2.123   2.525  1.0884  2.6524  2.2432
 4965SOL    HW226532   3.580   2.255   2.485  0.0392 -0.1091  0.1825
 4966SOL     OW26533   4.607   4.238   4.345  0.3682  0.0808 -0.1898
 4966SOL    HW126534   4.622   4.306   4.410  0.9130 -1.2667  1.1073
 4966SOL    HW226535   4.672   4.173   4.373  0.3565 -0.2647 -0.9610
 4967SOL     OW26536   4.345   3.103   5.382  0.5466 -0.4773 -0.5385
 4967SOL    HW126537   4.324   3.077   5.292  1.9708  1.3285 -1.3929
 4967SOL    HW226538   4.392   3.182   5.356 -1.3376  0.4528 -1.1698
 4968SOL     OW26539   3.319   3.195  15.337 -0.6526  0.3594 -0.2873
 4968SOL    HW126540   3.248   3.257  15.323 -1.2928 -0.5960 -1.2942
 4968SOL    HW226541   3.392   3.253  15.360 -0.5425  0.3830 -0.7015
 4969SOL     OW26542   4.320   4.414  12.932  0.0647 -0.4257 -0.0310
 4969SOL    HW126543   4.285   4.395  13.020 -1.3977  0.8264 -0.3375
 4969SOL    HW226544   4.249   4.465  12.894  2.1090  0.7717 -2.1794
 4970SOL     OW26545   4.045   1.861   5.148  0.3553  0.8103  0.0070
 4970SOL    HW126546   4.104   1.848   5.222 -0.6300 -2.3558  0.2324
 4970SOL    HW226547   3.969   1.899   5.192 -0.1570 -1.3302  0.9455
 4971SOL     OW26548   4.506   0.167   4.609  0.2404  0.0581  0.6596
 4971SOL    HW126549   4.466   0.112   4.541  0.2705  1.1486 -0.2434
 4971SOL    HW226550   4.429   0.215   4.640 -1.4614 -1.8869 -0.5473
 4972SOL     OW26551   3.624   4.378   4.779 -0.0793 -0.0039  0.2279
 4972SOL    HW126552   3.625   4.312   4.710 -2.9827 -0.6298  0.7776
 4972SOL    HW226553   3.705   4.348   4.821 -0.2909 -0.4273  0.3288
 4973SOL     OW26554   0.406   2.418   4.976 -0.5007 -0.3997 -0.3059
 4973SOL    HW126555   0.348   2.449   4.907  1.2186  0.2787 -1.4302
 4973SOL    HW226556   0.346   2.364   5.028 -2.5661  2.9372  0.7394
 4974SOL     OW26557   1.127   1.140   6.108 -0.6921  0.3674  0.7217
 4974SOL    HW126558   1.125   1.057   6.156 -1.5968 -0.3790 -0.5923
 4974SOL    HW226559   1.187   1.115   6.037 -1.3971  0.5745  0.0496
 4975SOL     OW26560   2.030   2.552   5.383  0.5942 -0.4452 -0.1917
 4975SOL    HW126561   2.055   2.597   5.464  1.5504 -0.6409 -0.3716
 4975SOL    HW226562   2.076   2.602   5.315  0.1985  3.1317  2.1557
 4976SOL     OW26563   4.418   0.885   4.355  0.1115  0.8187  0.1459
 4976SOL    HW126564   4.468   0.940   4.415  1.0038  0.3414 -0.1468
 4976SOL    HW226565   4.478   0.811   4.344  0.5094  1.1608  0.0156
 4977SOL     OW26566   0.600   4.206   1.561 -0.4406  0.5878 -0.1883
 4977SOL    HW126567   0.633   4.239   1.644  0.4668 -1.4825  0.2774
 4977SOL    HW226568   0.519   4.159   1.581 -0.8511  0.4250 -2.2045
 4978SOL     OW26569   4.532   1.686  15.674 -0.2269  0.0539  0.0761
 4978SOL    HW126570   4.448   1.732  15.679 -0.9300 -1.0762 -1.4058
 4978SOL    HW226571   4.566   1.678  15.763  1.3514 -0.5237 -0.5827
 4979SOL     OW26572   1.881   4.194   0.953  0.2721  0.1454 -0.3443
 4979SOL    HW126573   1.971   4.164   0.962  0.1929  0.6366  1.9567
 4979SOL    HW226574   1.879   4.253   1.028  1.2385 -0.3552  0.0727
 4980SOL     OW26575   0.753   1.326   3.047 -0.0743  0.3888 -0.0954
 4980SOL    HW126576   0.834   1.345   2.998  1.3940 -1.9751  1.4037
 4980SOL    HW226577   0.742   1.414   3.082 -0.4502 -1.0665  3.4254
 4981SOL     OW26578   0.046   3.746   8.097 -0.5028  0.6960 -0.6213
 4981SOL    HW126579   0.036   3.796   8.016  1.9829 -0.8445 -1.8624
 4981SOL    HW226580   4.695   3.704   8.107 -0.8059  1.4476 -0.0684
 4982SOL     OW26581   3.052   0.003   7.152 -0.3298  0.4586 -0.6559
 4982SOL    HW126582   3.087   0.034   7.236 -0.7402 -1.3860  0.1900
 4982SOL    HW226583   2.977   4.687   7.183  1.2665  0.2604  2.9194
 4983SOL     OW26584   0.870   1.868   9.155 -0.2457  0.1969  0.2832
 4983SOL    HW126585   0.882   1.959   9.182 -0.1035  0.0373  0.7644
 4983SOL    HW226586   0.857   1.884   9.062  1.1023 -0.8103 -0.0760
 4984SOL     OW26587   3.860   4.719  16.585 -0.4983 -0.6495 -0.0306
 4984SOL    HW126588   3.801   0.021  16.651  0.5535  3.7119 -1.5137
 4984SOL    HW226589   3.946   0.021  16.606 -1.5820  1.6574  0.3606
 4985SOL     OW26590   0.063   3.351   3.658 -0.1914 -0.0381  0.2359
 4985SOL    HW126591   0.103   3.323   3.740  0.0314 -0.8381 -0.1493
 4985SOL    HW226592   4.704   3.350   3.675 -0.6538  1.1708 -2.2743
 4986SOL     OW26593   0.762   3.061   8.519  0.6321  0.4238 -0.5054
 4986SOL    HW126594   0.767   3.053   8.615  0.4743  1.8348 -0.3746
 4986SOL    HW226595   0.813   3.140   8.502 -1.4901  1.7326 -0.8410
 4987SOL     OW26596   4.496   1.486   6.187 -0.4448  0.6768  0.4557
 4987SOL    HW126597   4.428   1.419   6.171  1.3197 -1.8971  3.6247
 4987SOL    HW226598   4.454   1.555   6.238 -2.0595  1.3655 -1.7901
 4988SOL     OW26599   1.922   0.673   2.538  0.1205  0.0994  0.4656
 4988SOL    HW126600   1.998   0.615   2.532 -0.2943 -0.2266 -1.6980
 4988SOL    HW226601   1.853   0.617   2.573 -1.3501  1.0329 -0.9279
 4989SOL     OW26602   3.627   2.586  10.812  0.0526 -0.2183 -0.2539
 4989SOL    HW126603   3.646   2.512  10.754  0.8078 -0.5445  0.4136
 4989SOL    HW226604   3.557   2.635  10.769  0.3490 -0.0208 -0.5103
 4990SOL     OW26605   3.959   0.886   9.129 -0.3783 -0.6913 -0.5693
 4990SOL    HW126606   3.864   0.901   9.123  0.1930  2.5471 -1.3699
 4990SOL    HW226607   3.963   0.808   9.185  0.5847 -0.5501 -0.4391
 4991SOL     OW26608   3.147   4.640   6.390 -0.2452 -0.1150 -0.0525
 4991SOL    HW126609   3.157   4.545   6.400 -0.6905 -0.3942 -2.2773
 4991SOL    HW226610   3.236   4.677   6.394 -0.9017  1.6302 -1.4907
 4992SOL     OW26611   2.482   0.936  13.282  0.3585  0.0217  0.0186
 4992SOL    HW126612   2.395   0.976  13.290 -0.1617 -1.1730  0.3058
 4992SOL    HW226613   2.478   0.890  13.366 -0.7766  0.2999  0.1179
 4993SOL     OW26614   2.012   3.552   4.401 -0.2016 -0.2293 -0.2493
 4993SOL    HW126615   1.991   3.530   4.310 -0.6237  3.3149 -1.0497
 4993SOL    HW226616   2.079   3.619   4.383 -1.3228  1.0382  0.2846
 4994SOL     OW26617   1.777   3.993  16.893  0.0093  0.0462  0.1315
 4994SOL    HW126618   1.689   4.009  16.928 -0.9599 -1.9262 -1.3788
 4994SOL    HW226619   1.746   3.929  16.829  0.3032  1.9573 -1.8773
 4995SOL     OW26620   4.417   1.547   2.931  0.4144 -0.3556 -0.0776
 4995SOL    HW126621   4.457   1.557   2.844  0.8974  0.2854  0.2163
 4995SOL    HW226622   4.482   1.493   2.976  0.2748 -0.0484  0.4856
 4996SOL     OW26623   0.404   0.913   5.097 -0.2906 -0.1566  0.5083
 4996SOL    HW126624   0.435   0.865   5.021 -0.1894  0.7713 -0.0286
 4996SOL    HW226625   0.474   0.910   5.162 -1.2020 -1.8368  1.4063
 4997SOL     OW26626   1.947   0.482   4.070 -0.1139 -0.0803 -0.0657
 4997SOL    HW126627   1.927   0.576   4.078  0.3200 -0.0042  0.1266
 4997SOL    HW226628   2.011   0.475   3.998  1.0558  0.3380  0.9223
 4998SOL     OW26629   0.696   4.285   4.469  0.4716  0.3873 -0.4357
 4998SOL    HW126630   0.625   4.242   4.516 -0.0147  0.4823 -1.0704
 4998SOL    HW226631   0.763   4.297   4.535  1.1667 -1.1535 -0.8635
 4999SOL     OW26632   1.981   1.154   5.434 -0.2725  0.6940 -0.3610
 4999SOL    HW126633   1.953   1.240   5.463  0.4715  0.2450  1.6911
 4999SOL    HW226634   2.075   1.161   5.450 -0.2484 -1.5915  0.5624
 5000SOL     OW26635   1.630   0.937   3.425 -0.0007  0.1197  0.1617
 5000SOL    HW126636   1.679   1.012   3.392 -2.8275  1.8262 -0.2248
 5000SOL    HW226637   1.632   0.891   3.341  0.0134 -0.3111  0.3962
 5001SOL     OW26638   3.384   3.515   3.089 -0.0484  0.0585 -0.2147
 5001SOL    HW126639   3.411   3.423   3.095 -0.6935 -0.1894 -0.9925
 5001SOL    HW226640   3.391   3.530   2.995 -0.4700  0.6899 -0.1371
 5002SOL     OW26641   3.195   1.218   2.034 -0.4902 -0.4843 -0.5759
 5002SOL    HW126642   3.174   1.126   2.050 -0.0640 -0.8006 -1.8361
 5002SOL    HW226643   3.290   1.223   2.036 -0.5239 -0.8942  2.0985
 5003SOL     OW26644   3.207   4.600   5.677  0.4221  0.0671  0.1957
 5003SOL    HW126645   3.137   4.614   5.614  0.5068  0.6625  0.2348
 5003SOL    HW226646   3.250   4.531   5.626 -0.3029  0.0604 -0.3963
 5004SOL     OW26647   1.938   3.173  15.363  0.3198 -0.2736 -0.7392
 5004SOL    HW126648   1.923   3.153  15.271  1.8066 -1.5151 -0.7123
 5004SOL    HW226649   1.847   3.164  15.392  0.6450 -0.7236  0.1529
 5005SOL     OW26650   0.521   0.977   6.624  0.1653  0.0203 -0.0164
 5005SOL    HW126651   0.426   0.979   6.615  0.0807  1.1935  1.2660
 5005SOL    HW226652   0.537   1.038   6.695 -1.3713 -0.5595  0.8180
 5006SOL     OW26653   2.007   1.253   7.606  0.7132 -0.0820 -0.0254
 5006SOL    HW126654   2.009   1.281   7.515  0.0289  3.9894  1.2237
 5006SOL    HW226655   1.928   1.198   7.609 -0.2256  1.1681 -2.1622
 5007SOL     OW26656   2.122   3.479   4.941  0.1368  0.7242 -0.4616
 5007SOL    HW126657   2.037   3.446   4.914 -0.6562  1.6414  0.9263
 5007SOL    HW226658   2.099   3.552   4.999  0.6319  0.9780 -0.5752
 5008SOL     OW26659   2.268   3.441  12.508  0.2998 -0.1604  0.2119
 5008SOL    HW126660   2.174   3.451  12.491  0.5962  0.9659 -0.7602
 5008SOL    HW226661   2.303   3.522  12.545  0.5082  0.1307 -0.6301
 5009SOL     OW26662   1.415   0.633   7.290 -0.1935  0.5322 -0.4763
 5009SOL    HW126663   1.347   0.594   7.346  0.4007 -0.3223 -0.3442
 5009SOL    HW226664   1.369   0.641   7.207 -0.2780 -2.3976 -0.7285
 5010SOL     OW26665   2.089   0.153   2.672 -0.6229  0.2576  0.0508
 5010SOL    HW126666   2.152   0.093   2.711 -0.1027  1.5556  1.1753
 5010SOL    HW226667   2.140   0.189   2.599  1.1766 -1.6827  0.3637
 5011SOL     OW26668   3.199   2.350  12.639 -0.6675  0.2297 -0.1204
 5011SOL    HW126669   3.196   2.403  12.719 -1.7301 -0.0098  0.0018
 5011SOL    HW226670   3.292   2.327  12.639 -0.0886  2.5215 -0.8831
 5012SOL     OW26671   2.485   2.308  10.147  0.3523  0.6479 -0.3629
 5012SOL    HW126672   2.442   2.394  10.143  0.4486  0.6655 -0.9893
 5012SOL    HW226673   2.418   2.261  10.097  0.4309  0.4026 -0.2375
 5013SOL     OW26674   4.247   0.033   9.044 -0.5924  0.3124 -0.1218
 5013SOL    HW126675   4.325   0.031   8.988 -0.6261 -1.4919 -0.0918
 5013SOL    HW226676   4.259   4.686   9.093  0.2768  1.1737  1.1273
 5014SOL     OW26677   1.593   1.674  14.172 -0.2039 -0.5419 -0.2081
 5014SOL    HW126678   1.565   1.589  14.139 -2.5069 -0.2228  0.9534
 5014SOL    HW226679   1.662   1.645  14.232  1.7346  0.5744 -1.8669
 5015SOL     OW26680   2.015   4.496   6.074 -0.5590  0.0423  0.4792
 5015SOL    HW126681   1.958   4.432   6.031  0.0440  0.1146 -0.4234
 5015SOL    HW226682   2.007   4.476   6.168  1.5750 -0.0981  0.6217
 5016SOL     OW26683   4.616   2.349   3.504 -0.3083  0.7475  0.1350
 5016SOL    HW126684   4.588   2.422   3.449 -1.9554  1.6827  2.2141
 5016SOL    HW226685   4.707   2.340   3.477 -1.1483  0.4282 -2.5697
 5017SOL     OW26686   1.682   3.564  14.786  0.0425  0.0702  0.3956
 5017SOL    HW126687   1.674   3.504  14.712 -1.1067  0.9359 -0.1828
 5017SOL    HW226688   1.597   3.606  14.795 -0.7086 -1.0069 -1.6654
 5018SOL     OW26689   1.353   1.378   0.203 -0.1216 -0.0054 -0.2976
 5018SOL    HW126690   1.384   1.302   0.253  0.2495 -0.5624 -1.3834
 5018SOL    HW226691   1.328   1.443   0.270 -0.6757  0.0154 -0.5232
 5019SOL     OW26692   0.616   3.062   7.359 -0.1802 -0.1314  0.4287
 5019SOL    HW126693   0.702   3.021   7.370  0.0375  0.2022 -0.0076
 5019SOL    HW226694   0.617   3.076   7.264 -0.3831 -1.1924  0.2765
 5020SOL     OW26695   0.418   1.207   2.670  0.4171 -0.1629  0.9018
 5020SOL    HW126696   0.505   1.178   2.642  0.8596 -0.6844  2.8785
 5020SOL    HW226697   0.449   1.277   2.727  0.2435  2.6047 -2.3206
 5021SOL     OW26698   0.580   4.529   2.476  0.3841  0.2500 -0.4746
 5021SOL    HW126699   0.550   4.560   2.390 -1.7452 -0.5368 -0.0370
 5021SOL    HW226700   0.649   4.589   2.504 -0.0490  0.5055  0.0403
 5022SOL     OW26701   4.663   3.815  11.038 -0.6569  0.1994 -0.3978
 5022SOL    HW126702   4.601   3.880  11.071 -0.2874  0.2608  0.1649
 5022SOL    HW226703   0.011   3.852  11.066 -2.5966  2.9374  1.7283
 5023SOL     OW26704   2.471   4.307   7.177  0.6153 -0.3408 -0.1919
 5023SOL    HW126705   2.452   4.216   7.198  0.5260 -0.4798 -0.8664
 5023SOL    HW226706   2.508   4.295   7.090 -1.0683 -0.9882 -0.8120
 5024SOL     OW26707   3.289   3.936   0.148 -0.1929 -0.4358  0.0709
 5024SOL    HW126708   3.369   3.883   0.152 -0.1353 -0.2913  0.8242
 5024SOL    HW226709   3.332   4.017   0.120  0.2629 -0.8577 -0.4526
 5025SOL     OW26710   2.680   0.219  13.342  0.2729 -0.2260  0.0409
 5025SOL    HW126711   2.767   0.198  13.309 -0.6839 -1.9217 -1.3872
 5025SOL    HW226712   2.703   0.245  13.431  1.0127  2.3513 -0.9021
 5026SOL     OW26713   2.679   2.416   5.390 -0.3162  0.5531 -0.2470
 5026SOL    HW126714   2.774   2.418   5.374 -0.0625  1.1305  1.3013
 5026SOL    HW226715   2.683   2.353   5.462  1.1944  1.8452  0.8054
 5027SOL     OW26716   2.666   3.126   8.146  0.3225 -0.0661  0.1169
 5027SOL    HW126717   2.641   3.064   8.077  1.4013  1.6099 -1.7859
 5027SOL    HW226718   2.596   3.098   8.204  0.6769 -1.9771 -0.3552
 5028SOL     OW26719   2.313   2.973   9.873 -0.6300  0.1018  0.1287
 5028SOL    HW126720   2.218   2.959   9.867 -0.4408 -0.0014 -2.6896
 5028SOL    HW226721   2.326   2.893   9.923  0.4800  0.0843 -0.1969
 5029SOL     OW26722   0.567   1.157   8.652 -0.0794 -0.1345  0.3049
 5029SOL    HW126723   0.588   1.226   8.715 -0.9578  1.4221 -1.0831
 5029SOL    HW226724   0.494   1.193   8.603  0.6242  1.6376  0.5413
 5030SOL     OW26725   2.736   3.224  12.639 -0.1115 -0.6985 -0.1430
 5030SOL    HW126726   2.784   3.166  12.580  3.1169  1.5238  0.3508
 5030SOL    HW226727   2.663   3.255  12.585  1.2266  0.3368 -1.3369
 5031SOL     OW26728   3.982   1.117   3.989 -0.1874  0.0518  0.3572
 5031SOL    HW126729   3.934   1.094   4.068 -0.4024  0.6609  0.3980
 5031SOL    HW226730   4.045   1.177   4.028  1.7170 -0.8593 -1.2671
 5032SOL     OW26731   2.488   4.592  16.269 -0.3361  0.5628  0.1732
 5032SOL    HW126732   2.528   4.617  16.352  2.2009 -2.2996 -0.1626
 5032SOL    HW226733   2.418   4.655  16.256 -1.6835 -0.6380  1.5490
 5033SOL     OW26734   2.755   2.780   2.146 -0.5627 -0.0004 -0.1340
 5033SOL    HW126735   2.749   2.709   2.082 -0.9901 -0.6872  0.6636
 5033SOL    HW226736   2.736   2.863   2.102 -1.7909 -0.4976 -0.5520
 5034SOL     OW26737   0.236   3.132   6.967  0.4265  0.5723  0.5601
 5034SOL    HW126738   0.330   3.118   6.956  0.5197  0.8404  1.0191
 5034SOL    HW226739   0.219   3.207   6.910 -0.6229 -0.7217 -0.8525
 5035SOL     OW26740   3.015   0.590   1.864 -0.1308  0.6244 -0.1535
 5035SOL    HW126741   2.921   0.599   1.880 -0.1322  0.5007 -0.0911
 5035SOL    HW226742   3.040   0.680   1.844  1.4273 -0.1519 -1.6188
 5036SOL     OW26743   4.206   3.017   6.362 -0.3652  0.4009 -0.9052
 5036SOL    HW126744   4.163   3.098   6.389 -1.5353 -1.5442  3.0074
 5036SOL    HW226745   4.214   3.026   6.267  1.0074 -1.4192 -0.9727
 5037SOL     OW26746   2.238   0.949   5.657  0.5153  0.3628 -0.0587
 5037SOL    HW126747   2.212   1.037   5.682  1.6893  0.6312  0.2441
 5037SOL    HW226748   2.203   0.893   5.727  1.1398 -0.5179 -0.4476
 5038SOL     OW26749   3.576   4.512   3.924  0.5050  0.2718  0.9426
 5038SOL    HW126750   3.641   4.563   3.878 -0.8337  0.8386 -0.3045
 5038SOL    HW226751   3.497   4.552   3.888  0.2916 -1.0081  0.0047
 5039SOL     OW26752   3.239   3.430   9.107  0.3318  0.8698  0.4684
 5039SOL    HW126753   3.276   3.480   9.181  2.4732 -1.3172  0.8919
 5039SOL    HW226754   3.261   3.339   9.127 -0.8974  0.0713 -1.8515
 5040SOL     OW26755   4.623   2.207   3.177 -0.0476  0.1508  0.2648
 5040SOL    HW126756   4.714   2.223   3.202  0.1572  0.7219 -0.8526
 5040SOL    HW226757   4.642   2.132   3.121 -0.3919  0.7947 -0.7132
 5041SOL     OW26758   3.996   4.172  15.181  0.2387  0.4971  0.3706
 5041SOL    HW126759   3.984   4.078  15.192  2.9139  0.2830  1.3796
 5041SOL    HW226760   4.091   4.183  15.183  0.2691  0.1864  0.6797
 5042SOL     OW26761   0.429   0.053  10.340  0.2038 -0.2200 -0.2821
 5042SOL    HW126762   0.454   4.724  10.273  1.7961  0.2051 -0.1025
 5042SOL    HW226763   0.443   0.006  10.423 -1.0374 -1.8588 -1.0053
 5043SOL     OW26764   2.617   3.483   5.980  0.3697 -0.3594 -0.1348
 5043SOL    HW126765   2.668   3.555   6.016  0.6853 -0.2403 -0.8353
 5043SOL    HW226766   2.650   3.483   5.891 -1.2745  0.2969 -0.7521
 5044SOL     OW26767   3.407   2.728  14.116 -0.0140 -0.4574  0.2563
 5044SOL    HW126768   3.368   2.702  14.033 -1.3411  1.2708  0.3631
 5044SOL    HW226769   3.499   2.726  14.088  0.2636 -0.7766  1.1687
 5045SOL     OW26770   2.343   1.487  16.266  0.5616 -0.1176 -0.0741
 5045SOL    HW126771   2.429   1.448  16.247  0.5842 -0.8065  1.3890
 5045SOL    HW226772   2.365   1.546  16.338  2.1416 -2.6110  1.4863
 5046SOL     OW26773   0.172   2.107  14.312 -0.6874 -0.1786 -0.2678
 5046SOL    HW126774   0.137   2.017  14.305 -0.1904 -0.3745 -0.2171
 5046SOL    HW226775   0.264   2.091  14.291 -1.0029 -0.3150 -1.5351
 5047SOL     OW26776   2.308   1.674   4.436 -0.1645  0.4712  0.4762
 5047SOL    HW126777   2.268   1.688   4.522  0.2653  1.1803  0.5580
 5047SOL    HW226778   2.391   1.721   4.447  0.4130 -0.4121 -0.0289
 5048SOL     OW26779   0.168   3.925   5.683  0.3471 -0.1131 -0.1842
 5048SOL    HW126780   0.074   3.918   5.668  0.2333  1.1031  0.0138
 5048SOL    HW226781   0.161   3.946   5.776  2.8712 -0.1289  0.0316
 5049SOL     OW26782   1.612   2.501  15.856 -0.1607 -0.3476 -0.4471
 5049SOL    HW126783   1.642   2.586  15.823 -2.2109 -0.3779 -2.3864
 5049SOL    HW226784   1.695   2.464  15.884 -0.0819  0.1000 -0.0876
 5050SOL     OW26785   3.268   0.795   4.949  0.0132 -0.2814 -0.1543
 5050SOL    HW126786   3.224   0.872   4.911  1.9761  0.0477 -1.7501
 5050SOL    HW226787   3.199   0.776   5.012  0.4481  1.9945  1.0174
 5051SOL     OW26788   3.951   4.031  14.112 -0.1449  1.1781  0.4877
 5051SOL    HW126789   3.879   4.034  14.175  0.5339  0.4112  1.3045
 5051SOL    HW226790   3.914   4.056  14.028  0.2649 -1.1331 -0.3937
 5052SOL     OW26791   0.662   1.864   2.512 -1.1305  0.3738 -0.4277
 5052SOL    HW126792   0.654   1.843   2.419 -0.1042  1.0466 -0.6744
 5052SOL    HW226793   0.657   1.959   2.506  1.0740  0.5415  0.3727
 5053SOL     OW26794   2.839   0.275   2.052  0.0326  0.1385 -0.4866
 5053SOL    HW126795   2.748   0.306   2.056 -0.6665 -2.0880  0.6014
 5053SOL    HW226796   2.827   0.200   1.994 -1.1117 -0.6346  0.7427
 5054SOL     OW26797   0.508   0.886  16.092 -0.0102  0.2520  0.6407
 5054SOL    HW126798   0.508   0.966  16.144 -0.4547 -0.4033  1.6628
 5054SOL    HW226799   0.515   0.821  16.163 -1.3597 -1.9430 -1.2341
 5055SOL     OW26800   1.659   3.425   8.813  0.1268  0.0797 -0.0395
 5055SOL    HW126801   1.660   3.520   8.825  1.0097  0.0800 -0.1229
 5055SOL    HW226802   1.572   3.424   8.771  1.3086  0.3913 -2.5084
 5056SOL     OW26803   1.296   3.497   5.630 -0.2017 -0.2154  0.4243
 5056SOL    HW126804   1.340   3.432   5.684  1.8453  0.5323 -0.2974
 5056SOL    HW226805   1.253   3.546   5.699 -1.1348  2.3190 -1.9644
 5057SOL     OW26806   0.426   3.463  12.297 -0.4182  0.5638  0.2024
 5057SOL    HW126807   0.449   3.451  12.205 -0.1642  0.6778  0.2525
 5057SOL    HW226808   0.333   3.486  12.287 -0.9812 -1.4552  0.7298
 5058SOL     OW26809   0.801   4.406  16.840 -0.5871  0.0614  0.3735
 5058SOL    HW126810   0.832   4.335  16.785 -1.9508 -0.0113 -0.3096
 5058SOL    HW226811   0.823   4.477  16.779 -1.6934  0.1855  0.1151
 5059SOL     OW26812   4.631   0.817   3.077  0.2397  0.3516  0.0601
 5059SOL    HW126813   4.677   0.738   3.048 -3.5114 -2.0827  0.8334
 5059SOL    HW226814   4.566   0.777   3.135 -0.5112  2.5574  0.7388
 5060SOL     OW26815   0.094   3.593   4.770 -0.0681  0.0596  0.0690
 5060SOL    HW126816   0.136   3.652   4.708 -3.8991  1.8823 -0.8027
 5060SOL    HW226817   0.078   3.519   4.713  1.3590  1.4594 -2.1555
 5061SOL     OW26818   2.681   1.602   8.098  0.4978  0.7279  0.5242
 5061SOL    HW126819   2.605   1.578   8.047  0.0583  1.9100  0.6226
 5061SOL    HW226820   2.676   1.566   8.187 -1.8222 -0.8123 -0.2456
 5062SOL     OW26821   4.117   2.461   2.786 -0.4241  0.0131  0.0850
 5062SOL    HW126822   4.207   2.472   2.755 -0.7589  0.9815 -0.5295
 5062SOL    HW226823   4.078   2.404   2.720 -0.4104 -2.0280  1.8263
 5063SOL     OW26824   1.395   4.219   7.868 -0.4068 -0.3434 -0.4510
 5063SOL    HW126825   1.352   4.234   7.784  1.0461  0.6885 -0.9944
 5063SOL    HW226826   1.344   4.277   7.925  0.5392 -1.5607  1.6306
 5064SOL     OW26827   2.901   0.409   7.415  0.0514  0.1840  0.5608
 5064SOL    HW126828   2.889   0.361   7.497  0.6132  0.1667  0.6337
 5064SOL    HW226829   2.895   0.338   7.351  0.4234  1.4871 -0.9280
 5065SOL     OW26830   1.402   4.543   7.404  0.2529 -0.0214 -0.1365
 5065SOL    HW126831   1.416   4.634   7.377  0.1595  0.4580  1.4066
 5065SOL    HW226832   1.473   4.510   7.349 -0.4011 -2.3192  0.4078
 5066SOL     OW26833   2.027   2.563   1.108  0.6260 -0.9967 -0.2722
 5066SOL    HW126834   2.066   2.478   1.130  1.6695 -0.6273 -0.6940
 5066SOL    HW226835   1.984   2.589   1.190 -0.7002  1.7807 -1.8466
 5067SOL     OW26836   3.480   2.003   4.798 -0.4245  0.4986  0.1007
 5067SOL    HW126837   3.442   1.934   4.744 -0.1817  0.6645 -0.2836
 5067SOL    HW226838   3.419   2.076   4.793 -0.3334  0.5111 -0.7717
 5068SOL     OW26839   1.983   3.733  12.879 -0.0768 -0.0243 -0.1185
 5068SOL    HW126840   1.930   3.789  12.822  1.0620  0.4962 -0.6599
 5068SOL    HW226841   1.986   3.791  12.955  0.6341 -1.3436  0.8446
 5069SOL     OW26842   1.009   2.810   1.764  0.3280  0.6090  0.4546
 5069SOL    HW126843   1.057   2.743   1.813 -0.1746 -1.3253 -1.7051
 5069SOL    HW226844   1.021   2.781   1.674 -0.1174 -1.7757  1.1603
 5070SOL     OW26845   3.193   2.833   1.739 -1.0896 -0.0547  0.2103
 5070SOL    HW126846   3.267   2.773   1.731 -2.3705 -1.3294 -1.8920
 5070SOL    HW226847   3.132   2.795   1.675  0.1478 -0.4626 -0.7128
 5071SOL     OW26848   1.309   3.851  17.361 -0.0173  0.1050 -0.1051
 5071SOL    HW126849   1.252   3.920  17.393 -0.9950  0.0737 -1.7669
 5071SOL    HW226850   1.311   3.786  17.431  3.5710 -0.9166 -1.1604
 5072SOL     OW26851   1.225   3.038   0.008  0.4966  0.6205 -0.3401
 5072SOL    HW126852   1.150   2.979   0.024  0.1824  1.6347  1.9858
 5072SOL    HW226853   1.188   3.088  17.675  5.3466  3.0449 -1.1100
 5073SOL     OW26854   1.900   1.735   2.346 -0.4229  0.2816  0.2983
 5073SOL    HW126855   1.829   1.717   2.285  0.5406  0.0935 -0.7595
 5073SOL    HW226856   1.849   1.763   2.422  0.2679  1.9676  0.1502
 5074SOL     OW26857   1.410   0.825   2.915 -0.3172 -0.6128  0.1341
 5074SOL    HW126858   1.468   0.792   2.846 -1.0982 -1.3002 -0.1806
 5074SOL    HW226859   1.392   0.746   2.965 -0.7462 -1.2002 -0.9524
 5075SOL     OW26860   1.867   1.896  17.653 -0.1317 -0.3458  0.1054
 5075SOL    HW126861   1.828   1.874  17.568  0.5631  0.4465 -0.4265
 5075SOL    HW226862   1.836   1.985  17.671  1.1803 -0.2506  1.8542
 5076SOL     OW26863   3.998   0.440   8.302  0.0408  0.5001 -0.4168
 5076SOL    HW126864   3.979   0.525   8.340 -0.4835  0.0976  0.2237
 5076SOL    HW226865   3.959   0.439   8.214  2.2609 -0.1741 -1.3855
 5077SOL     OW26866   1.529   4.626   3.015  0.0687 -0.1398 -1.3148
 5077SOL    HW126867   1.572   4.559   3.068  0.5492  2.0570  1.0699
 5077SOL    HW226868   1.589   4.630   2.940 -0.7006 -2.7732 -2.0520
 5078SOL     OW26869   4.623   3.467   7.777  0.4576  0.4985 -0.1490
 5078SOL    HW126870   4.668   3.515   7.708 -0.8979  1.3263 -0.4551
 5078SOL    HW226871   4.639   3.511   7.861 -1.8443 -2.2031  1.7265
 5079SOL     OW26872   0.545   3.291   7.753  0.5623 -0.3563 -0.3594
 5079SOL    HW126873   0.490   3.212   7.751  1.4839 -0.9894 -0.4861
 5079SOL    HW226874   0.629   3.255   7.781  0.0612 -0.2109  1.3280
 5080SOL     OW26875   0.607   0.891   8.667 -0.1719 -0.6092  0.4499
 5080SOL    HW126876   0.590   0.897   8.761  2.2117  0.1806  0.8355
 5080SOL    HW226877   0.567   0.977   8.655  1.3026 -0.1777 -1.3909
 5081SOL     OW26878   4.691   3.065   5.694 -0.2744  0.3427  0.1819
 5081SOL    HW126879   4.699   3.041   5.602  0.1189  2.9909 -0.4828
 5081SOL    HW226880   4.650   2.986   5.728 -1.7655 -0.0090 -2.5189
 5082SOL     OW26881   0.018   3.536  11.638 -0.1428 -0.1758  0.1467
 5082SOL    HW126882   0.098   3.567  11.594  0.6393 -3.2829 -0.6517
 5082SOL    HW226883   0.050   3.453  11.674  0.9762  0.6132  0.9794
 5083SOL     OW26884   2.780   3.769  11.383  0.2210  0.4021  0.3291
 5083SOL    HW126885   2.742   3.698  11.434  2.0211 -0.9415 -0.1792
 5083SOL    HW226886   2.708   3.830  11.368  0.5692  0.6496 -0.3653
 5084SOL     OW26887   0.428   3.846   2.867  0.5887  0.0271  0.3885
 5084SOL    HW126888   0.341   3.839   2.829  0.0111  0.3137  1.6718
 5084SOL    HW226889   0.424   3.867   2.960  2.0432 -1.2672  0.7490
 5085SOL     OW26890   3.898   1.715  15.580 -0.3137  0.4971 -0.1260
 5085SOL    HW126891   3.955   1.677  15.513  0.0758 -0.7854  0.9267
 5085SOL    HW226892   3.809   1.694  15.552 -0.1407  0.7739 -0.8772
 5086SOL     OW26893   4.606   3.716   5.767 -0.0183  0.2866  0.1698
 5086SOL    HW126894   4.540   3.676   5.823  0.8725 -2.5399 -0.8239
 5086SOL    HW226895   4.674   3.705   5.834  0.6878 -0.5848 -0.7089
 5087SOL     OW26896   0.751   2.250   5.980  0.6434  0.6135  0.5420
 5087SOL    HW126897   0.778   2.299   6.058  2.4507  0.3380  0.1082
 5087SOL    HW226898   0.796   2.295   5.908 -0.1099  1.9688  0.9226
 5088SOL     OW26899   0.080   4.527   9.664 -0.0213  0.3439  0.5110
 5088SOL    HW126900   0.036   4.551   9.746 -4.2636 -0.1952 -1.6445
 5088SOL    HW226901   0.010   4.561   9.608 -0.0500 -0.4937  0.0450
 5089SOL     OW26902   2.444   1.773   1.859 -0.0555  0.0071 -0.3415
 5089SOL    HW126903   2.494   1.851   1.837  0.6494 -0.5597 -0.7645
 5089SOL    HW226904   2.394   1.764   1.778  1.9261 -1.9380 -1.3398
 5090SOL     OW26905   0.504   1.800  17.687 -0.5155  0.3919 -0.5227
 5090SOL    HW126906   0.414   1.778  17.710 -0.3848  0.2088 -0.1846
 5090SOL    HW226907   0.490   1.841  17.602  0.6708 -0.3857 -1.0850
 5091SOL     OW26908   4.448   2.185  13.089 -0.2898  0.4596 -0.1868
 5091SOL    HW126909   4.534   2.150  13.115 -0.3185  1.1601  0.8256
 5091SOL    HW226910   4.399   2.103  13.080 -1.2544  1.2620 -2.2880
 5092SOL     OW26911   3.602   1.612  14.873 -0.2619  0.0846 -0.1165
 5092SOL    HW126912   3.633   1.557  14.945 -0.5702 -0.3659 -0.3306
 5092SOL    HW226913   3.530   1.656  14.919 -0.7659  0.6081 -1.4026
 5093SOL     OW26914   3.383   1.871   8.584 -0.0511  0.2112  0.6140
 5093SOL    HW126915   3.360   1.789   8.627  0.9061  0.8797  2.3844
 5093SOL    HW226916   3.477   1.856   8.570  0.0944 -0.0746  1.9496
 5094SOL     OW26917   4.547   3.975  11.214  0.0114  0.0977  0.1972
 5094SOL    HW126918   4.537   4.056  11.265 -0.0246  1.3354 -1.7648
 5094SOL    HW226919   4.470   3.925  11.243 -0.7709  0.8884 -0.5310
 5095SOL     OW26920   1.459   2.444  11.225  0.7379  0.3682  0.0249
 5095SOL    HW126921   1.466   2.534  11.194 -1.1055  0.9744  1.3631
 5095SOL    HW226922   1.546   2.412  11.201  1.1883  0.7802  1.1148
 5096SOL     OW26923   2.135   2.865  11.037  0.3834  0.3999  0.0523
 5096SOL    HW126924   2.055   2.914  11.055  0.6770  0.2940  1.5644
 5096SOL    HW226925   2.154   2.885  10.945  0.6699 -0.1971 -0.0184
 5097SOL     OW26926   3.271   4.029   3.106  0.7850  0.0446 -0.1704
 5097SOL    HW126927   3.248   4.122   3.101  1.0224  0.0538 -1.2043
 5097SOL    HW226928   3.330   4.030   3.181  2.2264 -3.7640 -1.2720
 5098SOL     OW26929   1.692   3.077   5.525  0.2541 -0.6200  0.5221
 5098SOL    HW126930   1.732   3.098   5.609 -0.5537  0.3342  0.6719
 5098SOL    HW226931   1.770   3.071   5.471  0.0402  2.0319 -0.0990
 5099SOL     OW26932   1.509   1.521   0.030  0.3482 -0.3367 -0.0304
 5099SOL    HW126933   1.466   1.562  17.694  1.5668 -1.2605 -1.2349
 5099SOL    HW226934   1.438   1.480   0.080  2.9733 -0.9368  3.1580
 5100SOL     OW26935   2.740   3.157   6.223 -0.5121 -0.1871  0.2495
 5100SOL    HW126936   2.709   3.068   6.239  0.5798 -0.4817  0.7270
 5100SOL    HW226937   2.685   3.190   6.152  0.1844  0.4017 -0.0238
 5101SOL     OW26938   2.677   0.680   3.239 -0.0027  0.0196  0.2419
 5101SOL    HW126939   2.619   0.722   3.176  2.3002  1.8142 -0.7005
 5101SOL    HW226940   2.743   0.750   3.242 -0.6836  0.6711 -0.0859
 5102SOL     OW26941   0.082   4.055   8.256 -0.3307  0.0535 -0.0590
 5102SOL    HW126942   0.094   4.075   8.163  1.8858  1.2386  0.5001
 5102SOL    HW226943   4.732   4.100   8.264  0.8704  2.0257  1.6782
 5103SOL     OW26944   3.225   3.671   7.928 -0.6246 -0.1933  0.3027
 5103SOL    HW126945   3.168   3.709   7.995 -0.7142  2.1312 -1.0738
 5103SOL    HW226946   3.210   3.735   7.859 -2.6015  0.2106  1.1032
 5104SOL     OW26947   2.915   2.347   6.114 -0.5492  0.5486  0.0698
 5104SOL    HW126948   3.006   2.358   6.140 -0.8326 -0.1555  1.3691
 5104SOL    HW226949   2.874   2.411   6.172  1.4040 -0.3190  2.4248
 5105SOL     OW26950   2.039   2.352   5.735 -0.1467  0.1434 -0.8413
 5105SOL    HW126951   2.045   2.433   5.785 -0.5210 -0.4532  0.1720
 5105SOL    HW226952   1.999   2.391   5.657 -1.0297  1.2636  0.1875
 5106SOL     OW26953   2.728   2.783   6.052  0.1173 -0.8731  0.4209
 5106SOL    HW126954   2.799   2.838   6.018 -0.1189 -0.6162  0.3471
 5106SOL    HW226955   2.774   2.713   6.097  1.8728  0.6791  1.0104
 5107SOL     OW26956   0.246   4.285   6.320 -0.5364 -0.2770  0.7879
 5107SOL    HW126957   0.260   4.347   6.249 -2.1253 -1.2447 -0.3813
 5107SOL    HW226958   0.289   4.336   6.388 -1.2420  0.5929  0.5766
 5108SOL     OW26959   2.414   4.526   0.437  0.1792 -0.6461 -0.4787
 5108SOL    HW126960   2.489   4.574   0.402  0.4219  0.6292  1.7628
 5108SOL    HW226961   2.424   4.555   0.528 -1.3766 -0.2475 -0.4384
 5109SOL     OW26962   2.929   3.158   1.718 -0.2815  0.3001  0.4908
 5109SOL    HW126963   3.025   3.163   1.728  0.1127 -0.7523 -2.8260
 5109SOL    HW226964   2.913   3.159   1.812 -0.7953  0.6131  0.3985
 5110SOL     OW26965   0.126   0.354  14.555  0.4631 -0.0034  0.6419
 5110SOL    HW126966   0.103   0.265  14.581 -0.7681  0.3348  0.7130
 5110SOL    HW226967   0.188   0.341  14.484 -0.7373 -1.9262 -0.0382
 5111SOL     OW26968   4.287   3.646   3.493  0.0583 -0.3075 -0.4853
 5111SOL    HW126969   4.256   3.644   3.403  0.2622  1.6653 -0.5994
 5111SOL    HW226970   4.302   3.553   3.508  0.7978 -0.1277 -0.1042
 5112SOL     OW26971   2.399   3.356   1.496 -0.1210  0.0632  0.0587
 5112SOL    HW126972   2.377   3.449   1.491 -1.8890 -0.4480 -1.9238
 5112SOL    HW226973   2.493   3.354   1.511 -0.1850 -2.2829  0.2140
 5113SOL     OW26974   2.859   2.314   9.908 -0.0475 -0.3207 -0.0485
 5113SOL    HW126975   2.780   2.296   9.857 -1.0418  2.6931  0.4200
 5113SOL    HW226976   2.825   2.293   9.995  1.5958  1.7996  1.1024
 5114SOL     OW26977   4.269   4.622   2.706 -0.2160  0.2500  0.3724
 5114SOL    HW126978   4.322   4.628   2.785  0.8373  3.1694 -0.5459
 5114SOL    HW226979   4.183   4.630   2.748 -0.2025 -0.7908  0.5864
 5115SOL     OW26980   0.126   1.249   3.485  0.3467  0.2959 -0.4541
 5115SOL    HW126981   0.201   1.200   3.518 -0.4316 -1.0869 -0.7249
 5115SOL    HW226982   0.109   1.321   3.546  1.8946  0.5571 -0.3329
 5116SOL     OW26983   4.342   3.046   3.181  0.3503 -0.1008  0.1979
 5116SOL    HW126984   4.248   3.035   3.197  0.3001  2.0454  1.3629
 5116SOL    HW226985   4.369   2.957   3.199 -1.0876 -0.2504  1.6016
 5117SOL     OW26986   1.176   1.800   3.976  0.0344  0.0026 -0.3238
 5117SOL    HW126987   1.168   1.827   3.884  0.8166 -1.3499 -0.7901
 5117SOL    HW226988   1.095   1.751   3.993 -1.6834  2.1071 -2.4325
 5118SOL     OW26989   3.737   3.299   9.154  0.2047  0.0640 -1.1783
 5118SOL    HW126990   3.669   3.346   9.105 -0.3861 -0.9931 -1.3724
 5118SOL    HW226991   3.783   3.256   9.082 -0.5995 -1.7006 -0.6442
 5119SOL     OW26992   3.530   4.178   4.355 -0.2321 -0.2734  0.3285
 5119SOL    HW126993   3.539   4.214   4.267  0.0304  1.0082  0.8845
 5119SOL    HW226994   3.523   4.085   4.335 -0.6758 -0.3292  0.7287
 5120SOL     OW26995   1.680   4.124  16.650 -0.4151 -0.1537  0.1953
 5120SOL    HW126996   1.743   4.194  16.668 -0.7452  0.1771  0.0573
 5120SOL    HW226997   1.721   4.095  16.568 -1.6337 -1.7235  0.1333
 5121SOL     OW26998   1.421   0.523   6.776 -0.0328  0.1546  0.3083
 5121SOL    HW126999   1.455   0.478   6.698 -0.0153 -1.4877  1.2791
 5121SOL    HW227000   1.341   0.558   6.736  0.1885  0.5655  0.2223
 5122SOL     OW27001   3.314   2.822   1.360 -0.1668 -0.2807  0.0863
 5122SOL    HW127002   3.250   2.780   1.417 -0.5027  0.7073  0.4501
 5122SOL    HW227003   3.271   2.820   1.275 -1.0551 -0.8096  0.5402
 5123SOL     OW27004   2.225   0.648  11.580 -0.5253  0.3638 -0.0450
 5123SOL    HW127005   2.249   0.555  11.574  0.0152  0.4402  1.0380
 5123SOL    HW227006   2.259   0.683  11.497 -0.4225 -0.6848 -0.4488
 5124SOL     OW27007   0.366   2.053  13.633 -0.3185 -0.5542  0.0981
 5124SOL    HW127008   0.355   2.100  13.716 -0.3648  0.6888 -0.6193
 5124SOL    HW227009   0.435   2.099  13.584  0.0204 -1.1065  0.0614
 5125SOL     OW27010   0.009   0.461   9.185 -0.2815  0.1036  0.6575
 5125SOL    HW127011   4.650   0.444   9.179 -0.4483  1.5771 -0.8839
 5125SOL    HW227012   0.024   0.456   9.280  2.0083  0.7175  0.3401
 5126SOL     OW27013   1.618   4.703  13.237  0.2024  0.0999 -0.5128
 5126SOL    HW127014   1.695   4.693  13.292 -0.7560 -0.5544  0.7332
 5126SOL    HW227015   1.656   0.025  13.171  0.9271  0.4628  0.2166
 5127SOL     OW27016   4.347   4.373   1.430  0.1223  0.1056 -0.3882
 5127SOL    HW127017   4.421   4.340   1.379  1.3470  1.1185  0.7374
 5127SOL    HW227018   4.362   4.340   1.518 -0.9345  2.0221  0.5206
 5128SOL     OW27019   2.556   0.810   6.017 -0.9890 -0.4908 -0.6836
 5128SOL    HW127020   2.582   0.831   5.927  2.1384 -1.1255  0.0759
 5128SOL    HW227021   2.461   0.799   6.006 -1.3609  2.0471 -0.0449
 5129SOL     OW27022   3.754   4.392   7.062 -0.2239  0.0432 -0.0912
 5129SOL    HW127023   3.780   4.309   7.102 -0.3658  1.4421  2.9393
 5129SOL    HW227024   3.754   4.458   7.132 -1.9061  2.2027 -2.1104
 5130SOL     OW27025   2.809   2.450   4.982 -0.4158  0.0305 -0.2466
 5130SOL    HW127026   2.738   2.504   5.019 -0.4659 -0.5620  0.5147
 5130SOL    HW227027   2.784   2.372   5.031 -2.8738  1.1012  0.2399
 5131SOL     OW27028   4.141   0.194   0.322  0.3554 -0.3615 -0.0772
 5131SOL    HW127029   4.059   0.207   0.276  0.9711  2.9721 -0.2455
 5131SOL    HW227030   4.203   0.158   0.258  1.5407  2.4120 -0.4994
 5132SOL     OW27031   1.653   3.168  10.215 -0.1209 -0.5070  0.0055
 5132SOL    HW127032   1.680   3.228  10.145 -1.2569 -1.1745 -1.0028
 5132SOL    HW227033   1.598   3.111  10.162 -2.8897 -0.4646  2.8573
 5133SOL     OW27034   1.685   0.340   5.241  0.2617  0.1576  0.3454
 5133SOL    HW127035   1.758   0.293   5.282 -0.2626  0.7105  1.9107
 5133SOL    HW227036   1.681   0.412   5.304  0.9381 -1.5404  2.3370
 5134SOL     OW27037   3.453   4.657   6.696 -0.1489  0.5627 -0.3167
 5134SOL    HW127038   3.413   4.575   6.667  0.6356  0.2738 -0.5848
 5134SOL    HW227039   3.504   4.610   6.761  1.1307  2.9897  0.4115
 5135SOL     OW27040   0.077   1.159   5.497  0.2640 -0.1361 -0.6870
 5135SOL    HW127041   0.107   1.169   5.587  1.4953  0.0025 -1.1065
 5135SOL    HW227042   0.149   1.111   5.455  1.6391 -0.3340  1.9329
 5136SOL     OW27043   1.805   0.964   4.238 -0.1237  0.6033 -0.0139
 5136SOL    HW127044   1.822   1.058   4.245 -2.5288  1.0643 -0.3684
 5136SOL    HW227045   1.749   0.956   4.316 -2.0028  1.1045 -1.3111
 5137SOL     OW27046   4.014   3.443  14.732 -0.1891 -0.0978 -0.2134
 5137SOL    HW127047   3.949   3.505  14.698  0.3996 -0.1295 -1.4252
 5137SOL    HW227048   4.082   3.502  14.766  0.6545 -0.2026 -1.7214
 5138SOL     OW27049   1.469   0.390  16.546  0.3209  0.0372 -0.6766
 5138SOL    HW127050   1.540   0.326  16.556 -0.9926 -1.4866 -0.9785
 5138SOL    HW227051   1.393   0.333  16.558  1.2647 -1.4711 -1.7585
 5139SOL     OW27052   3.655   4.604   4.595 -0.5806  0.0720  0.1464
 5139SOL    HW127053   3.706   4.536   4.551 -0.3748  1.2839 -1.5059
 5139SOL    HW227054   3.569   4.563   4.600  0.0439 -1.6879 -3.4188
 5140SOL     OW27055   0.845   1.607   2.938  0.2282 -0.0267 -0.4793
 5140SOL    HW127056   0.868   1.661   2.862  1.9642  0.9272  0.7276
 5140SOL    HW227057   0.780   1.662   2.983 -0.4276 -0.7020 -0.5973
 5141SOL     OW27058   3.634   3.514   9.431 -0.5103  0.4296 -1.0536
 5141SOL    HW127059   3.724   3.490   9.407 -1.4135 -0.4556 -3.5792
 5141SOL    HW227060   3.648   3.569   9.508  2.5726  0.7044 -1.7990
 5142SOL     OW27061   3.580   4.694   5.793 -0.3095  0.1469  0.0712
 5142SOL    HW127062   3.556   4.673   5.883 -2.0284  1.1791 -0.1494
 5142SOL    HW227063   3.673   4.671   5.791 -0.2487  0.3538  0.6050
 5143SOL     OW27064   0.891   1.234   8.213  0.7400 -0.0512  0.1325
 5143SOL    HW127065   0.948   1.276   8.148 -0.3915  0.8326 -0.3116
 5143SOL    HW227066   0.896   1.298   8.284  0.1959  0.8292 -0.6115
 5144SOL     OW27067   3.603   2.223  17.632  0.3353 -0.2574  0.6385
 5144SOL    HW127068   3.601   2.305  17.682 -0.3046 -0.8287  1.5414
 5144SOL    HW227069   3.696   2.215  17.611  0.6527  0.7194  1.6347
 5145SOL     OW27070   4.461   3.040   0.119  0.2038  0.5845  0.5244
 5145SOL    HW127071   4.547   3.073   0.146  0.6314  0.2109 -0.3919
 5145SOL    HW227072   4.407   3.086   0.183  0.4644 -0.1818  1.3013
 5146SOL     OW27073   1.923   3.641   3.699 -0.1538  0.6808  0.0887
 5146SOL    HW127074   1.989   3.676   3.759 -1.3719  3.0483  0.0583
 5146SOL    HW227075   1.889   3.722   3.661  2.5675  1.4689 -0.7181
 5147SOL     OW27076   3.692   1.113   6.885  0.9109 -0.0659  0.5520
 5147SOL    HW127077   3.608   1.095   6.841  0.7952  0.8917  0.3789
 5147SOL    HW227078   3.660   1.152   6.967  0.7016  0.0982  0.3931
 5148SOL     OW27079   0.372   1.824   4.929 -0.2138  0.7351  0.1389
 5148SOL    HW127080   0.331   1.880   4.862 -0.4242 -1.3611 -1.4578
 5148SOL    HW227081   0.449   1.795   4.881 -1.4085  1.9464 -2.5425
 5149SOL     OW27082   4.331   2.019   7.787 -0.2433  0.3489 -0.2205
 5149SOL    HW127083   4.324   1.941   7.733  0.9751  2.4348 -3.3796
 5149SOL    HW227084   4.415   2.060   7.768 -0.0537 -0.0723 -0.2902
 5150SOL     OW27085   3.443   1.229   4.473 -0.1485  0.0422 -0.3405
 5150SOL    HW127086   3.514   1.177   4.510  0.5216  1.9067  0.9606
 5150SOL    HW227087   3.448   1.203   4.381  0.9182 -0.6302 -0.0935
 5151SOL     OW27088   2.568   4.722   7.659 -0.7164  0.2393 -0.2612
 5151SOL    HW127089   2.632   0.034   7.712 -1.4032  2.5872 -1.5382
 5151SOL    HW227090   2.625   4.668   7.604  0.1281  3.2909 -2.3623
 5152SOL     OW27091   2.604   1.859   7.971 -0.1936 -0.2365  0.0884
 5152SOL    HW127092   2.543   1.857   8.045 -2.7407 -0.7261 -2.0081
 5152SOL    HW227093   2.649   1.774   7.974  1.7578  0.8266  1.2841
 5153SOL     OW27094   3.670   4.118   1.310 -0.3275 -0.0208  0.1364
 5153SOL    HW127095   3.639   4.149   1.224  1.4402 -0.7036 -0.7391
 5153SOL    HW227096   3.677   4.025   1.290 -2.0776  0.1905 -1.5368
 5154SOL     OW27097   2.153   3.650  16.369  0.2868  0.0590 -0.6951
 5154SOL    HW127098   2.245   3.670  16.350  0.5071 -1.1550 -0.9407
 5154SOL    HW227099   2.170   3.592  16.443  0.4670  0.1378 -0.6728
 5155SOL     OW27100   1.744   0.006   2.208 -0.1146 -0.2958 -0.0456
 5155SOL    HW127101   1.691   0.079   2.238  0.5040 -0.3708  1.2582
 5155SOL    HW227102   1.723   4.676   2.275 -0.2160  0.0422  0.2503
 5156SOL     OW27103   1.468   3.495  17.611  0.0080 -0.2505 -0.6450
 5156SOL    HW127104   1.409   3.567  17.592 -1.3748 -1.0724  0.4834
 5156SOL    HW227105   1.464   3.438  17.534 -0.3251 -0.4985 -0.4464
 5157SOL     OW27106   2.564   1.876  14.935 -0.4866 -0.4531  1.1036
 5157SOL    HW127107   2.552   1.964  14.900 -1.4852 -0.8234  0.4887
 5157SOL    HW227108   2.543   1.822  14.858 -1.2445  3.3864 -1.3569
 5158SOL     OW27109   1.120   3.762   6.956  0.2431  0.8599  0.3647
 5158SOL    HW127110   1.169   3.715   6.889 -0.6169 -1.1721  1.1515
 5158SOL    HW227111   1.186   3.821   6.993 -0.5602  0.3919  2.5548
 5159SOL     OW27112   3.590   1.026   4.142 -0.1888 -0.3861 -0.2953
 5159SOL    HW127113   3.551   1.110   4.165 -0.4085 -0.3093 -0.9537
 5159SOL    HW227114   3.679   1.051   4.169  0.2939 -0.6108 -1.6915
 5160SOL     OW27115   3.654   0.025   0.967  0.4366  0.3681  0.0739
 5160SOL    HW127116   3.677   0.068   0.885  1.3705 -1.4957 -0.6374
 5160SOL    HW227117   3.726   0.070   1.012  0.0509 -1.5350  2.5841
 5161SOL     OW27118   2.703   1.340   3.138  0.4942 -0.2057 -0.1743
 5161SOL    HW127119   2.703   1.244   3.144 -2.6012 -0.2678 -0.9330
 5161SOL    HW227120   2.776   1.352   3.078 -0.4298 -1.7551 -1.6204
 5162SOL     OW27121   0.393   4.536   0.698 -0.0993 -0.4279  0.6428
 5162SOL    HW127122   0.429   4.551   0.786 -3.5173 -1.2925  2.2107
 5162SOL    HW227123   0.310   4.493   0.722  1.1722 -2.1814  1.8795
 5163SOL     OW27124   2.755   1.199   6.022  0.1663  0.3488  0.8478
 5163SOL    HW127125   2.787   1.264   5.960 -0.3257 -2.0631 -1.9038
 5163SOL    HW227126   2.733   1.126   5.964  2.1889  0.3421  0.0609
 5164SOL     OW27127   2.377   4.651   9.075 -0.0203 -0.5701  0.1698
 5164SOL    HW127128   2.473   4.654   9.082 -0.1101  1.1226  0.7184
 5164SOL    HW227129   2.340   4.564   9.088 -0.3113 -0.3285  1.0136
 5165SOL     OW27130   0.166   1.639   7.877 -0.3433 -0.5317  0.3204
 5165SOL    HW127131   0.085   1.689   7.867  0.8916  1.5552  0.7657
 5165SOL    HW227132   0.230   1.678   7.817 -1.9415 -0.0394 -1.0664
 5166SOL     OW27133   1.181   1.172  13.099 -0.3360 -0.1149  0.5181
 5166SOL    HW127134   1.274   1.191  13.112 -0.3898  1.0467 -0.8145
 5166SOL    HW227135   1.139   1.241  13.150 -1.6878 -1.5806  1.4051
 5167SOL     OW27136   0.700   4.196   1.309  0.8100  0.0728 -0.0855
 5167SOL    HW127137   0.656   4.179   1.393  1.4980 -1.5943 -0.0622
 5167SOL    HW227138   0.781   4.148   1.324  0.7740  0.4302  1.2234
 5168SOL     OW27139   1.967   3.043   3.176 -0.4969 -0.1969  0.0367
 5168SOL    HW127140   1.897   3.061   3.238 -0.4284  0.4177 -0.0648
 5168SOL    HW227141   1.944   2.951   3.161 -1.3903 -0.4923  3.2401
 5169SOL     OW27142   4.541   3.307   5.783  0.0830 -0.0724 -0.3100
 5169SOL    HW127143   4.626   3.350   5.782  0.4715 -0.7054  3.1878
 5169SOL    HW227144   4.569   3.226   5.741  1.1310  0.3877 -0.5075
 5170SOL     OW27145   0.972   2.171   1.756 -0.1269 -0.3198  0.2013
 5170SOL    HW127146   1.032   2.098   1.761 -0.7373 -0.7901  0.6861
 5170SOL    HW227147   1.015   2.224   1.689 -0.0504  1.5570  1.7159
 5171SOL     OW27148   2.096   3.563  14.899 -0.1039  0.4809 -0.4337
 5171SOL    HW127149   2.062   3.493  14.843  1.8098 -0.7430 -0.0360
 5171SOL    HW227150   2.107   3.635  14.837  1.7045  0.3177 -0.3046
 5172SOL     OW27151   1.307   3.635   8.942 -0.0468  0.1768  0.1655
 5172SOL    HW127152   1.328   3.589   8.861  3.5040 -2.4478  2.6000
 5172SOL    HW227153   1.281   3.562   8.997  0.0482  1.2327  1.6262
 5173SOL     OW27154   3.455   4.186   2.052  0.1410 -0.1220  0.2882
 5173SOL    HW127155   3.499   4.140   1.981 -0.5779  1.4259 -1.1821
 5173SOL    HW227156   3.501   4.160   2.132 -1.9792 -2.7325  0.6253
 5174SOL     OW27157   0.718   4.206  11.762 -0.0989 -0.2331 -0.1949
 5174SOL    HW127158   0.627   4.215  11.788 -0.1710  0.6388 -0.7536
 5174SOL    HW227159   0.718   4.139  11.693 -0.5969 -3.1637  2.6469
 5175SOL     OW27160   3.474   2.204   6.166 -0.1246 -0.2016 -0.0620
 5175SOL    HW127161   3.419   2.227   6.091  0.7318 -0.5562 -0.8116
 5175SOL    HW227162   3.520   2.286   6.184  0.7556 -0.7358  0.1725
 5176SOL     OW27163   3.124   1.146   7.596 -0.1685 -0.0086 -0.0706
 5176SOL    HW127164   3.082   1.202   7.531  1.6729  0.9588 -0.4422
 5176SOL    HW227165   3.059   1.075   7.597  1.4296 -1.4818  0.9558
 5177SOL     OW27166   2.926   3.593   2.870  0.7369 -0.2109 -0.1549
 5177SOL    HW127167   2.839   3.615   2.902  1.5565 -1.6846  3.1100
 5177SOL    HW227168   2.961   3.562   2.954 -1.6837 -0.6461  0.7123
 5178SOL     OW27169   3.129   3.192   7.143 -0.9251  0.0927  0.4995
 5178SOL    HW127170   3.155   3.183   7.052  0.1628 -2.5564  1.0598
 5178SOL    HW227171   3.191   3.256   7.176 -0.0330 -0.0276 -0.9791
 5179SOL     OW27172   2.996   4.030  12.471 -0.3859 -0.3301 -0.2921
 5179SOL    HW127173   3.017   3.947  12.513  0.6585  0.8116  1.5070
 5179SOL    HW227174   3.085   4.058  12.447 -1.2829  1.3869 -1.5756
 5180SOL     OW27175   2.956   3.530   6.988 -0.3123 -0.2179  0.3088
 5180SOL    HW127176   2.896   3.555   6.918  2.0244  0.8260 -1.3009
 5180SOL    HW227177   3.038   3.532   6.940 -1.0322 -0.4123 -0.9220
 5181SOL     OW27178   1.945   3.656   8.333  0.1556 -0.6473  0.0436
 5181SOL    HW127179   1.961   3.563   8.319 -0.4041 -0.8573  0.8890
 5181SOL    HW227180   1.870   3.642   8.390  0.8916 -2.1512  0.6305
 5182SOL     OW27181   2.388   4.025   2.632 -0.5093 -0.0813 -0.3721
 5182SOL    HW127182   2.450   4.012   2.705  0.9396 -0.9977 -1.7751
 5182SOL    HW227183   2.308   4.034   2.684 -0.0402 -0.2229  0.3808
 5183SOL     OW27184   4.561   3.508   9.692 -0.1617  0.0048  0.1960
 5183SOL    HW127185   4.647   3.533   9.658  0.8114  0.2278  2.8865
 5183SOL    HW227186   4.506   3.555   9.628 -0.8582 -1.0106  0.0506
 5184SOL     OW27187   2.091   0.988   6.236 -0.0660  0.1985  0.7671
 5184SOL    HW127188   2.112   1.028   6.152 -0.9758 -1.3686 -0.1962
 5184SOL    HW227189   2.059   0.901   6.212 -0.0297 -0.0761  1.6968
 5185SOL     OW27190   3.998   3.697  12.869 -0.1156  0.1974 -0.0896
 5185SOL    HW127191   4.032   3.740  12.791  0.2470 -0.7729 -0.4625
 5185SOL    HW227192   4.026   3.605  12.861 -0.0925  0.2321 -0.3958
 5186SOL     OW27193   4.640   0.993   6.381 -0.4914 -0.2076 -0.0002
 5186SOL    HW127194   4.647   0.898   6.372 -1.7118 -0.2515 -0.5838
 5186SOL    HW227195   4.658   1.022   6.291 -2.2099  2.5909  0.5317
 5187SOL     OW27196   0.947   4.212   7.015  0.7471  0.4950 -0.2759
 5187SOL    HW127197   0.958   4.303   7.040 -3.6143  0.3862  1.8613
 5187SOL    HW227198   0.856   4.201   6.989  1.3724  0.3210 -2.4052
 5188SOL     OW27199   0.873   0.527   7.555  0.3078 -0.4543 -0.1341
 5188SOL    HW127200   0.853   0.435   7.534  0.9894 -0.7036  0.3008
 5188SOL    HW227201   0.858   0.573   7.472  1.4699 -1.0066 -0.6560
 5189SOL     OW27202   0.080   0.446   4.944  0.1033  0.5377  0.9963
 5189SOL    HW127203   4.732   0.426   4.900  0.5429 -1.3050  1.0425
 5189SOL    HW227204   0.050   0.516   5.002 -0.9416  0.6360  0.3402
 5190SOL     OW27205   3.525   4.525  17.396  0.6472 -0.1833 -0.5409
 5190SOL    HW127206   3.620   4.540  17.393  0.8664 -1.3711  0.0835
 5190SOL    HW227207   3.504   4.497  17.307 -0.6683  1.6645 -0.8116
 5191SOL     OW27208   2.075   4.342   6.607 -0.3450  0.2028  0.4423
 5191SOL    HW127209   1.996   4.313   6.651  0.3281  1.7415  2.6578
 5191SOL    HW227210   2.063   4.312   6.517  3.1769  0.4976 -0.1431
 5192SOL     OW27211   2.068   0.310   7.149  0.0815  0.2680 -0.4080
 5192SOL    HW127212   2.131   0.364   7.101 -0.3216 -1.3160 -2.7164
 5192SOL    HW227213   1.990   0.352   7.112  1.5174 -0.8171 -4.6487
 5193SOL     OW27214   4.422   0.011   1.496  0.0673 -0.0687 -0.5669
 5193SOL    HW127215   4.349   4.717   1.551 -1.3651  4.6737  0.0762
 5193SOL    HW227216   4.381   0.068   1.431 -0.6333  0.4348  0.3104
 5194SOL     OW27217   2.833   1.273   7.684  0.6204  0.0780 -0.4152
 5194SOL    HW127218   2.881   1.280   7.767 -1.6660 -1.5683  1.0405
 5194SOL    HW227219   2.748   1.303   7.716 -1.2549 -3.0528 -2.4286
 5195SOL     OW27220   2.958   3.062   5.437  0.5633 -0.0506  0.0368
 5195SOL    HW127221   2.920   2.975   5.437 -1.2543  0.7440 -2.5388
 5195SOL    HW227222   3.015   3.064   5.514  0.2310 -1.2722  0.3162
 5196SOL     OW27223   2.687   1.219   2.630 -0.9903 -0.1533  0.3216
 5196SOL    HW127224   2.664   1.231   2.538  1.5670 -1.6233 -0.5028
 5196SOL    HW227225   2.771   1.265   2.629 -1.2658  0.3331 -0.4237
 5197SOL     OW27226   0.083   3.823   1.200  0.1600 -0.0156  0.1559
 5197SOL    HW127227   0.147   3.894   1.209 -1.5890  1.6948 -0.8414
 5197SOL    HW227228   0.093   3.795   1.109  0.8180 -0.1369  0.2659
 5198SOL     OW27229   0.491   4.522  16.544 -0.2999 -0.3492  0.2799
 5198SOL    HW127230   0.505   4.434  16.508 -2.1653 -0.2831 -0.5816
 5198SOL    HW227231   0.484   4.515  16.639 -1.4494 -1.1754  0.1235
 5199SOL     OW27232   3.615   0.069   2.675  0.3440  0.2859 -0.2027
 5199SOL    HW127233   3.638   0.135   2.610  1.7650  0.5027  0.5206
 5199SOL    HW227234   3.640   4.723   2.631 -0.3693 -0.0763  0.0616
 5200SOL     OW27235   1.191   1.711  15.241 -0.2970  0.0447  0.4557
 5200SOL    HW127236   1.230   1.770  15.306 -0.0582  2.0409 -1.4967
 5200SOL    HW227237   1.212   1.625  15.277  0.7792 -0.8442 -2.2991
 5201SOL     OW27238   4.667   0.297  11.490  1.1004 -0.4115  0.1776
 5201SOL    HW127239   4.630   0.218  11.449  1.6387 -1.1785  1.1930
 5201SOL    HW227240   4.648   0.271  11.580  1.1075 -1.5685 -0.1573
 5202SOL     OW27241   0.177   2.480   3.402  0.8826 -0.0357 -0.6936
 5202SOL    HW127242   0.213   2.534   3.332  2.6962  2.0504  1.8058
 5202SOL    HW227243   0.233   2.404   3.387  2.0980  1.1712 -2.1812
 5203SOL     OW27244   2.716   1.287  17.348 -0.5155  0.5672  0.4824
 5203SOL    HW127245   2.645   1.257  17.406 -0.3575  0.6301  0.7052
 5203SOL    HW227246   2.667   1.345  17.289  2.8772  3.7058  0.7708
 5204SOL     OW27247   4.060   4.400  13.855 -0.5650  0.0788  0.3908
 5204SOL    HW127248   4.062   4.414  13.949  0.3507 -2.0305  0.6875
 5204SOL    HW227249   4.120   4.328  13.836 -0.1418  0.8780 -1.3376
 5205SOL     OW27250   2.782   0.726   5.591  0.0344  0.0745  0.0845
 5205SOL    HW127251   2.740   0.689   5.513  1.8887 -2.6187  0.3693
 5205SOL    HW227252   2.831   0.797   5.550 -0.5122  0.5279  0.2119
 5206SOL     OW27253   4.088   4.482   5.921  0.0005  0.3067  0.1133
 5206SOL    HW127254   4.043   4.455   5.841  0.7994  1.4477 -0.7191
 5206SOL    HW227255   4.161   4.536   5.888  0.4629  0.1356  0.8465
 5207SOL     OW27256   0.421   4.600  10.143 -0.7553  0.1433 -0.0117
 5207SOL    HW127257   0.500   4.559  10.179 -0.4141 -0.2404 -1.1759
 5207SOL    HW227258   0.437   4.591  10.049  2.1636 -0.9515  0.5937
 5208SOL     OW27259   0.744   3.188  14.703  0.4467  0.2643 -0.1626
 5208SOL    HW127260   0.777   3.256  14.644 -1.9710  0.9692 -0.6780
 5208SOL    HW227261   0.699   3.248  14.762 -0.2142  0.2990 -0.7058
 5209SOL     OW27262   4.186   3.413   8.498  0.3296  0.2806 -0.1744
 5209SOL    HW127263   4.131   3.455   8.432 -0.5444 -0.3111  0.1725
 5209SOL    HW227264   4.227   3.487   8.543 -0.8085  0.7375  0.1254
 5210SOL     OW27265   3.258   2.998   6.631  0.0339 -0.2635 -0.3239
 5210SOL    HW127266   3.341   3.042   6.648 -0.4850  0.7368 -0.4180
 5210SOL    HW227267   3.287   2.909   6.607  0.3192 -0.4048  0.5619
 5211SOL     OW27268   2.654   1.610  11.118 -0.0038  0.0760 -0.7380
 5211SOL    HW127269   2.662   1.587  11.211  0.2340 -0.7970 -0.9806
 5211SOL    HW227270   2.678   1.702  11.133  0.5363 -0.3635  1.0806
 5212SOL     OW27271   0.949   4.111  14.893 -0.5077  0.2061  0.8085
 5212SOL    HW127272   1.017   4.147  14.836 -0.2476  0.7298  1.4533
 5212SOL    HW227273   0.890   4.067  14.831 -1.0234  0.5573  1.0439
 5213SOL     OW27274   3.305   0.907   5.310 -0.1991 -0.9351  0.3217
 5213SOL    HW127275   3.308   0.930   5.403  1.3339  0.3952 -0.0424
 5213SOL    HW227276   3.213   0.916   5.289 -0.2248  0.6286  1.0788
 5214SOL     OW27277   3.636   2.103  12.924 -0.5564  0.4545  0.0047
 5214SOL    HW127278   3.654   2.154  13.002  1.1963 -1.4254  0.8040
 5214SOL    HW227279   3.702   2.142  12.867  1.2717  0.1860  1.9688
 5215SOL     OW27280   2.098   4.264   0.281  0.3068 -0.1715 -0.1895
 5215SOL    HW127281   2.156   4.213   0.337 -0.3772 -0.6319  0.1043
 5215SOL    HW227282   2.118   4.243   0.189  0.7734  1.1361 -0.3792
 5216SOL     OW27283   2.401   3.900   5.964  0.2548  0.0682  0.2033
 5216SOL    HW127284   2.424   3.992   5.951  0.1095 -0.0946 -1.3146
 5216SOL    HW227285   2.419   3.872   5.874  2.0510 -0.4270  0.7252
 5217SOL     OW27286   2.160   0.072   7.176  0.2178  0.1145  0.1389
 5217SOL    HW127287   2.253   0.095   7.175  0.0103  1.0342  2.2870
 5217SOL    HW227288   2.126   0.161   7.165 -1.1349 -0.2790  1.0781
 5218SOL     OW27289   0.414   2.734   7.139  0.4022  0.2768  0.0510
 5218SOL    HW127290   0.384   2.790   7.210 -0.5534  1.3721 -1.2223
 5218SOL    HW227291   0.409   2.644   7.172 -0.4374 -0.6243 -2.5133
 5219SOL     OW27292   3.526   1.200   9.471 -0.2658 -0.7016  0.1482
 5219SOL    HW127293   3.580   1.195   9.393 -0.9956 -1.6807 -0.2973
 5219SOL    HW227294   3.514   1.295   9.470  2.4891 -0.3565  0.7281
 5220SOL     OW27295   4.419   2.904   6.480  0.2044 -0.5924 -0.2940
 5220SOL    HW127296   4.335   2.933   6.447  0.2681 -1.3235 -1.1156
 5220SOL    HW227297   4.406   2.810   6.494 -0.4226 -0.2198  1.5179
 5221SOL     OW27298   2.839   3.819   3.173  0.5597  0.2938 -0.0008
 5221SOL    HW127299   2.858   3.912   3.161  3.0569 -0.4331 -1.5326
 5221SOL    HW227300   2.743   3.823   3.171  0.6167  1.1973 -1.2450
 5222SOL     OW27301   3.499   0.758  14.944 -0.2503 -0.3269 -0.0294
 5222SOL    HW127302   3.421   0.788  14.991 -1.1678  0.5333 -2.1312
 5222SOL    HW227303   3.488   0.663  14.941  0.8129 -0.4880  0.9377
 5223SOL     OW27304   3.406   3.469   7.680  0.2849  0.2876 -0.1211
 5223SOL    HW127305   3.435   3.514   7.759 -1.0172 -0.6661  0.9065
 5223SOL    HW227306   3.418   3.543   7.621  0.8693 -0.7340 -1.2827
 5224SOL     OW27307   2.824   1.001   7.290  0.0545 -0.0984 -0.0061
 5224SOL    HW127308   2.765   0.926   7.297  0.2891 -0.3687 -0.9987
 5224SOL    HW227309   2.777   1.057   7.352 -1.4734 -2.8921  1.3570
 5225SOL     OW27310   1.475   2.618   7.132  0.0785  0.2011 -0.0114
 5225SOL    HW127311   1.532   2.684   7.171 -0.4336  1.2669 -1.0755
 5225SOL    HW227312   1.513   2.536   7.165 -1.1019  0.3684  1.7331
 5226SOL     OW27313   3.952   0.886   9.585  0.5042 -0.6460 -0.1936
 5226SOL    HW127314   4.016   0.953   9.561 -0.8750  2.1903  4.1307
 5226SOL    HW227315   3.888   0.943   9.626  2.2900 -0.6401  2.5370
 5227SOL     OW27316   0.956   0.584   6.843  0.0115 -0.0866  0.2537
 5227SOL    HW127317   1.030   0.593   6.783  0.9267 -0.0483  1.3972
 5227SOL    HW227318   0.908   0.666   6.829  0.2034  0.1458  0.9755
 5228SOL     OW27319   1.985   0.202   3.733 -0.0850  0.1420 -0.9010
 5228SOL    HW127320   1.966   0.108   3.734  1.9800 -0.2625 -0.2211
 5228SOL    HW227321   1.916   0.238   3.789 -1.7697 -1.0981 -2.1717
 5229SOL     OW27322   1.880   0.751   8.115 -0.0655 -0.1283 -0.2002
 5229SOL    HW127323   1.825   0.769   8.039  0.2974 -2.2151 -0.9452
 5229SOL    HW227324   1.817   0.748   8.187  0.9919 -0.2290  0.7303
 5230SOL     OW27325   1.540   2.324  14.996 -0.7413  0.0402  0.3087
 5230SOL    HW127326   1.561   2.417  14.988 -0.5097 -0.1978 -2.1175
 5230SOL    HW227327   1.464   2.327  15.054  0.4246  0.7101  1.8019
 5231SOL     OW27328   0.972   2.170   5.795 -0.2851 -0.1111 -0.0454
 5231SOL    HW127329   1.057   2.139   5.828  0.3281  1.6285 -0.0179
 5231SOL    HW227330   0.904   2.119   5.838 -1.1888  1.3272  0.2223
 5232SOL     OW27331   2.482   2.211  16.939  0.1704  0.0185  0.0473
 5232SOL    HW127332   2.492   2.205  16.844 -3.3920 -0.7932 -0.2887
 5232SOL    HW227333   2.550   2.153  16.975 -0.1127 -0.3800 -0.0579
 5233SOL     OW27334   0.722   3.326   3.662  0.3273  0.0375 -0.7187
 5233SOL    HW127335   0.711   3.277   3.581 -2.4562 -0.8252  0.2118
 5233SOL    HW227336   0.709   3.414   3.626  0.1368 -0.2102 -1.2551
 5234SOL     OW27337   4.608   4.080  15.987  0.6339 -0.3126 -0.1432
 5234SOL    HW127338   4.696   4.048  15.970  1.1513 -0.2076  2.3353
 5234SOL    HW227339   4.626   4.124  16.070  1.4474 -1.1983  0.1500
 5235SOL     OW27340   3.977   0.262   3.081 -0.4979  0.2250  0.1826
 5235SOL    HW127341   3.908   0.297   3.138  0.9559  0.5354  1.7433
 5235SOL    HW227342   3.938   0.276   2.995 -3.0611  0.3867  1.3770
 5236SOL     OW27343   2.937   2.649  12.688 -0.2430 -0.0456  0.1528
 5236SOL    HW127344   3.000   2.719  12.703 -0.1574 -0.7700  3.1416
 5236SOL    HW227345   2.979   2.573  12.729 -0.1784  0.7955  1.6277
 5237SOL     OW27346   3.484   2.767   9.352  0.0947  0.0651  0.6539
 5237SOL    HW127347   3.540   2.713   9.407 -1.6142 -0.9174  1.3966
 5237SOL    HW227348   3.407   2.712   9.340 -0.6854  1.0655  1.1299
 5238SOL     OW27349   3.668   1.154   9.214 -0.1566 -0.2278  0.2519
 5238SOL    HW127350   3.630   1.067   9.204  0.7039 -0.6610  0.8357
 5238SOL    HW227351   3.723   1.162   9.136  1.3060 -0.7864  1.2423
 5239SOL     OW27352   2.139   0.628  15.650  0.4045  0.0757  0.4142
 5239SOL    HW127353   2.221   0.579  15.641  1.3966  1.5042  1.7031
 5239SOL    HW227354   2.095   0.573  15.585  2.5267 -0.2142 -0.7859
 5240SOL     OW27355   1.654   0.331   5.918 -0.2434 -0.1367  0.0552
 5240SOL    HW127356   1.682   0.411   5.873  1.9779 -1.3763 -0.7434
 5240SOL    HW227357   1.595   0.369   5.984  0.0796 -0.1596  0.3563
 5241SOL     OW27358   3.878   4.400   0.780  0.6353  0.0638 -0.0899
 5241SOL    HW127359   3.940   4.472   0.796 -0.3271  0.8805 -0.0036
 5241SOL    HW227360   3.799   4.438   0.818  0.5414 -0.2362  0.0114
 5242SOL     OW27361   4.133   2.604  12.504  0.2330 -0.2026 -0.1236
 5242SOL    HW127362   4.167   2.515  12.498  1.5245  0.2010  1.0961
 5242SOL    HW227363   4.210   2.653  12.533  1.7381 -2.4821 -0.2598
 5243SOL     OW27364   2.768   2.582   6.234 -0.7804 -0.1193 -0.0727
 5243SOL    HW127365   2.730   2.536   6.309 -0.3382  2.1522  1.5308
 5243SOL    HW227366   2.816   2.651   6.279  1.0635 -1.6673  0.3577
 5244SOL     OW27367   4.041   1.373   2.879  0.0572 -0.4357  0.6938
 5244SOL    HW127368   4.095   1.317   2.824 -0.1632  0.2613 -0.2363
 5244SOL    HW227369   4.091   1.451   2.902  1.4528 -1.4438  1.0335
 5245SOL     OW27370   2.688   1.708  15.107  0.0814 -0.7755 -0.3418
 5245SOL    HW127371   2.623   1.755  15.056  1.4283 -0.1184 -1.4414
 5245SOL    HW227372   2.646   1.622  15.109 -0.6118 -0.4330 -0.0437
 5246SOL     OW27373   0.951   2.585   7.864 -0.6180 -0.0851 -0.2070
 5246SOL    HW127374   0.883   2.607   7.928  1.2414  1.1231  1.3485
 5246SOL    HW227375   0.975   2.677   7.855  2.9302 -0.9301  0.4957
 5247SOL     OW27376   1.499   3.367   1.604  0.0473  0.0580 -0.0784
 5247SOL    HW127377   1.454   3.448   1.628 -3.2337 -1.4105 -1.2335
 5247SOL    HW227378   1.592   3.390   1.593  0.2989 -2.4116 -2.9907
 5248SOL     OW27379   2.888   2.091   3.711 -0.6145 -0.0282 -0.4089
 5248SOL    HW127380   2.913   2.013   3.760 -0.5623 -0.4596 -1.1167
 5248SOL    HW227381   2.807   2.063   3.669  0.5015 -1.9928 -1.2826
 5249SOL     OW27382   3.516   0.917  13.773 -0.0753 -0.2561 -0.1442
 5249SOL    HW127383   3.583   0.853  13.749  0.3149 -0.0256  0.3211
 5249SOL    HW227384   3.559   0.983  13.829 -0.3126  0.4495 -0.7897
 5250SOL     OW27385   3.261   1.998   4.367  0.1455 -0.4168 -0.1500
 5250SOL    HW127386   3.291   1.908   4.377 -0.7394 -0.8978 -1.8941
 5250SOL    HW227387   3.170   1.982   4.346  0.0198 -1.4959  1.2323
 5251SOL     OW27388   4.634   3.699   8.612 -0.4724  0.5390  0.1426
 5251SOL    HW127389   4.685   3.764   8.564  2.3732  1.1804  4.0805
 5251SOL    HW227390   4.613   3.744   8.694 -3.0521  1.7451 -1.1579
 5252SOL     OW27391   2.405   0.027   4.455 -0.3209 -0.4665 -0.0074
 5252SOL    HW127392   2.324   4.730   4.495 -0.7060  2.2347  1.3466
 5252SOL    HW227393   2.447   4.677   4.437 -0.8637 -0.6290 -0.5323
 5253SOL     OW27394   4.587   4.227   9.642  0.4746  0.7065  0.2212
 5253SOL    HW127395   4.568   4.254   9.732  0.4984  1.4850 -0.0106
 5253SOL    HW227396   4.578   4.132   9.653  1.0499  0.8964  2.2942
 5254SOL     OW27397   0.806   3.966   1.383  0.2975 -0.1154 -0.4291
 5254SOL    HW127398   0.876   3.945   1.322  0.6117 -0.6436  0.1159
 5254SOL    HW227399   0.862   3.967   1.461 -0.4189 -0.7233  0.0867
 5255SOL     OW27400   0.898   0.247   7.500  0.8901  0.0236 -0.1952
 5255SOL    HW127401   0.977   0.222   7.547  1.1981  2.9938  0.8606
 5255SOL    HW227402   0.851   0.164   7.491  0.3897  0.0928  1.8503
 5256SOL     OW27403   3.159   2.271   9.202 -0.1508 -0.1337 -0.0297
 5256SOL    HW127404   3.137   2.222   9.123 -0.6923 -0.4422  0.3121
 5256SOL    HW227405   3.165   2.199   9.265 -2.3897  1.1058  1.6163
 5257SOL     OW27406   1.400   3.514   4.751 -0.0706  0.5547 -0.0000
 5257SOL    HW127407   1.447   3.587   4.792  0.3046  0.1992  0.2009
 5257SOL    HW227408   1.344   3.480   4.820 -0.1681 -0.5289 -0.6253
 5258SOL     OW27409   0.863   2.719  14.562  0.0499 -0.0014 -0.3050
 5258SOL    HW127410   0.916   2.640  14.576  1.1168  0.2619 -2.8431
 5258SOL    HW227411   0.931   2.786  14.555 -0.7804  0.7663 -1.0570
 5259SOL     OW27412   1.198   2.617   1.244  0.2329  0.0258 -0.2541
 5259SOL    HW127413   1.248   2.698   1.257 -0.8639  1.1409 -2.9155
 5259SOL    HW227414   1.271   2.556   1.255  0.1294 -0.2153 -0.8934
 5260SOL     OW27415   2.264   0.623   8.334 -0.0706  0.1931  0.4719
 5260SOL    HW127416   2.196   0.555   8.332  1.1557 -1.0546  1.4090
 5260SOL    HW227417   2.235   0.686   8.268 -1.6142 -0.6361  0.3516
 5261SOL     OW27418   1.320   2.543  17.094 -0.0511 -0.1318  0.4043
 5261SOL    HW127419   1.365   2.614  17.050 -1.5019  0.8097  0.4485
 5261SOL    HW227420   1.350   2.466  17.046  0.6575  0.0202  0.6062
 5262SOL     OW27421   3.293   2.303   3.112  0.3522 -0.5018 -0.2218
 5262SOL    HW127422   3.297   2.280   3.204  2.7633  0.4575 -0.0851
 5262SOL    HW227423   3.228   2.372   3.119 -1.2054 -1.9926  0.0698
 5263SOL     OW27424   2.612   4.545   4.775 -0.8134  0.2223 -0.3960
 5263SOL    HW127425   2.696   4.575   4.742 -0.6388 -0.4018 -0.5310
 5263SOL    HW227426   2.573   4.625   4.809  3.2415  1.8428  0.3727
 5264SOL     OW27427   1.441   2.294   7.468 -1.0080  0.3607  0.0619
 5264SOL    HW127428   1.363   2.277   7.415  0.0813  0.6432 -1.6289
 5264SOL    HW227429   1.465   2.205   7.495 -1.2239 -0.1227 -1.2935
 5265SOL     OW27430   0.940   4.495   8.506  0.3820  0.3015 -0.6291
 5265SOL    HW127431   0.949   4.412   8.459  2.0153 -0.2905  0.6984
 5265SOL    HW227432   1.004   4.545   8.455 -1.2135  1.8737 -1.0668
 5266SOL     OW27433   3.134   2.399   4.255  0.0141  0.0192  0.2794
 5266SOL    HW127434   3.199   2.379   4.321 -2.1625 -1.2109  2.0376
 5266SOL    HW227435   3.086   2.475   4.290  0.3199  0.9888 -1.3925
 5267SOL     OW27436   3.358   3.407   7.953 -0.0613  0.3795 -0.1771
 5267SOL    HW127437   3.390   3.498   7.950 -0.1783  0.3879 -1.1519
 5267SOL    HW227438   3.406   3.351   8.013 -0.9916  1.0335  1.1869
 5268SOL     OW27439   3.043   0.772  10.603  0.4711 -0.3727 -0.2779
 5268SOL    HW127440   3.025   0.803  10.692 -0.8531  0.5208 -0.8537
 5268SOL    HW227441   3.135   0.797  10.598  0.3800  0.0776  0.3419
 5269SOL     OW27442   2.940   2.633  15.086  0.1976  0.1978 -0.1629
 5269SOL    HW127443   2.865   2.652  15.030  0.0271  0.8934  0.3063
 5269SOL    HW227444   2.951   2.541  15.064  2.0070  0.2600  0.4914
 5270SOL     OW27445   3.550   4.438   8.270  0.1099  0.2481  0.7707
 5270SOL    HW127446   3.499   4.370   8.312  0.1298  0.3840  1.0139
 5270SOL    HW227447   3.615   4.395   8.214  1.2522  2.4576  0.3795
 5271SOL     OW27448   3.274   0.990   8.035 -0.1024  0.1734 -0.2551
 5271SOL    HW127449   3.186   0.998   7.997 -0.2060 -0.6300 -0.1684
 5271SOL    HW227450   3.291   0.896   8.040 -1.1678 -0.0732 -1.2824
 5272SOL     OW27451   2.750   3.907   1.162 -0.2603  0.2016 -0.0033
 5272SOL    HW127452   2.736   3.949   1.076  2.5878 -0.4853 -0.7976
 5272SOL    HW227453   2.787   3.979   1.213  0.5481 -1.7559  2.1518
 5273SOL     OW27454   0.876   3.097   8.206 -0.1767 -0.8723 -0.3765
 5273SOL    HW127455   0.895   3.119   8.297 -1.9220  0.2332 -0.2867
 5273SOL    HW227456   0.956   3.049   8.185  0.8684  0.4239  0.6438
 5274SOL     OW27457   3.381   3.543   9.323  0.2441 -0.0220  0.1417
 5274SOL    HW127458   3.472   3.515   9.323  1.0789  2.6315  0.6373
 5274SOL    HW227459   3.345   3.508   9.405  0.0469 -0.6232 -0.2028
 5275SOL     OW27460   3.763   4.066   6.853 -0.3487 -0.1558  0.4878
 5275SOL    HW127461   3.853   4.047   6.827  0.5757  2.2023  2.0105
 5275SOL    HW227462   3.781   4.061   6.947  0.6356  0.7201  0.3375
 5276SOL     OW27463   4.323   2.827  12.408  0.4623 -0.1554 -0.2177
 5276SOL    HW127464   4.411   2.793  12.424 -0.2708 -1.9679 -0.0646
 5276SOL    HW227465   4.352   2.918  12.396  2.1032 -0.4104  1.6946
 5277SOL     OW27466   1.200   3.584   3.476  0.4951 -0.3266  0.1422
 5277SOL    HW127467   1.199   3.653   3.542  1.1693 -0.4676  0.3093
 5277SOL    HW227468   1.135   3.523   3.512  0.4289  0.4692  1.3535
 5278SOL     OW27469   2.014   2.561   1.945  0.5135  0.0025  0.0145
 5278SOL    HW127470   1.984   2.514   2.023 -1.5228 -0.1987 -0.8762
 5278SOL    HW227471   2.094   2.512   1.927  0.8839  0.0299  1.6474
 5279SOL     OW27472   0.879   3.839   6.422  0.2879  0.6167  0.9807
 5279SOL    HW127473   0.944   3.858   6.490  2.3873  0.5097 -0.9870
 5279SOL    HW227474   0.836   3.924   6.424 -3.6389 -1.3479 -0.2910
 5280SOL     OW27475   3.618   3.954   8.611 -0.3088 -0.4900 -0.2791
 5280SOL    HW127476   3.655   3.932   8.696  0.0825 -1.2709 -0.6507
 5280SOL    HW227477   3.562   4.028   8.636  0.7224  0.0701  0.3377
 5281SOL     OW27478   3.355   3.705   2.179  0.1984 -0.5208 -0.1922
 5281SOL    HW127479   3.309   3.789   2.175 -0.4869 -0.9452 -1.4078
 5281SOL    HW227480   3.277   3.650   2.190 -1.5483  1.6859 -1.4401
 5282SOL     OW27481   3.173   0.739   3.679 -0.1605  0.3843 -0.8019
 5282SOL    HW127482   3.183   0.815   3.737  0.8277  0.3902 -0.9807
 5282SOL    HW227483   3.207   0.667   3.732  1.2444  0.4567 -1.6152
 5283SOL     OW27484   0.171   0.518   5.410  0.1762  0.3685 -0.3707
 5283SOL    HW127485   0.187   0.425   5.394  1.7438 -0.1216  4.2810
 5283SOL    HW227486   0.254   0.553   5.378  1.7364 -0.7813  2.4310
 5284SOL     OW27487   2.358   1.701  15.714  0.0040  0.4170 -0.2980
 5284SOL    HW127488   2.375   1.614  15.677  0.2613  0.3667 -0.0626
 5284SOL    HW227489   2.293   1.724  15.649  1.0643  0.5876 -1.2990
 5285SOL     OW27490   0.821   3.155   7.116 -0.6149 -0.0898  0.4138
 5285SOL    HW127491   0.766   3.154   7.037  0.9163  3.3827 -0.7030
 5285SOL    HW227492   0.870   3.237   7.112 -2.2411  0.7637 -1.7738
 5286SOL     OW27493   3.648   2.410  11.208  0.6597 -0.4165  0.3455
 5286SOL    HW127494   3.695   2.372  11.134  1.5706  1.2331  0.0614
 5286SOL    HW227495   3.600   2.333  11.236 -0.4171 -0.4320 -1.5155
 5287SOL     OW27496   0.889   0.688  11.955 -0.1689 -1.0177  0.2052
 5287SOL    HW127497   0.926   0.692  12.043 -0.2955  1.1514  0.1640
 5287SOL    HW227498   0.816   0.748  11.967 -1.2480 -1.9264 -1.8086
 5288SOL     OW27499   2.915   4.726   4.191  0.0116 -0.7557 -0.2166
 5288SOL    HW127500   2.908   0.062   4.127 -0.4383 -1.4582 -0.9397
 5288SOL    HW227501   2.897   4.650   4.136  1.6484 -0.2541 -1.4480
 5289SOL     OW27502   1.759   0.080   8.563 -0.1764  0.4828 -0.1042
 5289SOL    HW127503   1.781   0.157   8.510 -2.0361 -0.3611 -2.1005
 5289SOL    HW227504   1.677   0.051   8.523 -0.6275  1.3055  0.2235
 5290SOL     OW27505   2.084   4.312   8.207  0.1167 -0.2453 -0.1091
 5290SOL    HW127506   2.013   4.250   8.225 -1.4080  1.3569 -0.6392
 5290SOL    HW227507   2.159   4.256   8.228  0.4211 -0.2353 -1.1809
 5291SOL     OW27508   2.415   1.921  16.606  0.5292 -0.0229 -0.0683
 5291SOL    HW127509   2.505   1.902  16.579 -0.0605 -0.7867 -1.5157
 5291SOL    HW227510   2.430   1.992  16.668  0.7805 -0.1087 -0.0273
 5292SOL     OW27511   3.718   1.711   0.981 -0.1734 -1.0528 -0.3687
 5292SOL    HW127512   3.791   1.728   0.921 -0.7674  0.4988 -0.6479
 5292SOL    HW227513   3.729   1.621   1.012  0.4597 -1.0154 -0.5006
 5293SOL     OW27514   4.335   1.096   7.750  0.4043  0.4136  0.3549
 5293SOL    HW127515   4.395   1.144   7.693  1.2171 -0.4646  0.4527
 5293SOL    HW227516   4.284   1.171   7.780  0.7188 -0.3968  2.8799
 5294SOL     OW27517   3.674   2.174   5.199  0.2260 -0.0263 -0.4137
 5294SOL    HW127518   3.640   2.203   5.284 -2.6163 -1.4576 -1.0809
 5294SOL    HW227519   3.588   2.153   5.164 -1.3697  1.0715  2.8221
 5295SOL     OW27520   3.249   1.010  11.194  0.3027 -0.1158  0.6569
 5295SOL    HW127521   3.255   1.083  11.133  0.9752 -0.5664  0.1821
 5295SOL    HW227522   3.289   0.934  11.151  1.4285 -0.6613  2.6557
 5296SOL     OW27523   3.916   2.852   6.398  0.2649  0.3538 -0.3437
 5296SOL    HW127524   3.978   2.808   6.340 -0.9346 -0.2536 -1.1774
 5296SOL    HW227525   3.862   2.898   6.334 -1.5913  0.4803  1.2823
 5297SOL     OW27526   2.213   0.765  10.209  0.5541  0.0697  0.2977
 5297SOL    HW127527   2.170   0.680  10.196 -0.3546  0.6551 -0.5940
 5297SOL    HW227528   2.218   0.792  10.118 -0.9175  1.6261  0.6839
 5298SOL     OW27529   4.712   4.728   2.217  0.3209 -0.0424  0.2952
 5298SOL    HW127530   0.069   0.016   2.226  0.3012  0.2537 -0.2537
 5298SOL    HW227531   4.691   0.008   2.125 -0.5168  0.3928  0.5435
 5299SOL     OW27532   4.462   2.710   8.095 -0.1954  0.6340  0.4687
 5299SOL    HW127533   4.391   2.734   8.155  0.1476 -1.9299  1.9144
 5299SOL    HW227534   4.487   2.638   8.153 -4.1269 -0.4349  0.7991
 5300SOL     OW27535   0.958   0.435  14.468 -0.5095  0.4974  0.4699
 5300SOL    HW127536   1.008   0.407  14.545 -1.6503 -0.7635  0.7453
 5300SOL    HW227537   1.017   0.394  14.405 -0.2609  1.2864  0.1861
 5301SOL     OW27538   3.391   2.520   2.939  0.4650 -0.0646 -0.3186
 5301SOL    HW127539   3.427   2.447   2.990  0.2046  0.7619  1.0436
 5301SOL    HW227540   3.448   2.592   2.966  0.0083  0.2025 -0.0794
 5302SOL     OW27541   0.027   1.985  14.783  0.5065 -0.4335 -0.1716
 5302SOL    HW127542   0.039   2.059  14.724 -3.9146 -0.6866 -1.4080
 5302SOL    HW227543   0.019   2.033  14.866  2.5125  1.3967 -1.0689
 5303SOL     OW27544   3.301   0.598   7.083  0.3468  0.5232  0.1429
 5303SOL    HW127545   3.343   0.551   7.011  1.2609 -0.7679  1.5375
 5303SOL    HW227546   3.212   0.607   7.048  0.6343 -0.7766 -0.9315
 5304SOL     OW27547   1.755   4.303   4.136 -0.1357 -0.3190 -0.3114
 5304SOL    HW127548   1.695   4.322   4.208 -1.2141  3.5346 -2.2753
 5304SOL    HW227549   1.793   4.390   4.124 -2.9342  0.9287 -0.1305
 5305SOL     OW27550   3.046   3.642   3.680  0.4046 -0.0892 -0.2647
 5305SOL    HW127551   3.012   3.564   3.724 -0.3986  0.0607 -0.6278
 5305SOL    HW227552   3.019   3.634   3.588 -1.4130  3.3624  0.0026
 5306SOL     OW27553   4.580   1.226  10.012 -0.3726 -0.7687 -0.3280
 5306SOL    HW127554   4.648   1.219   9.944  1.3673  3.6910  0.9308
 5306SOL    HW227555   4.514   1.260   9.950 -0.8113  1.0561  1.1386
 5307SOL     OW27556   1.599   0.533   6.136  0.1983  0.7688 -0.1564
 5307SOL    HW127557   1.690   0.507   6.151  0.2690  0.7171 -0.6550
 5307SOL    HW227558   1.585   0.580   6.218 -1.6784 -0.1616  0.0543
 5308SOL     OW27559   0.779   1.119  14.044  0.4371 -0.4115  0.2769
 5308SOL    HW127560   0.729   1.065  13.982  0.5596  2.1017 -2.0675
 5308SOL    HW227561   0.747   1.088  14.128 -0.1490 -2.7389 -0.8024
 5309SOL     OW27562   2.824   0.322   6.941 -0.5358 -0.1302 -0.1357
 5309SOL    HW127563   2.835   0.298   7.033 -0.2168 -1.6379 -0.5794
 5309SOL    HW227564   2.892   0.260   6.916 -1.2908 -1.6953  1.6706
 5310SOL     OW27565   1.528   1.943   3.147 -0.4522 -0.1906 -0.5250
 5310SOL    HW127566   1.577   1.877   3.196 -0.4551 -0.0050 -0.2688
 5310SOL    HW227567   1.573   1.951   3.063 -0.5706 -1.9080 -0.7498
 5311SOL     OW27568   1.245   4.446   9.872 -0.1575 -0.4587 -0.7254
 5311SOL    HW127569   1.244   4.541   9.865  1.1974 -0.3851 -0.0171
 5311SOL    HW227570   1.279   4.421   9.786 -0.2974  0.6146 -1.0924
 5312SOL     OW27571   2.093   4.285  17.716 -0.1296  0.3113  0.9747
 5312SOL    HW127572   2.184   4.313  17.714 -0.5421  1.5937  0.2021
 5312SOL    HW227573   2.042   4.365  17.704  1.7623  1.4317  0.5413
 5313SOL     OW27574   0.156   4.133   8.712 -0.8399  0.2064 -0.3657
 5313SOL    HW127575   0.235   4.088   8.741 -0.6214  1.3179  0.7961
 5313SOL    HW227576   0.187   4.192   8.643 -0.3711 -0.2373 -0.5331
 5314SOL     OW27577   4.346   0.299   3.228  0.2423  0.3251  0.3421
 5314SOL    HW127578   4.308   0.261   3.307  1.3677  0.0492  0.7487
 5314SOL    HW227579   4.435   0.266   3.237  0.3738  0.0043 -2.2861
 5315SOL     OW27580   2.015   4.096  16.990  0.2379 -0.0891  0.1653
 5315SOL    HW127581   2.053   4.095  16.902 -1.2218 -1.0337 -0.4439
 5315SOL    HW227582   1.942   4.036  16.973 -0.6502  1.1730 -0.5087
 5316SOL     OW27583   1.623   2.662  17.529  0.3031 -0.0357 -0.2368
 5316SOL    HW127584   1.549   2.608  17.503  1.3661 -1.7937  0.4111
 5316SOL    HW227585   1.649   2.705  17.447 -0.9306 -1.1726 -1.2102
 5317SOL     OW27586   4.219   2.163   5.327  0.3486  0.6158  0.4608
 5317SOL    HW127587   4.205   2.254   5.356  0.1781  0.4722  0.8244
 5317SOL    HW227588   4.154   2.124   5.386  1.0773 -0.9002  0.2476
 5318SOL     OW27589   0.067   1.473   9.974  0.2949 -0.6217  0.5467
 5318SOL    HW127590   0.094   1.539   9.910 -0.5056 -2.0059 -1.2240
 5318SOL    HW227591   0.155   1.437   9.989 -0.1582 -1.6505  0.7350
 5319SOL     OW27592   3.429   1.944  12.678  0.7462  0.5668  0.0568
 5319SOL    HW127593   3.456   1.987  12.759 -0.5829  0.7669  0.3850
 5319SOL    HW227594   3.392   2.018  12.630 -3.2186 -0.1608  2.0397
 5320SOL     OW27595   2.947   1.827   2.822  0.4335  0.2380 -0.5604
 5320SOL    HW127596   2.899   1.752   2.787 -2.1741  1.8258 -0.3702
 5320SOL    HW227597   3.016   1.780   2.869  1.1435 -0.2286 -2.0645
 5321SOL     OW27598   0.660   0.766   8.949 -0.0588  0.4768 -0.4667
 5321SOL    HW127599   0.643   0.764   9.043 -0.3951 -1.6396 -0.5697
 5321SOL    HW227600   0.600   0.699   8.915  1.2275 -0.4421 -0.9293
 5322SOL     OW27601   4.500   1.237   2.592  0.0054 -0.0184 -0.3699
 5322SOL    HW127602   4.417   1.266   2.628 -0.1913 -0.8723 -0.1522
 5322SOL    HW227603   4.553   1.235   2.672 -0.7088  1.4867  0.1305
 5323SOL     OW27604   0.118   3.380   7.188 -0.4417 -0.3349 -0.7810
 5323SOL    HW127605   0.212   3.360   7.192 -0.0154  1.6949 -0.3303
 5323SOL    HW227606   0.116   3.463   7.236 -0.5670 -0.9089  0.2020
 5324SOL     OW27607   3.049   3.041   4.604  0.2565 -0.0757  0.5706
 5324SOL    HW127608   3.092   3.126   4.611 -1.0779  0.7612 -1.4428
 5324SOL    HW227609   2.987   3.068   4.537  0.6572  0.2152  0.3192
 5325SOL     OW27610   2.040   1.272   3.397 -0.1547 -0.3433  0.3324
 5325SOL    HW127611   2.075   1.225   3.473  0.3731 -1.1182 -0.3929
 5325SOL    HW227612   2.058   1.214   3.323 -0.7088 -0.0079 -0.0618
 5326SOL     OW27613   4.205   4.566   9.238 -0.3208  0.0086 -0.1072
 5326SOL    HW127614   4.279   4.550   9.297  0.0919  0.5213 -0.4935
 5326SOL    HW227615   4.127   4.561   9.295  1.1118  0.7924  1.9135
 5327SOL     OW27616   1.220   2.414  11.075 -0.6223 -0.0035  0.0332
 5327SOL    HW127617   1.175   2.487  11.118 -1.3942 -0.5814  0.2009
 5327SOL    HW227618   1.302   2.415  11.124 -0.3837 -1.3146 -0.3497
 5328SOL     OW27619   2.029   2.407   2.163  0.4206  0.2472  0.3517
 5328SOL    HW127620   2.066   2.398   2.251 -0.1645  0.6248  0.6385
 5328SOL    HW227621   2.066   2.328   2.125 -1.6797 -1.1114  1.1606
 5329SOL     OW27622   3.070   0.550  10.791  0.3485  0.4066  0.7476
 5329SOL    HW127623   3.152   0.581  10.831  0.2789  2.4277 -0.6518
 5329SOL    HW227624   3.080   0.565  10.697  0.4207 -1.9793  0.3751
 5330SOL     OW27625   2.892   1.939  14.252 -0.4933 -0.3558 -0.6907
 5330SOL    HW127626   2.889   2.001  14.179  1.7512 -0.2109 -0.6476
 5330SOL    HW227627   2.810   1.958  14.297 -1.2981 -0.3222 -2.1500
 5331SOL     OW27628   2.210   4.578  14.897 -0.0454  0.1131  0.0162
 5331SOL    HW127629   2.229   4.644  14.963 -1.0688 -1.3013  1.7182
 5331SOL    HW227630   2.280   4.514  14.902  1.0150  1.5497  3.2473
 5332SOL     OW27631   3.071   2.126  10.365 -0.2711 -0.4067 -0.0882
 5332SOL    HW127632   3.098   2.157  10.278 -0.1387 -2.3917 -0.7709
 5332SOL    HW227633   3.069   2.031  10.355 -0.8022 -0.2455 -1.5390
 5333SOL     OW27634   1.666   4.529   3.678  0.2844 -0.8135  0.0553
 5333SOL    HW127635   1.632   4.440   3.687  0.1768 -0.9652 -1.7751
 5333SOL    HW227636   1.588   4.585   3.682  1.4220  0.7914 -0.0822
 5334SOL     OW27637   1.881   3.050   5.344 -0.2099  0.0555  0.1423
 5334SOL    HW127638   1.968   3.063   5.305 -0.2678  3.6571  1.2461
 5334SOL    HW227639   1.832   3.124   5.309  0.2853 -0.0131 -0.7013
 5335SOL     OW27640   3.939   1.081   2.542  0.2408 -0.1139 -0.3462
 5335SOL    HW127641   3.883   1.096   2.467  0.3973 -2.4563 -0.9499
 5335SOL    HW227642   3.916   1.152   2.601 -1.1435 -0.1985 -0.8008
 5336SOL     OW27643   4.326   2.238   7.556  0.3084 -0.2685 -0.8033
 5336SOL    HW127644   4.329   2.288   7.637 -0.3917  0.4427 -1.2098
 5336SOL    HW227645   4.342   2.314   7.499 -0.0086  0.7299  0.4470
 5337SOL     OW27646   3.063   1.209  14.332 -0.0192  0.4732 -0.0650
 5337SOL    HW127647   3.040   1.122  14.364  0.9118  0.4308  0.4651
 5337SOL    HW227648   3.086   1.182  14.243 -1.0656 -0.4516 -0.0627
 5338SOL     OW27649   2.566   0.872   3.050 -0.1482  0.1066 -0.0493
 5338SOL    HW127650   2.607   0.959   3.045 -1.8590  0.8631 -0.7407
 5338SOL    HW227651   2.549   0.862   2.956  1.2575  1.5716 -0.4576
 5339SOL     OW27652   1.822   3.321   2.280  0.2743  0.1947 -0.0411
 5339SOL    HW127653   1.857   3.293   2.364 -0.2957  0.6934  0.3593
 5339SOL    HW227654   1.868   3.256   2.226 -0.2127 -0.7163  0.6317
 5340SOL     OW27655   4.158   4.587   6.158 -0.1738 -0.5190  0.8163
 5340SOL    HW127656   4.141   4.541   6.075  1.3959  2.6635 -1.2521
 5340SOL    HW227657   4.157   4.515   6.220  1.1252 -0.0945  1.3244
 5341SOL     OW27658   2.403   1.768  13.153  0.3695  0.0458 -0.0680
 5341SOL    HW127659   2.409   1.832  13.224 -1.3535  0.6629 -0.4812
 5341SOL    HW227660   2.321   1.798  13.114  0.0559  1.5156  1.7044
 5342SOL     OW27661   1.115   0.796   0.611 -0.1329 -0.0818  0.3220
 5342SOL    HW127662   1.193   0.743   0.594  0.0662  0.1564  0.5112
 5342SOL    HW227663   1.048   0.755   0.555  1.0023 -0.9571 -0.4048
 5343SOL     OW27664   2.581   0.000   8.845  0.0055  0.2266 -0.6231
 5343SOL    HW127665   2.657   4.709   8.793  0.5413 -0.3322  0.4554
 5343SOL    HW227666   2.606   4.701   8.931 -2.7474 -3.4520 -1.2884
 5344SOL     OW27667   4.145   0.728   8.297 -0.2383 -0.0978 -0.2509
 5344SOL    HW127668   4.075   0.749   8.236 -0.1907 -1.7483 -0.8710
 5344SOL    HW227669   4.092   0.730   8.376  2.3849 -2.7153  1.6162
 5345SOL     OW27670   0.982   4.344   9.880  0.1364 -0.5669  0.5673
 5345SOL    HW127671   1.077   4.335   9.874  0.0165  0.2228 -2.7604
 5345SOL    HW227672   0.954   4.426   9.920  0.1303  0.8592 -2.3559
 5346SOL     OW27673   3.765   1.645   4.704  0.5779  0.1055 -0.1389
 5346SOL    HW127674   3.735   1.728   4.669 -0.1318 -0.1125 -0.0405
 5346SOL    HW227675   3.820   1.673   4.777  0.4580 -3.0423  1.1346
 5347SOL     OW27676   2.894   0.072   2.749 -0.1083  0.3252  0.7683
 5347SOL    HW127677   2.841   0.076   2.669  0.0852  1.3480  0.6973
 5347SOL    HW227678   2.883   0.163   2.775 -3.2796  0.7888 -2.1394
 5348SOL     OW27679   1.199   1.300   3.977  0.2175 -0.1644 -0.3054
 5348SOL    HW127680   1.205   1.208   4.001 -0.0024 -0.1906 -0.3504
 5348SOL    HW227681   1.162   1.296   3.888 -1.9780  0.0663  0.6033
 5349SOL     OW27682   2.162   4.420  10.507  0.0714 -0.3402  0.0686
 5349SOL    HW127683   2.149   4.471  10.587  0.2480 -2.4527  1.4151
 5349SOL    HW227684   2.126   4.476  10.438 -1.2701  0.1127  1.1197
 5350SOL     OW27685   3.587   4.123   6.416 -0.2422 -0.0950  0.2617
 5350SOL    HW127686   3.521   4.065   6.455 -0.9351  1.1771  0.9969
 5350SOL    HW227687   3.590   4.197   6.476 -1.3267  0.2006 -0.0476
 5351SOL     OW27688   2.540   3.352   6.610 -0.1604  0.0954 -0.4248
 5351SOL    HW127689   2.561   3.444   6.599 -1.6769  0.4516 -0.3732
 5351SOL    HW227690   2.623   3.307   6.591 -0.8217 -2.3215  2.2912
 5352SOL     OW27691   2.907   2.517   8.907 -0.3406  0.2300 -0.1259
 5352SOL    HW127692   2.845   2.467   8.961 -1.3879  1.0605 -0.5388
 5352SOL    HW227693   2.988   2.514   8.958 -0.0756  2.5062 -0.3964
 5353SOL     OW27694   3.332   2.038   3.493  0.5046  0.2599 -0.2424
 5353SOL    HW127695   3.393   2.079   3.555 -0.4460  1.4275 -0.0924
 5353SOL    HW227696   3.253   2.085   3.517  0.2130  0.4739 -1.6412
 5354SOL     OW27697   2.692   3.525   5.216  0.1149 -0.1360  0.1329
 5354SOL    HW127698   2.600   3.548   5.199  0.2483  0.3860  0.0992
 5354SOL    HW227699   2.687   3.512   5.311  0.6946  0.1886  0.2035
 5355SOL     OW27700   0.270   1.221  15.186  0.0863 -1.1429  0.2071
 5355SOL    HW127701   0.314   1.144  15.223  0.9754 -0.0411  1.4634
 5355SOL    HW227702   0.339   1.263  15.135  1.9610 -1.8909  2.1488
 5356SOL     OW27703   2.346   3.207   5.360  0.0375 -0.4711  0.6941
 5356SOL    HW127704   2.350   3.284   5.303 -0.0862 -1.9408 -1.3095
 5356SOL    HW227705   2.354   3.249   5.445  0.7393 -2.2488  1.5004
 5357SOL     OW27706   4.201   1.644   9.733  0.5402 -0.4327  0.6489
 5357SOL    HW127707   4.113   1.665   9.701  0.8311 -0.9377 -0.4791
 5357SOL    HW227708   4.248   1.726   9.747  0.9188 -0.7979  1.5227
 5358SOL     OW27709   0.424   3.270  10.833 -0.2899  0.2212 -0.4647
 5358SOL    HW127710   0.420   3.296  10.741 -0.7520 -0.4264 -0.6328
 5358SOL    HW227711   0.424   3.355  10.876  3.4912 -1.0990  2.1849
 5359SOL     OW27712   2.037   0.104  15.626 -0.2642 -1.2557  0.0215
 5359SOL    HW127713   2.041   0.178  15.686  0.8141 -0.7040 -0.7324
 5359SOL    HW227714   1.967   0.051  15.665 -0.1834 -1.2131  0.2268
 5360SOL     OW27715   1.094   1.836   1.096 -0.0431  0.1814 -0.4383
 5360SOL    HW127716   1.061   1.831   1.186 -1.8279 -1.3923 -1.1801
 5360SOL    HW227717   1.183   1.865   1.115 -0.8561  1.1055  2.0862
 5361SOL     OW27718   0.374   0.963   9.261 -0.4422 -0.1469 -0.5789
 5361SOL    HW127719   0.425   1.007   9.194 -0.9853  0.0214 -0.8814
 5361SOL    HW227720   0.416   0.982   9.345 -3.9461  2.0862  0.6627
 5362SOL     OW27721   0.859   3.288   5.547 -0.1893  0.2251  0.0663
 5362SOL    HW127722   0.817   3.221   5.601  0.4965 -0.8781 -0.7621
 5362SOL    HW227723   0.936   3.244   5.512  0.0983 -0.6784  1.8349
 5363SOL     OW27724   0.223   4.093   3.358  0.2270  0.4680 -0.5520
 5363SOL    HW127725   0.158   4.038   3.402  0.6638  0.8358  0.5431
 5363SOL    HW227726   0.300   4.037   3.361 -1.6113 -2.1589 -2.6210
 5364SOL     OW27727   0.267   2.554   3.169  0.1454 -0.0921  0.2345
 5364SOL    HW127728   0.231   2.468   3.148  1.6942 -0.3104 -1.5587
 5364SOL    HW227729   0.344   2.548   3.112 -0.3197  0.4716 -0.4556
 5365SOL     OW27730   2.509   2.015   3.243 -0.4471 -0.6615  0.5994
 5365SOL    HW127731   2.594   2.021   3.287  1.0361  1.8886 -2.6116
 5365SOL    HW227732   2.457   2.025   3.322  1.6555  1.8775  1.6592
 5366SOL     OW27733   1.884   0.504   3.697  0.8034  0.0367 -0.2656
 5366SOL    HW127734   1.801   0.551   3.698  0.9516  0.2438  2.2053
 5366SOL    HW227735   1.868   0.450   3.619  0.2415  0.2644 -0.3046
 5367SOL     OW27736   2.572   1.067   6.565  0.4713 -0.1822 -0.0173
 5367SOL    HW127737   2.546   1.074   6.473 -0.0468 -1.0234  0.0674
 5367SOL    HW227738   2.517   0.991   6.585  0.3856  0.1450  0.9730
 5368SOL     OW27739   4.689   2.973   7.337  0.2038 -0.0166 -0.2640
 5368SOL    HW127740   4.660   3.064   7.335  1.9835  0.5722  1.0293
 5368SOL    HW227741   0.008   2.979   7.259 -0.5233 -2.5377 -0.9559
 5369SOL     OW27742   2.968   0.078   5.167  0.2250  0.2778 -0.0182
 5369SOL    HW127743   3.058   0.046   5.152 -0.5824 -1.7865 -0.4320
 5369SOL    HW227744   2.928   0.065   5.082 -0.7631  0.5097  0.4162
 5370SOL     OW27745   4.111   2.455  16.693  0.2461 -0.0873 -0.6688
 5370SOL    HW127746   4.034   2.413  16.730 -0.3186  1.7702  0.2633
 5370SOL    HW227747   4.078   2.468  16.604  0.4031  0.4236 -0.6529
 5371SOL     OW27748   1.069   1.536   8.218  0.3055 -0.1406 -0.6691
 5371SOL    HW127749   1.025   1.498   8.295  1.4191  1.6688  0.8474
 5371SOL    HW227750   1.161   1.516   8.231  0.3215  0.0145 -0.5305
 5372SOL     OW27751   1.159   3.393   4.399 -0.1887 -0.0411 -0.5834
 5372SOL    HW127752   1.113   3.371   4.480  2.5780 -2.3995  0.3289
 5372SOL    HW227753   1.247   3.368   4.426 -0.4989 -0.5024  0.0007
 5373SOL     OW27754   2.404   3.227   6.800  0.6039  0.1933 -0.4443
 5373SOL    HW127755   2.439   3.276   6.725 -0.5294 -1.9563 -2.3816
 5373SOL    HW227756   2.483   3.224   6.854  1.0122 -2.3883 -1.1896
 5374SOL     OW27757   0.801   2.436   7.668 -0.0895 -0.4349 -0.5435
 5374SOL    HW127758   0.835   2.498   7.733 -1.2099 -0.8254  0.4374
 5374SOL    HW227759   0.874   2.376   7.652  0.1981  0.4178 -2.3644
 5375SOL     OW27760   2.534   4.459   2.311  0.2472  0.0225  0.5885
 5375SOL    HW127761   2.603   4.483   2.372  1.3898  2.7216 -1.7904
 5375SOL    HW227762   2.463   4.474   2.374  1.0298 -0.1642  1.5226
 5376SOL     OW27763   2.933   0.234   8.751  0.0687  0.0955  0.6094
 5376SOL    HW127764   2.896   0.250   8.664  0.6126  2.0215  0.7511
 5376SOL    HW227765   2.954   0.140   8.753  0.9197  0.2171 -1.8575
 5377SOL     OW27766   1.243   3.661  17.551  0.5311  0.3466  0.1386
 5377SOL    HW127767   1.184   3.593  17.517  0.7158  0.0322  0.4560
 5377SOL    HW227768   1.210   3.678  17.639  0.5075  1.5645 -0.1000
 5378SOL     OW27769   0.796   1.923   4.380  0.0497 -0.0378 -0.0142
 5378SOL    HW127770   0.879   1.882   4.404  0.1992  0.6214  0.5917
 5378SOL    HW227771   0.792   1.991   4.447  0.8091  1.3739 -1.4005
 5379SOL     OW27772   1.655   4.513   2.087 -0.4989  0.3466 -0.5488
 5379SOL    HW127773   1.610   4.502   2.171 -0.8604  2.2738 -0.4883
 5379SOL    HW227774   1.698   4.594   2.112  0.1876 -0.2156  0.1026
 5380SOL     OW27775   2.995   3.194  10.722 -0.7970 -0.4386  0.1489
 5380SOL    HW127776   2.927   3.247  10.680 -0.0976  0.2494 -0.1187
 5380SOL    HW227777   3.017   3.256  10.792  1.3855 -0.4433 -0.5270
 5381SOL     OW27778   3.606   1.696   5.414 -0.1707  0.4256 -0.2312
 5381SOL    HW127779   3.634   1.661   5.499 -0.4381 -0.7708 -0.6253
 5381SOL    HW227780   3.642   1.634   5.350  1.9930 -0.5647  1.9187
 5382SOL     OW27781   3.382   0.334   7.177 -0.4622 -0.2618  0.5067
 5382SOL    HW127782   3.407   0.335   7.269  0.2700 -2.4213  0.3251
 5382SOL    HW227783   3.360   0.426   7.161  0.4273 -0.1105  0.1236
 5383SOL     OW27784   0.895   2.476  12.888 -0.7398 -0.0244  0.5010
 5383SOL    HW127785   0.828   2.535  12.923 -0.8024 -0.7953  1.6583
 5383SOL    HW227786   0.924   2.416  12.956 -0.7213 -0.8662 -0.2373
 5384SOL     OW27787   0.552   3.841   1.444  0.0743 -0.1355 -0.1238
 5384SOL    HW127788   0.630   3.877   1.401  0.0807  1.7897  1.5218
 5384SOL    HW227789   0.520   3.921   1.485 -1.1370 -0.6289 -0.1080
 5385SOL     OW27790   2.601   2.659   9.013  0.0485 -0.3193 -0.0094
 5385SOL    HW127791   2.672   2.712   8.975 -0.2783  0.9790  1.2141
 5385SOL    HW227792   2.643   2.574   9.025  1.1452  0.5744  2.3587
 5386SOL     OW27793   0.437   2.079   4.292  0.0898  0.4797  0.1075
 5386SOL    HW127794   0.493   2.144   4.250  2.1645 -0.9365  0.6755
 5386SOL    HW227795   0.481   2.057   4.374  0.5168  0.9552  0.0025
 5387SOL     OW27796   0.601   0.198  16.310 -0.1250  0.2607  0.2899
 5387SOL    HW127797   0.518   0.228  16.275 -1.0686 -0.1677  2.1561
 5387SOL    HW227798   0.586   0.104  16.323  0.2627  0.3082  1.0754
 5388SOL     OW27799   3.778   4.298   2.506 -0.1963  0.5806  0.3230
 5388SOL    HW127800   3.862   4.255   2.526 -0.6065 -0.0423  0.7028
 5388SOL    HW227801   3.748   4.244   2.433  2.1974 -1.4449  0.8339
 5389SOL     OW27802   1.929   3.417   6.884 -0.1043 -0.4751  0.2144
 5389SOL    HW127803   1.943   3.504   6.848 -2.5315 -1.4855 -3.1942
 5389SOL    HW227804   1.905   3.446   6.973  0.8451  0.7556  0.0709
 5390SOL     OW27805   2.382   2.237   2.676  0.0914 -0.0795  0.3206
 5390SOL    HW127806   2.361   2.324   2.708  0.3598  0.0422  0.1654
 5390SOL    HW227807   2.460   2.264   2.627 -1.2111 -0.0613 -1.7570
 5391SOL     OW27808   3.832   2.867  15.919  0.2194 -0.4244  0.2409
 5391SOL    HW127809   3.916   2.822  15.928 -0.4064 -1.2610  1.8941
 5391SOL    HW227810   3.814   2.848  15.827  0.8555  1.6232 -0.3118
 5392SOL     OW27811   1.085   4.380   4.238 -0.0911 -0.4905 -0.0930
 5392SOL    HW127812   1.142   4.418   4.305  0.6026 -0.6831 -0.5767
 5392SOL    HW227813   1.144   4.386   4.163 -1.5214 -2.2846 -1.3516
 5393SOL     OW27814   3.986   4.129   7.897  0.6584  0.1503  0.1858
 5393SOL    HW127815   3.909   4.092   7.854  1.2915 -1.9243  0.8120
 5393SOL    HW227816   3.968   4.104   7.988  1.8375 -0.4762  0.2515
 5394SOL     OW27817   0.251   4.405  17.676 -0.0331  0.1955  0.0925
 5394SOL    HW127818   0.199   4.426   0.015  1.2541 -0.1380  1.0429
 5394SOL    HW227819   0.230   4.468  17.608 -0.6854 -0.8414 -0.6702
 5395SOL     OW27820   1.702   0.848   2.521 -0.5751 -0.0522  0.0950
 5395SOL    HW127821   1.765   0.777   2.527 -0.3482  0.3468  2.7218
 5395SOL    HW227822   1.686   0.888   2.607 -1.9531  0.1217 -0.2439
 5396SOL     OW27823   2.044   2.513  15.813 -0.6023  0.0764  0.2197
 5396SOL    HW127824   2.102   2.585  15.788 -0.3812 -0.5070 -0.9240
 5396SOL    HW227825   2.099   2.435  15.815  0.7176  0.9521 -2.0349
 5397SOL     OW27826   1.389   1.553  14.944 -0.3086 -0.1571 -0.2597
 5397SOL    HW127827   1.301   1.590  14.955 -0.5482 -0.6504 -0.4885
 5397SOL    HW227828   1.383   1.511  15.030 -0.8862 -1.4548 -0.9122
 5398SOL     OW27829   2.553   1.459   6.309  0.4719  0.5290  0.4107
 5398SOL    HW127830   2.643   1.435   6.283  0.6217 -0.4233  1.7613
 5398SOL    HW227831   2.562   1.552   6.327  1.2998  0.8107 -1.3955
 5399SOL     OW27832   4.464   2.998   1.673  0.1998 -0.2917 -0.1379
 5399SOL    HW127833   4.506   2.957   1.598  1.1549  1.2092 -0.4137
 5399SOL    HW227834   4.540   3.012   1.728  1.4101 -2.5956 -1.2251
 5400SOL     OW27835   3.947   1.188   9.771 -0.3043  0.4362  0.6099
 5400SOL    HW127836   3.915   1.278   9.764 -3.2492 -0.5472  1.4527
 5400SOL    HW227837   3.868   1.135   9.757 -0.7386  0.6587  2.2212
 5401SOL     OW27838   1.192   1.154   8.305  0.1480  0.4071  0.8079
 5401SOL    HW127839   1.160   1.184   8.391  0.4466 -0.1483  1.1177
 5401SOL    HW227840   1.154   1.067   8.307 -2.8394  1.7149  0.7623
 5402SOL     OW27841   3.063   0.084   3.943 -0.2014  0.0739 -0.0460
 5402SOL    HW127842   3.006   0.018   3.905 -0.5515  0.3736 -0.0378
 5402SOL    HW227843   3.095   0.128   3.864 -0.9645  0.8382  0.0811
 5403SOL     OW27844   2.939   4.289  12.562 -0.0238 -0.6825  0.2153
 5403SOL    HW127845   3.033   4.274  12.572  0.2359 -0.0389 -1.2663
 5403SOL    HW227846   2.911   4.203  12.531  0.5532 -1.4640  1.9049
 5404SOL     OW27847   4.257   4.102  16.751 -0.7602  0.0637 -0.3305
 5404SOL    HW127848   4.233   4.179  16.802  0.0835 -0.4553  0.8608
 5404SOL    HW227849   4.331   4.069  16.802  0.4713 -0.3965 -2.4111
 5405SOL     OW27850   4.453   1.004   1.165 -0.1603 -0.3798 -0.0941
 5405SOL    HW127851   4.407   1.007   1.249  1.9156 -1.9457  1.1033
 5405SOL    HW227852   4.547   0.999   1.182 -0.4605 -2.8447  0.8433
 5406SOL     OW27853   0.365   3.071   5.930  0.6402  0.1879 -0.1106
 5406SOL    HW127854   0.281   3.117   5.921 -0.4337 -1.7713 -0.0995
 5406SOL    HW227855   0.427   3.143   5.945  1.7975 -0.5065 -1.5915
 5407SOL     OW27856   0.292   0.253   1.798 -0.0606  0.6376 -0.0975
 5407SOL    HW127857   0.247   0.289   1.875 -0.8984  1.9240 -1.2007
 5407SOL    HW227858   0.378   0.291   1.813  1.0265 -1.8081 -0.0687
 5408SOL     OW27859   0.145   3.391   1.886  0.2573 -0.1771  0.0126
 5408SOL    HW127860   0.079   3.448   1.926  0.2436  0.2635 -0.6443
 5408SOL    HW227861   0.133   3.420   1.796  0.8110 -1.4130 -0.4598
 5409SOL     OW27862   1.935   3.973   3.094 -0.2127 -0.0100 -0.0994
 5409SOL    HW127863   1.858   3.922   3.121 -1.7504  1.4399 -1.7222
 5409SOL    HW227864   1.983   3.955   3.175  1.9956 -2.1198 -1.8805
 5410SOL     OW27865   2.570   0.630   6.752  0.0585  0.3702  0.3183
 5410SOL    HW127866   2.659   0.608   6.778 -0.8417 -1.8125  1.5056
 5410SOL    HW227867   2.577   0.646   6.657  2.8115 -1.0122  0.3167
 5411SOL     OW27868   1.188   2.096   7.773  0.1085  0.5976  0.4434
 5411SOL    HW127869   1.259   2.145   7.815 -0.6275 -0.8037  3.3691
 5411SOL    HW227870   1.181   2.027   7.839 -0.3668 -1.8356 -2.1315
 5412SOL     OW27871   0.917   3.081  11.399  0.2089 -0.0864 -0.1722
 5412SOL    HW127872   0.998   3.032  11.384 -0.9478 -3.0064  3.0217
 5412SOL    HW227873   0.894   3.045  11.484 -2.0009  1.7514 -0.0092
 5413SOL     OW27874   2.840   2.935   4.437 -0.2416  0.2245 -0.0112
 5413SOL    HW127875   2.796   3.008   4.480  0.7798  0.4849  0.5982
 5413SOL    HW227876   2.767   2.897   4.389 -0.2534 -0.4895  0.5709
 5414SOL     OW27877   0.347   0.029   3.994  0.1645  0.1951 -0.0893
 5414SOL    HW127878   0.384   0.109   4.031 -0.2105  0.0546  0.5967
 5414SOL    HW227879   0.267   0.058   3.950  1.0837 -0.8040 -2.4386
 5415SOL     OW27880   1.480   2.657   4.133  0.2103  0.3395  0.1525
 5415SOL    HW127881   1.561   2.706   4.117 -0.2502  1.7240  2.0647
 5415SOL    HW227882   1.458   2.701   4.215 -1.5476 -2.2194  1.0433
 5416SOL     OW27883   3.808   3.882   6.262 -0.1558  0.1088 -0.1019
 5416SOL    HW127884   3.810   3.797   6.218  0.4114 -0.3819  0.8658
 5416SOL    HW227885   3.871   3.936   6.214 -0.9040  0.4802 -0.6515
 5417SOL     OW27886   0.426   3.249   4.423 -0.7093  0.4163  0.1924
 5417SOL    HW127887   0.443   3.155   4.421  0.0745  0.5524  0.4598
 5417SOL    HW227888   0.461   3.280   4.339  1.5236 -1.5849  0.4160
 5418SOL     OW27889   2.182   1.278   1.786  0.5231 -0.0370  0.0506
 5418SOL    HW127890   2.215   1.224   1.714 -0.3337 -0.8890  0.2914
 5418SOL    HW227891   2.219   1.232   1.861 -0.4881 -1.2238 -0.1843
 5419SOL     OW27892   2.973   2.855   7.743  0.3163  0.2682  0.5465
 5419SOL    HW127893   2.940   2.881   7.657  0.9380 -0.6870  0.0184
 5419SOL    HW227894   2.977   2.759   7.738  0.9826  0.3056  0.3893
 5420SOL     OW27895   4.527   3.779   7.613  0.3540 -0.1093 -0.0613
 5420SOL    HW127896   4.458   3.774   7.547  2.6675  0.4618 -2.5543
 5420SOL    HW227897   4.480   3.729   7.679  1.6161 -0.4744  0.5591
 5421SOL     OW27898   2.493   1.880   3.971 -0.0320 -0.1943  0.2873
 5421SOL    HW127899   2.546   1.809   3.936 -0.0700  0.5711 -1.3228
 5421SOL    HW227900   2.529   1.885   4.060 -2.1324  0.7601  1.0855
 5422SOL     OW27901   0.228   3.701   8.283  0.5167 -0.0270  0.1491
 5422SOL    HW127902   0.159   3.737   8.228  0.4128  0.0738  0.3443
 5422SOL    HW227903   0.221   3.614   8.243 -1.1591  0.3973 -0.4567
 5423SOL     OW27904   1.666   0.623   2.206 -0.0656 -0.2872 -0.1169
 5423SOL    HW127905   1.698   0.541   2.243 -0.6987 -0.8814 -0.8798
 5423SOL    HW227906   1.587   0.639   2.257  1.0215 -2.3049  2.1721
 5424SOL     OW27907   1.165   2.349   3.221  1.0208 -0.0341  0.4513
 5424SOL    HW127908   1.248   2.306   3.199  1.2813  0.1560  1.0692
 5424SOL    HW227909   1.182   2.393   3.304 -0.2015  2.2494 -0.4911
 5425SOL     OW27910   1.074   3.111   4.277  0.0002  0.0202 -0.0262
 5425SOL    HW127911   1.064   3.023   4.312  0.0293 -0.2260 -0.6385
 5425SOL    HW227912   1.037   3.111   4.189 -0.1463 -1.3723  0.0487
 5426SOL     OW27913   3.265   1.166   6.545  0.3861 -0.4839  0.2329
 5426SOL    HW127914   3.201   1.134   6.609 -0.9056  0.1811 -0.7154
 5426SOL    HW227915   3.213   1.233   6.500  3.1196  1.0672 -0.6475
 5427SOL     OW27916   4.380   3.420   6.680 -0.3720  0.0757  0.3528
 5427SOL    HW127917   4.368   3.475   6.758  1.5413 -0.6771  1.1780
 5427SOL    HW227918   4.461   3.448   6.637  0.1902  1.8616  2.5839
 5428SOL     OW27919   3.518   2.462   0.084  0.3524 -0.5106  0.3200
 5428SOL    HW127920   3.571   2.447   0.162  1.6470  0.5478 -0.3614
 5428SOL    HW227921   3.449   2.518   0.120  0.1876 -1.9603  2.2919
 5429SOL     OW27922   3.381   1.463  10.912 -0.5078 -0.6538  0.4326
 5429SOL    HW127923   3.436   1.389  10.885  1.2083  0.0833  1.8870
 5429SOL    HW227924   3.395   1.453  11.006  0.3905  2.2015  0.5935
 5430SOL     OW27925   2.699   3.153   0.565  0.1398  0.1034  0.1852
 5430SOL    HW127926   2.661   3.222   0.511  0.1874  0.1374  0.1949
 5430SOL    HW227927   2.778   3.136   0.514  0.0950  1.9222 -0.5135
 5431SOL     OW27928   0.672   1.374   2.138 -0.0145 -0.1324  0.2859
 5431SOL    HW127929   0.596   1.342   2.186 -0.4063  2.1383  1.1650
 5431SOL    HW227930   0.702   1.287   2.110  2.4014  0.4643  0.9605
 5432SOL     OW27931   1.391   2.485  13.161 -0.1974 -0.5205  0.4540
 5432SOL    HW127932   1.346   2.445  13.235 -1.6076 -1.6541 -1.0239
 5432SOL    HW227933   1.478   2.506  13.196  0.1471 -0.0785 -0.6339
 5433SOL     OW27934   3.871   1.931   2.323 -0.3796 -0.4699 -0.0442
 5433SOL    HW127935   3.879   1.959   2.232  0.1757 -0.2162  0.0800
 5433SOL    HW227936   3.795   1.873   2.320  0.2692 -1.2226 -1.9489
 5434SOL     OW27937   1.003   1.350   8.002  0.1892  0.3442  0.5621
 5434SOL    HW127938   1.073   1.292   7.974  0.7873  1.2093  0.2729
 5434SOL    HW227939   1.051   1.433   8.008  0.0648  0.5667 -1.6807
 5435SOL     OW27940   3.488   0.761   7.243 -0.6479  0.6538  0.0016
 5435SOL    HW127941   3.481   0.855   7.227 -0.6474  0.1931 -2.7497
 5435SOL    HW227942   3.468   0.717   7.160 -2.1717  1.1846  0.0823
 5436SOL     OW27943   3.749   2.873   1.382  0.0261 -0.0113 -0.1503
 5436SOL    HW127944   3.793   2.926   1.448 -4.1092  0.7027  2.0119
 5436SOL    HW227945   3.817   2.878   1.315  0.2271  0.1988  0.0690
 5437SOL     OW27946   1.289   4.355  10.128  0.1436  0.0188 -0.0243
 5437SOL    HW127947   1.262   4.263  10.136 -0.3781  0.3031  1.4036
 5437SOL    HW227948   1.277   4.380  10.036 -1.5656  0.2401  0.2619
 5438SOL     OW27949   1.218   1.616   6.585  0.1270 -0.4529 -0.3219
 5438SOL    HW127950   1.210   1.523   6.604 -3.0224  0.1599  1.1949
 5438SOL    HW227951   1.139   1.650   6.627 -0.0348  1.3444 -2.0862
 5439SOL     OW27952   1.749   4.555   4.913  0.3997 -0.5644 -0.0545
 5439SOL    HW127953   1.752   4.488   4.844  2.1279 -1.3214  0.7471
 5439SOL    HW227954   1.702   4.619   4.860  2.2158  1.2928  0.5808
 5440SOL     OW27955   0.743   0.142   7.996  0.0743 -0.1113 -0.1524
 5440SOL    HW127956   0.678   0.115   7.931  1.1713  0.5847 -1.5297
 5440SOL    HW227957   0.818   0.171   7.943  0.3109 -0.5956 -0.0812
 5441SOL     OW27958   1.088   2.167   7.078  0.1022 -0.5211 -0.3990
 5441SOL    HW127959   1.106   2.221   7.155 -0.5145 -0.5282 -0.2470
 5441SOL    HW227960   1.101   2.226   7.004 -1.1169 -0.8117 -0.8542
 5442SOL     OW27961   3.478   3.433   1.976  0.3466  1.1854 -0.0595
 5442SOL    HW127962   3.459   3.493   2.048  1.2130  0.1575  1.0083
 5442SOL    HW227963   3.571   3.414   1.984  0.0979 -0.8572 -1.9663
 5443SOL     OW27964   4.361   0.506   5.873 -0.1282  0.1918 -0.3041
 5443SOL    HW127965   4.324   0.571   5.813  0.4117  2.1760  1.5343
 5443SOL    HW227966   4.300   0.434   5.853  2.3222 -1.4330 -1.8421
 5444SOL     OW27967   0.587   3.967   8.288  0.2350  0.6276 -0.0858
 5444SOL    HW127968   0.680   3.984   8.273  0.8958 -2.0298  1.1360
 5444SOL    HW227969   0.569   3.900   8.221 -0.2635  0.0455  0.6325
 5445SOL     OW27970   1.109   3.042   2.828 -0.1787 -0.0333 -0.0102
 5445SOL    HW127971   1.138   2.953   2.851  0.9089  0.4620  0.5464
 5445SOL    HW227972   1.099   3.085   2.913 -0.1487  1.5032 -0.7803
 5446SOL     OW27973   0.283   1.227   0.656  0.2733 -0.1218  0.1382
 5446SOL    HW127974   0.223   1.251   0.727  1.1128  1.8671  0.1801
 5446SOL    HW227975   0.358   1.285   0.674 -0.1144  0.6888 -0.8574
 5447SOL     OW27976   1.184   1.860  17.516  0.0538 -0.3457 -0.1629
 5447SOL    HW127977   1.240   1.916  17.461 -0.3464 -0.0510 -0.2719
 5447SOL    HW227978   1.194   1.773  17.478  0.3341  0.3656 -1.7482
 5448SOL     OW27979   2.664   0.620   7.663  0.4334 -0.5281  0.6164
 5448SOL    HW127980   2.710   0.601   7.745 -0.2599 -1.0415  0.8768
 5448SOL    HW227981   2.680   0.715   7.659 -5.1410  0.3617 -0.3235
 5449SOL     OW27982   2.029   3.937   1.458 -0.2140 -0.6876 -0.7339
 5449SOL    HW127983   1.947   3.950   1.506  1.8127  1.5930  2.1660
 5449SOL    HW227984   2.014   3.850   1.421 -1.2311 -0.5733 -0.5791
 5450SOL     OW27985   2.072   2.460   4.926 -0.1225 -0.2446 -0.0522
 5450SOL    HW127986   1.998   2.440   4.869  0.9391 -0.3462 -1.3774
 5450SOL    HW227987   2.110   2.528   4.870  0.4868 -1.0435 -0.6077
 5451SOL     OW27988   0.445   3.047  10.997  0.1275  0.2323 -0.0060
 5451SOL    HW127989   0.482   3.089  11.075 -1.4278 -0.3922  1.0654
 5451SOL    HW227990   0.442   3.128  10.947  1.1979  0.2201 -0.0910
 5452SOL     OW27991   2.778   3.294   2.854  0.3568 -0.1042 -0.0375
 5452SOL    HW127992   2.701   3.238   2.844 -1.3721  2.2511  0.0835
 5452SOL    HW227993   2.749   3.357   2.788  0.1605 -0.8633 -0.6652
 5453SOL     OW27994   3.134   2.752  10.843  0.0355 -0.0534 -0.0846
 5453SOL    HW127995   3.107   2.788  10.928  0.1291 -2.2674  0.8831
 5453SOL    HW227996   3.105   2.816  10.779 -0.8337 -1.1746 -0.8002
 5454SOL     OW27997   3.149   2.444   9.486  0.1031  0.0068 -0.5405
 5454SOL    HW127998   3.118   2.366   9.440  1.3037 -0.7439 -0.1048
 5454SOL    HW227999   3.118   2.411   9.571  0.9418 -0.3445 -0.3629
 5455SOL     OW28000   3.085   4.555  16.591  0.1337 -0.6081 -0.1050
 5455SOL    HW128001   3.161   4.520  16.636  0.5137 -0.4651 -0.6329
 5455SOL    HW228002   3.066   4.489  16.524  1.8143 -0.2322 -0.9633
 5456SOL     OW28003   2.878   3.917  14.905  0.2293 -0.5057 -0.0070
 5456SOL    HW128004   2.877   4.009  14.879  0.2857  0.2022  2.4734
 5456SOL    HW228005   2.786   3.903  14.927 -0.0032 -0.2225 -0.8330
 5457SOL     OW28006   4.026   0.653  11.834  0.2469  0.2331  0.5042
 5457SOL    HW128007   4.101   0.691  11.789  0.4021 -0.5900  0.0612
 5457SOL    HW228008   4.057   0.576  11.882  2.1135  0.8194  0.2421
 5458SOL     OW28009   2.489   2.114   7.944 -0.4086 -0.4932  0.1345
 5458SOL    HW128010   2.543   2.089   8.019  2.1245 -1.8607 -2.1761
 5458SOL    HW228011   2.438   2.038   7.917 -1.1580  0.1193 -0.1888
 5459SOL     OW28012   1.230   0.039   5.989 -0.0171 -0.1694 -0.3355
 5459SOL    HW128013   1.305   4.719   5.968 -1.4733 -1.5824 -1.7936
 5459SOL    HW228014   1.263   0.128   5.999 -1.0086  0.2140 -0.4644
 5460SOL     OW28015   0.227   3.445   4.170 -0.3969 -0.0559  0.0589
 5460SOL    HW128016   0.241   3.526   4.219  0.1500 -0.8713  1.2501
 5460SOL    HW228017   0.318   3.421   4.154 -0.2084 -0.1837  1.2841
 5461SOL     OW28018   0.028   2.933  10.315 -0.4841 -0.0382  0.2552
 5461SOL    HW128019   4.693   2.950  10.251  1.1531  2.5365 -0.8454
 5461SOL    HW228020   0.101   2.951  10.256 -1.1494  0.5674 -0.3993
 5462SOL     OW28021   3.708   2.038   2.932  0.2652  0.0527  0.4871
 5462SOL    HW128022   3.701   2.007   3.023 -1.7157  0.0967  0.3409
 5462SOL    HW228023   3.733   2.130   2.948 -2.1125  0.7048  0.4466
 5463SOL     OW28024   2.950   3.390   3.729 -0.0839 -0.2586  0.2535
 5463SOL    HW128025   2.898   3.316   3.760 -0.8903 -0.3379 -1.3112
 5463SOL    HW228026   2.969   3.424   3.816  0.1439  0.9376 -0.2697
 5464SOL     OW28027   0.870   2.543  17.411  0.7453 -0.8005  0.6741
 5464SOL    HW128028   0.801   2.482  17.437 -0.8923  0.7892  0.0453
 5464SOL    HW228029   0.822   2.591  17.344  1.9082 -0.2317  0.2606
 5465SOL     OW28030   3.353   1.363   1.445 -0.1258 -0.2173  0.5085
 5465SOL    HW128031   3.367   1.456   1.465  0.8472 -0.0770 -0.8375
 5465SOL    HW228032   3.305   1.327   1.519  0.8323 -0.0061  1.2364
 5466SOL     OW28033   3.848   3.954   1.879  0.6884 -0.4027  0.0927
 5466SOL    HW128034   3.920   3.907   1.838  0.3643  1.1310 -2.2021
 5466SOL    HW228035   3.827   4.021   1.815  0.5200  0.5997  1.1956
 5467SOL     OW28036   2.900   2.255   0.863 -0.6013 -0.1393  0.2734
 5467SOL    HW128037   2.851   2.174   0.852  1.0323 -0.8927 -1.5154
 5467SOL    HW228038   2.837   2.310   0.910  0.2441  0.5628  0.6028
 5468SOL     OW28039   2.028   0.066   2.991  0.5485  0.1527  0.1449
 5468SOL    HW128040   2.016   0.149   2.946 -0.5907 -0.0197  0.1425
 5468SOL    HW228041   2.096   0.017   2.944 -0.3063  0.0534 -1.0002
 5469SOL     OW28042   4.562   2.248   6.129 -0.2910  0.6870  0.4210
 5469SOL    HW128043   4.655   2.224   6.135  0.5058  2.7745 -3.4622
 5469SOL    HW228044   4.555   2.275   6.038 -0.8001  1.2547  0.6304
 5470SOL     OW28045   1.854   0.713   4.470  0.0217 -0.4700 -0.4048
 5470SOL    HW128046   1.809   0.792   4.499  0.0780  0.0559 -1.7328
 5470SOL    HW228047   1.947   0.737   4.461 -0.2534  0.7076 -0.1056
 5471SOL     OW28048   0.476   1.227  14.147  0.1069  0.2511 -0.3327
 5471SOL    HW128049   0.517   1.246  14.063 -1.2219 -0.1203 -1.0729
 5471SOL    HW228050   0.499   1.305  14.197 -1.3128 -0.0350  0.7748
 5472SOL     OW28051   0.627   3.029   1.996 -0.0605  0.4537 -0.5123
 5472SOL    HW128052   0.539   3.061   2.013 -0.1573 -0.3341  0.4739
 5472SOL    HW228053   0.630   2.948   2.047  1.5866  1.3617  0.8367
 5473SOL     OW28054   2.759   1.057   3.100  0.1474 -0.5456  0.0295
 5473SOL    HW128055   2.835   1.108   3.127  0.2759 -1.4307  1.3515
 5473SOL    HW228056   2.770   0.971   3.139  0.7408 -0.5342 -0.1121
 5474SOL     OW28057   0.679   1.514  10.331  0.1789 -0.0108  0.0491
 5474SOL    HW128058   0.681   1.601  10.370 -0.2010  0.6626 -1.4500
 5474SOL    HW228059   0.611   1.534  10.267  0.4998 -0.6354 -0.4927
 5475SOL     OW28060   3.632   1.642  14.421 -0.3031  0.0591  0.5400
 5475SOL    HW128061   3.577   1.675  14.492 -2.9823  0.5891 -1.8047
 5475SOL    HW228062   3.706   1.703  14.427  0.7272 -1.3286  2.0127
 5476SOL     OW28063   0.465   3.111   8.787 -0.6462 -1.0353 -0.1994
 5476SOL    HW128064   0.400   3.177   8.762  0.1986 -0.1246 -0.0103
 5476SOL    HW228065   0.443   3.038   8.729  0.0503 -0.5339 -1.1062
 5477SOL     OW28066   0.799   2.249   4.411  0.5656  0.2418 -0.3498
 5477SOL    HW128067   0.808   2.268   4.318 -0.4262  0.4216 -0.4160
 5477SOL    HW228068   0.859   2.312   4.452 -1.5535  0.2722  2.7750
 5478SOL     OW28069   2.741   3.888   6.397  0.3139 -0.0362 -0.5756
 5478SOL    HW128070   2.647   3.905   6.404  0.3869  0.1855 -0.1458
 5478SOL    HW228071   2.754   3.924   6.309 -0.3817  1.5750 -0.0226
 5479SOL     OW28072   2.184   4.496  11.786  0.1555 -0.0360 -0.0801
 5479SOL    HW128073   2.106   4.466  11.833  1.8839 -0.3951  2.6039
 5479SOL    HW228074   2.173   4.435  11.713  0.3263 -0.8424  0.5661
 5480SOL     OW28075   4.710   0.139  11.710 -0.2823  0.1497 -0.0189
 5480SOL    HW128076   0.067   0.165  11.708  0.4258 -2.2856  1.2112
 5480SOL    HW228077   4.692   0.113  11.801  0.5109  0.2961  0.1798
 5481SOL     OW28078   2.638   3.977   6.903 -0.0710 -0.6578  0.6735
 5481SOL    HW128079   2.723   3.933   6.901  1.5323  2.4256  0.8535
 5481SOL    HW228080   2.613   3.953   6.814  0.0783  2.7543 -0.2879
 5482SOL     OW28081   3.552   4.103  11.702  0.3273  1.0911  0.1694
 5482SOL    HW128082   3.539   4.051  11.623  0.5255  0.0835  0.8001
 5482SOL    HW228083   3.540   4.189  11.661 -0.7556  0.3593 -1.0472
 5483SOL     OW28084   0.481   4.102  13.673 -0.2072 -0.1643 -0.2165
 5483SOL    HW128085   0.478   4.049  13.753  2.1991  2.6781  1.7582
 5483SOL    HW228086   0.481   4.040  13.600 -2.2561 -0.4902  0.0685
 5484SOL     OW28087   1.969   3.305   3.839  0.4182 -0.8269  0.0175
 5484SOL    HW128088   2.006   3.336   3.756 -0.4632 -0.2285 -0.1463
 5484SOL    HW228089   1.919   3.231   3.804  1.6370 -1.8139  0.3389
 5485SOL     OW28090   1.110   0.392   7.232 -0.6970  0.0338 -0.1074
 5485SOL    HW128091   1.088   0.472   7.185  1.4478 -1.4256 -3.5332
 5485SOL    HW228092   1.024   0.351   7.241 -0.2391 -0.9159 -0.0760
 5486SOL     OW28093   3.869   1.831   4.929  0.0141 -0.0204 -0.8802
 5486SOL    HW128094   3.934   1.808   4.995 -0.4820  0.4105 -0.2457
 5486SOL    HW228095   3.916   1.914   4.926  0.8211 -0.4347  0.2368
 5487SOL     OW28096   3.550   4.443   6.386  0.1236 -0.3009  0.3409
 5487SOL    HW128097   3.594   4.525   6.410 -0.6803  0.4325 -0.7015
 5487SOL    HW228098   3.561   4.395   6.467  0.7725 -0.9703 -0.1402
 5488SOL     OW28099   0.223   3.800   4.265  0.5728 -0.4513  0.0563
 5488SOL    HW128100   0.159   3.802   4.195  1.1722  1.3605 -0.4264
 5488SOL    HW228101   0.173   3.847   4.331  1.6577  0.2720  0.3708
 5489SOL     OW28102   1.830   2.154   5.587 -0.0215  0.4789 -0.4347
 5489SOL    HW128103   1.881   2.145   5.668  1.2606 -0.2845 -1.3206
 5489SOL    HW228104   1.824   2.250   5.587 -0.9659  0.4227 -1.2086
 5490SOL     OW28105   0.854   3.735   8.186  0.0525 -0.2313  0.9532
 5490SOL    HW128106   0.932   3.771   8.228 -0.2929  2.6875 -0.9222
 5490SOL    HW228107   0.806   3.816   8.171  1.3244  0.4213  0.3924
 5491SOL     OW28108   2.889   1.238  12.513 -0.3210 -0.1697  0.3214
 5491SOL    HW128109   2.935   1.154  12.505  0.1515 -0.0909  2.1883
 5491SOL    HW228110   2.806   1.206  12.550  1.0504 -2.4809  1.4107
 5492SOL     OW28111   0.241   1.594  14.664 -0.0204 -0.4582 -0.0969
 5492SOL    HW128112   0.230   1.500  14.649  0.4782 -0.3715 -1.0211
 5492SOL    HW228113   0.178   1.630  14.601 -1.1449  0.7174  1.6936
 5493SOL     OW28114   1.274   2.079   8.906 -0.3762 -0.4037  0.4300
 5493SOL    HW128115   1.203   2.079   8.842 -0.2561 -0.4335  0.2974
 5493SOL    HW228116   1.323   2.145   8.858  0.9608  0.9794  3.6914
 5494SOL     OW28117   1.980   1.759   4.008 -0.4188  0.8970 -0.6034
 5494SOL    HW128118   1.986   1.773   4.102 -0.3325 -0.7140 -0.3679
 5494SOL    HW228119   2.069   1.761   3.972 -1.0982 -1.2588 -2.3996
 5495SOL     OW28120   0.446   4.029   3.624  0.2666 -0.2470 -0.4273
 5495SOL    HW128121   0.495   4.108   3.647 -0.3714  0.3623 -1.1250
 5495SOL    HW228122   0.417   3.990   3.706  0.8320 -0.2855 -0.2476
 5496SOL     OW28123   0.530   0.280   3.460 -0.0197  0.6193 -0.3219
 5496SOL    HW128124   0.594   0.231   3.513 -0.4237  0.1677 -0.2585
 5496SOL    HW228125   0.457   0.294   3.520  0.6742  0.3031  0.6108
 5497SOL     OW28126   0.279   4.548  11.877  1.0420  0.2028  0.0133
 5497SOL    HW128127   0.251   4.625  11.829  1.0006  0.1619 -0.0279
 5497SOL    HW228128   0.332   4.514  11.805 -0.2003 -1.6126 -0.0384
 5498SOL     OW28129   2.088   2.611   8.089 -0.5881  0.8915  0.4104
 5498SOL    HW128130   2.134   2.563   8.159 -2.5437 -1.3077  0.1987
 5498SOL    HW228131   2.147   2.686   8.081 -0.9429  1.0225 -0.9164
 5499SOL     OW28132   3.351   1.261  10.359 -0.1559 -0.2918  0.2138
 5499SOL    HW128133   3.384   1.331  10.415  0.1562  0.3510 -0.7670
 5499SOL    HW228134   3.313   1.198  10.420 -0.2339  0.0948  0.5642
 5500SOL     OW28135   1.702   3.187   4.150  0.0998 -0.5256 -0.2885
 5500SOL    HW128136   1.619   3.153   4.116 -0.6888  1.8505 -0.6763
 5500SOL    HW228137   1.716   3.259   4.089  0.8106  1.4252  2.1555
 5501SOL     OW28138   2.972   1.512   8.320 -0.3784 -0.1545  0.3642
 5501SOL    HW128139   2.947   1.523   8.228 -1.0021 -1.8818  0.3294
 5501SOL    HW228140   3.038   1.442   8.318  0.5459  0.6831  1.5967
 5502SOL     OW28141   2.667   2.163   2.905 -0.0056  0.5474 -0.0098
 5502SOL    HW128142   2.593   2.178   2.965  0.6917 -0.5887  1.1359
 5502SOL    HW228143   2.675   2.251   2.868  3.8703  0.0516 -0.3278
 5503SOL     OW28144   3.363   4.570   0.319 -0.0474  0.6738  0.1667
 5503SOL    HW128145   3.323   4.574   0.232 -3.3946  0.3908  1.6852
 5503SOL    HW228146   3.393   4.661   0.319  1.5203  0.1614 -0.2576
 5504SOL     OW28147   0.546   0.296  10.172  0.3344 -0.0096 -0.5418
 5504SOL    HW128148   0.463   0.291  10.219 -0.0138 -0.8549 -1.2374
 5504SOL    HW228149   0.597   0.369  10.208  1.2996 -1.1082  0.3322
 5505SOL     OW28150   1.034   0.184   2.652 -0.4624  0.0375  1.0773
 5505SOL    HW128151   1.012   0.107   2.704  0.1682  0.4115  1.9000
 5505SOL    HW228152   0.960   0.242   2.672 -1.8589 -1.4496  0.1397
 5506SOL     OW28153   1.932   4.710  16.722  0.2114  0.7509  0.3899
 5506SOL    HW128154   1.958   0.034  16.651 -0.3339  1.5830  0.8949
 5506SOL    HW228155   1.978   4.629  16.698  1.2638  1.7568 -0.9544
 5507SOL     OW28156   2.304   3.711   6.173  0.0143 -0.6618  0.2951
 5507SOL    HW128157   2.341   3.789   6.132 -1.0714  0.5236  1.5812
 5507SOL    HW228158   2.239   3.684   6.109  1.9447  1.2529 -2.4814
 5508SOL     OW28159   4.213   1.839   4.584  0.0605 -0.1151  0.1600
 5508SOL    HW128160   4.190   1.802   4.669  5.6943  0.7676  2.0220
 5508SOL    HW228161   4.145   1.906   4.587  2.0669  1.7800  3.5651
 5509SOL     OW28162   3.099   4.102  11.673  0.2673  0.2770 -0.1014
 5509SOL    HW128163   3.020   4.127  11.720  0.7442  0.8695  0.3865
 5509SOL    HW228164   3.149   4.183  11.669  1.2605 -0.4569 -2.7196
 5510SOL     OW28165   0.347   1.550   3.647 -0.1219  0.3222 -0.1909
 5510SOL    HW128166   0.321   1.625   3.593 -0.2552  0.1870 -0.3113
 5510SOL    HW228167   0.391   1.486   3.592 -0.5535  0.7412 -1.0336
 5511SOL     OW28168   1.076   0.564   6.440  0.8753  0.6225 -0.3439
 5511SOL    HW128169   1.158   0.589   6.397 -0.5905  1.9299 -2.3415
 5511SOL    HW228170   1.067   0.470   6.423 -1.9746  0.3007  2.7986
 5512SOL     OW28171   0.038   2.910   1.093  0.0131 -0.1127  0.0479
 5512SOL    HW128172   0.105   2.977   1.107 -1.3117  0.9659  1.1617
 5512SOL    HW228173   4.703   2.954   1.141  0.1362  0.4064 -0.2551
 5513SOL     OW28174   3.657   3.137   1.165 -0.3970 -0.5125  0.2960
 5513SOL    HW128175   3.619   3.049   1.166 -1.1704 -0.1455  2.6489
 5513SOL    HW228176   3.579   3.191   1.154 -1.1020 -1.3542  1.2306
 5514SOL     OW28177   0.954   4.271  15.130 -0.2025 -0.4510  0.0901
 5514SOL    HW128178   0.885   4.307  15.185 -1.0449 -2.5423  0.3958
 5514SOL    HW228179   0.908   4.217  15.066  0.6763 -1.9887  0.7451
 5515SOL     OW28180   3.318   0.220   7.621  0.3858  0.3860  0.4422
 5515SOL    HW128181   3.273   0.260   7.695  0.3932  0.7351  0.2612
 5515SOL    HW228182   3.306   0.126   7.634 -0.5057  0.4155 -0.1710
 5516SOL     OW28183   2.533   2.127   8.415 -0.0572  0.1592  0.3851
 5516SOL    HW128184   2.508   2.042   8.451 -2.1644  1.2439  1.4622
 5516SOL    HW228185   2.469   2.137   8.345 -0.4696  1.7192  0.9878
 5517SOL     OW28186   1.726   3.132   0.016 -0.0586 -0.0799 -0.5420
 5517SOL    HW128187   1.654   3.170   0.066  1.2365  1.8610 -0.1338
 5517SOL    HW228188   1.671   3.071  17.706 -0.5953 -1.8566  2.2914
 5518SOL     OW28189   3.449   1.955   9.913  0.5416 -0.6105 -0.1612
 5518SOL    HW128190   3.526   1.901   9.930 -0.2758 -1.8441 -0.4307
 5518SOL    HW228191   3.382   1.909   9.963 -0.3745 -2.4207 -3.0484
 5519SOL     OW28192   0.446   3.907   3.375 -0.1091 -0.1832 -0.7457
 5519SOL    HW128193   0.461   3.930   3.466 -0.3972  0.0225 -0.7489
 5519SOL    HW228194   0.413   3.818   3.371 -1.6851  0.3883 -0.2408
 5520SOL     OW28195   2.704   1.131   6.289 -0.1794 -0.5819  0.8615
 5520SOL    HW128196   2.741   1.173   6.212  1.2375  0.2722  1.9926
 5520SOL    HW228197   2.771   1.147   6.356  1.5487 -1.8897 -0.5479
 5521SOL     OW28198   4.260   0.245  16.814 -0.0567  0.9678  0.3430
 5521SOL    HW128199   4.337   0.194  16.790 -0.1105  0.0759  2.0195
 5521SOL    HW228200   4.290   0.293  16.891  2.5774 -1.2003  0.6922
 5522SOL     OW28201   1.264   1.158   7.347 -0.3266  0.5591 -0.7830
 5522SOL    HW128202   1.284   1.228   7.410  1.6598 -0.6973 -0.0003
 5522SOL    HW228203   1.178   1.178   7.312  0.1631  0.9028 -1.7844
 5523SOL     OW28204   0.639   0.177  15.961  0.6498 -0.1579  0.2035
 5523SOL    HW128205   0.698   0.127  16.017  1.4572  0.9373  0.3298
 5523SOL    HW228206   0.667   0.267  15.978  0.3251 -0.4346  2.2404
 5524SOL     OW28207   0.158   3.541  12.257 -0.1066 -0.1257  0.1202
 5524SOL    HW128208   0.144   3.545  12.162 -2.2037  2.2412  0.5594
 5524SOL    HW228209   0.114   3.619  12.290  1.7250  0.3548  1.4058
 5525SOL     OW28210   1.672   1.800   7.707  0.1390 -0.1989  0.3206
 5525SOL    HW128211   1.720   1.827   7.785 -1.0765  1.9320  0.3402
 5525SOL    HW228212   1.596   1.753   7.742 -1.6032  1.2240 -1.5540
 5526SOL     OW28213   0.258   3.228  16.738 -0.6752  0.0204 -0.0239
 5526SOL    HW128214   0.237   3.215  16.646 -1.6258  2.5687 -0.1801
 5526SOL    HW228215   0.353   3.224  16.739 -0.6033  1.0711 -2.6468
 5527SOL     OW28216   2.473   2.389   3.653  0.1049 -0.6352 -0.0017
 5527SOL    HW128217   2.379   2.392   3.635 -0.0945  0.9660  1.3904
 5527SOL    HW228218   2.504   2.389   3.562  1.9729  0.7532  0.6426
 5528SOL     OW28219   0.363   2.493   3.916 -0.0942 -0.0233 -0.3077
 5528SOL    HW128220   0.310   2.511   3.838 -2.3139  0.8924  1.4218
 5528SOL    HW228221   0.384   2.586   3.928  1.1379 -0.1200 -1.6341
 5529SOL     OW28222   2.324   3.547   3.660 -0.0298 -0.6185 -0.4305
 5529SOL    HW128223   2.289   3.518   3.744  1.4331 -1.2028 -0.0230
 5529SOL    HW228224   2.351   3.638   3.656 -0.6170 -0.3747  1.1829
 5530SOL     OW28225   2.105   3.727   6.964 -0.0798  0.5166 -0.3459
 5530SOL    HW128226   2.069   3.814   6.943 -1.9722  0.2222  1.5978
 5530SOL    HW228227   2.192   3.735   6.926  0.4757 -1.1244  0.5970
 5531SOL     OW28228   1.531   2.514   3.707 -0.2567  0.6423  0.2301
 5531SOL    HW128229   1.527   2.548   3.617 -2.3988  1.5484  0.6768
 5531SOL    HW228230   1.487   2.429   3.697  1.6048 -0.2116 -0.8350
 5532SOL     OW28231   3.809   0.143   9.369  0.6331 -0.5529 -0.2686
 5532SOL    HW128232   3.744   0.171   9.433 -0.3846  0.3239 -1.6682
 5532SOL    HW228233   3.887   0.171   9.418  0.0054 -1.5463  1.2778
 5533SOL     OW28234   1.541   2.926  15.941 -0.2269  0.5751  0.7413
 5533SOL    HW128235   1.454   2.899  15.972 -0.1045  2.0402  2.3814
 5533SOL    HW228236   1.576   2.982  16.011 -0.4790  2.4080 -0.5989
 5534SOL     OW28237   2.476   2.871   4.981 -0.6241 -0.2967  0.0156
 5534SOL    HW128238   2.383   2.853   4.968 -0.7231  0.0380  0.2885
 5534SOL    HW228239   2.468   2.942   5.044  0.7736 -1.8812  1.9652
 5535SOL     OW28240   3.967   3.792   9.735  0.2587 -0.3632  0.4280
 5535SOL    HW128241   4.055   3.759   9.755  0.6061 -0.2367 -0.8967
 5535SOL    HW228242   3.926   3.757   9.814 -1.8132  0.4632 -0.2753
 5536SOL     OW28243   3.753   1.776  14.716 -0.4937  0.5827  0.2562
 5536SOL    HW128244   3.680   1.831  14.686  0.5286  3.0784  2.3345
 5536SOL    HW228245   3.707   1.696  14.743  0.1174 -0.2504 -1.1792
 5537SOL     OW28246   3.777   2.146   4.781  0.2750 -0.2014 -0.1361
 5537SOL    HW128247   3.714   2.074   4.789  0.1760 -0.3365 -2.0871
 5537SOL    HW228248   3.736   2.190   4.706 -0.5956 -1.3548 -0.3537
 5538SOL     OW28249   1.316   0.127   7.545  0.3561  0.0705  0.4154
 5538SOL    HW128250   1.301   0.151   7.454  0.4095  1.5794  0.8055
 5538SOL    HW228251   1.385   0.191   7.566  0.1671  0.1012  0.9423
 5539SOL     OW28252   3.197   3.607  12.415 -0.3312 -0.3303  0.2565
 5539SOL    HW128253   3.219   3.542  12.349  0.9335  2.0735 -1.6451
 5539SOL    HW228254   3.217   3.690  12.372 -2.0968 -0.7898 -1.4245
 5540SOL     OW28255   2.397   3.005  12.731  0.0695 -0.6395  0.2405
 5540SOL    HW128256   2.459   2.949  12.684  3.1172  3.0797 -0.1420
 5540SOL    HW228257   2.392   3.080  12.672 -2.2332 -0.0315  1.1955
 5541SOL     OW28258   4.339   0.920   2.976 -0.8533 -0.4907  0.7730
 5541SOL    HW128259   4.359   0.847   2.918 -1.0921 -0.4717  0.6677
 5541SOL    HW228260   4.335   0.880   3.063  0.5061 -2.1239  0.0839
 5542SOL     OW28261   0.811   0.663   6.417  0.1692  0.2999  0.0792
 5542SOL    HW128262   0.897   0.622   6.422  1.4095  2.5904 -2.5007
 5542SOL    HW228263   0.807   0.710   6.500 -0.8079  0.6858 -0.1932
 5543SOL     OW28264   0.508   1.832   1.390  0.3332 -0.1585 -0.0838
 5543SOL    HW128265   0.596   1.818   1.356  1.3394  0.8905  2.0391
 5543SOL    HW228266   0.490   1.741   1.414 -1.1972 -0.6599 -3.2249
 5544SOL     OW28267   1.260   1.216   9.502 -0.1222 -0.7446  0.5040
 5544SOL    HW128268   1.231   1.244   9.588 -3.2131 -0.6386 -0.5577
 5544SOL    HW228269   1.355   1.209   9.511 -0.0209  2.0719  1.4284
 5545SOL     OW28270   2.583   4.342  16.157  0.8599  0.0524 -0.0382
 5545SOL    HW128271   2.555   4.337  16.066 -1.8043  1.4698  0.7230
 5545SOL    HW228272   2.542   4.423  16.186 -0.2605 -0.4884 -0.1378
 5546SOL     OW28273   1.130   0.317   9.324 -0.2477 -0.2307  0.1672
 5546SOL    HW128274   1.223   0.338   9.310  0.5014 -2.7648  1.4325
 5546SOL    HW228275   1.139   0.229   9.288 -0.5744  0.2243 -1.0326
 5547SOL     OW28276   0.201   4.347   0.589  0.2063 -0.3392  0.2313
 5547SOL    HW128277   0.283   4.396   0.582  0.8628 -1.3699  0.7205
 5547SOL    HW228278   0.236   4.260   0.607 -0.7980 -1.3618 -2.8021
 5548SOL     OW28279   2.117   2.709  11.969 -0.3073 -0.2701 -0.4221
 5548SOL    HW128280   2.051   2.757  12.018 -0.7613  0.6043 -1.8888
 5548SOL    HW228281   2.158   2.775  11.913  0.5681  2.7319  3.7538
 5549SOL     OW28282   2.199   4.142  10.482  0.0504  0.6076  0.5996
 5549SOL    HW128283   2.176   4.121  10.572  1.2408 -0.2719  0.7030
 5549SOL    HW228284   2.212   4.234  10.504 -0.4759  0.7695  0.2264
 5550SOL     OW28285   2.539   0.407   3.559 -0.3074  0.0432 -0.4586
 5550SOL    HW128286   2.444   0.418   3.563 -0.4057 -1.9090  2.5087
 5550SOL    HW228287   2.561   0.499   3.544 -1.3678  0.4504  0.4758
 5551SOL     OW28288   4.244   2.685   5.701  0.8494 -0.6929  0.4100
 5551SOL    HW128289   4.256   2.763   5.647  0.0179 -1.5523 -1.0014
 5551SOL    HW228290   4.150   2.667   5.695  0.3476  1.1404  2.6451
 5552SOL     OW28291   4.285   3.962   3.840 -0.0006  0.1269 -0.2148
 5552SOL    HW128292   4.198   3.966   3.800  0.3659  0.0792 -0.9978
 5552SOL    HW228293   4.310   4.054   3.838  3.3885 -0.6855  3.5028
 5553SOL     OW28294   2.320   2.131  12.117 -0.1431 -0.4371  0.5272
 5553SOL    HW128295   2.306   2.131  12.022 -1.0474  2.2312  0.6652
 5553SOL    HW228296   2.231   2.114  12.149 -0.2742 -0.1676  0.3050
 5554SOL     OW28297   4.032   3.276   8.705 -0.2879 -0.2131 -0.6425
 5554SOL    HW128298   4.043   3.189   8.741  1.4917  0.7738  1.1750
 5554SOL    HW228299   4.094   3.283   8.633  0.6120  0.0566  0.1645
 5555SOL     OW28300   1.266   1.321   8.745 -0.4306  0.6274 -0.1207
 5555SOL    HW128301   1.345   1.347   8.793 -1.6523  0.4178  1.9482
 5555SOL    HW228302   1.212   1.290   8.817  0.5758 -0.5237  0.1404
 5556SOL     OW28303   3.634   2.270   5.865 -0.8127 -0.1153  0.5418
 5556SOL    HW128304   3.624   2.342   5.802 -1.8844  0.1902  1.0515
 5556SOL    HW228305   3.589   2.200   5.819  1.5944 -2.2289  1.4264
 5557SOL     OW28306   4.670   1.986   8.082 -0.2348  0.2423  0.3268
 5557SOL    HW128307   4.724   1.912   8.110  0.4673 -0.6889 -3.5670
 5557SOL    HW228308   4.613   2.003   8.157 -1.2156 -1.2105 -0.0760
 5558SOL     OW28309   0.496   4.008   6.265  0.1362  0.1564  0.1857
 5558SOL    HW128310   0.509   3.925   6.310 -0.3082 -0.6280 -1.1629
 5558SOL    HW228311   0.407   4.004   6.232 -0.3752  3.2959  1.1243
 5559SOL     OW28312   1.950   2.447   7.664 -0.1805  0.5155  0.1544
 5559SOL    HW128313   2.021   2.505   7.693  0.7724 -0.6823  0.2540
 5559SOL    HW228314   1.987   2.359   7.677 -0.7955  0.0140 -1.5224
 5560SOL     OW28315   3.792   1.265   8.211  0.4023 -0.1830  0.2861
 5560SOL    HW128316   3.801   1.246   8.304  0.0159 -2.7998 -0.2032
 5560SOL    HW228317   3.728   1.200   8.182  0.4457 -0.7942  1.5631
 5561SOL     OW28318   0.469   0.650   7.627  0.0714  0.2019 -0.0310
 5561SOL    HW128319   0.563   0.634   7.624  0.3240  1.4364  1.5868
 5561SOL    HW228320   0.460   0.740   7.595 -0.6849  0.2400  0.3002
 5562SOL     OW28321   3.760   2.728   7.669  0.0031  0.6532  0.0566
 5562SOL    HW128322   3.712   2.772   7.600  0.0952 -0.1536 -0.5264
 5562SOL    HW228323   3.735   2.782   7.743  0.8355  0.9076  0.1540
 5563SOL     OW28324   1.491   3.633   2.196 -0.3939  0.1797 -0.2040
 5563SOL    HW128325   1.557   3.625   2.264 -0.5522 -0.0345 -0.0762
 5563SOL    HW228326   1.442   3.706   2.234 -0.3547 -0.3779  0.9155
 5564SOL     OW28327   4.607   3.223   7.259 -0.4038  0.2621 -0.1667
 5564SOL    HW128328   4.678   3.283   7.238 -1.4832  1.2466 -0.9612
 5564SOL    HW228329   4.542   3.274   7.308 -0.3652 -1.7729  2.0317
 5565SOL     OW28330   0.990   4.049   9.041  0.1869 -0.6520 -0.3282
 5565SOL    HW128331   1.034   3.966   9.020 -1.2793 -0.9843 -2.1512
 5565SOL    HW228332   1.069   4.102   9.044 -0.5158  0.2793  2.0368
 5566SOL     OW28333   1.644   0.764   0.271  0.3846 -0.4363  0.3877
 5566SOL    HW128334   1.576   0.798   0.213  0.7803 -1.9614 -0.9695
 5566SOL    HW228335   1.690   0.842   0.303  0.4202  0.0901 -0.9393
 5567SOL     OW28336   1.652   1.576   0.258 -0.5406 -0.2521  0.3378
 5567SOL    HW128337   1.702   1.645   0.214 -0.6282 -0.3557  0.0758
 5567SOL    HW228338   1.585   1.555   0.193 -2.2647  2.1423  1.3210
 5568SOL     OW28339   4.064   4.046   5.091  0.2078 -0.6759  0.3136
 5568SOL    HW128340   4.093   4.136   5.104 -2.0703  0.0462  0.3278
 5568SOL    HW228341   4.119   4.003   5.156  0.7385  1.6260  1.3568
 5569SOL     OW28342   4.198   4.017  16.030 -0.5053  0.3254  0.1020
 5569SOL    HW128343   4.235   4.087  15.975  0.4760  0.2948  0.7089
 5569SOL    HW228344   4.237   4.039  16.115 -0.4495 -1.6257  0.5813
 5570SOL     OW28345   1.901   2.333   1.720 -1.3497 -0.1619 -0.3565
 5570SOL    HW128346   1.938   2.254   1.761  3.2664  1.4125 -1.5261
 5570SOL    HW228347   1.810   2.328   1.751 -0.3914  0.1322  2.5200
 5571SOL     OW28348   4.222   0.303   6.281  0.1097 -0.6038 -0.1083
 5571SOL    HW128349   4.216   0.369   6.212  1.5329 -0.2165  0.1506
 5571SOL    HW228350   4.142   0.253   6.263  0.4823 -1.3045  0.2131
 5572SOL     OW28351   0.333   0.796  12.865 -0.4494  0.4503  0.2091
 5572SOL    HW128352   0.246   0.762  12.842 -0.0995 -1.0128  1.0750
 5572SOL    HW228353   0.347   0.857  12.792  1.1610 -0.8251 -0.5715
 5573SOL     OW28354   0.323   3.654   3.425 -0.0188  0.1574 -0.5083
 5573SOL    HW128355   0.259   3.596   3.383 -1.7613  1.7898 -0.1057
 5573SOL    HW228356   0.262   3.675   3.495  0.9290 -2.3748  1.0800
 5574SOL     OW28357   3.338   0.480   8.117  0.4364 -0.5665  0.3139
 5574SOL    HW128358   3.433   0.478   8.105  0.4771  0.4097  0.4618
 5574SOL    HW228359   3.318   0.386   8.119 -0.0487 -0.4491  1.1707
 5575SOL     OW28360   2.808   1.950   3.027  0.7171 -0.1920 -0.2490
 5575SOL    HW128361   2.771   2.034   2.997  0.1904 -0.6262 -0.8222
 5575SOL    HW228362   2.878   1.924   2.968  0.2029 -0.8304 -0.5837
 5576SOL     OW28363   2.814   4.517   9.384  0.6877  0.5303  0.3617
 5576SOL    HW128364   2.808   4.426   9.355  0.1263  0.4306  0.7850
 5576SOL    HW228365   2.804   4.508   9.479 -0.4389 -1.1187  0.0859
 5577SOL     OW28366   2.796   4.413  11.537  0.0526 -0.2748  0.2062
 5577SOL    HW128367   2.766   4.323  11.523 -1.6571  0.5023 -1.1819
 5577SOL    HW228368   2.860   4.428  11.467  0.2544  0.3631  0.5343
 5578SOL     OW28369   4.355   2.160   7.184  0.3339 -0.0426  0.0391
 5578SOL    HW128370   4.278   2.216   7.184  0.5961  0.3156  0.4188
 5578SOL    HW228371   4.336   2.093   7.249 -2.7316 -0.4881 -1.3243
 5579SOL     OW28372   1.158   3.052   7.935 -0.3319  0.3281  0.0086
 5579SOL    HW128373   1.234   2.994   7.930  0.3448  1.1728  0.5556
 5579SOL    HW228374   1.174   3.117   8.003  1.4507 -1.1755  1.0558
 5580SOL     OW28375   2.574   3.740  13.890 -0.0861  0.5270 -0.0456
 5580SOL    HW128376   2.605   3.719  13.979  1.4269  2.0658 -0.2031
 5580SOL    HW228377   2.490   3.695  13.895 -0.2707  1.0990  2.0532
 5581SOL     OW28378   1.578   1.325   7.654  0.2236  0.0133 -0.3826
 5581SOL    HW128379   1.606   1.293   7.739 -1.1321 -1.6496 -0.5687
 5581SOL    HW228380   1.648   1.389   7.640 -1.4279  1.3791 -2.3753
 5582SOL     OW28381   3.259   3.273   1.949 -0.0031 -0.1023  0.5930
 5582SOL    HW128382   3.252   3.250   1.857  0.9404  1.6579  0.0912
 5582SOL    HW228383   3.318   3.348   1.946 -0.0759 -0.1820 -2.4860
 5583SOL     OW28384   3.775   1.592   4.428  0.0417  1.1417  0.0938
 5583SOL    HW128385   3.712   1.559   4.364  0.4347  0.0922  0.2417
 5583SOL    HW228386   3.746   1.554   4.511  0.6625 -0.9187 -0.6246
 5584SOL     OW28387   0.890   2.354   6.534 -0.1843 -0.6006  0.2682
 5584SOL    HW128388   0.856   2.317   6.453 -1.4634 -0.4320  0.7249
 5584SOL    HW228389   0.946   2.281   6.558  0.3268 -0.5984 -0.9382
 5585SOL     OW28390   4.093   2.087   7.850 -0.1878  0.4117 -0.0138
 5585SOL    HW128391   4.187   2.075   7.837 -0.1485  0.6113  0.0761
 5585SOL    HW228392   4.063   2.095   7.760 -1.2575 -0.6343  0.2467
 5586SOL     OW28393   0.701   2.578  14.357 -0.7547  0.6794  0.7131
 5586SOL    HW128394   0.757   2.638  14.406 -0.7768  1.7095 -0.5101
 5586SOL    HW228395   0.683   2.507  14.418 -0.1499  2.5655  3.1007
 5587SOL     OW28396   1.237   3.682   4.071  0.1151 -0.5748 -0.6128
 5587SOL    HW128397   1.200   3.712   3.988 -0.2014 -2.2794 -1.0979
 5587SOL    HW228398   1.161   3.656   4.123 -0.5516  0.2268 -1.1810
 5588SOL     OW28399   3.747   3.051  12.205 -0.3785 -0.4149  0.0946
 5588SOL    HW128400   3.821   2.992  12.192  0.2208  0.9839 -2.6820
 5588SOL    HW228401   3.723   3.038  12.297 -0.7157  1.2918  0.2476
 5589SOL     OW28402   4.392   1.303   9.851  0.0681  0.4504  0.0270
 5589SOL    HW128403   4.315   1.291   9.906 -0.8486 -0.4841 -1.4608
 5589SOL    HW228404   4.358   1.336   9.768 -0.8391 -1.4124 -0.3408
 5590SOL     OW28405   2.352   1.244  16.148 -0.1263  0.0259 -0.1604
 5590SOL    HW128406   2.346   1.315  16.212  0.0560  2.2425 -2.5773
 5590SOL    HW228407   2.265   1.266  16.115 -0.7895 -1.3091  0.6894
 5591SOL     OW28408   3.450   1.888  11.346  0.1428 -0.3930  0.4675
 5591SOL    HW128409   3.428   1.824  11.414 -0.5130 -0.0459  0.5796
 5591SOL    HW228410   3.541   1.865  11.329  0.3387 -1.9038  3.5730
 5592SOL     OW28411   2.828   2.767   8.865  0.2913  0.2802 -0.8438
 5592SOL    HW128412   2.820   2.768   8.770 -0.4660  1.1980 -0.7688
 5592SOL    HW228413   2.867   2.682   8.888  0.6254  0.8795  0.8455
 5593SOL     OW28414   0.662   4.255   0.140 -0.1287 -0.0239  0.4931
 5593SOL    HW128415   0.701   4.280   0.223  0.1350 -0.2665  0.4452
 5593SOL    HW228416   0.708   4.173   0.120 -0.8835 -0.6799  1.5150
 5594SOL     OW28417   0.492   1.636   9.458  0.5965 -0.4012  0.1221
 5594SOL    HW128418   0.519   1.632   9.366 -2.0096  2.0287 -0.7684
 5594SOL    HW228419   0.397   1.640   9.450  0.7225  2.0652 -0.1933
 5595SOL     OW28420   0.201   3.504   2.905 -0.1057 -0.1258  0.2695
 5595SOL    HW128421   0.269   3.438   2.890  2.0308  1.9579  0.7179
 5595SOL    HW228422   0.184   3.490   2.998 -2.6639 -2.1751 -0.5309
 5596SOL     OW28423   3.869   2.621  16.929 -0.0764  0.3093  0.5942
 5596SOL    HW128424   3.785   2.601  16.970 -0.4500  0.9189  0.1330
 5596SOL    HW228425   3.845   2.623  16.836  0.6638  0.3072  0.3998
 5597SOL     OW28426   2.468   2.407   7.714 -0.2579  0.2639 -0.0753
 5597SOL    HW128427   2.444   2.498   7.727 -1.0252  0.2219 -1.2258
 5597SOL    HW228428   2.490   2.409   7.621 -3.4187  0.0804 -0.8385
 5598SOL     OW28429   2.338   2.857   5.581  0.1707  0.0024  0.0811
 5598SOL    HW128430   2.285   2.936   5.581  1.6635  1.0129  2.5439
 5598SOL    HW228431   2.271   2.795   5.551  0.4643 -1.6830  2.8431
 5599SOL     OW28432   0.166   4.525   3.613  0.3461  0.4186 -0.8513
 5599SOL    HW128433   0.147   4.525   3.519  0.8240 -2.6595 -0.9485
 5599SOL    HW228434   0.083   4.490   3.646 -1.2296  2.3912 -2.7478
 5600SOL     OW28435   4.526   0.358   5.474  0.3153 -0.5560 -0.0906
 5600SOL    HW128436   4.583   0.339   5.549  2.6276 -0.2270 -1.7703
 5600SOL    HW228437   4.476   0.430   5.511 -0.2935 -0.4228 -1.1982
 5601SOL     OW28438   1.553   4.503   7.121 -0.3282  0.3080  0.0050
 5601SOL    HW128439   1.645   4.486   7.139 -0.4630  1.1251  1.4819
 5601SOL    HW228440   1.547   4.587   7.167  4.2679  1.0342 -0.7031
 5602SOL     OW28441   4.286   0.473   2.984  0.5543 -0.3260 -0.0561
 5602SOL    HW128442   4.328   0.416   3.048  1.1602 -2.3003 -2.1918
 5602SOL    HW228443   4.268   0.550   3.038 -4.1458 -0.7388 -1.0201
 5603SOL     OW28444   3.226   4.569   3.635 -0.3290  0.2998 -0.3902
 5603SOL    HW128445   3.245   4.479   3.659  1.0376  1.5038  3.0635
 5603SOL    HW228446   3.170   4.551   3.559 -0.1931  1.5684 -0.7948
 5604SOL     OW28447   3.403   4.421   0.846 -0.1732  0.9027 -0.4376
 5604SOL    HW128448   3.339   4.352   0.829 -1.1469  1.7164 -0.1149
 5604SOL    HW228449   3.411   4.468   0.763  0.2905  0.6152 -0.5546
 5605SOL     OW28450   4.537   2.808   7.456 -0.3045  0.3206 -0.2203
 5605SOL    HW128451   4.598   2.851   7.397 -1.0681 -0.9126 -1.9334
 5605SOL    HW228452   4.582   2.832   7.536 -0.0278 -0.6308 -0.0861
 5606SOL     OW28453   3.951   2.641   9.539 -0.3114 -0.4125  0.1770
 5606SOL    HW128454   3.996   2.686   9.611  0.0825 -1.8156  0.8109
 5606SOL    HW228455   3.970   2.708   9.473  1.0180 -1.4872 -0.5289
 5607SOL     OW28456   2.516   0.937   6.278 -0.5790  0.0752  0.7242
 5607SOL    HW128457   2.513   0.915   6.185  1.5637 -2.4212  1.2460
 5607SOL    HW228458   2.603   0.975   6.266 -0.4233 -0.3178  0.5901
 5608SOL     OW28459   2.172   4.005   2.795  0.3208  0.4687 -0.1008
 5608SOL    HW128460   2.137   3.919   2.819 -0.9228  0.9359 -0.2517
 5608SOL    HW228461   2.149   4.070   2.862  2.3813  0.0672  0.9861
 5609SOL     OW28462   3.581   3.536   6.857 -0.4137 -0.1395 -0.3804
 5609SOL    HW128463   3.559   3.545   6.764  1.8427  3.2500 -0.5749
 5609SOL    HW228464   3.629   3.617   6.874 -1.6074  0.6089 -0.5793
 5610SOL     OW28465   2.197   4.675   3.272  0.1667  0.4694  0.3659
 5610SOL    HW128466   2.199   4.621   3.193  0.8879  0.0389  0.6768
 5610SOL    HW228467   2.103   4.676   3.291 -0.5423 -1.5641 -2.9366
 5611SOL     OW28468   1.554   3.499   5.152 -0.3052 -0.5551 -0.4683
 5611SOL    HW128469   1.508   3.487   5.235 -0.8300  0.2322 -0.6486
 5611SOL    HW228470   1.480   3.478   5.094  1.8271 -2.5822 -2.4561
 5612SOL     OW28471   3.189   3.380   8.584 -0.0228 -0.8955 -0.2290
 5612SOL    HW128472   3.267   3.324   8.577  0.7401  0.3945 -2.0925
 5612SOL    HW228473   3.121   3.323   8.549 -0.2368  0.7735 -2.4994
 5613SOL     OW28474   2.414   4.705  17.309 -0.2734 -0.0873  0.1189
 5613SOL    HW128475   2.466   4.712  17.229  0.8350  1.9267  1.0294
 5613SOL    HW228476   2.371   4.619  17.299 -0.7024  0.2474 -0.9723
 5614SOL     OW28477   4.719   3.148   3.447  1.0487 -0.0338  0.0390
 5614SOL    HW128478   4.715   3.087   3.521 -1.0741  2.9746  2.3816
 5614SOL    HW228479   0.015   3.220   3.502  1.6949  0.4796 -0.9847
 5615SOL     OW28480   1.864   4.318   3.773  0.4573  0.0440  0.0390
 5615SOL    HW128481   1.798   4.250   3.766  1.8625 -1.6410  3.5885
 5615SOL    HW228482   1.822   4.391   3.820  0.0871  0.9202 -1.6345
 5616SOL     OW28483   1.256   3.168   8.476  0.0633  0.2084  0.6669
 5616SOL    HW128484   1.321   3.229   8.512  0.0106  0.8394 -0.3231
 5616SOL    HW228485   1.282   3.153   8.386 -0.1928  1.2289  0.4287
 5617SOL     OW28486   1.924   4.293   9.080  0.4731  0.3735 -0.1937
 5617SOL    HW128487   1.874   4.357   9.030  0.7551  0.8036  0.0701
 5617SOL    HW228488   2.005   4.296   9.029  0.0556 -1.7328 -0.9610
 5618SOL     OW28489   3.610   1.842   7.641 -0.4652  0.2311 -0.0859
 5618SOL    HW128490   3.698   1.872   7.661  0.0593 -0.7838 -0.8867
 5618SOL    HW228491   3.576   1.906   7.579  1.0928  0.5675 -0.5794
 5619SOL     OW28492   2.463   4.278   8.660 -0.1446 -0.2602 -0.3775
 5619SOL    HW128493   2.487   4.313   8.574  0.8566  0.4177  0.1755
 5619SOL    HW228494   2.430   4.198   8.621  1.3371 -1.0899  0.0725
 5620SOL     OW28495   2.340   0.793   3.235  0.4438 -0.3685  0.2654
 5620SOL    HW128496   2.392   0.823   3.160  0.2892 -1.3558 -0.2444
 5620SOL    HW228497   2.411   0.788   3.299  1.3135 -1.8415 -0.8348
 5621SOL     OW28498   3.306   3.612   8.510 -0.0129 -0.0875 -0.5841
 5621SOL    HW128499   3.301   3.663   8.591  2.5573  1.6160 -1.4959
 5621SOL    HW228500   3.265   3.536   8.552  0.4325 -0.2086 -0.3753
 5622SOL     OW28501   0.536   2.675   7.816  0.6976 -0.2747 -0.1459
 5622SOL    HW128502   0.524   2.641   7.727 -1.2177  3.2169 -1.2114
 5622SOL    HW228503   0.550   2.589   7.856 -0.6255  0.0933  1.1166
 5623SOL     OW28504   1.826   1.942   6.455  0.3539 -0.0320  0.2435
 5623SOL    HW128505   1.892   2.005   6.482 -1.3253  1.2735  1.3266
 5623SOL    HW228506   1.815   1.892   6.536 -1.6284 -0.9361 -0.5709
 5624SOL     OW28507   4.731   1.787  16.424  0.4256  0.1214 -0.4047
 5624SOL    HW128508   0.084   1.824  16.432  0.0018  0.9722  0.3416
 5624SOL    HW228509   4.681   1.869  16.421  0.1671  0.0734  3.3020
 5625SOL     OW28510   3.733   0.240   4.243 -0.7448 -0.1425  0.5109
 5625SOL    HW128511   3.814   0.200   4.212 -0.9351 -0.3531  0.2833
 5625SOL    HW228512   3.672   0.189   4.190 -2.2954  1.8339  0.3595
 5626SOL     OW28513   1.584   1.252   5.402 -0.3536 -0.2585 -0.7421
 5626SOL    HW128514   1.651   1.220   5.462  0.6310  1.8014 -0.7297
 5626SOL    HW228515   1.630   1.299   5.333  2.7893 -0.9254  0.9426
 5627SOL     OW28516   0.716   2.136   2.247  0.4861  0.3595 -0.1005
 5627SOL    HW128517   0.652   2.201   2.219 -1.1261 -0.7441  1.0156
 5627SOL    HW228518   0.678   2.123   2.333 -1.9544  0.0327 -1.2155
 5628SOL     OW28519   0.281   4.294  15.798 -0.2253  0.2724 -0.4071
 5628SOL    HW128520   0.215   4.251  15.744  1.3442  0.1955 -2.2405
 5628SOL    HW228521   0.294   4.377  15.754  0.4893  1.2398  1.5928
 5629SOL     OW28522   2.846   1.983   7.932  0.1405  0.3709 -0.7382
 5629SOL    HW128523   2.756   1.953   7.924  0.5202 -1.2133  0.8786
 5629SOL    HW228524   2.897   1.906   7.906  1.6683  1.8970 -2.2811
 5630SOL     OW28525   0.653   3.954  17.560  0.2531 -0.1372  0.0849
 5630SOL    HW128526   0.675   3.875  17.511  2.4651 -0.9455  2.3837
 5630SOL    HW228527   0.691   4.029  17.514 -0.9199  1.5766  1.8893
 5631SOL     OW28528   2.590   2.858   8.012 -0.7302  0.4470 -0.7238
 5631SOL    HW128529   2.646   2.817   7.946 -0.2329 -2.4017  1.4420
 5631SOL    HW228530   2.525   2.789   8.024 -1.0919  0.8653 -0.2818
 5632SOL     OW28531   1.191   2.825   5.674 -0.0619  0.0486 -0.1261
 5632SOL    HW128532   1.157   2.817   5.763  2.0479  3.3409  0.9824
 5632SOL    HW228533   1.191   2.735   5.640  0.5837  0.1772 -0.4731
 5633SOL     OW28534   3.725   4.000  10.921  0.1668 -0.3105 -0.5086
 5633SOL    HW128535   3.711   4.065  10.852 -1.4312 -0.5434 -0.4147
 5633SOL    HW228536   3.663   4.043  10.980 -0.7375  0.9357 -2.3592
 5634SOL     OW28537   2.463   2.684   0.845  0.0849  0.2575  0.5349
 5634SOL    HW128538   2.385   2.686   0.901 -2.9828  1.8949 -3.8373
 5634SOL    HW228539   2.455   2.770   0.804  2.0680 -0.9607 -2.3560
 5635SOL     OW28540   0.631   2.249   6.723 -0.5060  0.0589 -0.0524
 5635SOL    HW128541   0.549   2.260   6.676 -0.8059  0.3319  0.5289
 5635SOL    HW228542   0.675   2.186   6.666  0.2826 -1.2377  1.9950
 5636SOL     OW28543   0.619   1.016   3.881 -0.0002 -0.1909  0.3217
 5636SOL    HW128544   0.563   1.092   3.895  0.1126 -0.4159  2.0991
 5636SOL    HW228545   0.581   0.955   3.945 -0.0564  1.7081  2.0935
 5637SOL     OW28546   1.164   0.154   4.446  0.4573  0.1340 -0.1798
 5637SOL    HW128547   1.218   0.214   4.498 -1.1676  0.8465  0.6720
 5637SOL    HW228548   1.097   0.118   4.503 -0.6095  2.7964  0.2770
 5638SOL     OW28549   0.518   1.268   3.187  0.4582 -0.3448 -0.0863
 5638SOL    HW128550   0.599   1.268   3.135 -0.1891 -2.9822 -1.0695
 5638SOL    HW228551   0.451   1.278   3.120  0.4124 -0.3418 -0.0394
 5639SOL     OW28552   2.800   0.734   9.563 -0.1514  0.3121  0.0133
 5639SOL    HW128553   2.739   0.751   9.634 -1.3506 -0.8239 -0.7381
 5639SOL    HW228554   2.779   0.646   9.530  2.0209 -0.1695 -0.0556
 5640SOL     OW28555   1.591   1.619   2.985  0.0689  0.2821 -0.0196
 5640SOL    HW128556   1.650   1.555   3.025 -0.5304  0.3581  0.9934
 5640SOL    HW228557   1.519   1.625   3.048  0.6867 -1.7967  0.8861
 5641SOL     OW28558   1.026   0.753   4.470 -0.0532  0.0233  0.0779
 5641SOL    HW128559   1.036   0.742   4.376  1.7471  3.5588 -0.1326
 5641SOL    HW228560   1.100   0.806   4.498  0.5490  1.2565 -3.8473
 5642SOL     OW28561   2.180   4.688   4.596 -0.5662 -0.1150  0.0452
 5642SOL    HW128562   2.090   4.675   4.565  0.0702  0.5460 -2.0414
 5642SOL    HW228563   2.200   4.612   4.650  2.2680  0.8230  0.3428
 5643SOL     OW28564   2.114   4.019   4.516 -0.1302  0.3335  0.2660
 5643SOL    HW128565   2.155   4.016   4.602  0.8757  1.0192 -0.1862
 5643SOL    HW228566   2.052   4.090   4.533  0.1492  0.6563 -0.0178
 5644SOL     OW28567   2.545   3.574   0.667 -0.5905  0.4549 -0.2177
 5644SOL    HW128568   2.517   3.553   0.756  2.0005 -1.0295  0.2403
 5644SOL    HW228569   2.638   3.553   0.680 -0.4482  1.0362 -0.3161
 5645SOL     OW28570   0.738   0.854  10.895  0.1520  0.2429 -0.3197
 5645SOL    HW128571   0.800   0.921  10.869 -1.9683  2.3994  0.1709
 5645SOL    HW228572   0.750   0.849  10.990  0.6157 -0.8705 -0.4367
 5646SOL     OW28573   1.356   3.792   5.081  0.7719 -0.5607  0.2928
 5646SOL    HW128574   1.274   3.838   5.065 -0.3141 -1.5504  2.8938
 5646SOL    HW228575   1.408   3.859   5.124 -1.2778  0.1804  1.6137
 5647SOL     OW28576   2.874   2.582   5.213  0.0566  0.0819  0.3279
 5647SOL    HW128577   2.912   2.518   5.271  2.6974  2.0282  0.7412
 5647SOL    HW228578   2.903   2.542   5.131 -1.1742 -0.8226  0.3387
 5648SOL     OW28579   0.525   3.590   9.262 -0.3992  0.2682 -0.6579
 5648SOL    HW128580   0.475   3.510   9.280  0.6424  0.4540  3.0996
 5648SOL    HW228581   0.529   3.629   9.349 -1.4686 -0.8120 -0.1266
 5649SOL     OW28582   1.058   3.485   4.825 -0.4631 -0.4717  0.0764
 5649SOL    HW128583   1.100   3.431   4.891 -0.3203 -0.0768  0.3045
 5649SOL    HW228584   1.052   3.422   4.752 -1.7866 -0.2718 -0.0027
 5650SOL     OW28585   3.692   4.532   6.176 -0.1026 -0.1106 -0.0681
 5650SOL    HW128586   3.631   4.492   6.237  0.2392  0.4376  0.6478
 5650SOL    HW228587   3.732   4.451   6.144  0.5505 -0.1992  0.9709
 5651SOL     OW28588   1.341   1.057   4.324  0.1832  0.0198  0.2914
 5651SOL    HW128589   1.435   1.049   4.339 -0.0202 -2.1925  0.3357
 5651SOL    HW228590   1.313   1.137   4.368  2.3011  1.5509 -1.1937
 5652SOL     OW28591   1.496   0.197  17.549 -0.0803  0.4727 -0.3502
 5652SOL    HW128592   1.580   0.189  17.593 -0.9209 -3.1816  0.6628
 5652SOL    HW228593   1.447   0.124  17.589  0.8173 -0.6047 -1.2238
 5653SOL     OW28594   3.640   1.880   8.493 -0.4127 -0.5134 -0.8630
 5653SOL    HW128595   3.734   1.869   8.501 -0.1724  3.7301  2.3152
 5653SOL    HW228596   3.634   1.961   8.443 -0.9083 -0.9826 -1.5648
 5654SOL     OW28597   3.317   0.423   8.667  1.0216 -0.2471 -0.1672
 5654SOL    HW128598   3.270   0.343   8.694  0.3851  0.4614  0.8396
 5654SOL    HW228599   3.408   0.401   8.684 -0.2293 -2.9692  3.1254
 5655SOL     OW28600   2.233   0.247   4.161 -0.4274 -0.3039  0.2196
 5655SOL    HW128601   2.255   0.317   4.099  1.9775 -0.1667  1.2488
 5655SOL    HW228602   2.242   0.287   4.247 -1.4761 -2.3163  1.2602
 5656SOL     OW28603   4.416   2.514   4.177 -0.1888  0.4203 -0.3042
 5656SOL    HW128604   4.426   2.429   4.221  0.9491  1.6417  1.8230
 5656SOL    HW228605   4.322   2.513   4.158 -0.2315  0.0641 -0.0785
 5657SOL     OW28606   2.441   1.888   8.514 -0.7815  0.0193  0.4438
 5657SOL    HW128607   2.377   1.823   8.487  0.9935 -0.9905 -1.3906
 5657SOL    HW228608   2.374   1.954   8.532 -2.5610 -1.7836  0.3982
 5658SOL     OW28609   3.895   3.637   1.593  0.5924  0.0144  0.8246
 5658SOL    HW128610   3.859   3.717   1.554  0.5290 -0.5228 -0.2038
 5658SOL    HW228611   3.944   3.687   1.659  2.9180 -0.0171 -0.8672
 5659SOL     OW28612   0.963   2.919   0.013  0.6325 -0.1556 -0.1342
 5659SOL    HW128613   0.933   2.891   0.100  2.4966  1.8468  1.1323
 5659SOL    HW228614   0.967   2.835  17.705  1.1050 -1.2824  1.9397
 5660SOL     OW28615   3.531   1.369   8.540  0.1644 -0.0495  0.5446
 5660SOL    HW128616   3.462   1.408   8.594  1.0191  1.4994  0.5111
 5660SOL    HW228617   3.525   1.407   8.452 -2.4876  0.8556  1.1083
 5661SOL     OW28618   1.878   3.250   2.553  0.1874 -0.1834 -0.5091
 5661SOL    HW128619   1.900   3.323   2.611 -1.2482 -0.0618 -0.1225
 5661SOL    HW228620   1.959   3.199   2.543  0.0591 -0.8283  1.6251
 5662SOL     OW28621   0.108   3.186   5.905 -0.2206  0.1091 -0.1330
 5662SOL    HW128622   0.061   3.121   5.853 -0.4994  0.9019 -0.8763
 5662SOL    HW228623   0.103   3.266   5.853 -0.5819 -0.4544 -0.9499
 5663SOL     OW28624   2.751   3.573   1.157  0.3751  0.0587  0.3232
 5663SOL    HW128625   2.820   3.639   1.159  1.7627 -1.4070  0.7934
 5663SOL    HW228626   2.804   3.499   1.129 -0.7612  0.0086 -1.7281
 5664SOL     OW28627   1.933   0.979   8.949 -0.2231 -0.1641 -0.5126
 5664SOL    HW128628   1.870   1.047   8.970  1.7082  1.6967 -0.6981
 5664SOL    HW228629   2.007   1.021   8.905 -0.3284  0.1810 -0.3569
 5665SOL     OW28630   1.447   2.540  13.817 -0.1206 -0.3368  0.0219
 5665SOL    HW128631   1.501   2.465  13.842  0.2074  0.0921  0.6125
 5665SOL    HW228632   1.361   2.507  13.842 -0.7328  0.9960 -0.3461
 5666SOL     OW28633   2.845   2.056   0.585  0.0824 -0.3251 -1.2286
 5666SOL    HW128634   2.856   2.014   0.671  0.5071 -1.5938 -1.9171
 5666SOL    HW228635   2.937   2.045   0.562  0.0526 -2.4657 -0.2954
 5667SOL     OW28636   4.048   2.688   1.235 -0.0437 -0.1418  0.0120
 5667SOL    HW128637   4.031   2.780   1.258  0.3836  0.4531 -2.0651
 5667SOL    HW228638   3.965   2.669   1.192  1.6190 -3.9705 -1.4415
 5668SOL     OW28639   0.952   1.321   6.022 -0.0521 -0.0841  1.2150
 5668SOL    HW128640   1.025   1.270   6.058 -1.0318 -2.2054  0.2319
 5668SOL    HW228641   0.992   1.407   6.016  1.1917 -0.7397  0.0685
 5669SOL     OW28642   0.212   2.453   2.825  0.0259 -0.7353  0.4072
 5669SOL    HW128643   0.125   2.470   2.863  0.7120  3.5983  0.1286
 5669SOL    HW228644   0.183   2.455   2.734 -0.6784 -0.3299  0.6320
 5670SOL     OW28645   3.875   1.251   7.800 -0.0976  0.5117  0.3858
 5670SOL    HW128646   3.846   1.204   7.721  0.8589 -0.1202  0.4088
 5670SOL    HW228647   3.811   1.321   7.809  0.8721  1.1048  2.5516
 5671SOL     OW28648   3.543   2.809   7.482 -0.0892 -0.0538 -0.2613
 5671SOL    HW128649   3.455   2.772   7.472 -0.6197  1.2356 -0.3744
 5671SOL    HW228650   3.538   2.883   7.542 -1.0507 -0.0797 -0.3033
 5672SOL     OW28651   1.719   1.139  17.645  0.4963 -0.0186  0.6281
 5672SOL    HW128652   1.788   1.148  17.711 -1.4581  1.6254  2.4652
 5672SOL    HW228653   1.741   1.055  17.605 -0.8243 -0.1236  0.1409
 5673SOL     OW28654   0.516   3.788   4.675  0.0504  0.4225 -0.1293
 5673SOL    HW128655   0.517   3.852   4.746  2.4376 -0.9878  1.0896
 5673SOL    HW228656   0.560   3.843   4.609  1.7746 -0.8768 -0.0723
 5674SOL     OW28657   0.273   3.560   6.503 -0.6193  0.1396  0.2272
 5674SOL    HW128658   0.321   3.486   6.465 -1.1341  0.2992 -0.7252
 5674SOL    HW228659   0.224   3.512   6.570  1.0187 -0.8281  0.7445
 5675SOL     OW28660   2.096   2.626   8.599 -0.1818  0.7342 -0.8571
 5675SOL    HW128661   2.188   2.632   8.623 -1.2961  3.5220  2.7547
 5675SOL    HW228662   2.049   2.701   8.635  0.2118 -0.0032  1.2259
 5676SOL     OW28663   3.637   1.002  11.852 -0.0944 -0.4856 -0.2709
 5676SOL    HW128664   3.690   0.930  11.886  0.0228 -0.9279 -1.3960
 5676SOL    HW228665   3.568   1.006  11.918  2.1552 -0.2727  2.0437
 5677SOL     OW28666   0.660   1.125   2.355 -0.4764  0.3244 -0.3492
 5677SOL    HW128667   0.580   1.167   2.321 -1.1354  0.1053  0.9368
 5677SOL    HW228668   0.619   1.052   2.402 -0.8618  0.6235 -0.2188
 5678SOL     OW28669   3.562   3.779   9.868  0.4605  0.3249  0.0233
 5678SOL    HW128670   3.560   3.806   9.960 -2.6428  0.3479 -0.0347
 5678SOL    HW228671   3.474   3.742   9.861 -0.0371  1.9183 -2.0048
 5679SOL     OW28672   1.443   3.284   7.743 -0.1865  0.0961  0.0750
 5679SOL    HW128673   1.500   3.275   7.819 -1.1201  2.2665  1.0502
 5679SOL    HW228674   1.376   3.347   7.772  0.2072  0.7032 -0.3303
 5680SOL     OW28675   4.616   0.911  13.909 -0.2780  0.1728  0.1118
 5680SOL    HW128676   4.689   0.962  13.944 -0.1269  0.9382 -1.3343
 5680SOL    HW228677   4.553   0.929  13.978 -1.5162  1.0625 -1.2527
 5681SOL     OW28678   4.333   3.394   0.783  0.4579 -0.1807  0.7500
 5681SOL    HW128679   4.289   3.355   0.708 -0.8006  2.3857  0.1479
 5681SOL    HW228680   4.426   3.378   0.767  0.3044  0.1903 -0.5836
 5682SOL     OW28681   2.064   1.160  13.483 -0.1151  0.0371 -0.2361
 5682SOL    HW128682   1.975   1.194  13.483 -0.0355  0.2549  1.5189
 5682SOL    HW228683   2.103   1.243  13.510  1.2483 -1.0927  1.2606
 5683SOL     OW28684   1.294   3.266   5.194  0.1075 -0.3221 -0.0893
 5683SOL    HW128685   1.358   3.253   5.264  0.6318  2.5052 -0.0630
 5683SOL    HW228686   1.244   3.335   5.238 -2.1334 -2.3985  0.6392
 5684SOL     OW28687   0.149   3.192   4.272 -0.3403 -0.4533 -0.6945
 5684SOL    HW128688   0.198   3.271   4.248 -3.1072  1.2218 -0.7242
 5684SOL    HW228689   0.139   3.212   4.365  0.0213 -2.1788 -0.2734
 5685SOL     OW28690   0.460   0.510  13.800 -0.0635 -0.0567  0.1109
 5685SOL    HW128691   0.400   0.546  13.734 -0.3824 -1.0139 -0.1227
 5685SOL    HW228692   0.501   0.438  13.753  1.1082  0.9549 -0.4363
 5686SOL     OW28693   4.202   2.879   5.347 -0.1260  0.0023 -0.1321
 5686SOL    HW128694   4.206   2.827   5.266 -0.1726 -1.3432  0.7201
 5686SOL    HW228695   4.284   2.860   5.393 -0.2280  1.1257  0.4984
 5687SOL     OW28696   4.620   1.562   8.506 -0.0533  0.3334  0.2449
 5687SOL    HW128697   4.714   1.564   8.526  0.3433  0.7927 -1.6776
 5687SOL    HW228698   4.591   1.651   8.488  1.3551  0.7982  0.2900
 5688SOL     OW28699   4.067   3.077   3.334 -0.7270  0.0753  0.0306
 5688SOL    HW128700   4.021   3.003   3.374 -0.4082  0.2850  0.7695
 5688SOL    HW228701   4.071   3.133   3.411  0.6139  0.1242 -0.0822
 5689SOL     OW28702   0.220   3.684  15.095 -0.3860 -0.1206  0.3709
 5689SOL    HW128703   0.251   3.629  15.023 -1.3155  0.1483 -0.2179
 5689SOL    HW228704   0.287   3.753  15.087  1.8997 -2.5311 -1.3998
 5690SOL     OW28705   1.278   3.625   2.606 -0.3923  0.1422  0.1982
 5690SOL    HW128706   1.194   3.586   2.581  0.2193 -2.2589  1.9830
 5690SOL    HW228707   1.282   3.603   2.699 -1.8899 -2.3606 -0.3473
 5691SOL     OW28708   2.841   3.276   7.044 -0.7309 -0.1001 -0.2699
 5691SOL    HW128709   2.901   3.203   7.025 -1.1818 -1.0662  1.9475
 5691SOL    HW228710   2.877   3.360   7.017 -0.4008 -0.2634 -0.3419
 5692SOL     OW28711   1.285   4.117   8.212  0.2400 -0.6645 -0.5266
 5692SOL    HW128712   1.256   4.201   8.175  0.7597 -0.0519  0.4483
 5692SOL    HW228713   1.230   4.129   8.290  1.8963  1.0841  0.3603
 5693SOL     OW28714   0.504   3.355   8.329  0.8009  0.2948 -0.1742
 5693SOL    HW128715   0.571   3.386   8.268  0.6272  2.1959  0.6223
 5693SOL    HW228716   0.545   3.273   8.358 -0.6397  0.1411  1.3893
 5694SOL     OW28717   1.411   0.016   8.163 -0.0264 -0.1704 -0.1304
 5694SOL    HW128718   1.436   4.684   8.099 -1.3723 -1.5497  0.8049
 5694SOL    HW228719   1.318   0.015   8.140  0.1962 -2.0798 -0.9199
 5695SOL     OW28720   2.703   1.560   8.416  0.4210  0.1673 -0.5916
 5695SOL    HW128721   2.706   1.627   8.485 -1.3739 -0.5465  0.1873
 5695SOL    HW228722   2.790   1.522   8.405 -1.1053 -3.1639 -1.1997
 5696SOL     OW28723   2.102   4.086   8.477 -0.2094  0.0049  0.3682
 5696SOL    HW128724   2.018   4.077   8.431  0.4731 -2.1704 -0.4583
 5696SOL    HW228725   2.065   4.108   8.563 -1.3246  0.6800 -0.2903
 5697SOL     OW28726   4.332   2.569  10.373  1.0512  0.2964 -0.2218
 5697SOL    HW128727   4.309   2.494  10.319  0.9060 -0.6994  1.2025
 5697SOL    HW228728   4.358   2.534  10.458  3.1043  1.9228 -0.1863
 5698SOL     OW28729   1.177   3.139   0.270 -0.0507  0.8535  0.1141
 5698SOL    HW128730   1.220   3.134   0.185  3.7446 -1.6116  2.1872
 5698SOL    HW228731   1.191   3.229   0.299 -2.3240  1.5861 -1.0464
 5699SOL     OW28732   1.048   1.335  15.034 -0.5893 -0.2110 -0.6778
 5699SOL    HW128733   1.019   1.272  14.967 -0.0188  0.2376 -1.3425
 5699SOL    HW228734   1.046   1.274  15.109  0.0272 -1.0916 -1.3773
 5700SOL     OW28735   0.002   0.882   5.937 -0.4009  0.5823  0.0844
 5700SOL    HW128736   0.001   0.874   5.842 -0.8089  0.9007  0.0656
 5700SOL    HW228737   0.038   0.797   5.964 -1.1574  0.6816  1.4135
 5701SOL     OW28738   0.705   1.059   9.421 -0.3012 -0.2160 -0.0410
 5701SOL    HW128739   0.736   1.047   9.511  0.5724  1.6172 -0.0972
 5701SOL    HW228740   0.779   1.110   9.386 -0.1320 -1.3057 -1.2979
 5702SOL     OW28741   2.528   1.524   4.859 -0.4835  0.5879 -0.5000
 5702SOL    HW128742   2.557   1.616   4.857 -0.7752  0.6842 -0.2825
 5702SOL    HW228743   2.614   1.482   4.860 -1.5275 -1.5333 -0.0554
 5703SOL     OW28744   2.974   0.548  13.043  0.0878  0.1219  0.0168
 5703SOL    HW128745   3.015   0.634  13.031  1.5187 -0.7684 -1.4124
 5703SOL    HW228746   2.953   0.559  13.136 -2.4238  0.4084 -0.5906
 5704SOL     OW28747   1.536   4.235  16.371  0.1692  0.3558 -0.0010
 5704SOL    HW128748   1.589   4.293  16.427 -0.5711 -0.0544  1.1218
 5704SOL    HW228749   1.596   4.188  16.314  0.7292 -1.7243  2.3055
 5705SOL     OW28750   3.418   2.126   7.768 -0.4608 -0.0127  0.4821
 5705SOL    HW128751   3.353   2.086   7.826  1.3949 -0.9065  1.9268
 5705SOL    HW228752   3.385   2.104   7.681  2.5761 -2.7878  0.0556
 5706SOL     OW28753   0.301   3.738   1.684  0.1752 -0.5128 -0.9877
 5706SOL    HW128754   0.382   3.699   1.717 -0.3534  0.5214  1.4814
 5706SOL    HW228755   0.330   3.826   1.657 -0.4815  0.0082  0.0041
 5707SOL     OW28756   0.171   1.341   2.300 -0.5067 -0.1324  0.2188
 5707SOL    HW128757   0.143   1.329   2.209 -0.9679  0.8188  0.2364
 5707SOL    HW228758   0.172   1.436   2.303  1.5751 -0.1508  0.0744
 5708SOL     OW28759   3.686   2.586  13.435 -0.5839 -0.3536  0.6448
 5708SOL    HW128760   3.617   2.652  13.424 -0.0906 -0.1966 -1.5880
 5708SOL    HW228761   3.739   2.637  13.496  0.3999 -1.0097  0.3299
 5709SOL     OW28762   0.669   1.815   3.009  0.0254 -0.0220 -0.0648
 5709SOL    HW128763   0.601   1.840   2.946  0.8589  0.2427 -0.8533
 5709SOL    HW228764   0.621   1.749   3.059  0.4707 -0.3862 -0.1172
 5710SOL     OW28765   1.587   0.846   3.164 -0.1747 -0.1471 -0.6725
 5710SOL    HW128766   1.561   0.755   3.149  1.8668 -1.0307  1.1087
 5710SOL    HW228767   1.504   0.888   3.139 -0.2933 -0.6473 -1.1240
 5711SOL     OW28768   2.233   2.573   8.306  0.0908 -0.3129 -0.7898
 5711SOL    HW128769   2.309   2.516   8.295 -0.3974 -0.8504 -1.4399
 5711SOL    HW228770   2.163   2.517   8.340  2.2687 -1.5538  1.6614
 5712SOL     OW28771   1.469   0.904   0.120 -0.4196  0.8415 -0.3880
 5712SOL    HW128772   1.467   0.990   0.162  1.3196  0.2859  0.8364
 5712SOL    HW228773   1.376   0.883   0.131 -0.6590  2.1948  0.2552
 5713SOL     OW28774   3.136   1.233   2.492 -0.3578  0.2027  0.2884
 5713SOL    HW128775   3.208   1.279   2.449 -1.1358  0.9324 -0.2331
 5713SOL    HW228776   3.187   1.214   2.571 -2.4831  2.5383  2.2209
 5714SOL     OW28777   1.864   3.026  10.323 -0.7243  0.1532 -0.1912
 5714SOL    HW128778   1.806   3.093  10.286 -1.7956  0.8899  2.8264
 5714SOL    HW228779   1.800   2.965  10.361 -0.9710  0.0450 -0.7741
 5715SOL     OW28780   0.721   3.695   7.783  0.5229 -0.0695  0.0275
 5715SOL    HW128781   0.667   3.767   7.750  0.2404  0.8156  2.4002
 5715SOL    HW228782   0.659   3.661   7.847 -0.1588 -0.7809 -1.0061
 5716SOL     OW28783   2.917   3.542   7.794 -0.1480  0.6317  0.3379
 5716SOL    HW128784   2.891   3.620   7.747  1.1319 -0.0470 -1.5127
 5716SOL    HW228785   2.976   3.512   7.724  2.6935  0.0699  2.9774
 5717SOL     OW28786   0.069   2.731   2.163  0.0582 -0.7175  0.2043
 5717SOL    HW128787   0.102   2.693   2.081 -0.1924 -1.7745  0.5957
 5717SOL    HW228788   4.729   2.672   2.174 -0.3919 -0.6169 -2.2645
 5718SOL     OW28789   3.535   4.176   5.432  0.9140  0.1392 -0.1041
 5718SOL    HW128790   3.545   4.237   5.359 -0.5928 -0.0868 -0.5132
 5718SOL    HW228791   3.463   4.218   5.479 -0.5878 -1.7167 -0.7370
 5719SOL     OW28792   2.470   0.802   3.978 -0.5098  0.2630  0.4600
 5719SOL    HW128793   2.404   0.830   4.042  0.8314  0.8434  1.5842
 5719SOL    HW228794   2.517   0.885   3.967 -1.2588  0.5102 -0.8403
 5720SOL     OW28795   4.699   2.178   5.673  0.2553  0.0291  0.0778
 5720SOL    HW128796   0.015   2.196   5.751 -3.1668  0.0854  2.3129
 5720SOL    HW228797   4.634   2.247   5.661 -2.3742 -2.5195 -0.3733
 5721SOL     OW28798   3.445   2.171   0.193 -0.3037  0.2513 -0.2336
 5721SOL    HW128799   3.531   2.194   0.158  0.4069 -3.1198 -0.6561
 5721SOL    HW228800   3.451   2.076   0.195  0.5719  0.2762 -1.7474
 5722SOL     OW28801   0.311   3.056   8.164 -0.5575 -0.2842 -0.4572
 5722SOL    HW128802   0.402   3.082   8.177  0.2780 -2.2919 -2.2248
 5722SOL    HW228803   0.326   2.995   8.091  1.6882 -2.0613  1.4997
 5723SOL     OW28804   3.524   1.380  12.988 -0.0785 -0.1505 -0.0348
 5723SOL    HW128805   3.532   1.447  13.057 -0.4619 -0.2567  0.1130
 5723SOL    HW228806   3.596   1.324  13.017 -1.3704 -2.0719 -0.5143
 5724SOL     OW28807   2.269   3.898   1.567 -0.5544 -0.2595 -0.2800
 5724SOL    HW128808   2.248   3.865   1.654  1.1329 -0.4719  0.0539
 5724SOL    HW228809   2.187   3.937   1.538 -1.6120 -1.2439  1.3992
 5725SOL     OW28810   2.601   4.590   3.781 -0.3191 -0.1667 -0.0981
 5725SOL    HW128811   2.584   4.498   3.761  0.6632 -0.6145  1.1479
 5725SOL    HW228812   2.516   4.629   3.758  0.3615  3.0404  2.7345
 5726SOL     OW28813   3.556   3.280  17.568  0.5628 -0.5055  0.1241
 5726SOL    HW128814   3.478   3.227  17.553  0.3322  0.0102 -0.5296
 5726SOL    HW228815   3.524   3.351  17.512  2.0074  1.3499  1.6629
 5727SOL     OW28816   2.819   0.212  12.827  0.1995 -0.1654  0.0139
 5727SOL    HW128817   2.746   0.247  12.775  0.4377 -0.5031 -0.5459
 5727SOL    HW228818   2.798   0.256  12.909  1.0654 -0.1075  0.2057
 5728SOL     OW28819   1.590   4.680   4.009  0.2884  0.2121 -0.4124
 5728SOL    HW128820   1.522   4.631   4.056  0.0576 -0.4007 -1.3732
 5728SOL    HW228821   1.550   4.688   3.922  0.5519  2.2430 -0.3288
 5729SOL     OW28822   3.523   2.069   5.694  0.3012  0.0277 -0.0170
 5729SOL    HW128823   3.504   1.987   5.740  0.3668 -0.2247 -0.4372
 5729SOL    HW228824   3.434   2.101   5.682  0.1071  0.0965  1.6592
 5730SOL     OW28825   1.685   3.661   1.618  0.2126  0.3058  0.3977
 5730SOL    HW128826   1.649   3.625   1.699 -0.9170 -0.9208 -0.6452
 5730SOL    HW228827   1.621   3.635   1.552  0.1432  0.2087  0.5024
 5731SOL     OW28828   0.525   2.586  13.166 -0.5112 -0.5883  0.1971
 5731SOL    HW128829   0.602   2.617  13.119  0.9881  0.2444  3.1796
 5731SOL    HW228830   0.469   2.567  13.092 -2.7300  0.9963  1.4683
 5732SOL     OW28831   1.573   1.245   8.181 -0.1607  0.1320  0.0198
 5732SOL    HW128832   1.566   1.163   8.131 -0.8005  0.0649  0.2286
 5732SOL    HW228833   1.658   1.236   8.224 -1.3967 -3.0084  1.8061
 5733SOL     OW28834   1.932   3.310   6.377 -0.0954 -0.2948 -0.4641
 5733SOL    HW128835   1.922   3.218   6.403  0.7032 -0.3708 -0.4424
 5733SOL    HW228836   2.015   3.327   6.420  0.0650  1.0814 -1.3291
 5734SOL     OW28837   3.615   1.938   7.032 -0.1687 -0.1734 -0.1840
 5734SOL    HW128838   3.601   1.862   7.089  1.1229 -1.3426 -1.4358
 5734SOL    HW228839   3.564   1.918   6.954  0.8110 -1.0623 -0.5943
 5735SOL     OW28840   2.983   1.838  11.894 -0.0958 -0.1762 -0.8458
 5735SOL    HW128841   2.900   1.853  11.939  0.5212 -0.5978  0.4347
 5735SOL    HW228842   3.042   1.832  11.969 -0.0331  2.1801 -0.7143
 5736SOL     OW28843   4.009   2.760   8.968 -0.1893  0.7852 -0.2696
 5736SOL    HW128844   4.001   2.698   8.895 -1.7561 -0.5618  1.0193
 5736SOL    HW228845   4.024   2.845   8.927  2.4772 -0.0114 -0.9827
 5737SOL     OW28846   4.576   3.632   2.659 -0.2979  0.4517  0.0840
 5737SOL    HW128847   4.578   3.615   2.565 -0.7818 -1.0929  0.3533
 5737SOL    HW228848   4.495   3.681   2.671 -1.1255 -1.1077  1.0154
 5738SOL     OW28849   2.414   0.790   2.566  0.6003  0.1701 -0.0856
 5738SOL    HW128850   2.396   0.873   2.523 -0.2952  1.1126  2.1263
 5738SOL    HW228851   2.355   0.794   2.641  0.3816  0.1769 -0.2585
 5739SOL     OW28852   2.587   2.258  14.561 -0.4452  0.3270 -0.0790
 5739SOL    HW128853   2.664   2.228  14.513 -1.4331 -1.1382 -0.7619
 5739SOL    HW228854   2.528   2.219  14.497 -2.1556  1.7088  0.6646
 5740SOL     OW28855   0.050   1.094   5.096 -0.5688 -0.1789  0.0881
 5740SOL    HW128856   0.072   1.085   5.003 -0.4056 -1.4086  0.2449
 5740SOL    HW228857   0.023   1.186   5.098 -2.9406 -0.8532 -2.0088
 5741SOL     OW28858   2.804   3.440  12.171 -0.2450  0.0410  0.2515
 5741SOL    HW128859   2.850   3.511  12.216 -1.1315  0.0503  1.1512
 5741SOL    HW228860   2.845   3.444  12.084  1.7792 -2.5126  1.0701
 5742SOL     OW28861   4.205   1.887   5.825 -0.3479 -0.7051 -1.1147
 5742SOL    HW128862   4.270   1.865   5.892  0.1982  0.9183 -1.1157
 5742SOL    HW228863   4.177   1.970   5.864  3.6592 -0.4148  1.0647
 5743SOL     OW28864   2.219   1.245   5.268  0.3320  0.3123  0.1610
 5743SOL    HW128865   2.265   1.276   5.190  0.1079 -1.1727 -0.5709
 5743SOL    HW228866   2.171   1.326   5.282  1.8590  0.9430  1.7706
 5744SOL     OW28867   2.137   0.254   3.490 -0.1550 -0.3761 -0.0256
 5744SOL    HW128868   2.091   0.250   3.574  0.6171  1.3776  0.4707
 5744SOL    HW228869   2.217   0.204   3.504 -0.6927 -1.0816  0.5522
 5745SOL     OW28870   3.137   2.859  12.788 -0.2165  0.5990  0.0491
 5745SOL    HW128871   3.165   2.821  12.871  2.8216  0.7563 -0.8691
 5745SOL    HW228872   3.069   2.916  12.824 -0.7969  0.2306 -0.4611
 5746SOL     OW28873   4.185   0.615   5.689  0.5403 -0.3958 -0.5722
 5746SOL    HW128874   4.211   0.699   5.728 -1.2557 -0.1867  0.1963
 5746SOL    HW228875   4.224   0.621   5.602  0.7330  0.8759 -0.3966
 5747SOL     OW28876   0.515   3.001   7.067 -0.4326 -0.0579 -0.6044
 5747SOL    HW128877   0.489   2.913   7.096  2.1060 -1.2080 -1.7819
 5747SOL    HW228878   0.561   2.975   6.987 -0.8116 -4.2609  0.5211
 5748SOL     OW28879   2.221   4.152   1.910 -0.4871 -0.2267 -0.1853
 5748SOL    HW128880   2.299   4.159   1.855 -1.5241 -0.4982 -1.6838
 5748SOL    HW228881   2.231   4.224   1.972  1.8778  0.8930 -1.8581
 5749SOL     OW28882   1.339   0.450   9.211 -0.0667 -0.3972  0.5587
 5749SOL    HW128883   1.353   0.532   9.258 -1.0198  0.2138 -0.2326
 5749SOL    HW228884   1.267   0.465   9.149  1.4256 -1.3826 -1.4199
 5750SOL     OW28885   3.462   4.284   6.145  0.2635  0.0462  0.1246
 5750SOL    HW128886   3.481   4.328   6.228 -0.2289 -1.3713  0.9743
 5750SOL    HW228887   3.513   4.203   6.145  0.2892  0.0612 -0.3283
 5751SOL     OW28888   0.792   3.800   1.082  0.8469  0.5476  0.4159
 5751SOL    HW128889   0.843   3.850   1.145  0.7274  1.6425 -0.3469
 5751SOL    HW228890   0.859   3.764   1.024  0.7542  0.3873  0.4069
 5752SOL     OW28891   1.436   3.816   1.186  0.3316 -0.2410  1.0746
 5752SOL    HW128892   1.456   3.906   1.160  1.1940 -0.7819 -0.1013
 5752SOL    HW228893   1.441   3.781   1.097 -0.2746 -0.4566  1.1251
 5753SOL     OW28894   1.451   1.940   1.441 -0.3574 -0.0493  0.2577
 5753SOL    HW128895   1.489   1.975   1.361 -1.8070  0.5684 -0.1601
 5753SOL    HW228896   1.375   1.996   1.458  0.8137  2.0402 -1.4216
 5754SOL     OW28897   1.873   0.969  16.547  0.1806  0.5975  0.2096
 5754SOL    HW128898   1.904   1.020  16.473  0.1354  1.1679  0.5884
 5754SOL    HW228899   1.922   0.886  16.542  1.1310  1.2506 -1.3387
 5755SOL     OW28900   1.829   2.268  15.235  0.5258 -0.8816  0.1658
 5755SOL    HW128901   1.800   2.356  15.261  0.4696 -0.2667 -2.0022
 5755SOL    HW228902   1.811   2.214  15.312  1.5023 -0.9148  0.3715
 5756SOL     OW28903   1.734   4.345  12.914 -0.4223 -0.3038  0.0830
 5756SOL    HW128904   1.710   4.422  12.965  0.4911  0.4972 -0.6698
 5756SOL    HW228905   1.647   4.310  12.897 -0.5031 -0.4410  0.7849
 5757SOL     OW28906   1.163   3.172  11.626 -0.7142  0.0942  0.0102
 5757SOL    HW128907   1.208   3.236  11.570 -3.2893  1.7256 -0.2131
 5757SOL    HW228908   1.072   3.183  11.599 -0.4624 -0.9060 -1.2375
 5758SOL     OW28909   4.658   0.007   5.292  0.0114 -1.0119 -0.3631
 5758SOL    HW128910   4.715   4.732   5.215  0.9513 -0.3676  0.2466
 5758SOL    HW228911   4.576   4.695   5.275  0.5502 -2.2070  0.3373
 5759SOL     OW28912   2.417   3.586   5.225  0.2963  0.1626 -0.2571
 5759SOL    HW128913   2.363   3.510   5.204  2.7836 -1.6860  0.0010
 5759SOL    HW228914   2.348   3.652   5.215 -1.5696 -1.6038  1.1014
 5760SOL     OW28915   2.815   1.811   9.328 -0.2896 -0.0630 -0.1582
 5760SOL    HW128916   2.779   1.858   9.403 -2.5692 -0.7559 -0.8219
 5760SOL    HW228917   2.829   1.874   9.257  0.8464 -0.3335 -0.1666
 5761SOL     OW28918   0.581   3.540   4.598  0.5164 -0.0158  0.3664
 5761SOL    HW128919   0.560   3.622   4.643 -0.1345 -1.7529  3.2051
 5761SOL    HW228920   0.491   3.517   4.576  1.0846  0.2911 -2.3236
 5762SOL     OW28921   1.737   4.145  16.202 -0.1440 -0.1386  0.1180
 5762SOL    HW128922   1.796   4.174  16.133  0.1367  2.6236  1.5165
 5762SOL    HW228923   1.685   4.079  16.156  0.8785  0.3149 -1.6934
 5763SOL     OW28924   1.788   2.783  10.803 -0.7951 -0.1730 -0.0268
 5763SOL    HW128925   1.822   2.845  10.738 -1.8259  1.6236  1.1450
 5763SOL    HW228926   1.698   2.812  10.810  0.0501  2.4504 -0.1388
 5764SOL     OW28927   4.348   4.721   8.603 -0.1600 -0.5090  0.5762
 5764SOL    HW128928   4.253   4.722   8.612 -0.4819 -0.7005 -2.8548
 5764SOL    HW228929   4.358   4.656   8.533  1.3479  0.2027  0.1320
 5765SOL     OW28930   0.558   3.220   0.706 -0.0098 -0.0004  0.1261
 5765SOL    HW128931   0.518   3.161   0.642  1.0083  0.0410 -0.5552
 5765SOL    HW228932   0.646   3.233   0.670 -1.0152  0.2435 -2.2676
 5766SOL     OW28933   0.271   4.175   5.612  0.4924  0.0154 -0.0428
 5766SOL    HW128934   0.235   4.089   5.637  0.6291 -0.5546 -1.8412
 5766SOL    HW228935   0.355   4.140   5.582  0.2544  0.1987 -0.8996
 5767SOL     OW28936   3.083   3.446   8.000  0.5058  0.8361  0.3703
 5767SOL    HW128937   3.020   3.464   7.930 -0.1185 -0.0625  0.6971
 5767SOL    HW228938   3.166   3.479   7.965  0.7606 -2.0834 -1.7396
 5768SOL     OW28939   3.533   2.304   4.933  0.2514  0.0818 -0.2554
 5768SOL    HW128940   3.442   2.332   4.935  0.2059 -0.1733  2.2834
 5768SOL    HW228941   3.530   2.242   5.006 -0.5062  0.0302 -0.3378
 5769SOL     OW28942   0.658   2.717   8.829  0.2706  0.9314 -0.5964
 5769SOL    HW128943   0.696   2.804   8.819  3.0139  0.0259  1.8528
 5769SOL    HW228944   0.696   2.697   8.914  0.7420  1.5783 -0.6603
 5770SOL     OW28945   2.398   1.669  16.792 -0.2062  0.2910 -0.3344
 5770SOL    HW128946   2.489   1.654  16.816  0.7498  4.0942 -1.4658
 5770SOL    HW228947   2.357   1.583  16.791 -1.8938  1.0869 -0.1934
 5771SOL     OW28948   1.918   1.644  13.691 -0.2978 -0.3547 -0.4510
 5771SOL    HW128949   1.915   1.557  13.652 -0.0541 -0.7316  0.3661
 5771SOL    HW228950   1.975   1.642  13.769  0.4456  1.7295 -0.9505
 5772SOL     OW28951   2.344   4.501   3.440 -0.6595  0.4793  0.2807
 5772SOL    HW128952   2.316   4.563   3.373 -0.1820  0.6391  0.2281
 5772SOL    HW228953   2.276   4.506   3.507 -2.0998 -0.2699 -1.1216
 5773SOL     OW28954   4.012   3.060   4.816  0.0071  0.4000 -0.2008
 5773SOL    HW128955   4.048   3.149   4.826  1.5849 -0.3750  0.9362
 5773SOL    HW228956   3.938   3.058   4.877 -1.1194 -0.0998 -1.6017
 5774SOL     OW28957   2.760   2.263   5.163  0.2782  0.1239 -0.5281
 5774SOL    HW128958   2.670   2.289   5.185 -0.2116 -1.4392 -0.6981
 5774SOL    HW228959   2.774   2.183   5.214  0.8365  0.2234 -0.5222
 5775SOL     OW28960   2.149   4.364   8.914 -0.4647 -0.0081 -0.3047
 5775SOL    HW128961   2.130   4.293   8.852  0.3058 -0.5651  0.0930
 5775SOL    HW228962   2.211   4.407   8.856 -1.1603 -0.6985 -1.5594
 5776SOL     OW28963   3.642   2.447   9.242 -0.0037  0.5014  0.0740
 5776SOL    HW128964   3.701   2.407   9.178 -1.6139 -1.0978 -0.3867
 5776SOL    HW228965   3.569   2.386   9.254  0.0872 -0.0551 -2.2668
 5777SOL     OW28966   1.944   4.318  10.047  0.5264  0.2735 -0.3339
 5777SOL    HW128967   1.917   4.408  10.068  1.3557  0.8121 -1.5568
 5777SOL    HW228968   1.990   4.292  10.127  0.7614 -3.0526 -1.5800
 5778SOL     OW28969   1.039   3.376   4.119  0.1153 -0.0895  0.0751
 5778SOL    HW128970   1.042   3.463   4.158  0.9306 -1.2249  2.5843
 5778SOL    HW228971   1.018   3.318   4.193 -1.0599  1.0759  0.6662
 5779SOL     OW28972   0.178   2.382   5.132 -0.0433 -0.6396 -0.0068
 5779SOL    HW128973   0.142   2.332   5.058 -3.4935  1.9083 -0.0739
 5779SOL    HW228974   0.141   2.345   5.212  1.1597  0.3849  1.0139
 5780SOL     OW28975   3.291   2.615  15.066  0.2620  0.1133  0.0536
 5780SOL    HW128976   3.377   2.649  15.041 -0.5847  2.0007 -0.3430
 5780SOL    HW228977   3.311   2.583  15.154 -1.0351  0.1035  0.3439
 5781SOL     OW28978   0.436   2.984  16.012 -0.1210 -0.1688  0.0768
 5781SOL    HW128979   0.417   3.050  16.079 -1.4550 -1.9389  1.4576
 5781SOL    HW228980   0.427   3.036  15.932 -0.6765 -1.1641 -0.5054
 5782SOL     OW28981   3.348   3.554   2.492 -0.0460 -0.3768  0.1428
 5782SOL    HW128982   3.318   3.463   2.496 -0.1517 -0.4475 -2.0673
 5782SOL    HW228983   3.293   3.569   2.415 -1.0959  1.7642  1.2880
 5783SOL     OW28984   3.669   1.625  12.900 -0.4191 -0.0232  0.0140
 5783SOL    HW128985   3.732   1.599  12.967 -1.8942 -2.0568  0.6234
 5783SOL    HW228986   3.658   1.719  12.916  1.8162  0.3870 -0.9118
 5784SOL     OW28987   2.596   3.268   6.980  0.7909 -0.0178  0.1516
 5784SOL    HW128988   2.569   3.204   7.046  1.6305 -1.1911 -0.6480
 5784SOL    HW228989   2.688   3.280   7.003  0.7497 -1.1122  0.9089
 5785SOL     OW28990   0.872   3.536   7.390  0.0748 -0.0356  0.1582
 5785SOL    HW128991   0.950   3.586   7.415  0.1503  0.3175 -0.8019
 5785SOL    HW228992   0.855   3.500   7.477  0.7605 -0.4120  0.1411
 5786SOL     OW28993   2.569   2.018   0.777  0.3167 -0.0121 -0.2391
 5786SOL    HW128994   2.573   2.057   0.690  1.2225 -0.7023 -0.5116
 5786SOL    HW228995   2.661   2.022   0.803  1.0402 -1.9594 -2.4773
 5787SOL     OW28996   2.197   0.395   6.728 -0.7649  0.4189  0.1164
 5787SOL    HW128997   2.205   0.389   6.824  1.1782 -0.3577 -0.0885
 5787SOL    HW228998   2.157   0.481   6.716  0.1696  0.7111 -0.9171
 5788SOL     OW28999   1.319   0.652   5.206  0.4050  0.4196  0.1770
 5788SOL    HW129000   1.234   0.666   5.165  1.3999  1.1506 -1.6519
 5788SOL    HW229001   1.325   0.739   5.246 -1.3787 -0.4486  2.3487
 5789SOL     OW29002   3.852   4.227   5.292 -0.4488  0.1846 -0.4530
 5789SOL    HW129003   3.940   4.237   5.255  0.4093 -0.3308  1.3978
 5789SOL    HW229004   3.836   4.321   5.292  1.4201  0.5126  0.0920
 5790SOL     OW29005   4.282   2.254   3.958 -0.8808 -0.3128  0.1353
 5790SOL    HW129006   4.371   2.290   3.960 -0.7928 -0.5403  0.2959
 5790SOL    HW229007   4.266   2.241   4.051  0.4402 -1.0169  0.2592
 5791SOL     OW29008   2.839   3.902  12.171 -0.0278  0.3322  0.0781
 5791SOL    HW129009   2.898   3.851  12.115 -0.9276 -1.3089  0.5971
 5791SOL    HW229010   2.834   3.845  12.248  0.0900  0.8529  0.4720
 5792SOL     OW29011   2.899   0.653   9.249 -0.6163  0.1435 -0.2127
 5792SOL    HW129012   2.939   0.711   9.314 -1.9306  1.6145 -0.7583
 5792SOL    HW229013   2.855   0.711   9.188  1.5572  1.1114 -0.8477
 5793SOL     OW29014   3.285   4.345   1.389  0.4605  0.3124 -0.8761
 5793SOL    HW129015   3.303   4.311   1.301 -0.4261 -1.7277 -0.2831
 5793SOL    HW229016   3.342   4.290   1.444  0.4534  1.5870  0.3915
 5794SOL     OW29017   0.195   2.725  17.104 -0.6205  0.3306  0.4749
 5794SOL    HW129018   0.222   2.814  17.126 -2.7832  1.4598 -1.3820
 5794SOL    HW229019   0.233   2.710  17.017 -2.3475  2.0478 -0.5710
 5795SOL     OW29020   3.264   1.105   4.970  0.2396 -0.0124 -0.4135
 5795SOL    HW129021   3.288   1.176   4.912  1.5970 -0.3442 -0.2529
 5795SOL    HW229022   3.339   1.103   5.030 -0.8050  2.4583  0.9694
 5796SOL     OW29023   2.721   3.180   3.123 -0.5585 -0.1534 -0.3315
 5796SOL    HW129024   2.795   3.209   3.176 -1.7954 -0.6290  1.6290
 5796SOL    HW229025   2.729   3.240   3.048  1.3354 -0.3370 -0.2740
 5797SOL     OW29026   2.008   3.423   4.638 -0.1084  0.2460 -1.0386
 5797SOL    HW129027   2.016   3.469   4.555  0.0367 -1.5847 -2.0422
 5797SOL    HW229028   1.920   3.435   4.673  0.2423 -1.5522  0.5133
 5798SOL     OW29029   2.341   3.102   1.590  0.6953  0.0679 -0.0757
 5798SOL    HW129030   2.292   3.123   1.670 -1.3510 -0.3786 -1.2029
 5798SOL    HW229031   2.364   3.190   1.563  1.5479  0.4565  1.9404
 5799SOL     OW29032   0.128   1.722  15.995 -0.0653 -0.6788 -1.0101
 5799SOL    HW129033   0.051   1.679  15.957  0.5783 -0.4922 -2.5492
 5799SOL    HW229034   0.170   1.648  16.037 -2.7463  0.2928  3.3638
 5800SOL     OW29035   1.924   1.742  16.769  0.3053  0.1948 -0.3145
 5800SOL    HW129036   1.888   1.677  16.830  1.0615 -0.3064 -0.4083
 5800SOL    HW229037   1.994   1.781  16.821 -0.4896 -1.8228  2.2947
 5801SOL     OW29038   2.065   2.271   5.305  0.0636 -0.3801  0.3718
 5801SOL    HW129039   2.066   2.361   5.335 -0.0300 -0.3681  0.3405
 5801SOL    HW229040   2.158   2.251   5.297 -0.5381 -3.0587 -0.0307
 5802SOL     OW29041   1.847   2.520   6.727  0.1089  0.5808 -0.0805
 5802SOL    HW129042   1.788   2.459   6.682  0.9697 -0.6570  0.4839
 5802SOL    HW229043   1.861   2.473   6.809 -0.5206  1.0671  0.3061
 5803SOL     OW29044   2.567   1.460   5.557 -0.5715 -0.3622  0.0881
 5803SOL    HW129045   2.583   1.552   5.576  1.0684 -0.4236 -1.0695
 5803SOL    HW229046   2.471   1.458   5.554 -0.4759 -0.3891 -2.8817
 5804SOL     OW29047   3.422   3.483  17.439  0.3517  0.4316  0.2656
 5804SOL    HW129048   3.330   3.458  17.435  0.9495 -1.9941  1.5275
 5804SOL    HW229049   3.447   3.485  17.347 -1.9450  1.0438 -0.3292
 5805SOL     OW29050   0.961   0.605   2.653  0.1764  0.4630  0.3940
 5805SOL    HW129051   1.057   0.601   2.650  0.0684 -1.1566 -0.8406
 5805SOL    HW229052   0.947   0.577   2.562 -0.1470 -1.8920  1.1736
 5806SOL     OW29053   2.022   0.752   6.137  0.2780 -0.7537 -0.3093
 5806SOL    HW129054   2.065   0.682   6.187  1.7705  0.0376 -0.4927
 5806SOL    HW229055   1.996   0.698   6.062 -0.9807  0.9173 -1.0524
 5807SOL     OW29056   4.382   0.997  12.986  0.4400 -0.1391 -0.8024
 5807SOL    HW129057   4.365   1.089  12.967  1.5185  0.5414  1.5342
 5807SOL    HW229058   4.335   0.987  13.069  0.7464 -0.7906 -0.7042
 5808SOL     OW29059   1.970   4.639  14.607  0.4483  0.2091 -0.5105
 5808SOL    HW129060   1.896   4.698  14.616  0.3766  0.1386 -0.6289
 5808SOL    HW229061   1.931   4.561  14.566 -1.2258  0.3682  0.7897
 5809SOL     OW29062   0.369   1.778   9.857 -0.4117  0.2082  0.4399
 5809SOL    HW129063   0.280   1.744   9.854 -0.1668 -0.3312 -0.5597
 5809SOL    HW229064   0.360   1.860   9.906  2.1613  0.0618  1.2041
 5810SOL     OW29065   1.021   3.297   0.020  0.1665  0.2592 -0.5745
 5810SOL    HW129066   1.114   3.309   0.038  0.0262 -0.9359  0.8978
 5810SOL    HW229067   1.006   3.387  17.732  0.3633  0.0169 -1.5157
 5811SOL     OW29068   2.927   1.619  16.425 -0.0815 -0.2375  0.0703
 5811SOL    HW129069   2.952   1.527  16.419 -1.5422 -0.6956  1.0511
 5811SOL    HW229070   2.982   1.646  16.351  0.8175  1.4656  1.3576
 5812SOL     OW29071   3.962   4.546   4.802 -0.0894 -0.0957  0.2036
 5812SOL    HW129072   3.955   4.529   4.896  0.0006  3.2572  0.8083
 5812SOL    HW229073   3.956   4.457   4.766  1.3521 -0.4401  0.7822
 5813SOL     OW29074   3.203   4.403   6.014 -0.7229 -0.1514 -0.6158
 5813SOL    HW129075   3.203   4.497   5.995  0.9064 -0.0108  0.1282
 5813SOL    HW229076   3.288   4.397   6.057 -1.3016 -1.2864  0.3858
 5814SOL     OW29077   2.598   2.487   6.451 -0.3642  0.4682 -0.1679
 5814SOL    HW129078   2.525   2.425   6.442 -1.2748  1.6030 -0.6212
 5814SOL    HW229079   2.554   2.572   6.451 -0.6580  0.3179  0.1284
 5815SOL     OW29080   4.119   2.722   6.631  0.0224 -0.5122  0.3815
 5815SOL    HW129081   4.207   2.686   6.625  1.6736  3.6816 -0.3436
 5815SOL    HW229082   4.082   2.666   6.562  0.0598  0.4162 -0.3937
 5816SOL     OW29083   4.449   0.884   8.820  0.1795 -0.2502 -0.5614
 5816SOL    HW129084   4.462   0.979   8.819  0.0030 -0.2469 -1.8847
 5816SOL    HW229085   4.510   0.850   8.886 -1.6548  2.1377  2.3447
 5817SOL     OW29086   1.384   1.152   2.116 -0.1941  0.2278 -0.2006
 5817SOL    HW129087   1.315   1.093   2.084 -0.4563 -0.1575  1.0698
 5817SOL    HW229088   1.342   1.237   2.114 -2.5587 -0.8510  2.7573
 5818SOL     OW29089   2.213   3.322   0.402  0.1191  0.9093  0.0228
 5818SOL    HW129090   2.164   3.274   0.335  0.3777 -1.7037  1.6973
 5818SOL    HW229091   2.138   3.343   0.458 -0.4145 -0.4382 -0.1717
 5819SOL     OW29092   1.815   4.205   2.381 -0.2566 -0.0614  0.0305
 5819SOL    HW129093   1.826   4.193   2.475 -1.9036  0.5399  0.2924
 5819SOL    HW229094   1.902   4.189   2.343 -0.7831 -0.1444 -1.1395
 5820SOL     OW29095   1.825   2.106   4.161  0.2979 -0.3784 -0.3737
 5820SOL    HW129096   1.912   2.067   4.158  0.4767 -0.0170  0.0670
 5820SOL    HW229097   1.816   2.149   4.077 -2.8911 -1.1609 -0.4576
 5821SOL     OW29098   1.361   2.336   1.986  0.3944 -0.3420  0.2447
 5821SOL    HW129099   1.401   2.259   2.026 -1.3519 -0.9166  0.9063
 5821SOL    HW229100   1.349   2.303   1.896 -1.5934  2.1259 -0.4164
 5822SOL     OW29101   3.862   1.058   6.490  0.1482  0.1484 -0.5401
 5822SOL    HW129102   3.907   1.093   6.413  2.1088  1.2246  1.1082
 5822SOL    HW229103   3.776   1.101   6.488  0.6769  1.1927 -0.3522
 5823SOL     OW29104   2.758   2.503   2.035 -0.1903 -0.3258  0.3963
 5823SOL    HW129105   2.743   2.522   1.942  0.9715 -0.0701  0.2675
 5823SOL    HW229106   2.840   2.455   2.034 -0.0123 -0.0235  0.5778
 5824SOL     OW29107   0.620   0.634   7.983  0.2461 -0.0632 -0.2162
 5824SOL    HW129108   0.569   0.553   7.983 -1.1463  0.8108  1.5828
 5824SOL    HW229109   0.709   0.617   7.952  0.7644 -1.3364  2.0148
 5825SOL     OW29110   3.417   4.501   0.588  0.2162 -0.3849  0.4133
 5825SOL    HW129111   3.385   4.528   0.501 -0.2054  0.2715  0.7711
 5825SOL    HW229112   3.422   4.405   0.580  1.0564 -0.5181  2.5107
 5826SOL     OW29113   0.363   1.900   9.283  0.3334 -0.3464 -0.0706
 5826SOL    HW129114   0.343   1.985   9.244 -0.5898 -0.2180  0.6945
 5826SOL    HW229115   0.316   1.899   9.366  2.3246 -0.3307  1.0701
 5827SOL     OW29116   4.181   3.117   1.919 -0.3708  0.1337  0.6373
 5827SOL    HW129117   4.140   3.095   2.003  2.0231 -1.5785  1.3425
 5827SOL    HW229118   4.242   3.181   1.956 -1.1420  0.1554  1.8927
 5828SOL     OW29119   1.186   0.069   9.244 -0.6002  0.0366 -0.5934
 5828SOL    HW129120   1.179   4.717   9.204  3.7111  0.4267 -2.2034
 5828SOL    HW229121   1.282   0.067   9.248 -0.6489 -1.2398 -0.0193
 5829SOL     OW29122   2.218   1.371   8.690 -0.4202 -0.1745  0.1389
 5829SOL    HW129123   2.216   1.301   8.755  0.7062 -1.8606 -1.6413
 5829SOL    HW229124   2.236   1.332   8.604  1.6474  1.1209 -0.0256
 5830SOL     OW29125   0.717   1.638   1.565  0.2344  0.1263 -0.3069
 5830SOL    HW129126   0.741   1.661   1.475 -0.4570 -0.4566 -0.6405
 5830SOL    HW229127   0.621   1.644   1.560  0.1451  0.5103  1.7227
 5831SOL     OW29128   2.006   2.790  17.656 -0.1532  0.4726  0.0176
 5831SOL    HW129129   2.018   2.728  17.728  1.7749  0.6247 -0.1595
 5831SOL    HW229130   2.051   2.742  17.587 -0.9316  0.7280 -0.6712
 5832SOL     OW29131   3.069   1.886   2.500  0.4502 -0.6911 -0.7199
 5832SOL    HW129132   3.154   1.890   2.545  0.7216  0.9367 -1.4020
 5832SOL    HW229133   3.057   1.793   2.478 -2.2733 -0.9276  1.7313
 5833SOL     OW29134   4.359   1.006  17.338  0.2002 -0.4952  0.1124
 5833SOL    HW129135   4.342   0.936  17.401  0.2701 -0.2522  0.4016
 5833SOL    HW229136   4.288   1.069  17.342  2.4173  2.0251 -0.5111
 5834SOL     OW29137   1.406   2.890   1.679  0.7492  0.8193  0.3059
 5834SOL    HW129138   1.320   2.930   1.691  0.5430  0.4880 -0.0607
 5834SOL    HW229139   1.456   2.932   1.749  1.6102 -0.5136  0.5035
 5835SOL     OW29140   2.020   0.210  16.585 -0.5004 -0.2019  0.6667
 5835SOL    HW129141   1.984   0.268  16.653  0.3959  0.3107  0.7112
 5835SOL    HW229142   2.002   0.264  16.509 -1.6997  0.1813  1.2324
 5836SOL     OW29143   3.527   4.699   5.291 -0.1168 -0.6839 -0.5188
 5836SOL    HW129144   3.553   4.667   5.377 -1.3002 -2.5275 -0.8485
 5836SOL    HW229145   3.507   0.054   5.315 -0.5401 -0.0583 -3.1349
 5837SOL     OW29146   1.772   4.037  15.814  0.1878  0.1961  0.2433
 5837SOL    HW129147   1.825   3.991  15.880 -1.8807 -1.8011  0.5103
 5837SOL    HW229148   1.751   4.115  15.866 -1.0719 -0.0938  0.1660
 5838SOL     OW29149   4.719   4.358   4.737 -0.2025 -0.2073  0.0710
 5838SOL    HW129150   0.034   4.378   4.816 -0.0645  2.1536 -0.6360
 5838SOL    HW229151   0.001   4.264   4.735 -0.9190 -0.3676  1.7740
 5839SOL     OW29152   4.459   0.099   9.888  0.5685 -0.0224  0.2633
 5839SOL    HW129153   4.405   0.052   9.952  0.0668 -0.6374 -0.6011
 5839SOL    HW229154   4.526   0.133   9.946 -0.5807  1.7032  0.5818
 5840SOL     OW29155   2.427   0.771  12.535  0.0244 -0.3842 -0.0643
 5840SOL    HW129156   2.494   0.837  12.553 -0.1432 -0.5177  1.0594
 5840SOL    HW229157   2.393   0.750  12.622  0.7730  0.2962  0.3872
 5841SOL     OW29158   0.147   1.453   4.363 -0.0544  0.0743 -0.7234
 5841SOL    HW129159   0.143   1.504   4.282  0.3695  0.6697 -0.3698
 5841SOL    HW229160   0.082   1.507   4.407 -0.4589 -1.6897  0.8381
 5842SOL     OW29161   0.520   4.002   0.354  0.1624 -0.4866 -0.4633
 5842SOL    HW129162   0.490   4.049   0.432 -1.5767 -0.5716 -1.0704
 5842SOL    HW229163   0.444   4.010   0.296  1.4264 -0.8296 -2.1504
 5843SOL     OW29164   3.063   0.915  10.865  0.0759 -0.2060  0.1639
 5843SOL    HW129165   3.036   1.005  10.885 -0.1740 -0.0355 -0.9615
 5843SOL    HW229166   2.981   0.877  10.897 -0.3575 -0.0662 -0.7787
 5844SOL     OW29167   1.402   3.840   2.349 -0.3500 -0.1191 -0.3451
 5844SOL    HW129168   1.435   3.929   2.336  0.6337 -0.0693  2.3973
 5844SOL    HW229169   1.456   3.811   2.423 -2.5848 -1.4625  0.7662
 5845SOL     OW29170   0.510   2.270   2.655  0.6787  0.5111  0.1875
 5845SOL    HW129171   0.531   2.364   2.655 -0.4285  0.7572  1.4181
 5845SOL    HW229172   0.464   2.269   2.739  1.3512 -0.8859  0.5356
 5846SOL     OW29173   2.714   0.116   3.805  0.2781  0.7157 -0.2770
 5846SOL    HW129174   2.697   0.022   3.795  0.2209  0.8800 -1.7935
 5846SOL    HW229175   2.741   0.145   3.717 -4.0299 -0.3565 -1.9337
 5847SOL     OW29176   3.940   0.666   8.464  0.1873 -0.1123  0.0843
 5847SOL    HW129177   3.847   0.646   8.467 -0.2479  2.0648  0.9097
 5847SOL    HW229178   3.964   0.695   8.552  0.2605  0.6557 -0.1878
 5848SOL     OW29179   4.513   2.467   8.208  0.3890  0.2190 -0.1495
 5848SOL    HW129180   4.593   2.430   8.172  0.0352 -0.4968 -0.2208
 5848SOL    HW229181   4.440   2.435   8.153  0.4375  0.5748 -0.4178
 5849SOL     OW29182   4.265   2.911   4.584  0.5277 -0.0752  0.0707
 5849SOL    HW129183   4.191   2.907   4.522 -1.2635 -0.3434  2.2307
 5849SOL    HW229184   4.264   3.004   4.605  1.3262 -0.0339 -0.0999
 5850SOL     OW29185   3.808   2.113  11.173 -0.1339  0.3558  0.2317
 5850SOL    HW129186   3.811   2.168  11.095  0.4279  0.8236  0.5804
 5850SOL    HW229187   3.777   2.033  11.131 -0.4420  0.1450  0.8572
 5851SOL     OW29188   4.623   4.197   0.021 -0.4174  0.1055 -0.0617
 5851SOL    HW129189   4.627   4.139   0.097  1.1650 -0.8565 -0.8902
 5851SOL    HW229190   4.686   4.158  17.700 -0.1863 -0.7144  0.7212
 5852SOL     OW29191   4.060   1.217  15.559 -0.3151  0.8692  0.2010
 5852SOL    HW129192   4.034   1.183  15.474  2.4992 -0.3551 -0.1592
 5852SOL    HW229193   4.142   1.256  15.528  0.4288  0.7447  1.9767
 5853SOL     OW29194   1.830   0.887  13.858  0.5226 -0.4574 -0.2303
 5853SOL    HW129195   1.886   0.965  13.856 -2.8569  1.9597 -0.9139
 5853SOL    HW229196   1.758   0.925  13.910 -0.7969 -1.5577 -1.2738
 5854SOL     OW29197   2.843   1.023   7.017  0.3691  0.3451 -0.5528
 5854SOL    HW129198   2.868   1.113   7.036 -1.3834  1.0420 -1.5619
 5854SOL    HW229199   2.849   0.995   7.108 -1.9337  0.5414 -0.3250
 5855SOL     OW29200   1.593   2.620   3.185  0.4607 -0.6008 -0.9955
 5855SOL    HW129201   1.638   2.539   3.208 -1.1592 -1.2894 -0.2446
 5855SOL    HW229202   1.506   2.595   3.152 -0.6853  1.0821  0.7584
 5856SOL     OW29203   1.228   0.406   8.598  0.5481  0.0480 -0.3330
 5856SOL    HW129204   1.274   0.425   8.516 -0.1770  2.9976 -0.0364
 5856SOL    HW229205   1.153   0.465   8.603 -1.0900 -1.8440 -2.5561
 5857SOL     OW29206   4.056   2.220   4.223 -0.4270  0.0918  0.3863
 5857SOL    HW129207   4.033   2.154   4.288 -3.1353  1.4982  0.8850
 5857SOL    HW229208   3.992   2.207   4.153 -1.0621 -0.3268  1.0355
 5858SOL     OW29209   3.044   0.314  15.812  0.0348 -0.0682  0.1855
 5858SOL    HW129210   3.128   0.326  15.768 -0.0633 -1.5457 -0.4153
 5858SOL    HW229211   3.000   0.245  15.761 -1.6731 -1.4165  3.5251
 5859SOL     OW29212   3.327   1.821   2.335  0.5580 -0.4588 -0.3748
 5859SOL    HW129213   3.341   1.911   2.365  3.9976 -1.2660  0.4589
 5859SOL    HW229214   3.415   1.785   2.343  0.5980 -0.3905 -0.5034
 5860SOL     OW29215   0.661   3.094   2.374  0.2867 -0.0652  0.0604
 5860SOL    HW129216   0.686   3.064   2.287 -2.4857 -0.2106 -0.6750
 5860SOL    HW229217   0.566   3.096   2.380  0.3522  0.9451  0.8311
 5861SOL     OW29218   2.934   4.093   2.343  0.1338  0.0988 -0.6013
 5861SOL    HW129219   2.854   4.140   2.366  0.0584 -0.6911  0.7533
 5861SOL    HW229220   2.983   4.093   2.425 -0.6658 -0.1328 -0.1172
 5862SOL     OW29221   2.476   2.426   9.465  0.7410  0.1702 -0.4371
 5862SOL    HW129222   2.461   2.407   9.558  4.1407 -2.2166 -0.3788
 5862SOL    HW229223   2.391   2.468   9.450  0.3711 -0.4195 -0.0010
 5863SOL     OW29224   0.301   3.174  10.422 -0.1596 -0.1950  0.0130
 5863SOL    HW129225   0.277   3.238  10.490  2.2147  1.1201 -0.3979
 5863SOL    HW229226   0.393   3.201  10.420 -0.1495 -0.2290  0.0276
 5864SOL     OW29227   1.616   4.144   5.627  0.0839  0.6344 -0.4159
 5864SOL    HW129228   1.650   4.102   5.706 -1.3214 -1.0882 -0.7327
 5864SOL    HW229229   1.634   4.079   5.559  1.1303  0.1060  0.3817
 5865SOL     OW29230   1.646   0.820   3.987 -0.6848 -0.0135 -0.1907
 5865SOL    HW129231   1.624   0.740   3.939 -0.4915  0.3382 -0.8585
 5865SOL    HW229232   1.586   0.831   4.061  0.3558 -2.1730  1.0140
 5866SOL     OW29233   4.490   2.876   2.382  0.3792  0.3746  0.0095
 5866SOL    HW129234   4.446   2.939   2.438 -1.0318  0.1338 -0.8320
 5866SOL    HW229235   4.422   2.861   2.316 -1.3606  0.9615  1.6756
 5867SOL     OW29236   2.070   0.987   5.934  0.4813  0.1500 -0.4251
 5867SOL    HW129237   2.154   1.032   5.938  0.1896  0.4762  2.7333
 5867SOL    HW229238   2.101   0.897   5.939  1.1318  0.3688 -0.5503
 5868SOL     OW29239   2.266   2.567   6.123 -0.0051  0.6124  0.5298
 5868SOL    HW129240   2.253   2.633   6.192 -3.3249 -0.1737  0.6653
 5868SOL    HW229241   2.335   2.613   6.076  0.9164 -1.6609 -0.3143
 5869SOL     OW29242   4.453   2.307   4.650  0.5749  0.0487 -0.8460
 5869SOL    HW129243   4.412   2.390   4.673  0.1564  0.2288 -2.2371
 5869SOL    HW229244   4.386   2.242   4.671 -0.1996  0.7769 -1.0978
 5870SOL     OW29245   2.695   4.098   5.078  0.1432 -0.3931  0.2558
 5870SOL    HW129246   2.678   4.008   5.108  0.2981 -0.3788  0.3855
 5870SOL    HW229247   2.788   4.118   5.088  0.3238 -0.0909 -1.9333
 5871SOL     OW29248   0.142   1.618   2.278  0.1950 -0.1544  0.1393
 5871SOL    HW129249   0.057   1.613   2.322 -0.5867  0.9076 -1.2305
 5871SOL    HW229250   0.101   1.649   2.197 -0.2014  2.6349  1.4266
 5872SOL     OW29251   2.905   0.629   8.949  0.0332 -0.0313 -0.2317
 5872SOL    HW129252   2.981   0.612   8.894 -1.0353  0.2475 -1.8089
 5872SOL    HW229253   2.933   0.707   8.997  0.0814 -0.2261  0.0560
 5873SOL     OW29254   3.758   1.077   9.609  0.1089  0.3787 -0.2792
 5873SOL    HW129255   3.667   1.092   9.581  0.1598 -0.0981 -0.6957
 5873SOL    HW229256   3.811   1.100   9.533  0.7613  1.9106  0.6284
 5874SOL     OW29257   0.455   3.934   9.172 -0.0099 -0.1484 -0.3886
 5874SOL    HW129258   0.547   3.936   9.144  0.5851 -0.0979  1.6049
 5874SOL    HW229259   0.427   4.023   9.149 -1.1841 -0.7944 -1.4383
 5875SOL     OW29260   2.338   1.328   0.770 -0.2542 -0.4053 -0.7008
 5875SOL    HW129261   2.362   1.262   0.706  0.4258  0.1259 -0.9923
 5875SOL    HW229262   2.257   1.293   0.808 -0.6195  2.0472  0.8393
 5876SOL     OW29263   0.179   3.247  11.666  0.2762  0.0250 -0.5757
 5876SOL    HW129264   0.126   3.236  11.745  0.5368 -0.2047 -0.4335
 5876SOL    HW229265   0.256   3.289  11.705 -0.4373 -1.2821  2.1858
 5877SOL     OW29266   1.890   0.979   5.609  0.0960 -0.5214  0.2689
 5877SOL    HW129267   1.820   0.966   5.544  0.5925  0.3534 -0.4433
 5877SOL    HW229268   1.947   1.032   5.553 -1.8580  1.4640  0.1299
 5878SOL     OW29269   0.503   2.357   3.183 -0.3986  0.1025 -0.2117
 5878SOL    HW129270   0.545   2.293   3.126  0.6606  1.2474 -0.7302
 5878SOL    HW229271   0.507   2.425   3.115  0.2040 -1.7533 -2.0237
 5879SOL     OW29272   2.667   3.949  12.599 -0.3189  0.8234  0.6136
 5879SOL    HW129273   2.736   3.997  12.644 -0.0294  1.6640 -0.7326
 5879SOL    HW229274   2.646   4.024  12.544 -2.9732 -0.6442 -0.4314
 5880SOL     OW29275   0.480   4.621   8.973  0.4152  0.1270 -0.6848
 5880SOL    HW129276   0.516   4.573   8.898 -0.4888  0.2014 -1.1650
 5880SOL    HW229277   0.406   4.570   9.005  0.2871 -0.0013 -1.1897
 5881SOL     OW29278   1.161   2.499   2.525  0.3684 -0.0834 -0.3984
 5881SOL    HW129279   1.106   2.566   2.566  0.0849 -0.6838  0.1899
 5881SOL    HW229280   1.215   2.464   2.596  1.1859 -1.5267 -1.7263
 5882SOL     OW29281   1.562   3.319   3.622 -0.1723 -0.2411  0.2855
 5882SOL    HW129282   1.620   3.387   3.657 -0.6139 -0.2950  1.1047
 5882SOL    HW229283   1.490   3.320   3.685  0.8154  0.9592  1.4103
 5883SOL     OW29284   0.619   0.453   5.124 -0.1200  0.0084 -0.8895
 5883SOL    HW129285   0.528   0.425   5.108  0.1796 -1.1496 -0.5724
 5883SOL    HW229286   0.641   0.480   5.035  1.3427 -0.2250 -0.5918
 5884SOL     OW29287   1.122   2.250   9.112 -0.4626 -0.5838  0.4021
 5884SOL    HW129288   1.210   2.268   9.147 -0.0957 -1.7705  0.0970
 5884SOL    HW229289   1.138   2.167   9.068 -1.1470 -0.9971  0.9412
 5885SOL     OW29290   0.995   2.185   1.390  0.0719  0.1498 -0.0061
 5885SOL    HW129291   0.903   2.206   1.402  0.3563  2.0574 -1.3276
 5885SOL    HW229292   1.028   2.255   1.334 -0.8336  0.1842 -0.4932
 5886SOL     OW29293   1.922   3.253   1.487 -1.1022 -0.3265  0.2277
 5886SOL    HW129294   1.943   3.205   1.407 -0.8227 -1.1481  0.7892
 5886SOL    HW229295   1.869   3.187   1.531 -1.5316  0.7226  1.2921
 5887SOL     OW29296   1.062   0.381   6.041 -0.1498 -0.2617  0.1798
 5887SOL    HW129297   1.039   0.333   5.961 -0.2594 -0.3779  0.2798
 5887SOL    HW229298   0.978   0.427   6.039  0.7109  1.2483 -0.5397
 5888SOL     OW29299   0.672   2.799  10.925  0.2698  0.3268  0.2967
 5888SOL    HW129300   0.631   2.803  11.011  2.5173  1.4067  1.3175
 5888SOL    HW229301   0.615   2.865  10.885  1.5744  1.1732 -0.1963
 5889SOL     OW29302   1.844   2.623   0.415 -0.0088  0.2928 -0.2364
 5889SOL    HW129303   1.805   2.540   0.386  3.2595 -0.5648 -2.1211
 5889SOL    HW229304   1.877   2.607   0.504  0.1874  0.8163 -0.2141
 5890SOL     OW29305   3.260   4.422   2.078  0.3919 -0.3952  0.4824
 5890SOL    HW129306   3.242   4.328   2.075 -0.3988 -0.2384  0.1476
 5890SOL    HW229307   3.297   4.440   2.164  1.4031  0.8523 -0.2074
 5891SOL     OW29308   2.958   3.803   4.601  0.3210  0.1476  0.2573
 5891SOL    HW129309   2.988   3.894   4.595  1.1225  0.0042  2.1400
 5891SOL    HW229310   2.999   3.766   4.678 -0.4485  0.9127  1.0311
 5892SOL     OW29311   1.487   2.036   4.804  0.4830 -0.5128 -0.4080
 5892SOL    HW129312   1.469   2.009   4.894 -2.8969 -0.7337 -1.1601
 5892SOL    HW229313   1.569   2.083   4.816 -0.2664  0.8237 -0.4163
 5893SOL     OW29314   4.596   0.014   4.328 -0.8171  0.0015 -0.3803
 5893SOL    HW129315   4.518   4.721   4.376  0.3936  0.1522  1.6543
 5893SOL    HW229316   4.603   4.683   4.258 -0.1205  0.5459 -0.8252
 5894SOL     OW29317   2.780   0.776   5.107  0.5442  0.7125 -0.7432
 5894SOL    HW129318   2.833   0.780   5.028 -1.7779 -0.3052 -2.3389
 5894SOL    HW229319   2.690   0.762   5.075  0.9754 -0.3808 -1.4524
 5895SOL     OW29320   0.356   1.027   7.236  0.2859  0.5163  0.3245
 5895SOL    HW129321   0.287   0.975   7.277  1.2561 -1.8044 -0.9893
 5895SOL    HW229322   0.343   0.997   7.146 -1.9536 -2.1699  1.5291
 5896SOL     OW29323   4.544   2.386  10.122  0.6714  0.0612  0.4945
 5896SOL    HW129324   4.460   2.347  10.147  1.3116 -1.5334  0.1675
 5896SOL    HW229325   4.580   2.398  10.210  1.3614 -2.3743  0.5616
 5897SOL     OW29326   4.213   1.035   5.350  0.0597  0.0767  0.1537
 5897SOL    HW129327   4.235   1.123   5.382 -1.4517  0.6077 -0.2882
 5897SOL    HW229328   4.273   0.986   5.407 -1.5145 -1.3904  0.5326
 5898SOL     OW29329   1.455   2.885   2.777  0.6343  0.0293 -0.0149
 5898SOL    HW129330   1.430   2.927   2.695  0.9721  1.3722  0.5825
 5898SOL    HW229331   1.406   2.927   2.847 -0.5022  0.3041 -0.9847
 5899SOL     OW29332   2.727   1.985   0.304 -0.2146  0.1814  0.0244
 5899SOL    HW129333   2.761   1.990   0.393 -1.6056  0.9041  0.5059
 5899SOL    HW229334   2.635   2.006   0.314  0.0344  1.0155  0.4939
 5900SOL     OW29335   3.096   4.195   8.064 -0.6122 -0.4407  0.5501
 5900SOL    HW129336   3.146   4.117   8.089 -0.6562 -0.8689 -0.6589
 5900SOL    HW229337   3.167   4.244   8.022 -2.1647  0.3915 -1.1294
 5901SOL     OW29338   2.960   3.329  13.976 -0.0295  0.1030 -0.8101
 5901SOL    HW129339   2.904   3.279  13.917  0.1943  0.7684 -1.5783
 5901SOL    HW229340   2.982   3.257  14.036  0.7103 -0.8115 -2.1835
 5902SOL     OW29341   1.487   2.557   5.310  0.4604 -0.2551  0.1641
 5902SOL    HW129342   1.398   2.522   5.303  0.6734 -0.6644 -0.5757
 5902SOL    HW229343   1.466   2.647   5.333 -1.0636 -0.6271  0.2750
 5903SOL     OW29344   0.633   1.799   7.975  0.0571 -0.2877 -0.7264
 5903SOL    HW129345   0.724   1.795   8.006 -0.8370 -1.4634  1.7549
 5903SOL    HW229346   0.596   1.848   8.048  2.2771  1.0974 -0.5365
 5904SOL     OW29347   4.245   3.116  14.100 -0.0035 -0.0436  0.3425
 5904SOL    HW129348   4.185   3.049  14.068 -0.2474  1.0761 -1.5599
 5904SOL    HW229349   4.305   3.134  14.027 -0.8455 -2.0934 -0.8473
 5905SOL     OW29350   4.663   4.642  11.546  0.1030 -0.3828  0.0063
 5905SOL    HW129351   4.652   4.691  11.464 -4.8653  1.9250  2.0598
 5905SOL    HW229352   4.700   4.712  11.600 -0.8009  2.3576 -2.9149
 5906SOL     OW29353   2.454   2.238   5.210  0.0873 -0.4294 -0.2887
 5906SOL    HW129354   2.414   2.261   5.294 -0.9813  0.2567 -0.9815
 5906SOL    HW229355   2.378   2.226   5.152 -0.6221 -0.8810  0.7377
 5907SOL     OW29356   3.729   1.889  14.942  0.2078 -0.3507  0.1130
 5907SOL    HW129357   3.760   1.839  14.866  1.5591 -0.4581  0.7562
 5907SOL    HW229358   3.637   1.909  14.923  0.8407  0.5982 -1.9087
 5908SOL     OW29359   4.085   3.953   3.274 -0.5339 -0.0352  0.6331
 5908SOL    HW129360   4.100   4.048   3.276  0.2053 -0.1062 -1.0065
 5908SOL    HW229361   4.160   3.922   3.324 -0.4864  1.1152  1.2789
 5909SOL     OW29362   2.321   1.364   9.350  0.0974  0.9100 -0.2018
 5909SOL    HW129363   2.372   1.285   9.368 -0.4742  0.6780  0.4052
 5909SOL    HW229364   2.362   1.428   9.408  1.4761  0.8421 -1.1089
 5910SOL     OW29365   0.980   1.705   4.850  0.2896 -0.1598 -0.0315
 5910SOL    HW129366   0.967   1.689   4.944  0.2489  0.3811  0.0544
 5910SOL    HW229367   1.040   1.636   4.823 -1.3963 -1.9781  0.8723
 5911SOL     OW29368   3.407   1.955   8.319  0.6766  0.2303 -0.0157
 5911SOL    HW129369   3.436   1.890   8.255 -0.3913 -1.3517  1.1274
 5911SOL    HW229370   3.440   1.926   8.404  0.3326  1.0486  0.3923
 5912SOL     OW29371   3.190   3.955   8.161 -0.3379  0.2315 -0.4014
 5912SOL    HW129372   3.228   3.887   8.216 -0.7663  0.6957  0.4694
 5912SOL    HW229373   3.117   3.909   8.122  0.3109 -2.2886  1.3716
 5913SOL     OW29374   0.215   3.251   2.476 -0.1511 -1.1707  0.0961
 5913SOL    HW129375   0.154   3.262   2.549 -0.8309  0.2633 -0.6863
 5913SOL    HW229376   0.236   3.344   2.470  0.5131 -1.3390 -0.1732
 5914SOL     OW29377   3.176   0.716  13.445 -0.3948 -0.5094  0.6191
 5914SOL    HW129378   3.203   0.631  13.480 -1.4804 -0.8434  0.6151
 5914SOL    HW229379   3.262   0.746  13.415 -1.4075  2.3802  0.5853
 5915SOL     OW29380   0.516   2.593   6.638 -0.2475  0.4041  0.4813
 5915SOL    HW129381   0.502   2.651   6.713 -1.4235 -1.6045  1.8040
 5915SOL    HW229382   0.611   2.581   6.640 -0.0912  1.7588  1.2725
 5916SOL     OW29383   0.975   3.377   2.290 -0.0044  0.4397 -0.3405
 5916SOL    HW129384   0.975   3.319   2.213 -0.9893 -0.8829  0.6412
 5916SOL    HW229385   1.030   3.449   2.263 -0.6566  2.3086  3.2701
 5917SOL     OW29386   0.261   2.916  16.838 -0.5229 -0.4872 -0.1360
 5917SOL    HW129387   0.236   2.997  16.794 -0.6344 -0.8176 -0.6796
 5917SOL    HW229388   0.225   2.936  16.925 -2.2281  0.1096 -0.9679
 5918SOL     OW29389   1.031   1.696   2.535 -0.1394  0.4530  0.0934
 5918SOL    HW129390   1.085   1.761   2.490 -0.3643  0.2051 -0.5239
 5918SOL    HW229391   1.072   1.613   2.511 -0.0523  0.8295 -1.0262
 5919SOL     OW29392   4.046   2.033   4.922 -0.0052 -0.0389  0.0403
 5919SOL    HW129393   4.003   2.106   4.968 -1.4906 -2.1700  1.9904
 5919SOL    HW229394   4.134   2.032   4.959  0.0291 -0.1381 -0.0469
 5920SOL     OW29395   2.250   0.795   2.767 -0.4461 -0.5635  0.1378
 5920SOL    HW129396   2.166   0.750   2.764 -0.2875 -0.8660  0.1410
 5920SOL    HW229397   2.223   0.884   2.788  0.5090  0.0728 -1.3471
 5921SOL     OW29398   1.766   3.452   4.006 -0.3064  0.4713  0.0695
 5921SOL    HW129399   1.676   3.440   4.037  0.6429  0.5128  2.8437
 5921SOL    HW229400   1.743   3.484   3.919  0.8589  0.3130 -0.2977
 5922SOL     OW29401   3.010   3.606  14.025 -0.0413  0.1869 -0.2112
 5922SOL    HW129402   2.994   3.513  14.012 -2.8849  0.7402 -0.6665
 5922SOL    HW229403   3.100   3.612  13.990 -0.6370 -1.8213 -2.1016
 5923SOL     OW29404   1.021   2.968   2.017 -0.2797  0.8659 -0.2853
 5923SOL    HW129405   0.999   2.953   2.108  0.6199  1.0400 -0.0359
 5923SOL    HW229406   0.963   2.912   1.965 -0.7479  1.4212 -0.3645
 5924SOL     OW29407   3.718   0.052   7.922 -0.1225  0.2897  0.0789
 5924SOL    HW129408   3.783   0.002   7.971 -0.6642 -0.5958 -0.1128
 5924SOL    HW229409   3.669   0.105   7.985 -0.6472 -0.3621  0.2193
 5925SOL     OW29410   1.817   0.421  15.942  0.5742 -0.3830 -0.0874
 5925SOL    HW129411   1.732   0.417  15.986  1.1920  2.3294  1.3404
 5925SOL    HW229412   1.869   0.473  16.003  0.2715 -2.2155  1.7123
 5926SOL     OW29413   3.544   1.501   8.270 -0.0711 -0.2159  0.5918
 5926SOL    HW129414   3.635   1.525   8.285 -0.1573 -0.0733  0.8877
 5926SOL    HW229415   3.517   1.577   8.220  0.2707  0.6482  1.7181
 5927SOL     OW29416   0.449   3.753   4.040  0.0208  0.5985 -0.2678
 5927SOL    HW129417   0.534   3.718   4.066 -0.6231 -0.1300  0.8550
 5927SOL    HW229418   0.398   3.756   4.121  2.2226  1.3200  1.0839
 5928SOL     OW29419   0.777   2.580   7.149  0.3586 -1.0327  0.2865
 5928SOL    HW129420   0.787   2.668   7.113  0.8222 -1.1995  0.0150
 5928SOL    HW229421   0.779   2.525   7.071  2.5317 -1.6854  0.8198
 5929SOL     OW29422   2.811   4.467   2.405  0.5727 -0.4120 -0.3994
 5929SOL    HW129423   2.847   4.497   2.321  0.2559 -0.7738 -0.6614
 5929SOL    HW229424   2.898   4.438   2.432  0.3621 -0.9063 -0.2511
 5930SOL     OW29425   0.146   0.801   1.600  0.0886  0.7034  0.0540
 5930SOL    HW129426   0.194   0.883   1.614  2.9466 -0.9878  0.2650
 5930SOL    HW229427   0.136   0.801   1.504 -0.8080  0.0763  0.1569
 5931SOL     OW29428   4.188   3.346   6.155  0.3664  0.0856 -0.2289
 5931SOL    HW129429   4.207   3.345   6.249 -1.1650  0.2097  0.0849
 5931SOL    HW229430   4.268   3.303   6.127 -1.8463 -3.8234 -0.6147
 5932SOL     OW29431   1.876   4.503   8.315 -0.5739 -0.2517  0.5868
 5932SOL    HW129432   1.881   4.454   8.398 -0.9879 -3.5992 -1.3608
 5932SOL    HW229433   1.932   4.446   8.263 -0.2498  0.8853 -0.2967
 5933SOL     OW29434   0.655   3.675  14.647 -0.3418 -0.2937 -0.1650
 5933SOL    HW129435   0.725   3.635  14.698 -0.1749 -1.8517 -1.6040
 5933SOL    HW229436   0.720   3.724  14.596  0.5344 -0.4327  0.8304
 5934SOL     OW29437   1.898   4.619   4.527 -0.4048  0.1300 -0.2243
 5934SOL    HW129438   1.921   4.626   4.620  2.6758 -1.4365 -0.8866
 5934SOL    HW229439   1.803   4.619   4.521 -0.4329  1.9830  0.2595
 5935SOL     OW29440   3.117   2.327   9.739  0.0099 -0.0282 -0.1934
 5935SOL    HW129441   3.036   2.321   9.789 -0.2396 -1.2524 -0.7651
 5935SOL    HW229442   3.176   2.339   9.814  0.1285 -2.2450  0.0605
 5936SOL     OW29443   1.283   3.955   3.019  0.4792  0.1849 -0.1850
 5936SOL    HW129444   1.275   4.025   2.955 -0.2134  1.9136  1.7669
 5936SOL    HW229445   1.343   3.904   2.965 -1.4259 -0.4089 -1.7281
 5937SOL     OW29446   4.285   2.417  14.644 -0.1701  0.1081  0.4702
 5937SOL    HW129447   4.274   2.470  14.723 -0.0020 -0.1945  0.6951
 5937SOL    HW229448   4.311   2.328  14.667  0.7710  0.0893 -0.6648
 5938SOL     OW29449   0.178   2.114  10.886  0.6689 -0.0115 -0.3771
 5938SOL    HW129450   0.143   2.198  10.917  0.4031  0.3009 -1.5554
 5938SOL    HW229451   0.122   2.055  10.937  1.6968 -0.5005  0.1890
 5939SOL     OW29452   0.039   3.297   8.252  0.2773  0.0753  0.0367
 5939SOL    HW129453   0.083   3.302   8.167 -2.5118 -0.1353 -1.4136
 5939SOL    HW229454   0.115   3.300   8.310 -0.0808 -0.3161  0.5213
 5940SOL     OW29455   0.932   0.607   1.217 -0.0903  0.4756 -0.2335
 5940SOL    HW129456   0.889   0.693   1.214  1.8291  1.4437  0.1217
 5940SOL    HW229457   0.867   0.560   1.269  0.1191  2.6359  1.9969
 5941SOL     OW29458   4.718   3.784  10.731  0.5080  0.0831 -0.0178
 5941SOL    HW129459   4.658   3.814  10.799  1.1375 -2.7339  1.7821
 5941SOL    HW229460   4.660   3.786  10.654  1.1215 -2.1105 -0.5559
 5942SOL     OW29461   3.136   4.545  12.930  0.5345  0.6624 -0.4976
 5942SOL    HW129462   3.071   4.605  12.893  1.1333 -0.3553 -3.2073
 5942SOL    HW229463   3.217   4.593  12.946  0.1568  1.2332 -0.2930
 5943SOL     OW29464   1.685   4.554   6.192 -0.2339 -0.2518  0.8942
 5943SOL    HW129465   1.773   4.537   6.227  0.1603 -0.0615 -0.0080
 5943SOL    HW229466   1.670   4.489   6.124 -3.2354  0.3413  0.9965
 5944SOL     OW29467   3.906   1.377  12.784  0.1484 -0.1043 -0.0071
 5944SOL    HW129468   4.001   1.382  12.772  0.2709  0.3713  1.0993
 5944SOL    HW229469   3.878   1.301  12.734 -1.3916  0.2892  0.2374
 5945SOL     OW29470   3.597   4.532  17.091 -0.1430 -0.0379 -0.0975
 5945SOL    HW129471   3.609   4.438  17.077  0.3461 -0.2304  1.7044
 5945SOL    HW229472   3.661   4.570  17.030 -0.0904  0.7898  0.4657
 5946SOL     OW29473   0.091   0.201   8.707 -0.1219 -0.8685 -0.1182
 5946SOL    HW129474   0.141   0.138   8.759 -1.2067 -0.5048  1.3577
 5946SOL    HW229475   0.128   0.284   8.738  0.2555 -0.7760 -0.8042
 5947SOL     OW29476   3.516   2.882   4.744 -0.2923 -0.1152 -0.1842
 5947SOL    HW129477   3.471   2.947   4.798 -0.2537 -1.3608  1.3423
 5947SOL    HW229478   3.443   2.822   4.729  0.7960 -1.4400 -0.2017
 5948SOL     OW29479   1.175   0.617   3.666 -0.0808 -0.0117  0.1050
 5948SOL    HW129480   1.090   0.643   3.630 -0.9303 -0.7214  1.6130
 5948SOL    HW229481   1.241   0.652   3.606 -1.0938  2.1827  0.2922
 5949SOL     OW29482   4.301   1.170   4.603 -0.3539  0.1291  0.4372
 5949SOL    HW129483   4.383   1.128   4.575 -0.2227  1.2086 -0.8235
 5949SOL    HW229484   4.327   1.195   4.692  0.1408 -0.0912  0.3559
 5950SOL     OW29485   4.095   1.715  11.356 -0.1392  0.4396 -0.2568
 5950SOL    HW129486   4.016   1.769  11.350 -0.0925  0.2524 -2.7827
 5950SOL    HW229487   4.070   1.648  11.419 -0.2960  1.4562  0.7480
 5951SOL     OW29488   4.323   3.142   4.024 -0.0426 -0.0456 -0.1519
 5951SOL    HW129489   4.376   3.113   3.949 -0.3754 -2.3336  0.5032
 5951SOL    HW229490   4.276   3.213   3.981 -0.4474 -1.3224 -1.8109
 5952SOL     OW29491   0.090   2.816   8.472  0.6041 -0.1592  0.7704
 5952SOL    HW129492   0.140   2.898   8.469  0.7823 -0.2982 -0.0882
 5952SOL    HW229493   0.069   2.796   8.381 -0.4189 -0.6627  1.1270
 5953SOL     OW29494   3.817   2.677  12.927  0.5459 -0.2886  0.0483
 5953SOL    HW129495   3.843   2.668  13.018  0.5769  1.3589  0.1903
 5953SOL    HW229496   3.800   2.771  12.928 -2.6637 -0.8574  0.6909
 5954SOL     OW29497   2.964   4.189  13.160 -0.5522 -0.3177  0.0270
 5954SOL    HW129498   2.957   4.238  13.241  0.8520 -5.3015  3.1890
 5954SOL    HW229499   3.021   4.238  13.101 -2.0628 -0.9276 -1.9438
 5955SOL     OW29500   0.474   4.444  17.100 -0.1840 -0.3373  0.5324
 5955SOL    HW129501   0.435   4.366  17.141 -1.8137  0.5333  0.6327
 5955SOL    HW229502   0.567   4.442  17.122 -0.0241 -1.9533 -0.2591
 5956SOL     OW29503   3.801   4.638   3.563 -0.0489 -0.6948 -0.3466
 5956SOL    HW129504   3.728   4.577   3.551  0.8905 -1.8772 -0.1336
 5956SOL    HW229505   3.819   4.665   3.473  0.8665 -1.6882 -0.4647
 5957SOL     OW29506   3.356   2.020   5.396  0.0313  0.9074 -0.0898
 5957SOL    HW129507   3.276   1.971   5.418  0.5681  0.7591  1.5447
 5957SOL    HW229508   3.393   1.975   5.320 -0.9804  0.2503 -0.2027
 5958SOL     OW29509   4.692   4.234   9.348  0.3239  0.6089  0.4735
 5958SOL    HW129510   4.735   4.296   9.289 -1.1916  0.0483 -1.2484
 5958SOL    HW229511   4.670   4.287   9.424  2.3766 -0.4974  1.8319
 5959SOL     OW29512   0.027   2.534   6.586  0.9558 -0.1535 -0.5161
 5959SOL    HW129513   0.035   2.560   6.494  1.5053  0.0426 -0.4091
 5959SOL    HW229514   0.119   2.541   6.611  0.8605 -1.0744  0.0856
 5960SOL     OW29515   0.395   1.897   8.104  0.1660 -0.5100 -0.0938
 5960SOL    HW129516   0.330   1.918   8.037 -0.6232 -2.6429  0.0027
 5960SOL    HW229517   0.411   1.983   8.143 -2.2682  0.3174 -0.9154
 5961SOL     OW29518   0.973   1.448   8.460  0.4861 -1.0484  0.1257
 5961SOL    HW129519   1.060   1.465   8.497  1.0910 -1.7633 -0.9687
 5961SOL    HW229520   0.910   1.491   8.517 -1.4008 -1.2321 -1.8083
 5962SOL     OW29521   4.499   1.827   7.655  0.0736  0.3918  0.2083
 5962SOL    HW129522   4.517   1.898   7.593 -1.5289  0.6006 -0.0031
 5962SOL    HW229523   4.514   1.744   7.609  0.3779 -0.0926  1.1822
 5963SOL     OW29524   3.475   2.643  11.824 -0.3700 -0.2975 -0.0429
 5963SOL    HW129525   3.492   2.657  11.917 -1.2932  0.3726  0.0305
 5963SOL    HW229526   3.445   2.731  11.802  4.7502  1.2046 -0.9256
 5964SOL     OW29527   4.328   3.695   0.794 -0.1254 -0.2950  0.4124
 5964SOL    HW129528   4.273   3.619   0.811  0.8953 -0.6895  1.8998
 5964SOL    HW229529   4.352   3.727   0.881  0.5199  3.0630 -0.9842
 5965SOL     OW29530   2.355   4.420  12.314 -0.3897  0.7107 -0.2765
 5965SOL    HW129531   2.320   4.457  12.233 -0.8078  1.9270  0.4563
 5965SOL    HW229532   2.449   4.423  12.300 -0.7107  0.3406 -2.5095
 5966SOL     OW29533   3.240   0.830  12.443  0.6467 -0.1467  0.5307
 5966SOL    HW129534   3.256   0.877  12.361 -0.3593  0.5283  0.7245
 5966SOL    HW229535   3.321   0.845  12.491  1.4440  0.1243 -0.9016
 5967SOL     OW29536   3.487   3.980   3.331  0.3972  0.4187 -0.7680
 5967SOL    HW129537   3.529   3.900   3.301  2.0492  0.4528  1.4495
 5967SOL    HW229538   3.553   4.000   3.397  1.0606  0.5011 -1.4659
 5968SOL     OW29539   1.159   0.937  12.953 -0.0370 -0.7280 -0.3328
 5968SOL    HW129540   1.130   0.873  13.017 -0.8296 -0.4401 -0.4022
 5968SOL    HW229541   1.194   1.005  13.011 -2.3736  0.8095 -0.7082
 5969SOL     OW29542   0.438   4.244   2.206 -0.2560 -0.4248  0.0559
 5969SOL    HW129543   0.390   4.161   2.208 -3.0450  1.1728 -0.2285
 5969SOL    HW229544   0.520   4.225   2.251  0.6500  0.4873 -1.2437
 5970SOL     OW29545   2.615   2.835  12.628 -0.5664 -0.3205  0.3782
 5970SOL    HW129546   2.561   2.756  12.627  1.3178 -1.6190  0.4443
 5970SOL    HW229547   2.695   2.815  12.580 -0.8941  1.0280 -0.7289
 5971SOL     OW29548   4.318   0.832   6.772 -0.3904 -0.5573  0.0772
 5971SOL    HW129549   4.316   0.796   6.861 -1.1054 -0.8731 -0.0630
 5971SOL    HW229550   4.290   0.763   6.712 -2.0859  0.2562 -0.0752
 5972SOL     OW29551   4.697   1.826  14.567 -0.1299  1.0100 -0.3246
 5972SOL    HW129552   4.605   1.851  14.559  0.0041  1.4066 -0.6137
 5972SOL    HW229553   4.723   1.875  14.644  3.0349 -1.4938  0.2306
 5973SOL     OW29554   1.450   3.499   5.402  0.1134 -0.0192  0.4292
 5973SOL    HW129555   1.404   3.522   5.483 -0.0533  1.7667 -0.1876
 5973SOL    HW229556   1.480   3.408   5.414 -1.4226 -0.6089 -0.1330
 5974SOL     OW29557   0.199   0.722  16.766 -0.0754  0.2985  0.4826
 5974SOL    HW129558   0.270   0.767  16.719 -1.3281 -0.9034 -2.5860
 5974SOL    HW229559   0.204   0.767  16.850  4.3848  0.8545 -0.0829
 5975SOL     OW29560   3.883   4.117  13.876  0.4919 -0.3768 -0.7135
 5975SOL    HW129561   3.792   4.132  13.851  0.3982  0.5420  0.1605
 5975SOL    HW229562   3.925   4.203  13.873  0.7000 -0.4006  1.3478
 5976SOL     OW29563   2.961   0.760   4.905 -0.1799  0.3991  0.1024
 5976SOL    HW129564   2.947   0.669   4.878 -0.2510  0.2528  0.6310
 5976SOL    HW229565   2.956   0.803   4.820  0.3712  0.2809  0.0101
 5977SOL     OW29566   0.307   0.099  14.678  0.6732  0.1563  0.0104
 5977SOL    HW129567   0.376   0.125  14.739  0.0129 -1.6902  1.5608
 5977SOL    HW229568   0.253   0.039  14.730  3.6393 -2.2243  0.3327
 5978SOL     OW29569   3.171   3.203   7.868  0.1429 -0.0844 -0.2100
 5978SOL    HW129570   3.185   3.294   7.894 -0.1011 -0.1716  0.2395
 5978SOL    HW229571   3.076   3.192   7.863  0.2349 -0.8710 -0.2092
 5979SOL     OW29572   1.726   1.224   8.961 -0.2827  0.1494  0.7342
 5979SOL    HW129573   1.648   1.181   8.928  1.0106 -1.8235  0.2745
 5979SOL    HW229574   1.697   1.242   9.050  0.0801 -0.4822  0.9820
 5980SOL     OW29575   3.753   2.822   8.148  0.6059  0.1529  0.1710
 5980SOL    HW129576   3.658   2.830   8.134  0.5900  0.3397  0.3684
 5980SOL    HW229577   3.755   2.914   8.175  3.0256  1.0779 -3.2129
 5981SOL     OW29578   1.413   3.308   2.283  0.0127 -0.3138  0.3017
 5981SOL    HW129579   1.446   3.389   2.244  0.3339 -0.2044  0.7902
 5981SOL    HW229580   1.473   3.298   2.357 -1.6489  3.5762  2.1339
 5982SOL     OW29581   0.584   3.427  11.778 -0.3999 -0.3621  0.1700
 5982SOL    HW129582   0.626   3.371  11.712  0.4420  0.0148  0.3912
 5982SOL    HW229583   0.613   3.512  11.745  2.2497  0.2381  4.0548
 5983SOL     OW29584   2.017   4.682   8.794 -0.6532  0.1144 -0.6195
 5983SOL    HW129585   2.022   0.042   8.805 -1.2774  0.0214  0.4476
 5983SOL    HW229586   2.049   4.648   8.877 -0.7737  1.3666 -0.0594
 5984SOL     OW29587   2.645   1.824  14.134 -0.1939 -0.0424 -0.1477
 5984SOL    HW129588   2.638   1.895  14.198 -2.6509  0.1762 -0.6400
 5984SOL    HW229589   2.738   1.802  14.130  0.4053  2.3152  0.7062
 5985SOL     OW29590   4.589   2.109   3.710  0.0104  0.3643  0.3956
 5985SOL    HW129591   4.595   2.166   3.633 -0.0585 -0.1893 -0.0195
 5985SOL    HW229592   4.596   2.165   3.788 -0.7056 -0.4151  1.0140
 5986SOL     OW29593   0.655   4.589  15.405  0.0476 -0.6558 -0.0396
 5986SOL    HW129594   0.701   4.655  15.457 -1.0898  0.9980 -1.1285
 5986SOL    HW229595   0.578   4.572  15.459 -0.8990 -0.8586 -1.4496
 5987SOL     OW29596   2.157   2.103   0.212  0.4805  0.1176  0.4718
 5987SOL    HW129597   2.129   2.161   0.140  0.7729 -0.9302 -0.4916
 5987SOL    HW229598   2.136   2.017   0.174 -1.1692  1.0463 -0.7317
 5988SOL     OW29599   2.068   1.480   3.020 -0.5650 -0.0836  0.1547
 5988SOL    HW129600   2.018   1.403   3.049 -0.7547  0.1576  0.4624
 5988SOL    HW229601   2.097   1.442   2.937 -4.2265  0.7562 -1.5056
 5989SOL     OW29602   2.626   0.181   2.924  0.1872 -0.2039 -0.1642
 5989SOL    HW129603   2.531   0.188   2.926  0.2859  1.3612 -0.7750
 5989SOL    HW229604   2.649   0.274   2.915  0.2854 -0.1557  0.5859
 5990SOL     OW29605   4.146   4.315   9.051  0.2308  0.4998  0.6333
 5990SOL    HW129606   4.125   4.387   8.991 -0.9135  1.0074  1.6423
 5990SOL    HW229607   4.202   4.348   9.121 -1.7313 -0.0804  2.4779
 5991SOL     OW29608   3.647   1.790   9.549 -0.0744  0.2562 -0.2337
 5991SOL    HW129609   3.585   1.790   9.475 -0.7792  0.7134  0.3612
 5991SOL    HW229610   3.633   1.705   9.589  0.7536  1.1710  1.9541
 5992SOL     OW29611   3.368   3.590   2.807  0.6352 -0.2684 -0.0681
 5992SOL    HW129612   3.302   3.607   2.741 -0.0842  0.7191  0.9129
 5992SOL    HW229613   3.450   3.602   2.760  0.2717 -2.9051 -1.3709
 5993SOL     OW29614   4.147   1.312   7.841  0.4435 -0.3078 -0.3937
 5993SOL    HW129615   4.132   1.405   7.858 -0.3959 -0.4451 -0.3683
 5993SOL    HW229616   4.060   1.274   7.853 -0.8706  2.7540 -0.1210
 5994SOL     OW29617   0.208   4.295   8.939 -0.0674  0.5773  0.3419
 5994SOL    HW129618   0.177   4.253   8.859 -0.3240  0.4619  0.5031
 5994SOL    HW229619   0.201   4.387   8.912  2.3664  0.7879  0.3957
 5995SOL     OW29620   2.931   0.946   3.734  0.0727  0.2352  0.2905
 5995SOL    HW129621   2.881   0.886   3.789  1.2053 -1.1868 -0.2409
 5995SOL    HW229622   3.021   0.915   3.744  0.2500  0.0937 -1.6715
 5996SOL     OW29623   3.354   2.369   3.647  0.5035 -0.5875 -0.3099
 5996SOL    HW129624   3.381   2.321   3.725  0.1699 -1.3837 -0.6912
 5996SOL    HW229625   3.288   2.427   3.686  0.6526 -0.4046 -0.3326
 5997SOL     OW29626   3.280   1.526   8.910 -0.0847 -0.3584  0.0170
 5997SOL    HW129627   3.220   1.588   8.951  1.1512  2.1685 -1.9115
 5997SOL    HW229628   3.243   1.440   8.929  0.1563 -0.2950  0.7701
 5998SOL     OW29629   3.963   3.244   9.006 -0.1368 -0.1266  0.4778
 5998SOL    HW129630   4.051   3.209   9.020 -0.3288 -0.7657  0.0894
 5998SOL    HW229631   3.935   3.216   8.919 -0.4216 -1.6439  1.0609
 5999SOL     OW29632   2.789   1.977   9.697  0.0516  0.8162 -0.6999
 5999SOL    HW129633   2.761   1.885   9.690 -0.8364  0.8427  2.3166
 5999SOL    HW229634   2.882   1.968   9.678  0.0602 -0.7362  0.0404
 6000SOL     OW29635   0.736   2.646  13.001  0.0286 -0.5658 -0.1013
 6000SOL    HW129636   0.694   2.692  12.928  1.4209  0.5677 -0.1749
 6000SOL    HW229637   0.799   2.712  13.028  0.3323 -0.4220 -1.1663
 6001SOL     OW29638   3.457   2.469  11.020 -0.5576  0.1974 -0.0835
 6001SOL    HW129639   3.499   2.506  10.942  1.9453 -1.8909  0.2882
 6001SOL    HW229640   3.531   2.458  11.079 -1.8124  1.6283  1.7785
 6002SOL     OW29641   4.681   1.396   9.523  0.3257 -0.0301 -1.0255
 6002SOL    HW129642   0.018   1.383   9.584 -0.7193  0.9680  0.4211
 6002SOL    HW229643   4.617   1.436   9.582  0.3518  0.3336 -1.2407
 6003SOL     OW29644   3.234   1.377  17.536 -0.2116 -0.3591  0.1818
 6003SOL    HW129645   3.314   1.409  17.579 -2.0170  5.1511 -0.5508
 6003SOL    HW229646   3.184   1.458  17.526 -1.5851 -1.4164 -1.3648
 6004SOL     OW29647   0.073   4.292  16.900  0.7034 -0.0056 -0.5872
 6004SOL    HW129648   0.153   4.278  16.850 -0.5190 -4.1235 -1.4204
 6004SOL    HW229649   0.093   4.383  16.923  1.0346 -0.8049  2.3174
 6005SOL     OW29650   3.180   0.800   3.420 -0.0625  0.3714  0.9792
 6005SOL    HW129651   3.186   0.757   3.505 -0.0161 -0.3239  0.6236
 6005SOL    HW229652   3.086   0.818   3.417  0.1475  1.3719  0.1481
 6006SOL     OW29653   3.350   3.484  13.529 -0.4549 -0.3304  0.1417
 6006SOL    HW129654   3.294   3.492  13.607  1.9892 -0.4754  1.9048
 6006SOL    HW229655   3.343   3.567  13.481  0.6664  0.7497  1.8488
 6007SOL     OW29656   3.479   1.672   6.360  0.1660  0.0738  0.0694
 6007SOL    HW129657   3.423   1.741   6.395  1.0776  1.5877 -1.4634
 6007SOL    HW229658   3.550   1.670   6.424 -0.9747 -0.1661  1.3307
 6008SOL     OW29659   4.009   4.041   6.105  0.7394  0.8150 -0.4224
 6008SOL    HW129660   4.022   4.106   6.037  1.3877 -0.1406 -1.2084
 6008SOL    HW229661   4.049   4.079   6.183 -0.2823  1.2472 -0.1066
 6009SOL     OW29662   2.940   4.610   7.731 -0.0125 -0.6438  0.0176
 6009SOL    HW129663   3.020   4.648   7.767 -0.2555 -0.6220  0.5346
 6009SOL    HW229664   2.936   4.525   7.775 -1.6116 -0.7724 -0.3953
 6010SOL     OW29665   0.959   1.701   5.123 -0.6669  0.6550 -0.0564
 6010SOL    HW129666   0.924   1.757   5.193  0.0194  1.5081 -0.3957
 6010SOL    HW229667   0.895   1.633   5.104  0.1076 -0.2346  0.5124
 6011SOL     OW29668   2.571   3.683   0.257 -0.4527  1.0715 -0.2697
 6011SOL    HW129669   2.509   3.629   0.306 -0.0922  1.6456  0.8078
 6011SOL    HW229670   2.534   3.771   0.269 -0.2510  1.1573 -0.2804
 6012SOL     OW29671   2.119   1.753   0.493 -0.4449  0.0408 -0.0696
 6012SOL    HW129672   2.132   1.667   0.532  0.9982  0.4203  0.2941
 6012SOL    HW229673   2.179   1.809   0.543  0.0620 -2.0901  1.6863
 6013SOL     OW29674   0.947   0.327  12.467  0.5403  0.5535  0.1649
 6013SOL    HW129675   1.019   0.324  12.530  0.0025  0.5955  0.7938
 6013SOL    HW229676   0.934   0.233  12.476 -0.1889  0.5128 -1.3411
 6014SOL     OW29677   2.869   3.280  17.188 -0.3586  0.1723  0.0567
 6014SOL    HW129678   2.965   3.286  17.188 -0.3102 -0.5652  0.3005
 6014SOL    HW229679   2.845   3.367  17.157 -1.0273  0.3417  1.0598
 6015SOL     OW29680   0.586   2.503  17.492  0.0810  0.3306  0.4539
 6015SOL    HW129681   0.567   2.411  17.473  1.4497 -0.0104  0.7781
 6015SOL    HW229682   0.600   2.493  17.586 -0.8431 -1.1446  0.4294
 6016SOL     OW29683   1.908   3.154   7.032  0.1792  0.1670  0.2380
 6016SOL    HW129684   1.929   3.156   7.126 -1.2382 -0.2971  0.5691
 6016SOL    HW229685   1.990   3.183   6.993 -0.7713 -3.2152 -4.2541
 6017SOL     OW29686   3.328   3.166  15.021  0.2118 -0.1898  0.5160
 6017SOL    HW129687   3.344   3.081  14.982  1.9771  0.7950 -0.8809
 6017SOL    HW229688   3.289   3.137  15.104  2.6070 -0.7967  1.4392
 6018SOL     OW29689   3.276   4.208   0.744  0.4317 -0.1886  0.3155
 6018SOL    HW129690   3.277   4.160   0.827  3.6737  2.3354  1.7793
 6018SOL    HW229691   3.244   4.135   0.692 -0.5666 -0.3948  1.2288
 6019SOL     OW29692   0.907   2.866   0.903 -0.4135  0.0137 -0.2094
 6019SOL    HW129693   0.922   2.793   0.962  1.0192 -0.6505 -1.4031
 6019SOL    HW229694   0.951   2.931   0.959  2.2623 -1.6022 -0.4525
 6020SOL     OW29695   1.645   0.077   9.012  0.0846 -0.5837  0.0146
 6020SOL    HW129696   1.551   0.067   8.996  0.0717  0.0692 -0.3319
 6020SOL    HW229697   1.672   0.117   8.930  1.2920  0.7479  1.0530
 6021SOL     OW29698   0.768   4.059   0.754  0.1851 -0.3972 -0.5547
 6021SOL    HW129699   0.798   4.143   0.718  1.1309 -0.1149  0.9276
 6021SOL    HW229700   0.848   4.026   0.795 -0.4761 -0.9406  0.2932
 6022SOL     OW29701   0.202   3.066   7.827  1.1257 -0.1720  0.6241
 6022SOL    HW129702   0.293   3.043   7.850  1.3442 -0.6881 -0.7809
 6022SOL    HW229703   0.186   3.035   7.738  0.5815  1.7442  0.0664
 6023SOL     OW29704   0.824   3.258   2.514 -0.2951 -0.3027  0.1148
 6023SOL    HW129705   0.876   3.295   2.443 -1.6225  0.0322 -0.6884
 6023SOL    HW229706   0.763   3.200   2.469  0.3095 -1.1307  0.3467
 6024SOL     OW29707   0.368   1.850   3.210  0.2853  0.0929  0.2064
 6024SOL    HW129708   0.306   1.899   3.156 -1.0428  0.0580  1.7005
 6024SOL    HW229709   0.331   1.763   3.217  0.1345  0.0554 -1.2139
 6025SOL     OW29710   3.337   4.652   8.964  0.0766  0.1762  0.5581
 6025SOL    HW129711   3.261   4.631   8.909  1.2328  1.1140 -1.3999
 6025SOL    HW229712   3.300   4.666   9.051 -0.5188 -1.9806  0.6632
 6026SOL     OW29713   3.106   2.006  16.244 -0.1510  0.1976 -0.7411
 6026SOL    HW129714   3.057   2.065  16.301  1.5072 -1.7306  2.6373
 6026SOL    HW229715   3.163   1.961  16.305 -1.8168 -1.6349 -0.5323
 6027SOL     OW29716   1.413   1.260   5.637 -0.1570  0.0627  0.4546
 6027SOL    HW129717   1.386   1.173   5.668  0.8727 -0.8734 -1.2506
 6027SOL    HW229718   1.473   1.235   5.566  0.0438  1.2737  0.2044
 6028SOL     OW29719   1.962   3.399  14.723 -0.3529  0.1852 -0.0702
 6028SOL    HW129720   1.874   3.435  14.730 -0.5533 -0.1664 -0.7223
 6028SOL    HW229721   1.977   3.390  14.629 -1.0512 -1.2338 -0.0442
 6029SOL     OW29722   1.735   2.573   2.719  0.5502 -0.4958 -0.4692
 6029SOL    HW129723   1.648   2.569   2.758  0.5359 -0.0043 -0.4524
 6029SOL    HW229724   1.728   2.491   2.671 -0.3146  0.2647 -1.6245
 6030SOL     OW29725   3.573   0.788  16.955 -0.0636  0.0068 -0.3241
 6030SOL    HW129726   3.634   0.858  16.977  1.6443 -1.3405 -0.6851
 6030SOL    HW229727   3.603   0.768  16.866 -2.6396 -0.0723 -1.1777
 6031SOL     OW29728   4.564   1.990   9.499 -0.5671  0.3035 -0.1122
 6031SOL    HW129729   4.615   2.023   9.425 -0.2734  1.7602  0.7309
 6031SOL    HW229730   4.489   2.048   9.487 -0.2356  0.5459 -1.0893
 6032SOL     OW29731   3.753   0.447   3.966 -0.3136 -0.2050 -0.8213
 6032SOL    HW129732   3.816   0.377   3.947  0.3036  0.2331 -0.4138
 6032SOL    HW229733   3.813   0.516   3.993 -1.8187  0.2044  1.4884
 6033SOL     OW29734   2.456   2.719  10.273 -0.4522  0.1576  0.4444
 6033SOL    HW129735   2.513   2.704  10.198  0.2029  1.2420  0.7330
 6033SOL    HW229736   2.375   2.728  10.223 -0.7266  3.6830  1.5600
 6034SOL     OW29737   3.010   2.594   1.798 -0.0995 -0.4629  0.1690
 6034SOL    HW129738   2.967   2.540   1.731  0.4892 -0.2013 -0.4186
 6034SOL    HW229739   2.982   2.684   1.778  1.1972  0.0769  0.8086
 6035SOL     OW29740   4.194   3.284   5.718  0.6148  0.5373 -0.1537
 6035SOL    HW129741   4.289   3.278   5.731  0.5694  1.9293  0.8854
 6035SOL    HW229742   4.181   3.360   5.775  1.9069  0.3540  0.3963
 6036SOL     OW29743   1.229   2.917   0.982 -0.6564 -0.2377  0.5337
 6036SOL    HW129744   1.207   3.009   0.969  1.3648  0.5026  2.3650
 6036SOL    HW229745   1.277   2.920   1.065  1.3824 -0.5556 -0.6279
 6037SOL     OW29746   2.055   1.942   3.768 -0.1067  0.4868  0.2016
 6037SOL    HW129747   2.145   1.924   3.743  0.2896  2.1769  0.4371
 6037SOL    HW229748   2.015   1.862   3.734 -2.3787  1.4829  0.5131
 6038SOL     OW29749   1.789   2.780   5.405  0.3407  0.0257 -0.0077
 6038SOL    HW129750   1.798   2.871   5.378  2.6401 -0.4273 -0.7116
 6038SOL    HW229751   1.817   2.737   5.324 -2.6494 -0.1402 -0.9410
 6039SOL     OW29752   3.027   1.433  14.466 -0.5859 -0.4194  0.2174
 6039SOL    HW129753   3.120   1.456  14.465 -0.8962  0.8012 -1.1745
 6039SOL    HW229754   3.039   1.342  14.437  1.8961  0.0441 -0.2222
 6040SOL     OW29755   4.169   4.379  13.399  0.2526 -0.4891  0.7390
 6040SOL    HW129756   4.082   4.344  13.420  0.5899 -0.2091  2.6307
 6040SOL    HW229757   4.149   4.472  13.413  0.1935 -0.4659  0.5036
 6041SOL     OW29758   2.036   1.934   4.431  0.0659 -0.2929  0.1726
 6041SOL    HW129759   2.056   2.028   4.431 -1.9989  0.1427 -0.4197
 6041SOL    HW229760   2.015   1.920   4.523  0.6351 -1.6665  0.1007
 6042SOL     OW29761   4.558   1.918   2.513  0.0304  0.9438 -0.3880
 6042SOL    HW129762   4.554   1.956   2.425 -0.2572 -0.1722 -0.8490
 6042SOL    HW229763   4.517   1.834   2.493  0.3453  1.0273 -1.4233
 6043SOL     OW29764   4.108   0.569   9.161  0.3421 -0.6208 -0.3648
 6043SOL    HW129765   4.167   0.574   9.086 -0.4457  1.0878 -0.8505
 6043SOL    HW229766   4.139   0.641   9.216  0.3334 -2.3809  1.9498
 6044SOL     OW29767   0.429   3.521   7.009  0.2823  0.7155 -0.2168
 6044SOL    HW129768   0.423   3.577   7.087  1.4061  0.8394 -0.2215
 6044SOL    HW229769   0.435   3.586   6.939  1.4754  1.0113  0.1558
 6045SOL     OW29770   3.036   4.365   1.503  0.2175  0.6290  0.1043
 6045SOL    HW129771   3.125   4.343   1.476  0.6919  1.6996  0.8493
 6045SOL    HW229772   3.050   4.379   1.596 -0.5701 -1.3292  0.5386
 6046SOL     OW29773   3.361   0.754   5.800  0.0062 -0.6961  0.4142
 6046SOL    HW129774   3.269   0.783   5.797 -0.1542 -0.9563  2.5198
 6046SOL    HW229775   3.359   0.685   5.867  3.7607  0.5844  1.8127
 6047SOL     OW29776   3.211   2.970   3.351 -0.2087  0.1999 -0.1783
 6047SOL    HW129777   3.215   3.066   3.358  0.2637  0.1525  0.2273
 6047SOL    HW229778   3.170   2.962   3.265 -0.7151 -1.8961  0.2736
 6048SOL     OW29779   2.517   1.055  12.837 -0.5801  0.4327  0.8537
 6048SOL    HW129780   2.495   1.143  12.867  1.1720  1.8790 -2.0974
 6048SOL    HW229781   2.501   1.010  12.920  0.6483  0.5888  1.1730
 6049SOL     OW29782   2.730   3.141   1.080  0.6648  0.6185  0.4571
 6049SOL    HW129783   2.768   3.116   0.996 -0.7611 -0.5632  0.1764
 6049SOL    HW229784   2.767   3.082   1.145 -1.2291 -0.1917  0.7987
 6050SOL     OW29785   4.242   1.123   4.235 -0.2936  0.0190  0.0055
 6050SOL    HW129786   4.322   1.072   4.220  1.5288  2.9005 -0.2214
 6050SOL    HW229787   4.209   1.084   4.316 -1.0536 -3.1347 -1.8479
 6051SOL     OW29788   1.259   3.056  12.413 -0.0791  0.2887 -0.2960
 6051SOL    HW129789   1.192   3.102  12.463 -2.9851 -0.1504 -3.7512
 6051SOL    HW229790   1.281   3.116  12.341  1.4406 -2.4004 -2.0974
 6052SOL     OW29791   1.301   4.704   9.772 -0.0516 -0.1505  0.6511
 6052SOL    HW129792   1.268   0.012   9.693  1.5127  2.7713  1.5633
 6052SOL    HW229793   1.242   0.010   9.835 -0.1330  0.7426 -0.0106
 6053SOL     OW29794   2.125   3.403   2.046  1.4203  0.1453 -0.0502
 6053SOL    HW129795   2.045   3.440   2.082  1.0361 -0.4569 -0.2744
 6053SOL    HW229796   2.093   3.338   1.984  1.1325  1.6308 -1.4351
 6054SOL     OW29797   2.254   1.002   3.019 -0.2393 -0.3459  0.2130
 6054SOL    HW129798   2.316   0.996   3.092  2.4749 -1.3240 -2.1838
 6054SOL    HW229799   2.304   1.014   2.939 -1.4507  1.2453 -0.2932
 6055SOL     OW29800   3.638   2.151   7.252 -0.0912  0.4643  0.3163
 6055SOL    HW129801   3.623   2.079   7.192 -0.4122  1.6496 -1.0134
 6055SOL    HW229802   3.732   2.168   7.240 -0.2020  0.6998 -0.2161
 6056SOL     OW29803   2.635   4.642   6.269  0.0866  0.0506 -0.0116
 6056SOL    HW129804   2.671   4.611   6.186  0.6791 -0.6791  0.5154
 6056SOL    HW229805   2.701   4.661   6.336  1.5226  0.5599 -1.5741
 6057SOL     OW29806   2.663   0.547   7.372  0.0407  0.1835  0.3128
 6057SOL    HW129807   2.751   0.509   7.363 -0.5746 -0.8312 -1.5922
 6057SOL    HW229808   2.653   0.564   7.465 -0.0955  0.2191  0.2920
 6058SOL     OW29809   3.769   4.610   7.478 -0.0111  0.2632 -0.6936
 6058SOL    HW129810   3.851   4.659   7.473  0.2253 -0.3274 -2.9971
 6058SOL    HW229811   3.726   4.624   7.394  1.0049 -0.9037 -1.4278
 6059SOL     OW29812   3.437   1.994  16.644 -0.1172  0.2516  0.5479
 6059SOL    HW129813   3.465   1.999  16.552 -3.6470  2.3332 -0.3731
 6059SOL    HW229814   3.389   1.911  16.643  0.4448 -0.0663 -0.9197
 6060SOL     OW29815   2.302   1.881  12.747  0.2744 -0.4775 -0.1496
 6060SOL    HW129816   2.271   1.926  12.669  0.7210 -1.3233 -0.8111
 6060SOL    HW229817   2.339   1.800  12.713 -1.9877 -1.5281 -0.0813
 6061SOL     OW29818   4.700   2.419  14.653 -0.1769  0.2955  0.1943
 6061SOL    HW129819   0.041   2.476  14.643 -0.6278  1.4150  3.1541
 6061SOL    HW229820   4.633   2.480  14.620 -1.9322 -1.2410  0.8963
 6062SOL     OW29821   3.276   2.092   9.405 -0.1909 -0.0337 -0.4406
 6062SOL    HW129822   3.187   2.056   9.398 -0.6249  0.8822  0.3742
 6062SOL    HW229823   3.294   2.074   9.497  0.6282  0.7749 -0.4472
 6063SOL     OW29824   2.425   1.468   3.653  0.0200  0.5142  0.4996
 6063SOL    HW129825   2.334   1.459   3.684  0.6376  0.9790  2.4624
 6063SOL    HW229826   2.425   1.551   3.606 -0.2488 -0.9726 -2.0992
 6064SOL     OW29827   2.350   4.322   4.587 -0.2535 -0.9658  0.1232
 6064SOL    HW129828   2.270   4.361   4.623 -0.9651 -0.4271 -2.0477
 6064SOL    HW229829   2.416   4.391   4.598 -0.2655 -1.1212  1.1277
 6065SOL     OW29830   3.188   0.807  17.467 -0.5486 -0.7159  0.3427
 6065SOL    HW129831   3.272   0.763  17.454 -1.2955 -2.0831  0.1137
 6065SOL    HW229832   3.165   0.818  17.375 -0.8941 -0.8573  0.4135
 6066SOL     OW29833   0.219   0.352   2.707  0.1338 -0.0934 -0.4134
 6066SOL    HW129834   0.190   0.266   2.677  1.0270 -0.5069 -0.0768
 6066SOL    HW229835   0.277   0.375   2.634  0.3240  1.0917  0.1058
 6067SOL     OW29836   1.631   0.651  13.860  0.9688 -0.4722 -0.2984
 6067SOL    HW129837   1.700   0.717  13.868 -0.1588  0.8217 -1.1739
 6067SOL    HW229838   1.567   0.674  13.928  1.6822 -0.0483  0.2261
 6068SOL     OW29839   1.952   3.746   8.083  0.0070  0.2364 -0.4459
 6068SOL    HW129840   1.944   3.730   8.177  0.6195  1.3611 -0.1996
 6068SOL    HW229841   1.944   3.654   8.057 -0.1363  0.2584 -0.4788
 6069SOL     OW29842   1.246   2.936  13.393 -0.2178 -0.0844 -0.5227
 6069SOL    HW129843   1.314   2.999  13.366 -0.4895  0.7816  0.7909
 6069SOL    HW229844   1.283   2.850  13.375  0.5816 -0.3589  2.4763
 6070SOL     OW29845   2.130   2.620   7.798  0.0421 -0.0116  0.3262
 6070SOL    HW129846   2.101   2.708   7.820 -1.6484 -0.6574  0.6318
 6070SOL    HW229847   2.113   2.565   7.875  1.5439 -1.7917 -0.6055
 6071SOL     OW29848   2.620   1.978   6.532 -0.0088 -0.2903 -0.9833
 6071SOL    HW129849   2.530   1.976   6.499 -1.1182 -2.2277  2.0802
 6071SOL    HW229850   2.674   2.026   6.470  0.9778 -1.3665 -0.9504
 6072SOL     OW29851   0.179   1.377   3.768  0.6648  0.6810 -0.3895
 6072SOL    HW129852   0.222   1.439   3.709  1.5523  0.0072 -0.4561
 6072SOL    HW229853   0.207   1.410   3.854  1.3055  2.7681 -1.3970
 6073SOL     OW29854   3.537   2.788   2.518 -0.0882 -0.1439  0.4354
 6073SOL    HW129855   3.560   2.881   2.526 -0.1818  0.0393 -1.4067
 6073SOL    HW229856   3.480   2.780   2.595 -0.5470  1.2746  0.2440
 6074SOL     OW29857   2.080   3.475   7.881 -0.4857  0.0940 -0.5836
 6074SOL    HW129858   2.027   3.542   7.838 -0.6362 -1.1866 -2.3785
 6074SOL    HW229859   2.066   3.409   7.813 -2.8369  1.5697 -1.5268
 6075SOL     OW29860   3.917   3.584   2.524  0.3778  0.1485 -0.0345
 6075SOL    HW129861   3.972   3.650   2.481  1.6434 -0.9021 -0.0057
 6075SOL    HW229862   3.873   3.556   2.443 -2.1976  0.2063  1.3335
 6076SOL     OW29863   2.352   1.857   6.159  0.0995  0.0762  0.3804
 6076SOL    HW129864   2.407   1.932   6.181 -0.8979  1.5792 -2.2041
 6076SOL    HW229865   2.278   1.877   6.216  0.6137 -2.6028  1.9825
 6077SOL     OW29866   2.813   2.441   7.701 -0.7065  0.1359 -0.2433
 6077SOL    HW129867   2.858   2.423   7.618  2.2665 -1.4468  1.7053
 6077SOL    HW229868   2.775   2.356   7.724  0.2563 -0.5713 -1.2493
 6078SOL     OW29869   2.013   1.471  11.819 -0.1797 -0.4886  0.2616
 6078SOL    HW129870   2.089   1.529  11.826 -1.4322  1.2616 -0.7505
 6078SOL    HW229871   2.021   1.424  11.902 -0.2316 -0.6647  0.1658
 6079SOL     OW29872   1.917   0.381   2.914  0.2170  0.4436 -0.1812
 6079SOL    HW129873   1.830   0.412   2.938 -0.8217 -1.8163 -0.9651
 6079SOL    HW229874   1.910   0.386   2.818  3.4546  0.5296 -0.4162
 6080SOL     OW29875   1.739   3.413  14.562 -0.2140  0.2762 -0.0388
 6080SOL    HW129876   1.749   3.321  14.536  0.5741 -0.2700  2.1824
 6080SOL    HW229877   1.704   3.443  14.479 -1.2265 -0.6041  0.0588
 6081SOL     OW29878   0.442   3.337   9.248 -0.1201  0.9311  0.2617
 6081SOL    HW129879   0.403   3.307   9.165 -2.0692 -0.9275  1.8402
 6081SOL    HW229880   0.513   3.274   9.253 -0.6293  0.2855 -0.5569
 6082SOL     OW29881   0.411   4.204   0.088  0.3147  0.3274 -0.4952
 6082SOL    HW129882   0.378   4.264   0.022  1.9721 -1.0684 -2.5715
 6082SOL    HW229883   0.502   4.230   0.101  0.1956 -0.4917  2.0015
 6083SOL     OW29884   2.902   1.925  10.117  0.4357 -0.6225  0.0314
 6083SOL    HW129885   2.980   1.918  10.173 -1.6557 -0.0657  3.0082
 6083SOL    HW229886   2.830   1.965  10.165  1.3514  0.7869  0.2320
 6084SOL     OW29887   0.366   2.301   8.777 -0.3528 -0.4810 -0.5839
 6084SOL    HW129888   0.394   2.389   8.750 -3.3557  0.4748 -0.5949
 6084SOL    HW229889   0.375   2.254   8.694 -1.1832 -0.7513 -0.5171
 6085SOL     OW29890   3.447   1.773   2.676  0.7058  0.1240 -0.0604
 6085SOL    HW129891   3.387   1.786   2.749  0.1502  1.7140 -0.8026
 6085SOL    HW229892   3.503   1.850   2.672 -0.5237  1.1280  2.0912
 6086SOL     OW29893   2.806   3.310   3.496  0.0911  0.3062  0.6550
 6086SOL    HW129894   2.803   3.214   3.498  2.1138  0.2594  1.4025
 6086SOL    HW229895   2.892   3.336   3.530  1.2739 -1.7058 -0.7965
 6087SOL     OW29896   0.657   4.347  15.781  0.6261  0.4632  0.2271
 6087SOL    HW129897   0.581   4.330  15.725  1.0793 -1.1013  0.0733
 6087SOL    HW229898   0.625   4.422  15.831  1.4196  1.2051 -0.3858
 6088SOL     OW29899   1.115   0.382  14.690 -0.2368  0.0764  0.3504
 6088SOL    HW129900   1.121   0.452  14.755 -0.3494  0.8671 -0.4907
 6088SOL    HW229901   1.200   0.339  14.699 -0.6955 -0.3460  2.7618
 6089SOL     OW29902   0.356   3.725   3.127  0.3782 -0.2243  0.3405
 6089SOL    HW129903   0.314   3.659   3.072  0.3358 -0.0831  0.2065
 6089SOL    HW229904   0.282   3.758   3.177  1.1055  0.9097  0.6723
 6090SOL     OW29905   4.209   1.397  12.733 -0.0065  0.1960 -0.6709
 6090SOL    HW129906   4.243   1.480  12.767 -2.4323  1.2073 -0.6648
 6090SOL    HW229907   4.258   1.378  12.654 -1.2458 -0.2333 -1.3423
 6091SOL     OW29908   1.126   0.642   1.796 -0.4737 -0.3020  0.6472
 6091SOL    HW129909   1.203   0.673   1.748 -0.3086 -0.9338  0.5109
 6091SOL    HW229910   1.090   0.725   1.827 -0.9145 -0.1643 -0.2371
 6092SOL     OW29911   3.781   4.059   7.725  0.2592  0.3329 -0.1567
 6092SOL    HW129912   3.763   4.139   7.676 -0.8414  0.5861  0.6863
 6092SOL    HW229913   3.805   4.003   7.651 -1.5171 -0.8381  0.1591
 6093SOL     OW29914   1.157   3.680   5.786 -0.4170  0.7910 -0.3112
 6093SOL    HW129915   1.067   3.661   5.761 -0.3932 -1.2756  1.1579
 6093SOL    HW229916   1.170   3.619   5.859  0.7340  0.0539 -1.1292
 6094SOL     OW29917   4.591   2.538   2.181  0.0618 -0.1250 -0.5386
 6094SOL    HW129918   4.574   2.474   2.112  1.3305 -2.1486  1.0147
 6094SOL    HW229919   4.505   2.580   2.185 -0.2587 -0.8299 -0.0744
 6095SOL     OW29920   2.046   3.497   2.884 -0.2848 -0.3824  0.0052
 6095SOL    HW129921   2.140   3.486   2.867 -0.8603  1.0730 -4.1329
 6095SOL    HW229922   2.031   3.436   2.956  0.2764 -0.2709  0.2175
 6096SOL     OW29923   2.475   0.013  14.432  0.1575  0.1038  0.2147
 6096SOL    HW129924   2.407   4.705  14.483 -1.4338  2.0874 -0.2617
 6096SOL    HW229925   2.551   0.017  14.491  0.2094  1.1797  0.0810
 6097SOL     OW29926   4.021   1.792   3.150 -0.1214 -0.4755 -0.5039
 6097SOL    HW129927   3.973   1.826   3.226  1.1700 -0.0800  0.1375
 6097SOL    HW229928   4.063   1.874   3.125  0.9956 -0.3029  1.8464
 6098SOL     OW29929   3.735   1.727  13.929 -0.3851  0.3512 -0.4327
 6098SOL    HW129930   3.745   1.812  13.973 -0.7507 -0.7004  1.6983
 6098SOL    HW229931   3.674   1.694  13.995  1.5217  0.7124  1.5213
 6099SOL     OW29932   0.573   3.550   3.534  0.2790  0.3428 -0.9492
 6099SOL    HW129933   0.605   3.590   3.453 -1.0413 -0.4560 -1.8668
 6099SOL    HW229934   0.485   3.536   3.500  0.3440 -1.2891 -0.4443
 6100SOL     OW29935   2.131   1.328  13.753 -0.4880 -0.6023 -0.1888
 6100SOL    HW129936   2.097   1.252  13.800 -0.9426  0.3180  0.9447
 6100SOL    HW229937   2.059   1.347  13.692  0.0404  0.5722 -0.4395
 6101SOL     OW29938   0.553   2.683   2.590 -0.5558  0.2950 -0.5472
 6101SOL    HW129939   0.589   2.771   2.588 -0.7425  0.4171  1.0680
 6101SOL    HW229940   0.458   2.697   2.598 -0.1149  2.2807  1.1571
 6102SOL     OW29941   4.380   0.805   3.253 -0.4890  0.5014  0.1790
 6102SOL    HW129942   4.348   0.739   3.314  1.6681 -1.3105 -0.6408
 6102SOL    HW229943   4.311   0.869   3.268  1.1007  2.2674  0.0289
 6103SOL     OW29944   0.131   3.739   2.033  0.4299  0.4234 -0.5584
 6103SOL    HW129945   0.189   3.677   2.077  0.0737  0.7266  0.3221
 6103SOL    HW229946   0.060   3.677   2.017 -0.3094  1.2456 -0.4484
 6104SOL     OW29947   0.904   4.477   9.617 -0.2154  0.5751 -0.2959
 6104SOL    HW129948   0.838   4.505   9.680  0.1800 -1.3461  0.9779
 6104SOL    HW229949   0.974   4.442   9.673  0.0292 -1.0339 -1.5945
 6105SOL     OW29950   0.910   0.032  16.031  0.2222 -0.6036 -0.0767
 6105SOL    HW129951   0.912   4.672  16.027 -0.0652 -0.7433  3.3191
 6105SOL    HW229952   0.907   0.053  16.124  1.2536  0.1000 -0.1976
 6106SOL     OW29953   3.021   2.894   8.026 -0.1961  0.2241 -0.2113
 6106SOL    HW129954   2.978   2.902   7.941  1.3652 -1.4484 -1.1520
 6106SOL    HW229955   3.012   2.805   8.058  2.0322  0.1048  0.0859
 6107SOL     OW29956   0.491   4.244   1.118 -1.0289 -0.9046 -0.5568
 6107SOL    HW129957   0.567   4.197   1.154 -1.5558  0.1922  2.0004
 6107SOL    HW229958   0.535   4.322   1.085 -0.0411 -1.5804 -0.8202
 6108SOL     OW29959   0.165   1.711  13.568 -0.1083 -0.0852 -0.1902
 6108SOL    HW129960   0.237   1.715  13.631  1.0982 -1.7111 -1.4409
 6108SOL    HW229961   0.208   1.658  13.500  0.1186  1.0802 -0.9420
 6109SOL     OW29962   3.440   4.160   0.069  0.0130  0.0854 -0.3851
 6109SOL    HW129963   3.466   4.216  17.735 -0.5346  2.1509  0.9869
 6109SOL    HW229964   3.457   4.216   0.146 -1.1246 -0.1525  0.0428
 6110SOL     OW29965   0.248   2.929   4.258  0.2464 -0.5755  0.8675
 6110SOL    HW129966   0.194   2.898   4.185  0.9092  0.0681  0.1096
 6110SOL    HW229967   0.217   3.020   4.267  0.2339 -0.7058  2.0360
 6111SOL     OW29968   4.328   2.701  17.059  0.2958  0.8525  0.1409
 6111SOL    HW129969   4.265   2.752  17.109 -0.3821  0.8069 -0.6694
 6111SOL    HW229970   4.390   2.675  17.127  0.3987  0.2621 -0.1773
 6112SOL     OW29971   4.597   0.739   7.841 -0.5238 -0.0080  0.2790
 6112SOL    HW129972   4.613   0.827   7.807 -0.1690 -0.5644 -1.0045
 6112SOL    HW229973   4.661   0.738   7.913 -1.2764 -0.3395  0.9405
 6113SOL     OW29974   4.439   0.573   1.900 -0.2230  0.5327  0.0170
 6113SOL    HW129975   4.372   0.606   1.961 -1.6882 -1.6447 -0.4262
 6113SOL    HW229976   4.489   0.650   1.873  1.8269 -1.7060 -2.5193
 6114SOL     OW29977   3.128   3.047   5.706  0.2442  0.6676 -0.2981
 6114SOL    HW129978   3.208   3.093   5.680  0.4731 -0.2443 -1.2122
 6114SOL    HW229979   3.126   3.061   5.801 -1.5158  1.3450 -0.4424
 6115SOL     OW29980   1.734   3.998   8.126  0.9586 -0.5403  0.0358
 6115SOL    HW129981   1.802   3.935   8.148  1.2274  0.0894  1.0005
 6115SOL    HW229982   1.686   3.968   8.049  0.1204 -1.5438  0.9512
 6116SOL     OW29983   4.158   2.599   8.131 -0.8254  0.0554 -0.4972
 6116SOL    HW129984   4.157   2.606   8.035 -1.4834 -1.9844 -0.6266
 6116SOL    HW229985   4.130   2.509   8.143  0.1909 -0.4108 -1.6282
 6117SOL     OW29986   2.324   4.157   0.064  0.3986 -0.3855  0.3463
 6117SOL    HW129987   2.340   4.181   0.155  0.3563  1.9192 -0.2503
 6117SOL    HW229988   2.252   4.095   0.072 -1.5504  1.4348 -2.8185
 6118SOL     OW29989   2.284   1.204   7.423 -0.6113  0.2073  0.5615
 6118SOL    HW129990   2.312   1.231   7.510  0.5743  0.8082 -0.0008
 6118SOL    HW229991   2.345   1.134   7.399 -0.2827  1.1707 -1.4598
 6119SOL     OW29992   1.415   0.835  14.624 -0.0857 -0.3681  0.1673
 6119SOL    HW129993   1.376   0.768  14.567 -0.1304 -1.6136  1.6647
 6119SOL    HW229994   1.457   0.898  14.565 -1.8335  0.2193 -0.4775
 6120SOL     OW29995   3.127   4.316   8.744 -0.1473  0.6925  0.5828
 6120SOL    HW129996   3.053   4.329   8.686  1.1620  0.6553 -1.0764
 6120SOL    HW229997   3.103   4.336   8.835 -1.2234 -1.3771  0.7620
 6121SOL     OW29998   0.931   2.410   8.558  0.9424 -0.4141 -0.2005
 6121SOL    HW129999   0.898   2.499   8.567 -0.4472 -0.8574 -0.8952
 6121SOL    HW230000   0.962   2.409   8.468 -1.9588  0.8528 -1.1849
 6122SOL     OW30001   1.297   3.822   5.432  0.2624  0.2396 -0.2104
 6122SOL    HW130002   1.386   3.856   5.424  0.4428 -0.2078 -0.0758
 6122SOL    HW230003   1.300   3.731   5.401 -2.2889  0.6249 -1.6476
 6123SOL     OW30004   2.817   0.995   4.077  0.1610 -0.4461  0.1329
 6123SOL    HW130005   2.832   0.964   4.166  1.9279 -2.2371 -0.8003
 6123SOL    HW230006   2.784   0.920   4.029 -0.3847 -0.7346  0.9652
 6124SOL     OW30007   1.639   0.620  13.322 -1.2000 -0.1867 -0.0315
 6124SOL    HW130008   1.729   0.647  13.306 -0.5208 -1.9067  0.9399
 6124SOL    HW230009   1.651   0.526  13.327  1.6199  0.2320  1.0755
 6125SOL     OW30010   2.064   2.372  11.234 -0.1658 -0.0979 -0.0300
 6125SOL    HW130011   2.086   2.422  11.156  0.9771  0.4687  0.6503
 6125SOL    HW230012   2.060   2.444  11.297 -2.5014 -0.8302  0.6669
 6126SOL     OW30013   1.546   1.297  10.598 -0.1636  0.0841 -0.0977
 6126SOL    HW130014   1.596   1.369  10.558 -1.3813  1.4620  0.8622
 6126SOL    HW230015   1.547   1.230  10.530  1.5269 -0.3164  0.3016
 6127SOL     OW30016   1.734   3.092   3.325 -0.3328  0.4679  0.0430
 6127SOL    HW130017   1.687   3.070   3.245  0.7060 -0.5193 -0.3127
 6127SOL    HW230018   1.688   3.169   3.357 -1.6600 -0.7584  1.0685
 6128SOL     OW30019   2.691   4.081   1.511 -0.0929  0.0013 -0.0699
 6128SOL    HW130020   2.676   4.096   1.604  0.3137 -0.8765  0.1317
 6128SOL    HW230021   2.617   4.023   1.495 -0.5105  0.9813 -1.7783
 6129SOL     OW30022   2.654   0.800   7.279 -0.5247  0.1918 -0.1118
 6129SOL    HW130023   2.641   0.715   7.321  0.6825  0.1782  0.2178
 6129SOL    HW230024   2.628   0.780   7.189  1.2858 -2.0785 -0.1295
 6130SOL     OW30025   1.734   0.637   1.831  0.0728  0.6151  0.1448
 6130SOL    HW130026   1.744   0.563   1.773 -1.7363  1.6042 -1.3993
 6130SOL    HW230027   1.805   0.616   1.892 -0.7667 -0.0732  0.8800
 6131SOL     OW30028   1.624   4.371   5.994 -0.3719  1.0132  0.3353
 6131SOL    HW130029   1.692   4.374   5.926 -1.7377  0.0983 -1.0529
 6131SOL    HW230030   1.546   4.350   5.943  0.3705  1.2104 -0.8839
 6132SOL     OW30031   1.549   4.179   2.986  0.2898  0.5388  0.6866
 6132SOL    HW130032   1.458   4.180   2.954 -0.6889 -1.2438  3.4128
 6132SOL    HW230033   1.571   4.270   3.004 -0.8657  1.1612 -0.9929
 6133SOL     OW30034   3.046   4.616   8.934  0.3258 -0.3497  0.1071
 6133SOL    HW130035   3.052   4.631   9.028  1.2489  0.3703 -0.0724
 6133SOL    HW230036   3.054   4.520   8.938  0.2518 -0.3757 -0.3754
 6134SOL     OW30037   3.909   2.207  13.784  0.2504  0.0594  0.4306
 6134SOL    HW130038   3.896   2.295  13.749  1.0472 -0.1698 -0.4487
 6134SOL    HW230039   3.822   2.169  13.779  0.5513 -0.4815 -0.8639
 6135SOL     OW30040   2.230   0.661   7.156  0.3590 -0.3846  0.1670
 6135SOL    HW130041   2.213   0.661   7.250  0.9700 -0.1049  0.2813
 6135SOL    HW230042   2.322   0.634   7.157  0.5537  0.3134  0.9833
 6136SOL     OW30043   0.129   1.693   6.004  0.1392  0.1595 -0.3126
 6136SOL    HW130044   0.212   1.712   6.046  0.2947 -0.9804 -0.1179
 6136SOL    HW230045   0.155   1.631   5.936 -1.8590 -1.8348  0.7556
 6137SOL     OW30046   4.035   4.024   6.740  0.3541  0.5445  0.2804
 6137SOL    HW130047   4.009   3.965   6.669 -2.0661 -0.3331  1.8840
 6137SOL    HW230048   4.106   4.069   6.695 -1.1244  1.5895 -1.0023
 6138SOL     OW30049   1.101   3.921  12.823 -0.0387  0.4852 -0.2317
 6138SOL    HW130050   1.078   3.828  12.820  2.1142 -0.0535  0.0976
 6138SOL    HW230051   1.189   3.917  12.861  0.4570 -0.4123 -1.4812
 6139SOL     OW30052   3.884   4.370   7.338 -0.2491  0.0535  0.0717
 6139SOL    HW130053   3.933   4.289   7.331  0.9547  0.7128  1.0445
 6139SOL    HW230054   3.938   4.421   7.397 -2.0737 -0.3745  2.1089
 6140SOL     OW30055   1.721   3.835   7.885 -0.7129 -0.1080  0.1465
 6140SOL    HW130056   1.793   3.804   7.830  1.0582  1.1122  1.7729
 6140SOL    HW230057   1.721   3.927   7.857 -1.1023  0.1843  1.1071
 6141SOL     OW30058   4.462   0.723   7.398 -0.4449 -0.4042  0.4332
 6141SOL    HW130059   4.489   0.687   7.483 -0.7689  0.3477  0.8518
 6141SOL    HW230060   4.370   0.696   7.389 -0.1552 -1.5516  0.9170
 6142SOL     OW30061   1.217   4.650   2.669  0.0983  0.3759  0.3237
 6142SOL    HW130062   1.157   4.664   2.743  0.4903 -3.7090  1.4275
 6142SOL    HW230063   1.302   4.618   2.698  0.0325  0.8462  1.0220
 6143SOL     OW30064   0.439   3.554  17.019 -0.0415  0.2805 -0.1214
 6143SOL    HW130065   0.487   3.587  16.943  1.6043 -0.3190  0.6694
 6143SOL    HW230066   0.358   3.604  17.007  0.1678  0.3734 -1.1803
 6144SOL     OW30067   0.440   2.967   5.475  0.0634  0.0700  0.0716
 6144SOL    HW130068   0.362   3.022   5.467 -0.6393 -0.7676  1.1383
 6144SOL    HW230069   0.412   2.876   5.465  1.4424 -0.2473 -0.9009
 6145SOL     OW30070   4.115   0.653  13.775 -0.0815 -0.1438  0.0627
 6145SOL    HW130071   4.101   0.742  13.742  0.5457 -0.9623 -2.3965
 6145SOL    HW230072   4.165   0.673  13.854  3.0099  0.8389 -2.1064
 6146SOL     OW30073   0.201   3.722   2.728  0.5585 -0.7114  0.5065
 6146SOL    HW130074   0.126   3.768   2.764  1.6224 -0.1908  2.0446
 6146SOL    HW230075   0.208   3.653   2.794 -0.5969 -1.4641 -0.1606
 6147SOL     OW30076   0.740   1.427   1.740  0.5721  0.4445  0.6655
 6147SOL    HW130077   0.685   1.487   1.689  1.6443  1.4304  0.6690
 6147SOL    HW230078   0.828   1.464   1.747  1.3291 -1.0626 -0.8023
 6148SOL     OW30079   0.900   0.425   8.842 -0.5838 -0.4205  0.4726
 6148SOL    HW130080   0.902   0.338   8.883 -0.9804 -0.5820  0.1538
 6148SOL    HW230081   0.821   0.407   8.792 -0.9891  2.1732  0.1761
 6149SOL     OW30082   2.093   2.441   6.616 -0.4456 -0.2463  0.5667
 6149SOL    HW130083   2.020   2.457   6.675 -0.6772 -1.1001  0.5026
 6149SOL    HW230084   2.073   2.498   6.541 -1.5950  0.0257  1.0927
 6150SOL     OW30085   0.010   2.815   7.657 -0.0879 -0.8300 -0.2013
 6150SOL    HW130086   0.045   2.757   7.725  0.0185 -2.3465 -1.5723
 6150SOL    HW230087   0.091   2.863   7.639 -1.4645  1.3825 -0.5696
 6151SOL     OW30088   2.786   4.634   7.234  0.0260  0.2942 -0.0224
 6151SOL    HW130089   2.726   4.669   7.168 -1.5038 -0.7781  0.8153
 6151SOL    HW230090   2.746   4.559   7.276  0.2971 -1.6424 -3.2671
 6152SOL     OW30091   3.126   3.006  16.690 -0.3427 -0.4563  0.2220
 6152SOL    HW130092   3.083   3.090  16.672 -0.4916 -0.2784  1.3782
 6152SOL    HW230093   3.148   2.977  16.601  0.6086 -0.1415  0.3624
 6153SOL     OW30094   3.563   1.503   8.894 -0.0186  0.4069 -0.3625
 6153SOL    HW130095   3.478   1.547   8.890 -0.7235 -0.9649 -0.4054
 6153SOL    HW230096   3.543   1.438   8.961 -0.5552 -0.0284 -0.9524
 6154SOL     OW30097   0.398   0.546   3.152  0.5680  0.3775 -0.2780
 6154SOL    HW130098   0.388   0.453   3.135 -1.5559  0.5374 -0.0250
 6154SOL    HW230099   0.421   0.549   3.245 -0.4570  0.2052 -0.0166
 6155SOL     OW30100   2.209   4.397   7.383  0.0319 -0.2093  0.4239
 6155SOL    HW130101   2.199   4.338   7.458 -1.1636  0.0424  0.4628
 6155SOL    HW230102   2.270   4.347   7.328 -0.1918  0.1936 -0.1929
 6156SOL     OW30103   3.576   3.205   9.349 -0.2639  0.4053  0.2772
 6156SOL    HW130104   3.643   3.236   9.287 -1.1775  0.8195 -0.5120
 6156SOL    HW230105   3.579   3.273   9.415 -3.0011  1.4951 -0.7126
 6157SOL     OW30106   2.280   1.760   8.751  0.2015 -0.2872  0.1495
 6157SOL    HW130107   2.284   1.685   8.810  0.8235 -1.2254 -1.1071
 6157SOL    HW230108   2.371   1.784   8.735 -0.7271  3.1845  0.0201
 6158SOL     OW30109   0.108   1.691   4.772  0.0699  0.7874  0.3840
 6158SOL    HW130110   0.159   1.628   4.721  0.6947 -1.4550  3.7357
 6158SOL    HW230111   0.017   1.670   4.751 -0.0167  1.9731 -0.4042
 6159SOL     OW30112   1.941   4.563   6.857 -0.3222  0.4259  0.3589
 6159SOL    HW130113   1.990   4.646   6.854 -0.5510  0.5684  0.6151
 6159SOL    HW230114   1.868   4.585   6.799  0.6932  3.9467  0.3943
 6160SOL     OW30115   2.638   3.614   6.536 -0.0164 -0.5699  0.1640
 6160SOL    HW130116   2.628   3.642   6.445  1.8948 -0.0279  0.1151
 6160SOL    HW230117   2.588   3.685   6.578 -1.5312 -1.1401 -0.7066
 6161SOL     OW30118   0.583   0.040   6.027  0.2522 -0.3147 -0.3222
 6161SOL    HW130119   0.654   0.104   6.019 -0.4664  0.5276  0.0292
 6161SOL    HW230120   0.512   0.077   5.974  1.3475 -0.3169 -1.7983
 6162SOL     OW30121   2.213   2.493  16.903  0.1010 -0.3346  0.1707
 6162SOL    HW130122   2.174   2.537  16.827 -0.0126 -2.2529 -0.8589
 6162SOL    HW230123   2.288   2.444  16.871  1.2659 -1.4515  4.5529
 6163SOL     OW30124   0.318   3.772   2.477  0.1390 -0.2975  0.0715
 6163SOL    HW130125   0.405   3.778   2.517  1.3199 -2.5256 -2.1235
 6163SOL    HW230126   0.267   3.750   2.555 -1.7008 -0.8356 -1.2703
 6164SOL     OW30127   4.133   3.056   0.175  0.7287  0.7000  0.5899
 6164SOL    HW130128   4.164   3.086   0.260  0.0324 -1.1084  1.4865
 6164SOL    HW230129   4.075   3.130   0.160 -0.1401 -0.1832 -0.4273
 6165SOL     OW30130   2.380   3.098   0.602 -0.0581 -0.0130 -0.2662
 6165SOL    HW130131   2.468   3.070   0.574 -1.0901 -2.0762 -1.4102
 6165SOL    HW230132   2.320   3.057   0.540 -0.1876 -0.5862  0.2453
 6166SOL     OW30133   4.400   4.596  15.524 -0.1179  0.2073  0.9077
 6166SOL    HW130134   4.339   4.667  15.504 -0.2580  0.3666  1.9184
 6166SOL    HW230135   4.439   4.595  15.437  1.1308  0.7694  1.4571
 6167SOL     OW30136   2.458   2.277   4.561 -0.0967  0.6608 -0.0734
 6167SOL    HW130137   2.535   2.334   4.556  0.0057  0.3171 -2.5527
 6167SOL    HW230138   2.422   2.297   4.647 -1.9117 -0.8117 -0.4908
 6168SOL     OW30139   1.907   4.701   6.488  0.5962  0.0449 -0.2930
 6168SOL    HW130140   1.978   0.006   6.539  1.4596 -1.5192 -0.2802
 6168SOL    HW230141   1.899   0.022   6.411 -1.3919 -1.7543 -1.3794
 6169SOL     OW30142   3.920   3.530   7.689 -0.2013  0.2633 -0.1697
 6169SOL    HW130143   3.837   3.514   7.643  0.1383  1.6473 -1.2944
 6169SOL    HW230144   3.979   3.519   7.614 -0.4360 -0.0123 -0.3099
 6170SOL     OW30145   1.961   2.287   0.786 -0.7966 -0.5429 -0.4635
 6170SOL    HW130146   1.942   2.307   0.878 -1.0069 -2.6691 -0.0409
 6170SOL    HW230147   2.043   2.238   0.791  0.3249  1.2504 -1.0414
 6171SOL     OW30148   2.343   0.303   2.929  0.3252  0.4431  0.6946
 6171SOL    HW130149   2.378   0.392   2.932 -1.8385  1.2759  1.7762
 6171SOL    HW230150   2.285   0.325   2.856 -0.5694 -1.5937  0.7938
 6172SOL     OW30151   3.015   4.414  11.358  0.0553 -0.1762 -0.4168
 6172SOL    HW130152   3.057   4.480  11.303 -0.8151  0.3111 -0.5097
 6172SOL    HW230153   3.088   4.378  11.407 -1.5030 -0.9502  1.3470
 6173SOL     OW30154   4.067   0.132  10.633 -0.0934 -0.6118  0.1205
 6173SOL    HW130155   4.007   0.199  10.666  2.4004  2.3139 -1.3629
 6173SOL    HW230156   4.035   0.126  10.543  1.2705  0.1950 -0.4014
 6174SOL     OW30157   2.624   1.599   3.152 -0.7543  0.2288  0.0640
 6174SOL    HW130158   2.649   1.508   3.133  1.1646  0.5553  0.9992
 6174SOL    HW230159   2.582   1.624   3.070  2.2615  2.6359 -0.7529
 6175SOL     OW30160   1.290   0.868   1.681  0.2402 -0.3308 -0.1295
 6175SOL    HW130161   1.357   0.848   1.746  1.0545  0.5214 -0.6963
 6175SOL    HW230162   1.320   0.956   1.660  1.0736 -1.1182 -2.1700
 6176SOL     OW30163   1.955   2.348  11.755 -0.1738 -0.0402  0.0700
 6176SOL    HW130164   1.882   2.302  11.798  0.6915 -2.9476 -1.5534
 6176SOL    HW230165   2.006   2.362  11.834  1.6449 -0.3489 -1.0686
 6177SOL     OW30166   3.589   2.169   4.554  0.0257 -0.2829  0.1796
 6177SOL    HW130167   3.664   2.210   4.510 -1.2562  0.6238 -1.1500
 6177SOL    HW230168   3.512   2.205   4.510  0.5387  1.9289  1.1107
 6178SOL     OW30169   2.001   4.704   2.173  0.7289  0.7427 -0.0246
 6178SOL    HW130170   1.907   4.713   2.185  0.9652  0.5293  1.9870
 6178SOL    HW230171   2.028   0.061   2.179  1.2656  0.7088 -1.8407
 6179SOL     OW30172   4.699   1.957   2.983  0.1806 -0.0205 -0.1015
 6179SOL    HW130173   4.684   1.895   3.055 -0.4195 -0.9008 -0.9925
 6179SOL    HW230174   4.615   1.977   2.943 -0.4336 -1.9357  0.2200
 6180SOL     OW30175   3.385   0.213  13.008  0.1293 -0.9668 -0.0285
 6180SOL    HW130176   3.306   0.252  13.045  1.8930  1.0562  1.6355
 6180SOL    HW230177   3.423   0.298  12.987 -1.2335 -0.7099 -1.4022
 6181SOL     OW30178   0.303   4.167  11.063 -0.3166 -0.6780 -0.2091
 6181SOL    HW130179   0.285   4.201  11.151  0.4093  1.0198 -0.7128
 6181SOL    HW230180   0.350   4.242  11.027  0.1056  0.3355  2.4890
 6182SOL     OW30181   3.562   3.817   7.159 -0.7582 -0.0022 -0.1212
 6182SOL    HW130182   3.524   3.866   7.231  0.5950 -0.6129  1.0004
 6182SOL    HW230183   3.491   3.759   7.133 -0.8097 -1.0794  2.5179
 6183SOL     OW30184   1.117   2.523   2.957 -0.6518  0.4161 -0.0116
 6183SOL    HW130185   1.162   2.456   2.906  1.3514  1.4049  0.4462
 6183SOL    HW230186   1.028   2.502   2.928 -1.4095  2.1268  1.0376
 6184SOL     OW30187   2.462   3.510  15.541 -0.1686  0.3928  1.4995
 6184SOL    HW130188   2.518   3.462  15.602  0.4339 -1.1647 -0.2794
 6184SOL    HW230189   2.451   3.593  15.587  0.0898  1.3685 -0.1878
 6185SOL     OW30190   3.488   0.934   3.888  0.3897  0.0841 -0.6083
 6185SOL    HW130191   3.560   0.975   3.840  1.9725 -0.5807  1.2164
 6185SOL    HW230192   3.543   0.948   3.965 -1.6067  2.4721  0.3499
 6186SOL     OW30193   1.453   3.535   8.221  0.2257 -0.0321  0.1654
 6186SOL    HW130194   1.360   3.519   8.207  0.5798 -1.5440 -0.5512
 6186SOL    HW230195   1.469   3.611   8.165  0.1088  0.6187  1.0279
 6187SOL     OW30196   1.127   2.755   8.470  0.1088  0.8769 -0.2690
 6187SOL    HW130197   1.128   2.842   8.510 -2.3034 -0.0031  1.7123
 6187SOL    HW230198   1.048   2.713   8.504  0.2205  0.1240 -0.9457
 6188SOL     OW30199   2.067   1.638  13.940 -0.0991  0.2775  0.1356
 6188SOL    HW130200   2.127   1.567  13.963 -1.9658 -1.5026 -0.5232
 6188SOL    HW230201   2.100   1.714  13.988  0.4197 -0.3048  0.7079
 6189SOL     OW30202   4.126   3.657   6.353  0.3526  0.0067  0.4551
 6189SOL    HW130203   4.091   3.617   6.274  0.9306  3.1967 -1.3955
 6189SOL    HW230204   4.198   3.595   6.361 -0.8802 -1.4025  0.6659
 6190SOL     OW30205   1.320   4.304  13.130 -0.2879  0.4692  0.8958
 6190SOL    HW130206   1.352   4.217  13.104 -2.2282 -0.0153  0.1407
 6190SOL    HW230207   1.373   4.362  13.076 -1.3926  0.2479 -0.4231
 6191SOL     OW30208   0.363   1.010   2.338  0.2226 -0.3920  0.5317
 6191SOL    HW130209   0.437   0.970   2.383  0.0313  0.2851  1.4512
 6191SOL    HW230210   0.397   1.030   2.251 -0.1785 -1.7287  0.0683
 6192SOL     OW30211   0.583   1.901   6.763  0.0283  0.0320 -0.1530
 6192SOL    HW130212   0.554   1.824   6.813  1.5825 -1.8570 -2.1586
 6192SOL    HW230213   0.544   1.973   6.812  1.2590  0.2809  0.4650
 6193SOL     OW30214   3.158   3.109   6.385  0.3156 -0.2027  0.2311
 6193SOL    HW130215   3.157   3.033   6.327  1.6755 -0.0365 -0.0096
 6193SOL    HW230216   3.192   3.073   6.467 -0.8919  1.3227  1.3926
 6194SOL     OW30217   1.003   2.907  15.573 -0.0358 -0.0165 -0.4506
 6194SOL    HW130218   0.965   2.824  15.603  0.1665  0.5541  1.3889
 6194SOL    HW230219   1.006   2.887  15.480  2.6324  0.1258 -0.4044
 6195SOL     OW30220   1.719   1.795   1.932 -0.2798  0.5239  0.1734
 6195SOL    HW130221   1.765   1.746   2.000 -0.4919  0.7650  0.4968
 6195SOL    HW230222   1.762   1.746   1.863 -0.7329 -1.2492  1.1569
 6196SOL     OW30223   3.777   2.109  12.191 -0.1387  0.6313  0.4974
 6196SOL    HW130224   3.721   2.173  12.146  0.2344 -0.0882 -1.0036
 6196SOL    HW230225   3.818   2.071  12.113  0.8151 -1.4072  2.0040
 6197SOL     OW30226   3.729   1.777  16.054 -0.5815 -0.0651  0.0228
 6197SOL    HW130227   3.653   1.799  16.107 -0.7907 -0.1824 -0.2266
 6197SOL    HW230228   3.705   1.821  15.973 -2.2926  0.7894  0.9950
 6198SOL     OW30229   0.979   0.715   2.142  0.3361  0.4600 -1.0194
 6198SOL    HW130230   0.932   0.780   2.194  1.2784 -0.8874  1.5371
 6198SOL    HW230231   0.908   0.651   2.134  1.3076 -0.9497  1.3296
 6199SOL     OW30232   1.480   2.410   2.296  0.1119  0.5574 -0.4678
 6199SOL    HW130233   1.506   2.400   2.387 -0.0384  1.6221 -0.3163
 6199SOL    HW230234   1.452   2.321   2.273 -0.0956  0.5962 -0.3533
 6200SOL     OW30235   2.535   3.155   2.847  0.4039 -0.4074 -0.3129
 6200SOL    HW130236   2.469   3.179   2.782  0.3689 -1.7572 -0.7754
 6200SOL    HW230237   2.481   3.168   2.925 -0.7894  1.5217 -1.4381
 6201SOL     OW30238   2.831   0.399   2.728  0.0602  0.0859 -0.6081
 6201SOL    HW130239   2.761   0.427   2.787  0.3613 -0.0037 -0.2087
 6201SOL    HW230240   2.791   0.420   2.644  0.0370  1.0384 -0.3608
 6202SOL     OW30241   1.467   0.718   2.656 -0.1277  0.1727 -0.0348
 6202SOL    HW130242   1.494   0.767   2.579 -0.2330  2.8935  1.6537
 6202SOL    HW230243   1.520   0.638   2.655 -1.2902 -0.6164  0.2862
 6203SOL     OW30244   0.195   0.445  16.764 -0.0413  0.3859 -0.1519
 6203SOL    HW130245   0.186   0.415  16.855 -0.1802 -0.3320 -0.4019
 6203SOL    HW230246   0.157   0.532  16.757 -1.9154 -0.5448 -1.2879
 6204SOL     OW30247   2.123   1.092   2.332  0.0499  0.3290  0.0006
 6204SOL    HW130248   2.111   1.172   2.281  3.0140  1.4318  1.0468
 6204SOL    HW230249   2.032   1.061   2.333  0.2235 -0.1232  2.4505
 6205SOL     OW30250   4.481   0.045  13.920 -0.1511  0.3901  0.7472
 6205SOL    HW130251   4.460   0.057  14.013 -1.4958 -1.3693  0.6761
 6205SOL    HW230252   4.390   0.042  13.890 -0.1159 -2.9128  0.9382
 6206SOL     OW30253   4.233   1.883   3.531 -0.5252  0.1887 -0.6723
 6206SOL    HW130254   4.183   1.856   3.608 -0.7825 -0.4004 -1.0550
 6206SOL    HW230255   4.251   1.972   3.563  0.2791  0.0341 -0.7016
 6207SOL     OW30256   0.545   3.496  15.815  0.4864  0.0356 -0.3636
 6207SOL    HW130257   0.601   3.549  15.759 -0.1266 -1.0469 -2.0066
 6207SOL    HW230258   0.470   3.486  15.756  0.0255 -2.0513  0.6061
 6208SOL     OW30259   0.335   3.639   0.839 -0.2866 -0.1398  0.2321
 6208SOL    HW130260   0.256   3.673   0.881  1.6454  3.4867  0.9565
 6208SOL    HW230261   0.390   3.640   0.918 -0.9132  0.2022  0.6601
 6209SOL     OW30262   1.790   3.929   1.634  0.1870 -0.0710 -0.7305
 6209SOL    HW130263   1.771   3.966   1.720 -3.2343  1.3661 -2.1280
 6209SOL    HW230264   1.761   3.838   1.646 -2.0488  0.6528 -0.6301
 6210SOL     OW30265   2.964   1.501   8.965 -0.0345  0.3413 -0.0602
 6210SOL    HW130266   2.903   1.446   9.015 -0.8633  0.6291 -0.7473
 6210SOL    HW230267   3.019   1.432   8.928 -1.5458 -1.1045  0.3896
 6211SOL     OW30268   3.107   1.272  15.264  0.2801  0.1091  0.5219
 6211SOL    HW130269   3.092   1.290  15.357  1.0799 -1.6485  0.9917
 6211SOL    HW230270   3.024   1.307  15.231 -0.3102 -0.8872  0.9336
 6212SOL     OW30271   1.463   3.758   0.932 -0.2085 -0.1472 -0.0943
 6212SOL    HW130272   1.397   3.780   0.867  0.6304  4.1599  0.5226
 6212SOL    HW230273   1.538   3.785   0.878 -1.2405  1.0814 -0.9198
 6213SOL     OW30274   0.771   4.278   3.690 -0.4320 -0.5413 -0.0368
 6213SOL    HW130275   0.680   4.296   3.711  0.7867  1.5732  3.4617
 6213SOL    HW230276   0.805   4.367   3.680 -0.6866 -0.5227 -0.7333
 6214SOL     OW30277   1.200   4.146   6.316  0.5036  0.5679 -0.1138
 6214SOL    HW130278   1.161   4.097   6.388 -2.9681  2.1875 -0.8417
 6214SOL    HW230279   1.159   4.232   6.331 -0.1080  0.1885  0.3899
 6215SOL     OW30280   4.509   4.654   6.627  0.0925 -0.1286  0.1066
 6215SOL    HW130281   4.567   4.730   6.635 -0.8283  0.6097 -0.2447
 6215SOL    HW230282   4.443   4.675   6.694 -1.1497 -0.3429 -1.0507
 6216SOL     OW30283   1.904   3.951  13.342 -0.2173 -0.0199  0.0068
 6216SOL    HW130284   1.858   3.966  13.425 -0.6420 -0.1681 -0.2040
 6216SOL    HW230285   1.984   3.998  13.365  0.1208  0.5483 -2.3989
 6217SOL     OW30286   1.469   1.854   4.174  0.1645  0.1492  0.1982
 6217SOL    HW130287   1.554   1.843   4.216  0.2410  0.7142  0.1894
 6217SOL    HW230288   1.462   1.949   4.181 -0.8832  0.1444 -0.6595
 6218SOL     OW30289   1.837   0.331   3.477  0.5197  0.0221 -0.0711
 6218SOL    HW130290   1.910   0.274   3.501  0.0306 -0.6139 -0.1019
 6218SOL    HW230291   1.762   0.272   3.475  1.4401 -1.1370 -0.1771
 6219SOL     OW30292   0.421   2.807   3.576 -0.6738 -0.1287 -0.4715
 6219SOL    HW130293   0.462   2.862   3.642 -0.8825 -0.5334  0.0004
 6219SOL    HW230294   0.475   2.823   3.499 -2.3949  2.0266 -1.2299
 6220SOL     OW30295   4.264   4.049   1.847 -0.2123 -0.2059 -0.4325
 6220SOL    HW130296   4.242   4.052   1.940  0.9741  0.3095 -0.1595
 6220SOL    HW230297   4.290   3.957   1.842 -4.2125 -1.2252 -2.3539
 6221SOL     OW30298   4.108   3.934  13.782 -0.7720 -0.2252 -0.5427
 6221SOL    HW130299   4.025   3.982  13.783 -0.9437 -0.5586  1.0050
 6221SOL    HW230300   4.102   3.889  13.698 -1.0723 -1.4829  0.1621
 6222SOL     OW30301   1.805   3.217   8.895 -0.3937  0.8936  0.0745
 6222SOL    HW130302   1.884   3.219   8.842 -0.6570 -0.5158 -0.3934
 6222SOL    HW230303   1.763   3.298   8.868  0.1157  0.6116 -1.5414
 6223SOL     OW30304   0.171   4.221  12.467 -0.9735  0.0370 -0.2787
 6223SOL    HW130305   0.209   4.133  12.479 -1.1244 -0.1315 -1.0728
 6223SOL    HW230306   0.138   4.227  12.557  0.5105  0.7913  0.2177
 6224SOL     OW30307   2.096   0.755  15.138  0.0458  0.3730 -0.2547
 6224SOL    HW130308   2.055   0.819  15.196 -2.7646 -2.8650  1.3395
 6224SOL    HW230309   2.151   0.715  15.205  0.4538 -1.5953 -1.7574
 6225SOL     OW30310   4.379   3.666   7.821 -0.3519 -0.2129  0.3489
 6225SOL    HW130311   4.409   3.672   7.912  2.2527 -0.4360 -0.4942
 6225SOL    HW230312   4.285   3.678   7.829 -0.5651 -0.5945 -1.6176
 6226SOL     OW30313   3.632   1.443   7.429 -0.3664 -1.0729 -0.1184
 6226SOL    HW130314   3.668   1.496   7.358 -1.4910  1.8893  1.5210
 6226SOL    HW230315   3.706   1.454   7.489  1.1801 -0.1898 -2.1994
 6227SOL     OW30316   0.468   1.101   0.105 -0.4264  0.4045  0.3592
 6227SOL    HW130317   0.542   1.085   0.047 -1.9049  1.5158 -1.8545
 6227SOL    HW230318   0.422   1.174   0.064  1.7570  0.7368 -1.5081
 6228SOL     OW30319   2.225   2.938  11.275  0.2644  1.0081  0.5719
 6228SOL    HW130320   2.143   2.977  11.307 -1.1890 -2.6938  1.4674
 6228SOL    HW230321   2.194   2.905  11.190 -1.2925  2.9574  0.3931
 6229SOL     OW30322   2.075   3.222  12.133 -0.0315 -0.0589  0.1448
 6229SOL    HW130323   2.044   3.212  12.223 -2.6003  2.4862 -0.4393
 6229SOL    HW230324   2.158   3.265  12.150 -0.2775 -0.8857  3.3995
 6230SOL     OW30325   3.009   3.006   2.426  0.2556 -0.3444 -0.3235
 6230SOL    HW130326   2.958   2.926   2.411  0.0743 -0.1350 -0.8198
 6230SOL    HW230327   3.090   2.980   2.381 -0.8163 -2.0898 -1.2517
 6231SOL     OW30328   4.537   2.560   2.511  0.3044  0.0052  0.3395
 6231SOL    HW130329   4.540   2.621   2.438  0.8038  2.5208  2.4701
 6231SOL    HW230330   4.477   2.493   2.479  0.0965  0.4194 -0.1188
 6232SOL     OW30331   3.377   3.019   2.894 -0.9170  0.2069 -0.2073
 6232SOL    HW130332   3.367   3.091   2.832 -1.1244 -0.5931 -1.1065
 6232SOL    HW230333   3.424   3.064   2.965  1.1181 -0.5804 -1.0500
 6233SOL     OW30334   1.187   1.751  14.756 -0.5335 -0.0103  0.2121
 6233SOL    HW130335   1.149   1.692  14.821  0.1204 -1.0364 -0.3370
 6233SOL    HW230336   1.235   1.804  14.819 -0.1114 -1.1406  0.8361
 6234SOL     OW30337   2.018   3.953  10.155  0.6520  0.5590  0.5736
 6234SOL    HW130338   2.058   3.873  10.189  2.7751  1.9041  1.2434
 6234SOL    HW230339   1.970   3.984  10.231 -0.5896  0.9586 -0.3821
 6235SOL     OW30340   1.753   3.594   6.046 -0.7747  0.1091 -0.1237
 6235SOL    HW130341   1.785   3.546   6.123 -2.1052 -1.5818 -0.5970
 6235SOL    HW230342   1.710   3.662   6.097 -0.9059 -0.0820  0.0223
 6236SOL     OW30343   4.399   2.806   4.799  0.2635  0.4867 -0.6780
 6236SOL    HW130344   4.345   2.856   4.738 -0.5749  1.3360  0.7762
 6236SOL    HW230345   4.409   2.729   4.742 -0.1569 -0.4910  0.5544
 6237SOL     OW30346   2.878   0.352   3.901  0.3824 -1.1225  0.2119
 6237SOL    HW130347   2.965   0.347   3.861  0.3108 -1.4398  0.1013
 6237SOL    HW230348   2.829   0.283   3.858  0.5212 -1.3011  0.3405
 6238SOL     OW30349   2.647   4.379   2.068 -0.7026  0.2974  0.2386
 6238SOL    HW130350   2.733   4.340   2.083 -0.3252  0.8591 -0.4927
 6238SOL    HW230351   2.630   4.415   2.155  2.3503 -0.5436  1.1798
 6239SOL     OW30352   2.924   0.870   4.676 -0.4378  0.2324 -0.0756
 6239SOL    HW130353   2.950   0.960   4.691 -1.0619  0.4969 -0.5853
 6239SOL    HW230354   2.893   0.864   4.585  0.4649  2.2581 -0.4974
 6240SOL     OW30355   2.276   2.923   2.955 -0.3570 -0.1119 -0.3206
 6240SOL    HW130356   2.194   2.898   2.998  0.3435  0.2021  1.2147
 6240SOL    HW230357   2.263   3.017   2.942 -3.5765 -0.7466 -1.6153
 6241SOL     OW30358   3.117   2.790  16.086  0.1719 -0.1065  0.0579
 6241SOL    HW130359   3.159   2.724  16.030 -0.3447  0.2941 -0.8088
 6241SOL    HW230360   3.184   2.857  16.097  1.2626 -1.1333 -0.2876
 6242SOL     OW30361   1.753   3.912   4.448 -0.0306 -0.0880  0.3940
 6242SOL    HW130362   1.751   4.006   4.467  0.4858 -0.1076  0.5540
 6242SOL    HW230363   1.683   3.896   4.385 -0.9145  0.7023  1.1742
 6243SOL     OW30364   3.528   1.039   6.395 -0.5135 -0.2116  0.6531
 6243SOL    HW130365   3.547   1.040   6.489 -1.5024  0.4413  0.8508
 6243SOL    HW230366   3.455   0.978   6.383 -0.1368 -0.5403  0.0530
 6244SOL     OW30367   1.547   1.870   8.373 -0.1841  0.2479 -0.3772
 6244SOL    HW130368   1.600   1.907   8.302  1.7339 -1.4446  0.1737
 6244SOL    HW230369   1.594   1.788   8.390 -0.2886  0.5011  1.1117
 6245SOL     OW30370   1.012   3.008   6.581 -0.1057  0.2027  0.5017
 6245SOL    HW130371   1.040   3.017   6.672 -1.5847  0.8787  0.8748
 6245SOL    HW230372   1.035   3.098   6.558 -0.9205 -0.2628 -2.1922
 6246SOL     OW30373   4.338   3.033   5.105  0.3370 -0.2384 -0.4076
 6246SOL    HW130374   4.403   3.010   5.039  1.7976 -0.4383  1.1158
 6246SOL    HW230375   4.262   2.986   5.072  1.9220 -0.5375 -3.6211
 6247SOL     OW30376   2.822   2.545   4.030 -1.3338  0.4774 -0.1348
 6247SOL    HW130377   2.805   2.494   3.951 -1.1376 -0.2532  0.2929
 6247SOL    HW230378   2.855   2.629   3.997  2.0514  0.1167  2.3122
 6248SOL     OW30379   2.079   3.703  10.281  0.1072  0.7416  0.3456
 6248SOL    HW130380   2.172   3.690  10.267  0.4080  2.1959  1.0354
 6248SOL    HW230381   2.077   3.675  10.372 -1.9996 -1.6862 -0.4216
 6249SOL     OW30382   3.938   3.969   5.587  0.1035  0.1105  0.6245
 6249SOL    HW130383   4.028   4.001   5.580  0.6148 -1.0152  2.0262
 6249SOL    HW230384   3.893   4.053   5.582  0.5241  0.2730 -0.5786
 6250SOL     OW30385   3.448   4.237   0.544  0.2779 -0.8065 -0.3845
 6250SOL    HW130386   3.393   4.221   0.620  2.3859 -1.6223  0.9676
 6250SOL    HW230387   3.512   4.170   0.568  0.6884 -0.8574 -1.6125
 6251SOL     OW30388   3.216   3.092   1.697 -0.5110  0.5034 -0.8719
 6251SOL    HW130389   3.197   2.999   1.710  0.2635  0.6203  1.1382
 6251SOL    HW230390   3.311   3.086   1.684 -0.2359  1.0206  0.8022
 6252SOL     OW30391   4.273   3.365   3.014  0.3148 -0.0335 -0.0361
 6252SOL    HW130392   4.308   3.281   2.984 -0.5550 -0.2176 -0.5197
 6252SOL    HW230393   4.303   3.419   2.940  0.8515  0.6913  0.7086
 6253SOL     OW30394   3.278   3.560   5.224  0.0771  1.1499 -0.2451
 6253SOL    HW130395   3.262   3.466   5.226 -0.9148  1.3181  0.0509
 6253SOL    HW230396   3.186   3.588   5.224 -0.4265 -0.5195  0.8034
 6254SOL     OW30397   3.166   2.268   6.733  0.1398  0.6641 -0.6344
 6254SOL    HW130398   3.259   2.248   6.748  0.1794  1.1744 -0.1970
 6254SOL    HW230399   3.173   2.357   6.698  2.2240  0.4873 -0.6652
 6255SOL     OW30400   3.161   2.006  11.066  0.0924 -0.2836  1.0328
 6255SOL    HW130401   3.214   2.080  11.038  1.0997 -1.7423 -0.8769
 6255SOL    HW230402   3.147   1.969  10.979 -0.6731  1.5442  0.3851
 6256SOL     OW30403   2.945   2.388   5.405  0.1961 -0.1843  0.4010
 6256SOL    HW130404   3.003   2.441   5.460 -0.5388  1.7428 -0.6736
 6256SOL    HW230405   2.956   2.298   5.433  1.5328 -1.5091 -4.3605
 6257SOL     OW30406   1.907   0.797   3.178 -0.2309  0.3839  0.1848
 6257SOL    HW130407   1.824   0.812   3.134 -0.6946 -0.0519  0.8919
 6257SOL    HW230408   1.896   0.705   3.206  0.8239  0.0233 -0.5995
 6258SOL     OW30409   2.179   0.589  17.322 -0.5057  0.2922 -0.1752
 6258SOL    HW130410   2.198   0.683  17.318 -0.3145  0.3155  1.1633
 6258SOL    HW230411   2.211   0.565  17.235 -1.3331 -0.2363 -0.3382
 6259SOL     OW30412   2.802   2.614  11.243 -0.2493  0.0361  0.7142
 6259SOL    HW130413   2.894   2.599  11.265 -0.1819 -1.5560 -0.6528
 6259SOL    HW230414   2.801   2.649  11.154  1.9728  3.0837  1.8765
 6260SOL     OW30415   4.426   2.208   4.946 -0.3960 -0.2477  0.0393
 6260SOL    HW130416   4.387   2.224   4.860 -0.4453  1.7688  0.4347
 6260SOL    HW230417   4.395   2.122   4.974 -1.7194  0.2460  0.1385
 6261SOL     OW30418   0.608   3.624   5.322 -0.3944 -0.7464  0.0694
 6261SOL    HW130419   0.597   3.714   5.353 -1.2138 -1.5293  2.0267
 6261SOL    HW230420   0.539   3.618   5.256 -0.6925  1.0356  0.2129
 6262SOL     OW30421   4.464   0.503   1.230 -0.1354 -0.0347  0.1467
 6262SOL    HW130422   4.537   0.531   1.174 -0.6563 -1.0004 -1.0178
 6262SOL    HW230423   4.500   0.420   1.260  0.8441 -0.2114 -1.4978
 6263SOL     OW30424   0.358   1.732   2.429  0.7446  0.0338  0.0038
 6263SOL    HW130425   0.284   1.688   2.388 -0.0969  2.0285 -0.6090
 6263SOL    HW230426   0.400   1.653   2.465  0.5309  0.2937  0.8078
 6264SOL     OW30427   2.451   1.623   5.272  0.5328 -0.3665  0.2713
 6264SOL    HW130428   2.547   1.620   5.274  0.5745  1.5309  1.1324
 6264SOL    HW230429   2.429   1.547   5.219  2.8512 -0.8624 -0.0052
 6265SOL     OW30430   3.621   0.443   7.999  0.6793 -0.0073  0.1711
 6265SOL    HW130431   3.613   0.424   7.906  1.7794 -0.2540  0.1197
 6265SOL    HW230432   3.690   0.509   7.989 -0.7122  1.3143 -0.7050
 6266SOL     OW30433   1.677   4.267   0.150 -0.2960 -0.1630 -0.6506
 6266SOL    HW130434   1.665   4.323   0.074  2.1602 -0.2397 -1.0922
 6266SOL    HW230435   1.677   4.180   0.109 -1.6899 -0.1338 -0.7161
 6267SOL     OW30436   1.472   2.807  14.022 -0.1200  0.7529 -0.4354
 6267SOL    HW130437   1.514   2.892  14.035 -0.8058  1.1026 -0.5024
 6267SOL    HW230438   1.536   2.750  14.064 -1.1616  0.0254  0.1676
 6268SOL     OW30439   1.713   3.937   2.536  0.7655  0.1814 -0.1225
 6268SOL    HW130440   1.656   3.999   2.490 -0.2610 -0.9657 -0.4127
 6268SOL    HW230441   1.761   4.005   2.583 -1.0875  1.4351 -0.0490
 6269SOL     OW30442   2.502   0.731  12.234 -0.5457  0.5745  0.1181
 6269SOL    HW130443   2.536   0.794  12.298  0.2303 -0.3537  0.6168
 6269SOL    HW230444   2.457   0.683  12.303 -1.4675 -0.5676 -1.3047
 6270SOL     OW30445   3.466   3.933   7.392  0.3672  0.3170  0.1134
 6270SOL    HW130446   3.466   4.009   7.450 -0.5713  1.1070 -0.9198
 6270SOL    HW230447   3.371   3.929   7.378  0.7698  0.6420 -2.6851
 6271SOL     OW30448   4.661   1.490   8.842 -0.4650 -0.0226 -0.4273
 6271SOL    HW130449   4.688   1.430   8.772  1.3121 -0.5987  0.7467
 6271SOL    HW230450   4.632   1.570   8.799  1.1449  1.3948  1.0980
 6272SOL     OW30451   1.326   2.582   3.132  0.5525  0.2037 -0.7014
 6272SOL    HW130452   1.258   2.596   3.198  0.3056 -0.4810 -0.8159
 6272SOL    HW230453   1.277   2.541   3.060 -2.6981 -0.5967  1.9681
 6273SOL     OW30454   4.662   3.820   4.793 -0.5632 -0.4159  0.6423
 6273SOL    HW130455   4.660   3.800   4.886  0.9813 -0.8028  0.6006
 6273SOL    HW230456   4.706   3.738   4.769  0.9700  0.4808  0.3903
 6274SOL     OW30457   1.469   2.699   5.749  0.7617 -0.1830  0.7595
 6274SOL    HW130458   1.412   2.671   5.677 -0.8962 -0.6403  2.2607
 6274SOL    HW230459   1.493   2.615   5.787  0.8327 -0.5382 -0.0702
 6275SOL     OW30460   0.955   0.240   7.830  0.1583 -0.1667  0.0108
 6275SOL    HW130461   0.985   0.174   7.768 -1.8205 -1.5815  0.5812
 6275SOL    HW230462   1.028   0.226   7.891 -0.2075  1.8941  0.9334
 6276SOL     OW30463   0.038   2.739   3.568 -0.0124  0.2467  0.3972
 6276SOL    HW130464   4.681   2.752   3.546 -0.1442 -1.1919  0.0713
 6276SOL    HW230465   0.057   2.678   3.497 -2.0641  1.5420 -1.2640
 6277SOL     OW30466   4.213   2.202  14.208 -0.2432  0.7865 -0.5112
 6277SOL    HW130467   4.238   2.276  14.264  1.7436 -1.0467  1.0465
 6277SOL    HW230468   4.185   2.251  14.131 -0.9109 -0.0994 -0.8380
 6278SOL     OW30469   1.432   0.661   5.928 -0.2879 -0.4619 -0.1179
 6278SOL    HW130470   1.482   0.641   6.007  0.6862 -0.3178 -0.6964
 6278SOL    HW230471   1.480   0.744   5.924 -0.4011 -0.3407  0.8931
 6279SOL     OW30472   3.306   3.703   7.045  0.0869  0.2875  0.8442
 6279SOL    HW130473   3.272   3.614   7.050  0.4569  0.2662  2.7859
 6279SOL    HW230474   3.302   3.712   6.949  0.3611 -0.6826  0.7468
 6280SOL     OW30475   0.477   0.752   8.479  0.3311 -0.4812  0.2177
 6280SOL    HW130476   0.529   0.807   8.538  0.3033  0.3179 -0.5012
 6280SOL    HW230477   0.519   0.773   8.396 -1.7557 -2.1388 -1.2392
 6281SOL     OW30478   2.204   2.910  17.408  0.0857  0.3109 -0.2508
 6281SOL    HW130479   2.164   2.825  17.392  0.0015  0.6641 -1.9794
 6281SOL    HW230480   2.234   2.914  17.498 -0.3464 -0.3460 -0.0824
 6282SOL     OW30481   3.569   0.790   3.169  0.8928  0.2375 -0.2064
 6282SOL    HW130482   3.622   0.847   3.224  1.5040 -0.6722  0.1378
 6282SOL    HW230483   3.587   0.705   3.208 -1.9261  0.0201  0.6632
 6283SOL     OW30484   2.127   0.175   8.165 -0.1424  0.3405 -0.3102
 6283SOL    HW130485   2.162   0.193   8.252 -1.2854  0.9979  0.0204
 6283SOL    HW230486   2.033   0.165   8.180  0.0823 -1.3693 -0.0400
 6284SOL     OW30487   2.952   4.405   5.914  0.0272 -0.4940  0.1301
 6284SOL    HW130488   2.925   4.470   5.849  2.7548  2.0587  1.5531
 6284SOL    HW230489   3.047   4.410   5.908  0.0190 -0.1805  0.2512
 6285SOL     OW30490   3.303   0.012   8.129 -0.1307 -0.3740 -0.2243
 6285SOL    HW130491   3.304   0.103   8.158  0.7890 -0.2755 -0.5762
 6285SOL    HW230492   3.378   4.715   8.179 -0.0937 -3.1740 -2.0463
 6286SOL     OW30493   4.711   1.538   2.972 -0.1954 -0.5837 -0.8940
 6286SOL    HW130494   4.711   1.595   3.048 -1.0850 -1.8122  0.0328
 6286SOL    HW230495   0.005   1.600   2.906 -0.9337  1.8784  1.1224
 6287SOL     OW30496   3.022   3.654   5.975 -0.1630  0.2951 -0.3126
 6287SOL    HW130497   3.061   3.670   6.060  1.5196 -0.9683 -0.8492
 6287SOL    HW230498   3.095   3.642   5.914  0.3162  1.4832  0.0309
 6288SOL     OW30499   4.710   1.255   6.434  0.5278  0.0912 -0.5520
 6288SOL    HW130500   0.015   1.224   6.515  0.5650 -1.2041 -1.0673
 6288SOL    HW230501   4.632   1.199   6.443  1.7067 -1.3575  0.5045
 6289SOL     OW30502   3.641   2.990   9.090  0.1680 -0.5184  0.0842
 6289SOL    HW130503   3.588   3.023   9.163 -1.2298 -1.9006 -0.3271
 6289SOL    HW230504   3.697   2.926   9.134  1.2465 -0.2986 -0.9527
 6290SOL     OW30505   4.056   1.634   7.435 -0.1198 -0.6083 -0.2905
 6290SOL    HW130506   4.084   1.695   7.503  1.2177 -0.4178 -1.0108
 6290SOL    HW230507   4.120   1.562   7.437  0.6356  0.0650 -0.3981
 6291SOL     OW30508   0.286   2.368  17.720  0.1957  0.0280 -0.1181
 6291SOL    HW130509   0.355   2.430   0.004 -1.8619  1.8035  1.3380
 6291SOL    HW230510   0.278   2.357  17.625 -1.5299 -1.0633  0.1483
 6292SOL     OW30511   0.501   3.618   1.049  0.1454  0.4697  0.0493
 6292SOL    HW130512   0.572   3.682   1.040 -0.2566  0.9572  0.3692
 6292SOL    HW230513   0.480   3.619   1.142  0.5833  1.7612  0.1327
 6293SOL     OW30514   3.895   2.221  17.394  0.2720  0.6161  0.4797
 6293SOL    HW130515   3.895   2.240  17.488 -1.5444 -2.6563  1.1279
 6293SOL    HW230516   3.873   2.309  17.364  1.1472 -0.2032 -2.5715
 6294SOL     OW30517   0.636   2.295   4.854  0.0019  0.1253 -0.5447
 6294SOL    HW130518   0.567   2.328   4.911  0.1120 -0.2239 -0.2092
 6294SOL    HW230519   0.612   2.334   4.770 -1.9025  1.7228  0.7532
 6295SOL     OW30520   3.781   2.256   0.186  0.2993 -0.2774 -0.6304
 6295SOL    HW130521   3.757   2.347   0.200 -1.9677 -1.3213  2.3623
 6295SOL    HW230522   3.838   2.244   0.262 -1.1247 -1.2630  0.2992
 6296SOL     OW30523   4.335   2.752  15.340  0.1966  0.3464 -0.5423
 6296SOL    HW130524   4.388   2.821  15.300  0.4144  0.0010 -0.8479
 6296SOL    HW230525   4.246   2.784  15.325  0.7821  1.4397 -1.7027
 6297SOL     OW30526   1.429   3.216  14.009  0.5811 -0.3865  0.6795
 6297SOL    HW130527   1.376   3.164  14.071 -1.8098 -0.6857 -1.6230
 6297SOL    HW230528   1.370   3.287  13.983  1.0397 -0.4809 -0.5725
 6298SOL     OW30529   1.073   2.623   4.177 -0.3265 -0.2180  0.3424
 6298SOL    HW130530   1.078   2.641   4.271  0.0774  0.3812  0.2079
 6298SOL    HW230531   0.982   2.647   4.156 -0.5377 -1.5599 -0.2430
 6299SOL     OW30532   0.282   0.887   8.140  0.3376  0.4303  0.1036
 6299SOL    HW130533   0.351   0.910   8.078 -0.5046  0.6917 -0.7475
 6299SOL    HW230534   0.224   0.827   8.092 -0.7783  0.8497  0.9167
 6300SOL     OW30535   0.056   2.398   9.963 -0.5160  0.2649 -0.3363
 6300SOL    HW130536   4.715   2.383  10.019 -0.7573  1.0182 -0.4692
 6300SOL    HW230537   0.064   2.312   9.921  2.9374  1.0532 -1.2330
 6301SOL     OW30538   4.272   1.650   9.451 -0.2713  0.2870  0.2145
 6301SOL    HW130539   4.215   1.726   9.435  0.3592  0.9601  1.2106
 6301SOL    HW230540   4.350   1.670   9.398 -0.7992 -1.5466 -1.2801
 6302SOL     OW30541   4.416   3.823   1.787  0.0984 -0.6357  0.2989
 6302SOL    HW130542   4.509   3.846   1.779 -0.1268 -0.1924 -1.0811
 6302SOL    HW230543   4.400   3.784   1.701  0.8466  1.8016 -0.9298
 6303SOL     OW30544   0.541   2.424  12.236 -0.0979  0.0544  0.3489
 6303SOL    HW130545   0.592   2.410  12.157 -3.0786 -1.9768 -1.2055
 6303SOL    HW230546   0.562   2.354  12.297  1.6313  0.1428 -0.1637
 6304SOL     OW30547   3.557   3.656   4.772 -0.1164 -0.5994 -0.2815
 6304SOL    HW130548   3.544   3.727   4.834 -1.0645 -0.3186 -0.8098
 6304SOL    HW230549   3.575   3.706   4.692 -0.4720 -0.4730 -0.2819
 6305SOL     OW30550   2.237   0.406   5.251  0.9418  0.2030 -0.3442
 6305SOL    HW130551   2.303   0.458   5.296 -0.0593 -0.4969  1.9439
 6305SOL    HW230552   2.297   0.343   5.212 -0.3828 -0.6610 -0.9977
 6306SOL     OW30553   2.506   0.108   5.421 -0.2708  0.1531  0.2367
 6306SOL    HW130554   2.506   0.036   5.484 -0.1826 -1.4981 -1.6712
 6306SOL    HW230555   2.416   0.108   5.389  0.3340  2.6644 -1.5073
 6307SOL     OW30556   4.433   2.928  13.475 -0.1659  0.1552  0.2209
 6307SOL    HW130557   4.373   3.001  13.459 -0.1838 -0.0364 -0.5747
 6307SOL    HW230558   4.510   2.954  13.425  1.0658  0.6380  2.3956
 6308SOL     OW30559   4.415   0.261   9.432 -0.7110 -0.3522  1.2683
 6308SOL    HW130560   4.387   0.250   9.522  0.1181  0.0285  1.5681
 6308SOL    HW230561   4.510   0.265   9.441 -0.4753  2.2405 -2.2530
 6309SOL     OW30562   3.715   3.641   9.648 -0.0167  0.6954  0.2149
 6309SOL    HW130563   3.797   3.690   9.651  0.2674  0.2146  0.3775
 6309SOL    HW230564   3.665   3.681   9.719 -0.4150  0.7903 -0.1168
 6310SOL     OW30565   0.378   0.992   0.588 -0.3265 -0.2565  0.1061
 6310SOL    HW130566   0.342   1.080   0.585 -1.1426 -0.5477  1.1219
 6310SOL    HW230567   0.470   1.012   0.608 -0.5409 -0.1534  1.0235
 6311SOL     OW30568   0.193   2.654   4.718 -0.2067  0.0098  0.0545
 6311SOL    HW130569   0.170   2.598   4.645  1.1565 -0.4916  0.0160
 6311SOL    HW230570   0.167   2.741   4.686 -0.4584 -0.2683 -0.4887
 6312SOL     OW30571   2.096   1.373  16.117  0.4069 -0.5473  0.3290
 6312SOL    HW130572   2.028   1.369  16.183 -0.0337 -1.5586 -0.1960
 6312SOL    HW230573   2.129   1.460  16.142 -0.8227 -0.0891  0.3668
 6313SOL     OW30574   1.160   1.378   0.679 -0.1880 -0.2809 -0.1003
 6313SOL    HW130575   1.224   1.447   0.699  1.5080 -1.2916 -2.0159
 6313SOL    HW230576   1.185   1.360   0.588  0.4993  0.3311 -0.0329
 6314SOL     OW30577   0.339   3.494   2.090 -0.2812  0.3600  0.0367
 6314SOL    HW130578   0.423   3.450   2.077 -0.6988 -0.3727 -0.1560
 6314SOL    HW230579   0.283   3.450   2.026  0.8516 -1.2045  0.1124
 6315SOL     OW30580   0.711   2.887   9.076 -0.3606 -0.4525  0.3294
 6315SOL    HW130581   0.638   2.880   9.137 -0.5005 -2.4155 -0.0366
 6315SOL    HW230582   0.788   2.872   9.130  0.0560  0.8220  0.0815
 6316SOL     OW30583   3.652   1.890   4.621  0.2376 -0.6593  0.0637
 6316SOL    HW130584   3.625   1.981   4.633 -0.7642 -0.8487 -0.7444
 6316SOL    HW230585   3.570   1.844   4.605  0.6164 -0.9277 -1.0644
 6317SOL     OW30586   2.190   3.209  15.302 -0.3043  1.2215 -0.2444
 6317SOL    HW130587   2.108   3.209  15.352  0.4536 -1.7550  0.9564
 6317SOL    HW230588   2.191   3.301  15.275  1.8416  0.9083 -1.2058
 6318SOL     OW30589   2.923   2.671   0.427  0.1856  0.3638 -0.0173
 6318SOL    HW130590   2.907   2.581   0.398 -0.8916  0.1589  1.2183
 6318SOL    HW230591   2.872   2.717   0.361 -0.1053  0.8558  0.5534
 6319SOL     OW30592   2.271   4.249   6.409  0.3080  0.0807 -0.3096
 6319SOL    HW130593   2.229   4.233   6.324  0.1598  0.1000 -0.2411
 6319SOL    HW230594   2.307   4.335   6.391  1.7853  0.2566  3.5119
 6320SOL     OW30595   1.133   4.110  16.849 -0.7181 -0.4060  0.0632
 6320SOL    HW130596   1.180   4.030  16.873  1.7575  0.3618 -2.2646
 6320SOL    HW230597   1.201   4.176  16.842  0.2938 -1.5610 -0.9955
 6321SOL     OW30598   2.168   4.656   8.544 -0.5842  0.0648 -0.2596
 6321SOL    HW130599   2.157   0.016   8.538 -1.5251 -0.0766 -0.7259
 6321SOL    HW230600   2.142   4.625   8.631 -1.0908  0.9446 -0.1043
 6322SOL     OW30601   3.591   0.720   6.231 -0.1176 -0.1774 -0.0586
 6322SOL    HW130602   3.512   0.668   6.244 -0.4454  0.1085 -0.8945
 6322SOL    HW230603   3.612   0.741   6.322 -4.1806  0.4812  0.6887
 6323SOL     OW30604   3.043   2.590   6.543  0.0346  0.1686  0.2437
 6323SOL    HW130605   2.978   2.535   6.500  1.7534 -1.6295 -0.0561
 6323SOL    HW230606   3.125   2.564   6.501  0.9755  0.7606  1.6971
 6324SOL     OW30607   2.236   4.493  10.124  0.4267  0.4747 -0.4245
 6324SOL    HW130608   2.186   4.525  10.199 -1.2291  0.0003 -1.3127
 6324SOL    HW230609   2.328   4.508  10.144  1.5203  0.3806 -5.3039
 6325SOL     OW30610   3.189   0.371   1.640 -0.5957 -0.7123 -0.8845
 6325SOL    HW130611   3.128   0.327   1.700  1.8088 -2.1896  0.4929
 6325SOL    HW230612   3.257   0.305   1.628 -0.0526 -0.4666  0.8771
 6326SOL     OW30613   4.703   1.851  15.501 -0.0331  0.3500 -0.0832
 6326SOL    HW130614   4.658   1.796  15.565  1.5716 -0.4152  0.4013
 6326SOL    HW230615   4.729   1.778  15.444 -2.2651 -0.9458  0.5886
 6327SOL     OW30616   4.539   4.362   9.868 -0.1531  0.1331 -0.4703
 6327SOL    HW130617   4.599   4.411   9.925 -0.7732  1.1348 -0.6868
 6327SOL    HW230618   4.478   4.432   9.849  0.3546  0.9618  0.9652
 6328SOL     OW30619   1.428   4.709  13.422  0.2627 -0.6635  0.3414
 6328SOL    HW130620   1.468   0.025  13.492  0.2824 -0.9917  0.5679
 6328SOL    HW230621   1.488   4.698  13.348 -1.7112  1.2318 -1.5336
 6329SOL     OW30622   2.154   4.594  12.210 -0.0658 -0.3702  0.1363
 6329SOL    HW130623   2.130   4.618  12.120 -0.6689 -1.5864 -0.0278
 6329SOL    HW230624   2.085   4.641  12.255  1.6471  1.3568  0.9581
 6330SOL     OW30625   2.200   0.179  12.105  0.2240 -0.1049 -0.4109
 6330SOL    HW130626   2.251   0.222  12.037  0.9575 -0.3478 -0.0175
 6330SOL    HW230627   2.192   0.101  12.050 -2.0507  1.6166 -2.5136
 6331SOL     OW30628   0.121   3.981  11.108 -0.5559  0.0893  0.2951
 6331SOL    HW130629   0.190   4.039  11.077 -0.2741  0.4033  1.5106
 6331SOL    HW230630   0.072   4.043  11.161  1.5073  0.5930  1.6442
 6332SOL     OW30631   2.172   2.445   2.539  0.0179  0.2576  0.5547
 6332SOL    HW130632   2.201   2.511   2.476 -0.2716 -1.0342 -0.9220
 6332SOL    HW230633   2.203   2.484   2.621 -0.2956  0.0063  0.7882
 6333SOL     OW30634   1.060   0.085   7.656  0.1618 -0.2772  0.1113
 6333SOL    HW130635   1.019   0.000   7.639 -0.2867 -0.3860  1.7610
 6333SOL    HW230636   1.152   0.061   7.640  0.2040 -0.5032  0.7111
 6334SOL     OW30637   4.528   2.657   3.987 -0.4782 -0.3188  0.5189
 6334SOL    HW130638   4.500   2.603   4.061  0.5629 -1.2419  0.2292
 6334SOL    HW230639   4.456   2.719   3.978 -0.5792 -0.4082  0.7056
 6335SOL     OW30640   0.651   1.777   3.786  0.7925  0.0414  0.3980
 6335SOL    HW130641   0.709   1.817   3.722 -1.3337  0.9261 -1.0051
 6335SOL    HW230642   0.570   1.824   3.766 -0.5866 -2.2807  0.4297
 6336SOL     OW30643   1.256   1.317   4.396 -0.1440 -0.1590 -0.4656
 6336SOL    HW130644   1.173   1.292   4.357 -0.3850  1.2168 -0.8481
 6336SOL    HW230645   1.274   1.398   4.348 -1.1218 -0.0714 -0.6739
 6337SOL     OW30646   2.934   2.471  11.513  0.0324 -0.2951 -0.1983
 6337SOL    HW130647   3.002   2.495  11.450  0.9400 -1.8946  0.1947
 6337SOL    HW230648   2.874   2.546  11.512 -1.4452 -1.4647  0.2385
 6338SOL     OW30649   1.276   3.065  10.674 -0.1204 -0.1359 -0.4175
 6338SOL    HW130650   1.244   2.999  10.736  3.6312 -1.5615 -0.0417
 6338SOL    HW230651   1.192   3.075  10.629  0.3126 -0.1417 -1.2345
 6339SOL     OW30652   0.838   1.067   7.795 -0.8223 -0.4798 -0.0832
 6339SOL    HW130653   0.743   1.065   7.782 -0.9069  3.2778  0.1038
 6339SOL    HW230654   0.867   1.150   7.758 -1.6555  0.4132  1.2620
 6340SOL     OW30655   2.261   3.296  14.685 -0.0297  0.2996 -0.3378
 6340SOL    HW130656   2.191   3.307  14.619 -0.2750  1.0701  0.0559
 6340SOL    HW230657   2.332   3.290  14.622 -0.7417 -1.6187 -0.9719
 6341SOL     OW30658   0.740   3.305   4.603 -0.6093  0.2356  0.4658
 6341SOL    HW130659   0.694   3.388   4.619 -1.0914  0.4278 -1.9239
 6341SOL    HW230660   0.696   3.245   4.663  2.1322  0.7837  3.0250
 6342SOL     OW30661   4.624   2.913   6.699  0.0947  0.2614 -0.5189
 6342SOL    HW130662   4.536   2.876   6.692  0.2527  0.0758 -1.5043
 6342SOL    HW230663   4.629   2.949   6.787 -2.0652 -0.9114  0.0730
 6343SOL     OW30664   1.806   0.324   8.441 -0.1114 -0.2832 -0.3489
 6343SOL    HW130665   1.842   0.369   8.364  0.8223 -0.5531 -0.0749
 6343SOL    HW230666   1.886   0.331   8.494 -0.4707  0.1639  0.1356
 6344SOL     OW30667   4.391   0.646   8.326  0.5566  0.1388  0.5070
 6344SOL    HW130668   4.303   0.680   8.314 -0.4610 -2.8511 -0.3950
 6344SOL    HW230669   4.397   0.666   8.420  1.2143 -0.3907  0.5804
 6345SOL     OW30670   0.144   4.408   7.771 -0.1698  0.6433 -0.1318
 6345SOL    HW130671   0.056   4.444   7.759 -0.4314  0.2064  0.4703
 6345SOL    HW230672   0.202   4.482   7.758  1.4809 -0.4743  0.9285
 6346SOL     OW30673   4.092   1.969  16.375 -0.6536  0.3383 -0.7319
 6346SOL    HW130674   4.117   1.880  16.401 -0.6508  0.1136 -1.4966
 6346SOL    HW230675   4.122   2.016  16.453 -1.8878  3.1190 -1.9295
 6347SOL     OW30676   0.350   2.107   4.856 -0.4921 -0.5294  0.4061
 6347SOL    HW130677   0.383   2.138   4.941  0.5343  1.1565 -0.6036
 6347SOL    HW230678   0.257   2.128   4.868  0.5135  3.5361  1.4041
 6348SOL     OW30679   1.831   1.394   6.085  0.1944  0.7679  0.6484
 6348SOL    HW130680   1.860   1.485   6.092 -0.7736  1.1537 -0.3817
 6348SOL    HW230681   1.759   1.380   6.147  0.2351  1.4457  0.8492
 6349SOL     OW30682   1.810   1.041   5.846 -0.0701 -0.1939  0.3052
 6349SOL    HW130683   1.901   1.032   5.874  0.1142 -0.8981 -0.5372
 6349SOL    HW230684   1.829   1.030   5.753 -0.6893  0.8908  0.0575
 6350SOL     OW30685   3.416   1.510   7.177  0.3680  0.7370  0.2910
 6350SOL    HW130686   3.368   1.480   7.254  0.3520 -1.0380 -0.4046
 6350SOL    HW230687   3.342   1.521   7.117  2.5671  0.1113 -2.5433
 6351SOL     OW30688   3.476   3.066   1.625 -0.3785 -0.2931  0.6341
 6351SOL    HW130689   3.531   3.122   1.679  0.6422 -0.0522 -0.6433
 6351SOL    HW230690   3.518   2.981   1.638  0.9984  0.2478 -0.2865
 6352SOL     OW30691   3.227   3.702   5.474  0.1744 -0.2159  0.3293
 6352SOL    HW130692   3.313   3.707   5.515  0.4073 -0.8924 -0.0711
 6352SOL    HW230693   3.243   3.683   5.381 -0.7993  1.7761 -0.2517
 6353SOL     OW30694   1.004   1.068   9.544 -0.1890  0.1712  0.0861
 6353SOL    HW130695   1.099   1.062   9.549 -0.1229 -1.5867 -2.7245
 6353SOL    HW230696   0.993   1.110   9.458 -0.8965 -0.6549 -0.2275
 6354SOL     OW30697   4.056   3.495   6.961 -0.5591 -0.2493 -0.0703
 6354SOL    HW130698   3.974   3.458   6.929  0.2256 -0.4883 -1.8011
 6354SOL    HW230699   4.097   3.420   7.004 -1.7340 -0.5205  0.5721
 6355SOL     OW30700   0.535   0.779   4.308  0.0746 -0.2651 -0.6263
 6355SOL    HW130701   0.514   0.841   4.378 -1.1731  0.2880 -1.4932
 6355SOL    HW230702   0.486   0.704   4.342  0.0949  0.8676  1.9419
 6356SOL     OW30703   1.225   2.623   4.414 -0.8402  0.0629  0.3455
 6356SOL    HW130704   1.250   2.534   4.437 -0.9745 -0.1595 -0.3623
 6356SOL    HW230705   1.307   2.670   4.428  0.1265 -0.2528 -4.4774
 6357SOL     OW30706   3.057   4.314   1.783 -0.1265  0.3529  0.4166
 6357SOL    HW130707   2.974   4.265   1.779  1.5426 -2.6094  2.2667
 6357SOL    HW230708   3.109   4.251   1.832 -0.5681 -1.1640 -1.0799
 6358SOL     OW30709   0.890   2.740   2.855 -0.4127 -0.1993  0.4407
 6358SOL    HW130710   0.972   2.765   2.898  0.1723 -0.9626 -0.2293
 6358SOL    HW230711   0.916   2.748   2.763 -0.8082  0.9685  0.4341
 6359SOL     OW30712   1.685   2.488   1.218  0.3308  0.2338 -0.0719
 6359SOL    HW130713   1.659   2.567   1.170 -1.9691  0.7259  1.9452
 6359SOL    HW230714   1.697   2.522   1.307 -3.4073 -2.0012  1.3184
 6360SOL     OW30715   1.223   0.131  13.705  0.0437 -0.0861 -0.0755
 6360SOL    HW130716   1.251   0.050  13.663  0.2900  1.4191 -2.8033
 6360SOL    HW230717   1.170   0.155  13.629 -1.6416 -1.2929  0.7127
 6361SOL     OW30718   0.434   1.293   2.316  0.2982  0.2269 -0.4358
 6361SOL    HW130719   0.398   1.287   2.405 -0.0858  0.2123 -0.5893
 6361SOL    HW230720   0.348   1.315   2.279  1.6253  0.5614 -3.2869
 6362SOL     OW30721   4.082   2.805  15.946 -0.1312 -0.3881  0.0265
 6362SOL    HW130722   4.136   2.733  15.912 -0.3677 -0.8365  0.5939
 6362SOL    HW230723   4.133   2.815  16.026 -0.2744  1.1655 -0.0822
 6363SOL     OW30724   0.145   2.726  14.943  0.2852 -0.8112  0.1363
 6363SOL    HW130725   0.144   2.631  14.945 -1.0401 -0.7556  2.1162
 6363SOL    HW230726   0.092   2.740  14.865 -0.9633  3.8435  1.7929
 6364SOL     OW30727   3.599   2.115  16.997  0.0219 -0.2624  0.1257
 6364SOL    HW130728   3.599   2.192  16.939 -2.5345 -0.9741 -0.8092
 6364SOL    HW230729   3.667   2.141  17.060  0.3187  0.7387 -0.6104
 6365SOL     OW30730   1.918   2.716   4.427  0.1248  0.1378 -0.1111
 6365SOL    HW130731   1.870   2.781   4.376  1.3074  1.0654 -0.0493
 6365SOL    HW230732   1.901   2.756   4.513  2.1034 -2.8626  1.6607
 6366SOL     OW30733   3.266   2.200  16.103  0.4276  0.4351 -0.3050
 6366SOL    HW130734   3.299   2.152  16.027  0.5264 -0.5966  0.3840
 6366SOL    HW230735   3.201   2.141  16.141 -0.2830  0.8403 -0.8810
 6367SOL     OW30736   4.673   3.509   2.360  0.0713 -0.3173 -0.1486
 6367SOL    HW130737   0.012   3.532   2.304  0.5893 -1.0911  0.2231
 6367SOL    HW230738   4.710   3.494   2.447  1.0614 -0.8096 -0.6609
 6368SOL     OW30739   4.409   4.288   9.242  0.4089  0.1583 -0.3787
 6368SOL    HW130740   4.420   4.351   9.313 -0.8652  1.5113 -1.3844
 6368SOL    HW230741   4.381   4.218   9.300  3.8100  1.7482  3.2317
 6369SOL     OW30742   4.333   1.591   7.906 -0.8391  0.1711 -0.0904
 6369SOL    HW130743   4.243   1.576   7.934 -1.1197  2.0930 -0.0100
 6369SOL    HW230744   4.373   1.631   7.983 -1.3889 -0.7473  0.6819
 6370SOL     OW30745   2.988   2.751  17.130  0.0561 -0.1263  0.2654
 6370SOL    HW130746   3.060   2.735  17.191  0.5352  1.7467  0.2075
 6370SOL    HW230747   2.947   2.827  17.171 -1.1621 -0.3949 -0.4872
 6371SOL     OW30748   3.196   0.421  12.949  0.3825  0.4127  0.0270
 6371SOL    HW130749   3.115   0.470  12.964 -0.6863 -0.6883 -2.2471
 6371SOL    HW230750   3.156   0.334  12.949 -0.3970  0.7720 -1.1541
 6372SOL     OW30751   3.082   2.751   1.478 -0.3366 -0.2226  0.3695
 6372SOL    HW130752   3.020   2.682   1.455 -1.5367  1.4064 -1.1869
 6372SOL    HW230753   3.025   2.827   1.477  1.6221  1.2361 -1.0855
 6373SOL     OW30754   1.856   1.441   7.966 -0.5595 -0.2177 -0.2026
 6373SOL    HW130755   1.931   1.403   8.012 -0.6045  0.1490  0.1767
 6373SOL    HW230756   1.822   1.367   7.916 -1.7699  0.3717 -0.2630
 6374SOL     OW30757   2.222   3.475  15.394  0.0986  0.0422  0.3711
 6374SOL    HW130758   2.281   3.435  15.458  0.8947 -0.7917 -0.8886
 6374SOL    HW230759   2.284   3.546  15.379  1.2080 -1.2291 -1.0974
 6375SOL     OW30760   0.660   2.872  12.078  0.3890 -1.1753  0.1264
 6375SOL    HW130761   0.649   2.943  12.141 -0.4419 -1.1281 -0.0640
 6375SOL    HW230762   0.698   2.811  12.140  3.6424  0.5972 -0.1252
 6376SOL     OW30763   2.960   2.505   2.307 -0.2001 -0.4406  0.0753
 6376SOL    HW130764   2.933   2.479   2.395 -1.1676  0.7177  0.1188
 6376SOL    HW230765   2.906   2.443   2.259 -1.1764  1.1354 -0.8486
 6377SOL     OW30766   0.734   4.381   5.589  0.1962  0.1404 -0.5978
 6377SOL    HW130767   0.795   4.418   5.653  0.3895  0.8832 -1.2012
 6377SOL    HW230768   0.766   4.299   5.552  0.3322 -0.1597  0.1961
 6378SOL     OW30769   2.477   1.458   4.023  0.0894 -0.3463 -0.3446
 6378SOL    HW130770   2.399   1.403   4.012  0.7503 -1.1583 -1.0712
 6378SOL    HW230771   2.477   1.521   3.951  2.1448 -0.6046 -0.5687
 6379SOL     OW30772   4.382   1.207   6.182 -0.0347 -0.2117  0.2882
 6379SOL    HW130773   4.448   1.138   6.176 -1.7497 -1.6625 -1.9200
 6379SOL    HW230774   4.337   1.186   6.264 -0.6922  0.4974  0.1084
 6380SOL     OW30775   4.198   0.209   1.705  0.3959  0.0197 -0.1970
 6380SOL    HW130776   4.164   0.235   1.791 -1.2922 -0.4963 -0.7109
 6380SOL    HW230777   4.192   0.115   1.717  1.9135  0.0523  0.7890
 6381SOL     OW30778   4.193   3.184   0.623 -0.0718 -0.1896 -0.1398
 6381SOL    HW130779   4.110   3.216   0.586  0.6468  0.4664 -1.1744
 6381SOL    HW230780   4.198   3.191   0.718 -1.6448  0.1500 -0.0801
 6382SOL     OW30781   0.115   1.200   6.666  0.5163 -0.2324 -0.3132
 6382SOL    HW130782   0.083   1.168   6.751 -0.8196 -0.8689 -1.0625
 6382SOL    HW230783   0.178   1.264   6.701 -0.9000 -0.0876  1.9479
 6383SOL     OW30784   1.023   3.057   5.714 -0.7321  0.1977  0.0751
 6383SOL    HW130785   1.098   3.000   5.699  0.4177  1.4623  0.9407
 6383SOL    HW230786   1.061   3.144   5.700 -1.4160  0.3966 -0.5655
 6384SOL     OW30787   0.977   3.495   9.033  0.0786  0.0308  0.1988
 6384SOL    HW130788   0.890   3.524   9.061  0.5141  1.4455  0.1038
 6384SOL    HW230789   1.032   3.553   9.086  1.3162 -2.3724  1.5535
 6385SOL     OW30790   4.685   0.868   5.673 -0.1269  0.7251  0.2312
 6385SOL    HW130791   4.625   0.793   5.667  2.2039 -0.9514 -2.3159
 6385SOL    HW230792   4.631   0.946   5.684 -1.9813 -0.5503  0.2219
 6386SOL     OW30793   3.293   3.133   0.179  0.0878 -0.6111 -0.7235
 6386SOL    HW130794   3.230   3.128   0.107 -0.0680  0.3713 -0.6607
 6386SOL    HW230795   3.295   3.225   0.208 -0.8543 -0.9125  0.3095
 6387SOL     OW30796   4.498   2.298   1.100  0.2129 -0.5089 -0.3688
 6387SOL    HW130797   4.474   2.235   1.168 -1.1193 -0.1452 -0.5089
 6387SOL    HW230798   4.428   2.282   1.037 -0.9550  1.5505  0.3959
 6388SOL     OW30799   2.556   3.293  12.299  0.2259 -0.2722 -0.4841
 6388SOL    HW130800   2.643   3.330  12.287 -0.1053  1.2987  2.1577
 6388SOL    HW230801   2.520   3.272  12.213 -0.8296  1.7435 -0.5275
 6389SOL     OW30802   0.693   4.456   9.431  0.3388 -0.0095 -0.0029
 6389SOL    HW130803   0.725   4.490   9.347 -0.6795  1.0167  0.0139
 6389SOL    HW230804   0.771   4.474   9.484  0.2532 -0.7993  0.3900
 6390SOL     OW30805   3.511   3.378  15.486 -0.4844  0.3556 -0.3421
 6390SOL    HW130806   3.484   3.463  15.521 -1.9324 -1.0135  1.8708
 6390SOL    HW230807   3.545   3.338  15.566  2.0803 -0.0720 -1.6633
 6391SOL     OW30808   2.896   3.392   6.622 -0.0021  0.3473  0.4365
 6391SOL    HW130809   2.840   3.353   6.556 -0.8384  2.4940 -0.1278
 6391SOL    HW230810   2.903   3.319   6.683  1.0003  0.6993  0.7509
 6392SOL     OW30811   0.819   2.918   0.235 -0.5019  0.0451  0.2281
 6392SOL    HW130812   0.808   2.885   0.324  1.3725  1.5893  1.0282
 6392SOL    HW230813   0.769   2.999   0.237 -3.7901 -1.9434 -0.8953
 6393SOL     OW30814   1.370   4.169   4.291 -0.7471 -0.2568  0.1816
 6393SOL    HW130815   1.450   4.117   4.288  0.2552  1.4343 -1.9882
 6393SOL    HW230816   1.393   4.262   4.299  1.2714 -0.7184 -0.4071
 6394SOL     OW30817   0.218   3.654   0.342 -0.5628  0.4316 -0.0581
 6394SOL    HW130818   0.189   3.702   0.419  0.3056  0.0232  0.5229
 6394SOL    HW230819   0.195   3.714   0.270 -1.5877 -1.3424 -1.2119
 6395SOL     OW30820   4.046   2.640   5.399 -0.2516 -0.5180  0.3513
 6395SOL    HW130821   4.098   2.705   5.351  0.9171 -0.8094  1.1996
 6395SOL    HW230822   3.979   2.621   5.334  0.1652 -0.6497 -0.0413
 6396SOL     OW30823   0.746   2.675   4.720  0.2762 -0.0177 -0.1194
 6396SOL    HW130824   0.840   2.684   4.702 -0.0923 -0.6117 -2.3990
 6396SOL    HW230825   0.706   2.759   4.741  3.0830  1.3503 -0.2494
 6397SOL     OW30826   4.033   0.745   2.117  0.3586  0.1928  0.0218
 6397SOL    HW130827   4.056   0.837   2.124  0.3929  0.1168  0.9604
 6397SOL    HW230828   3.968   0.735   2.186  1.4051 -2.0199  0.6822
 6398SOL     OW30829   3.297   1.317   1.743 -0.5917  0.3161 -0.2153
 6398SOL    HW130830   3.267   1.374   1.814  0.7580  0.8094 -0.0388
 6398SOL    HW230831   3.378   1.286   1.783 -0.4970  2.7239  1.4636
 6399SOL     OW30832   0.419   0.747  13.120 -0.4787 -0.2902 -0.0953
 6399SOL    HW130833   0.394   0.736  13.029  0.2410 -1.1717 -0.1883
 6399SOL    HW230834   0.464   0.664  13.135 -1.8431 -1.2799 -1.5633
 6400SOL     OW30835   3.134   4.100   4.022  0.0811 -0.3765  0.1949
 6400SOL    HW130836   3.086   4.093   4.105  0.7166  0.6257  0.6589
 6400SOL    HW230837   3.214   4.051   4.039 -1.4302 -2.1289  2.2204
 6401SOL     OW30838   3.441   0.857   3.538  0.0106  0.4959 -0.2776
 6401SOL    HW130839   3.346   0.865   3.529 -0.1409  0.7893  1.5735
 6401SOL    HW230840   3.474   0.913   3.468  3.1597 -1.8974 -0.7360
 6402SOL     OW30841   3.241   0.447  15.381  0.2184 -0.4621  0.0164
 6402SOL    HW130842   3.231   0.447  15.477 -0.0251  3.0354 -0.0300
 6402SOL    HW230843   3.250   0.351  15.380 -0.6339 -0.5454  0.0175
 6403SOL     OW30844   2.201   4.490   4.786  0.0952 -0.0388 -0.0852
 6403SOL    HW130845   2.143   4.530   4.851  1.4636  0.4462  0.8469
 6403SOL    HW230846   2.221   4.405   4.823 -1.7247 -0.4593 -0.0603
 6404SOL     OW30847   3.364   2.063   2.425 -0.1568 -0.7086 -0.0506
 6404SOL    HW130848   3.360   2.158   2.436  0.3537 -0.6775 -0.1485
 6404SOL    HW230849   3.322   2.047   2.510  2.6079 -1.2155  1.2224
 6405SOL     OW30850   1.537   4.201   7.292 -0.2290 -0.3689  0.1176
 6405SOL    HW130851   1.552   4.137   7.223  0.1720  0.6553 -0.7554
 6405SOL    HW230852   1.518   4.281   7.242  1.5964 -0.8425 -1.3109
 6406SOL     OW30853   3.419   4.519   4.911 -0.0540 -0.0499 -0.5212
 6406SOL    HW130854   3.468   4.575   4.971 -0.6639 -0.4354  0.3512
 6406SOL    HW230855   3.489   4.466   4.874 -0.8047 -1.9787  0.8091
 6407SOL     OW30856   4.110   0.119   8.257 -0.6625 -0.1233 -0.1113
 6407SOL    HW130857   4.080   0.159   8.339  0.1447 -2.4495  1.3261
 6407SOL    HW230858   4.194   0.088   8.290  0.6759  5.1168  1.4923
 6408SOL     OW30859   2.985   1.047  15.367  0.2619 -0.2398  0.8679
 6408SOL    HW130860   2.994   1.102  15.289 -2.0016  0.2743  0.9561
 6408SOL    HW230861   3.064   0.995  15.354 -0.5643 -0.1493 -4.6569
 6409SOL     OW30862   3.302   2.600   3.380 -0.6091 -0.0399  0.3551
 6409SOL    HW130863   3.373   2.560   3.430 -1.3630 -1.5573  0.2242
 6409SOL    HW230864   3.337   2.617   3.293  0.1836  0.1984  0.7153
 6410SOL     OW30865   1.297   0.536   2.911  0.3093  0.2693 -0.2197
 6410SOL    HW130866   1.290   0.460   2.853 -0.3628  0.0884  0.0981
 6410SOL    HW230867   1.210   0.565   2.940 -0.3822 -1.2005 -0.8174
 6411SOL     OW30868   2.013   1.095   8.500  0.2115 -0.0644 -0.1945
 6411SOL    HW130869   2.061   1.021   8.536  1.5823  1.7209  1.6383
 6411SOL    HW230870   2.089   1.147   8.471  0.3628 -1.0774 -1.5916
 6412SOL     OW30871   0.111   1.799   8.179  0.3957 -0.3311 -0.6421
 6412SOL    HW130872   0.201   1.821   8.154  0.7811 -1.6712 -0.4338
 6412SOL    HW230873   0.101   1.731   8.112  1.8294 -1.3451  0.1824
 6413SOL     OW30874   4.130   0.990   7.621 -0.1302  0.1276  0.3966
 6413SOL    HW130875   4.106   1.065   7.567 -0.5616 -0.5638 -0.3742
 6413SOL    HW230876   4.208   1.019   7.669  0.5530  0.3928 -0.8463
 6414SOL     OW30877   3.371   2.835   6.346 -0.2716  0.4581  0.0151
 6414SOL    HW130878   3.428   2.765   6.315 -1.4390  0.1776 -1.4872
 6414SOL    HW230879   3.414   2.854   6.430 -0.4962  0.2507  0.1803
 6415SOL     OW30880   1.976   4.484   3.138  0.1316  0.2096 -0.2811
 6415SOL    HW130881   1.967   4.524   3.225  2.4567  0.4889 -0.1506
 6415SOL    HW230882   2.016   4.405   3.174  1.1312  1.7887  2.1120
 6416SOL     OW30883   0.104   2.172  14.586 -0.1451  0.2473 -0.0799
 6416SOL    HW130884   0.089   2.147  14.494  1.1886  2.3124 -0.8525
 6416SOL    HW230885   0.066   2.260  14.583  1.5621  1.0005  0.7237
 6417SOL     OW30886   4.236   2.230   1.673  0.3371  0.7057  0.0312
 6417SOL    HW130887   4.241   2.324   1.691 -0.1221 -0.0720  4.2303
 6417SOL    HW230888   4.248   2.203   1.764  1.2471 -0.5835 -0.4874
 6418SOL     OW30889   0.897   1.132   1.202  0.6223  0.3936 -0.6395
 6418SOL    HW130890   0.981   1.134   1.156  1.8731 -0.1619  1.6123
 6418SOL    HW230891   0.847   1.200   1.158 -1.5630  0.5776  2.1175
 6419SOL     OW30892   3.588   4.653   1.205  0.0210  0.0096  0.0692
 6419SOL    HW130893   3.635   4.711   1.145  2.9273 -2.1713  0.2161
 6419SOL    HW230894   3.525   4.613   1.144 -0.5314 -0.3462  0.8742
 6420SOL     OW30895   2.862   1.578  17.642  0.2110  0.1062 -0.2326
 6420SOL    HW130896   2.822   1.492  17.629 -0.3939  0.3065  0.2907
 6420SOL    HW230897   2.792   1.617  17.695 -1.0272 -1.9913 -0.2946
 6421SOL     OW30898   1.960   0.525   5.973 -0.1134 -0.2734 -0.2304
 6421SOL    HW130899   1.998   0.441   5.950 -0.8023 -0.6509  0.0057
 6421SOL    HW230900   1.934   0.500   6.061 -0.4969  0.4210 -0.1438
 6422SOL     OW30901   2.418   3.669   7.156  0.1445 -0.3202 -0.4096
 6422SOL    HW130902   2.460   3.605   7.099  1.9225  0.1420  0.3717
 6422SOL    HW230903   2.432   3.634   7.245 -0.2180  1.5369  0.3804
 6423SOL     OW30904   4.079   1.004   2.798 -1.1569 -0.0735  0.5088
 6423SOL    HW130905   4.118   0.917   2.800 -3.9383 -1.3548 -0.7779
 6423SOL    HW230906   3.999   0.975   2.843 -0.5008 -0.6502  1.3004
 6424SOL     OW30907   4.291   3.941   6.434 -0.3680  0.0391  0.6742
 6424SOL    HW130908   4.211   3.897   6.464  0.0193 -1.9408 -1.2053
 6424SOL    HW230909   4.301   4.021   6.485 -0.9604  0.4264  0.1867
 6425SOL     OW30910   1.481   2.649  14.651 -0.2605  0.2158 -0.0548
 6425SOL    HW130911   1.467   2.565  14.695 -0.0077  0.7465  1.0337
 6425SOL    HW230912   1.519   2.620  14.569 -0.1726 -1.9942  0.7566
 6426SOL     OW30913   0.355   3.207   9.028 -0.2852  0.1852 -0.2354
 6426SOL    HW130914   0.278   3.216   8.971 -0.1597 -0.0371 -0.4418
 6426SOL    HW230915   0.405   3.157   8.963 -0.6128  0.2766 -0.5617
 6427SOL     OW30916   0.092   0.639   6.864 -0.1299  0.2746  0.2611
 6427SOL    HW130917   0.153   0.571   6.834 -0.1576  0.0228  0.7723
 6427SOL    HW230918   0.003   0.612   6.842  0.3394 -0.2329 -1.0235
 6428SOL     OW30919   1.677   1.562   6.399 -0.4217  0.4695 -0.5093
 6428SOL    HW130920   1.655   1.583   6.308 -0.9955 -1.8409 -0.9063
 6428SOL    HW230921   1.674   1.652   6.433  3.6602  0.1057  0.8392
 6429SOL     OW30922   2.771   3.924  14.058 -0.4757 -0.4317 -0.1265
 6429SOL    HW130923   2.839   3.883  14.006 -0.3729 -0.7042  0.2261
 6429SOL    HW230924   2.757   4.015  14.028  1.4775  0.2523  1.0712
 6430SOL     OW30925   1.192   4.436  15.204 -0.1167 -0.3158  0.9522
 6430SOL    HW130926   1.121   4.385  15.165  0.1842  0.6561 -0.8420
 6430SOL    HW230927   1.257   4.368  15.188  0.8763  0.7101  0.6002
 6431SOL     OW30928   4.700   1.406   6.844 -0.2357 -0.8919  0.0479
 6431SOL    HW130929   4.705   1.313   6.867 -0.9584 -1.5555 -2.4979
 6431SOL    HW230930   0.038   1.418   6.783 -1.2475  0.0855 -0.9612
 6432SOL     OW30931   4.108   0.621   7.567 -0.2252  0.3260 -0.1279
 6432SOL    HW130932   4.100   0.697   7.625  2.0208  0.3398  0.1603
 6432SOL    HW230933   4.120   0.665   7.483  0.6954 -1.6771 -1.0474
 6433SOL     OW30934   4.175   0.337   6.559 -0.5862 -0.6323 -0.3195
 6433SOL    HW130935   4.184   0.321   6.465 -1.2176 -0.4927 -0.4026
 6433SOL    HW230936   4.232   0.268   6.593 -0.2009  0.6635  1.6794
 6434SOL     OW30937   2.806   0.111   9.159  0.1323  0.3893  0.0805
 6434SOL    HW130938   2.762   0.172   9.218 -2.2518 -0.6283 -0.6427
 6434SOL    HW230939   2.845   0.166   9.091  2.5139 -0.9758  0.3381
 6435SOL     OW30940   3.772   3.303  12.077 -0.3807  0.1082 -0.4083
 6435SOL    HW130941   3.776   3.212  12.105  0.4470  0.0728 -0.6458
 6435SOL    HW230942   3.713   3.331  12.148  0.0850  1.7288 -0.6528
 6436SOL     OW30943   2.406   4.631  16.800  0.1614  0.5812  0.0252
 6436SOL    HW130944   2.411   4.726  16.809  0.3443  0.5683  0.0564
 6436SOL    HW230945   2.359   4.614  16.719 -0.8509 -0.2326  0.7750
 6437SOL     OW30946   0.685   1.793   2.114  0.0645  0.1414 -0.2822
 6437SOL    HW130947   0.627   1.869   2.104  0.6519  0.5320 -0.7052
 6437SOL    HW230948   0.767   1.829   2.149 -0.1195  0.7748 -0.5063
 6438SOL     OW30949   3.552   0.718   3.755 -0.4254  0.1672  0.6532
 6438SOL    HW130950   3.502   0.750   3.680  1.0952 -0.8045 -0.7620
 6438SOL    HW230951   3.519   0.787   3.813  0.9438 -0.7785  2.5891
 6439SOL     OW30952   4.326   1.246  11.222  0.0416  0.0583 -0.0442
 6439SOL    HW130953   4.396   1.292  11.176  1.6581 -0.6461  1.6993
 6439SOL    HW230954   4.378   1.217  11.297 -0.1823  0.2065  0.1692
 6440SOL     OW30955   3.676   3.589   8.598  0.1383  0.0343 -0.0608
 6440SOL    HW130956   3.656   3.617   8.687  2.5053  2.5456 -0.3232
 6440SOL    HW230957   3.738   3.523   8.628 -3.2374 -3.4536 -0.7728
 6441SOL     OW30958   1.782   4.661   2.562  0.1248 -0.1530 -0.0242
 6441SOL    HW130959   1.756   4.602   2.633  1.9529 -0.9460  0.0054
 6441SOL    HW230960   1.818   4.593   2.505 -1.1901 -0.5641 -0.3700
 6442SOL     OW30961   3.559   1.841  16.424 -1.2093  0.2019  0.5807
 6442SOL    HW130962   3.613   1.911  16.388 -2.3526  2.1034  2.5302
 6442SOL    HW230963   3.627   1.775  16.437 -1.6957 -0.3156  0.4961
 6443SOL     OW30964   2.985   1.490   9.983  0.0124  0.1873  0.7648
 6443SOL    HW130965   3.020   1.444  10.059  2.5345 -0.1746 -0.6086
 6443SOL    HW230966   2.969   1.413   9.927  0.8965  2.0694 -2.1014
 6444SOL     OW30967   2.982   4.483   7.393  0.1018 -0.7176  0.3677
 6444SOL    HW130968   3.042   4.456   7.323  1.0681 -3.3593  2.2204
 6444SOL    HW230969   2.910   4.500   7.333  1.1904  1.8357 -0.2400
 6445SOL     OW30970   0.712   0.806   7.667  0.8474 -0.5209 -0.1347
 6445SOL    HW130971   0.787   0.763   7.627  0.8002  1.4040 -2.2935
 6445SOL    HW230972   0.742   0.850   7.746  0.1883  0.5086 -0.4593
 6446SOL     OW30973   2.939   3.333   7.364  0.1414  0.1714 -0.1032
 6446SOL    HW130974   2.949   3.263   7.427  0.4944 -1.9566 -2.5087
 6446SOL    HW230975   2.972   3.297   7.282 -0.2313 -0.9271  0.2331
 6447SOL     OW30976   0.584   0.685   3.025 -0.0214  0.4339 -0.4366
 6447SOL    HW130977   0.516   0.638   3.075  1.3447 -0.6857  0.3703
 6447SOL    HW230978   0.640   0.609   3.009  1.9128  1.5331  1.1373
 6448SOL     OW30979   2.162   4.591   6.502  0.5292  0.1437 -0.8687
 6448SOL    HW130980   2.221   4.611   6.575 -0.6768  1.1059 -0.1496
 6448SOL    HW230981   2.134   4.504   6.529 -0.3499  0.4798 -0.6973
 6449SOL     OW30982   0.041   2.861   5.452  0.3278  0.7415 -0.3526
 6449SOL    HW130983   0.075   2.797   5.515  1.2438  0.9188 -0.6700
 6449SOL    HW230984   4.728   2.795   5.402  1.7441 -0.5952  0.0442
 6450SOL     OW30985   4.703   1.135   3.830 -0.2561 -0.5648 -0.1179
 6450SOL    HW130986   4.712   1.209   3.770 -1.6213 -0.1618  0.1798
 6450SOL    HW230987   0.050   1.089   3.810  0.3914  0.8650 -0.7309
 6451SOL     OW30988   2.455   3.382   3.891 -0.0680 -0.3061 -0.0762
 6451SOL    HW130989   2.439   3.300   3.844 -1.8868  1.6562 -2.9193
 6451SOL    HW230990   2.369   3.423   3.876 -0.6539 -1.2115  0.8635
 6452SOL     OW30991   2.640   1.978  14.348 -0.1169 -0.2257  0.0339
 6452SOL    HW130992   2.611   1.976  14.439  1.2955 -0.1115  0.4868
 6452SOL    HW230993   2.604   2.056  14.307  0.9280  0.1062 -0.2689
 6453SOL     OW30994   3.578   4.345   7.330 -0.2056 -0.4768  0.0275
 6453SOL    HW130995   3.631   4.423   7.316 -0.0770 -0.6766 -0.6205
 6453SOL    HW230996   3.638   4.292   7.383 -1.2026 -0.3359  1.3090
 6454SOL     OW30997   0.893   1.036   2.519 -0.1400 -1.1504 -0.3949
 6454SOL    HW130998   0.821   1.081   2.561  2.2930  1.8041  0.6126
 6454SOL    HW230999   0.849   0.974   2.462  1.6984 -2.3516 -0.5295
 6455SOL     OW31000   0.171   4.635   1.630 -0.0213 -0.6779 -0.1034
 6455SOL    HW131001   0.173   4.688   1.550  2.5428 -0.1894  0.2845
 6455SOL    HW231002   0.076   4.628   1.636  0.0556 -0.6603  1.2003
 6456SOL     OW31003   0.982   4.636   1.057  0.3299  0.3483 -0.0136
 6456SOL    HW131004   1.073   4.610   1.068  0.5507  1.0140 -0.2501
 6456SOL    HW231005   0.998   4.730   1.050 -2.5355  0.8710  0.6083
 6457SOL     OW31006   2.621   0.687   3.498  0.0488 -0.3753  0.2372
 6457SOL    HW131007   2.588   0.777   3.498 -0.2537 -0.4861 -0.0040
 6457SOL    HW231008   2.629   0.679   3.403 -1.2000  0.2625  0.0749
 6458SOL     OW31009   4.543   3.226   0.797 -0.3039 -0.2070 -0.6306
 6458SOL    HW131010   4.623   3.253   0.842 -0.5701  1.5195 -1.1906
 6458SOL    HW231011   4.582   3.175   0.726 -0.4071 -0.6308 -0.3801
 6459SOL     OW31012   1.752   1.380  15.226  0.1042 -0.1799  0.2675
 6459SOL    HW131013   1.841   1.355  15.252  0.3312 -0.3558 -0.6527
 6459SOL    HW231014   1.736   1.441  15.298 -0.0188 -0.5615  0.5648
 6460SOL     OW31015   1.842   4.294   0.346  0.6804 -0.0475 -0.0004
 6460SOL    HW131016   1.788   4.306   0.268 -0.5863  0.2829  0.9417
 6460SOL    HW231017   1.929   4.292   0.305 -0.1740  0.9695 -1.8614
 6461SOL     OW31018   1.108   1.263   6.938  0.2926 -0.3563  0.1002
 6461SOL    HW131019   1.029   1.272   6.885 -0.2607 -0.0039  0.9874
 6461SOL    HW231020   1.101   1.174   6.972 -0.4101  0.5278  2.2484
 6462SOL     OW31021   4.362   1.257   8.253 -0.1353  0.1044 -0.2908
 6462SOL    HW131022   4.404   1.208   8.183  2.5889  0.8855  0.8242
 6462SOL    HW231023   4.431   1.322   8.267  0.4957 -0.3641 -1.2033
 6463SOL     OW31024   0.349   0.634   2.184  0.0223  0.0929  0.1562
 6463SOL    HW131025   0.392   0.550   2.198 -0.8968 -0.6956 -1.6938
 6463SOL    HW231026   0.426   0.690   2.174  0.8503 -1.3390 -1.4028
 6464SOL     OW31027   0.221   4.012   6.194 -0.4590 -0.4461 -0.0251
 6464SOL    HW131028   0.144   3.961   6.219 -0.9321 -0.4605 -1.5164
 6464SOL    HW231029   0.209   4.097   6.236 -0.0508 -0.8666  0.9549
 6465SOL     OW31030   3.402   3.274   1.180 -0.1406  0.3395 -0.3018
 6465SOL    HW131031   3.319   3.321   1.174  1.4723  3.3873  1.0334
 6465SOL    HW231032   3.393   3.224   1.261 -1.3429 -0.6698 -1.0649
 6466SOL     OW31033   0.584   4.250   6.781 -0.2205  0.1389  0.0640
 6466SOL    HW131034   0.647   4.321   6.773 -0.0115 -0.1133 -0.5122
 6466SOL    HW231035   0.628   4.191   6.843  0.5049  1.9249  1.2421
 6467SOL     OW31036   2.559   0.183   6.296 -0.6250  0.1145 -0.6085
 6467SOL    HW131037   2.566   0.210   6.388 -0.0041 -0.2238 -0.5551
 6467SOL    HW231038   2.584   0.091   6.297 -2.7824 -0.4231  2.8540
 6468SOL     OW31039   4.520   4.121   2.540 -0.4316  0.0229 -0.0571
 6468SOL    HW131040   4.462   4.186   2.500  2.5035  1.7026 -1.5928
 6468SOL    HW231041   4.469   4.088   2.614 -0.7792  0.5917 -0.0408
 6469SOL     OW31042   3.110   1.532   5.641 -0.0980  0.4593 -0.0752
 6469SOL    HW131043   3.094   1.490   5.557 -0.1830  2.6941 -1.1565
 6469SOL    HW231044   3.199   1.567   5.637  0.5550 -1.4133 -1.8587
 6470SOL     OW31045   2.770   1.366   9.152 -0.0920 -0.3163 -0.1192
 6470SOL    HW131046   2.711   1.441   9.141 -1.3970 -1.1044  1.6490
 6470SOL    HW231047   2.746   1.342   9.241  0.3385 -0.5628 -0.0706
 6471SOL     OW31048   1.243   4.438  17.086 -0.0190  0.1106 -0.3350
 6471SOL    HW131049   1.315   4.384  17.117  0.0614 -0.1686 -1.0191
 6471SOL    HW231050   1.284   4.524  17.089  0.5977 -0.2503  1.5027
 6472SOL     OW31051   1.584   2.521   6.410  1.1439  0.8998 -0.2468
 6472SOL    HW131052   1.560   2.499   6.500  3.2444 -0.8253 -0.1136
 6472SOL    HW231053   1.506   2.498   6.361  0.4105 -0.6692  1.6674
 6473SOL     OW31054   0.164   1.765   8.460 -0.2497 -0.0493  0.2766
 6473SOL    HW131055   0.148   1.855   8.488  0.9934  0.4277 -0.5439
 6473SOL    HW231056   0.152   1.776   8.365  1.3058  0.8657  0.1918
 6474SOL     OW31057   4.284   0.667   8.985 -0.0891 -0.4506  0.3666
 6474SOL    HW131058   4.348   0.600   8.961 -0.2146  1.0530 -4.1736
 6474SOL    HW231059   4.281   0.732   8.915 -1.9155  0.0983  0.9604
 6475SOL     OW31060   4.091   1.811  16.858 -0.3564 -0.1114  0.3899
 6475SOL    HW131061   4.080   1.722  16.824 -0.5407  0.7814 -1.8823
 6475SOL    HW231062   4.178   1.794  16.895  0.3669 -0.1652 -1.3238
 6476SOL     OW31063   1.728   1.883   3.870  0.1609 -0.2446 -0.2237
 6476SOL    HW131064   1.819   1.876   3.901 -0.2883 -2.3164  0.6432
 6476SOL    HW231065   1.725   1.790   3.846 -2.1466 -0.8570  2.3747
 6477SOL     OW31066   2.373   2.357   6.492  0.1611 -0.3390 -0.1313
 6477SOL    HW131067   2.363   2.290   6.424  0.6907 -0.2712 -0.2715
 6477SOL    HW231068   2.287   2.398   6.496  0.1749 -0.2935 -0.3251
 6478SOL     OW31069   4.374   2.013   4.704 -0.2840  0.2583  0.1066
 6478SOL    HW131070   4.338   1.926   4.688  2.5491 -1.2789  2.0460
 6478SOL    HW231071   4.432   1.986   4.775  1.0921  0.3789 -0.9764
 6479SOL     OW31072   0.226   0.240   8.146 -0.0287 -0.1037 -0.6735
 6479SOL    HW131073   0.287   0.310   8.170 -0.5428  0.5795 -1.3603
 6479SOL    HW231074   0.158   0.290   8.102 -0.6242 -0.3346 -0.0005
 6480SOL     OW31075   0.096   3.407   9.082  0.2414  0.0900 -0.3942
 6480SOL    HW131076   0.177   3.432   9.037 -0.3886 -3.4447 -3.4676
 6480SOL    HW231077   0.084   3.319   9.048  0.6503 -0.3047  0.4967
 6481SOL     OW31078   0.715   4.041   7.774 -0.3379  0.7964  0.0957
 6481SOL    HW131079   0.764   4.091   7.839 -0.5653  0.7943  0.2675
 6481SOL    HW231080   0.629   4.026   7.814  0.3114 -0.7774  0.9183
 6482SOL     OW31081   4.403   1.528  12.958 -0.2032  0.0507  0.2403
 6482SOL    HW131082   4.342   1.517  13.032  0.9436 -3.1532  0.7084
 6482SOL    HW231083   4.345   1.583  12.905  1.3652 -0.4884 -2.0124
 6483SOL     OW31084   1.088   2.885   0.376  0.1090  0.6257  0.3168
 6483SOL    HW131085   1.129   2.964   0.341  0.1042  0.2991 -0.4466
 6483SOL    HW231086   1.002   2.908   0.341 -0.0860  0.6446  0.8193
 6484SOL     OW31087   4.217   3.983   7.892  0.8172 -0.4817  0.0319
 6484SOL    HW131088   4.145   4.045   7.902 -0.9139 -2.6839  1.2823
 6484SOL    HW231089   4.185   3.917   7.831  1.2399  0.5424 -1.3090
 6485SOL     OW31090   0.440   2.439   7.127  0.2546 -0.7155  0.0530
 6485SOL    HW131091   0.480   2.469   7.045 -1.3322 -0.3699 -0.6023
 6485SOL    HW231092   0.356   2.415   7.087 -0.2923  0.6373  0.3972
 6486SOL     OW31093   4.530   0.578  10.714  0.6645  0.7205 -0.3867
 6486SOL    HW131094   4.550   0.525  10.636 -0.6382 -0.8300  0.3339
 6486SOL    HW231095   4.588   0.651  10.692  1.1832 -0.6435 -3.5785
 6487SOL     OW31096   0.727   3.655  13.538  0.4778  0.2551  0.2459
 6487SOL    HW131097   0.658   3.597  13.569  1.2086 -1.2641 -0.9725
 6487SOL    HW231098   0.773   3.590  13.485  0.2881  0.3193  0.0039
 6488SOL     OW31099   2.131   2.825   1.967 -0.3634 -0.3211 -0.1416
 6488SOL    HW131100   2.132   2.808   2.061  0.9621 -1.1144 -0.2942
 6488SOL    HW231101   2.094   2.744   1.932 -1.5659  0.0098  0.3607
 6489SOL     OW31102   4.055   1.909  15.407  0.6208  0.0742  0.1341
 6489SOL    HW131103   4.037   1.879  15.318 -0.9422 -0.1036  0.5131
 6489SOL    HW231104   4.106   1.990  15.403 -0.2110  0.5775 -0.2058
 6490SOL     OW31105   4.055   1.401   2.549 -0.0669 -0.2454  0.0506
 6490SOL    HW131106   4.014   1.461   2.486  2.5424  0.5308 -0.9220
 6490SOL    HW231107   3.980   1.359   2.590 -1.8569  0.6411 -2.3127
 6491SOL     OW31108   3.247   1.567   2.648 -0.4011 -0.2096 -0.1274
 6491SOL    HW131109   3.205   1.574   2.562  2.2611  0.2382 -1.3838
 6491SOL    HW231110   3.335   1.600   2.632 -0.8423  1.5126  0.9366
 6492SOL     OW31111   1.452   2.665   8.106 -0.0117  0.6501 -0.2814
 6492SOL    HW131112   1.537   2.705   8.125  1.5422 -2.3236 -0.9395
 6492SOL    HW231113   1.401   2.686   8.184 -0.3579 -1.0021 -0.0782
 6493SOL     OW31114   3.462   2.690   3.650 -0.2964  0.0590 -0.3502
 6493SOL    HW131115   3.427   2.748   3.583  0.0279  1.5550  0.7668
 6493SOL    HW231116   3.462   2.746   3.728  1.8908 -2.9252  1.8305
 6494SOL     OW31117   2.513   4.624   6.579  0.0674  0.3397 -0.3273
 6494SOL    HW131118   2.561   4.560   6.632  0.5049 -0.2695 -1.4545
 6494SOL    HW231119   2.581   4.670   6.530 -0.2338  1.2483  0.1065
 6495SOL     OW31120   2.312   3.684   4.032  0.7403  0.1545 -0.4525
 6495SOL    HW131121   2.297   3.678   4.126  0.3880 -0.7128 -0.5666
 6495SOL    HW231122   2.371   3.758   4.018 -0.1006  0.4111 -2.7626
 6496SOL     OW31123   2.075   4.533  12.702 -0.2845  0.2036 -0.4308
 6496SOL    HW131124   2.091   4.441  12.724 -0.7051  0.1023 -0.5495
 6496SOL    HW231125   1.993   4.519  12.654  0.9807 -1.8308 -1.9402
 6497SOL     OW31126   1.464   2.741   4.442  0.1944 -0.3911  0.0303
 6497SOL    HW131127   1.509   2.823   4.459 -3.6564  1.2786  2.2759
 6497SOL    HW231128   1.542   2.686   4.439  0.5983  0.1582  0.4438
 6498SOL     OW31129   1.758   3.993   5.834  0.0281 -0.3685  0.5382
 6498SOL    HW131130   1.767   3.905   5.798  0.7201 -0.0593 -0.0546
 6498SOL    HW231131   1.829   4.042   5.792 -1.7273  0.8420 -1.0497
 6499SOL     OW31132   3.531   2.918   8.469  0.2773  0.1870  0.3476
 6499SOL    HW131133   3.475   2.976   8.417 -1.1283 -2.4056 -1.0140
 6499SOL    HW231134   3.481   2.913   8.550  0.5662  2.2337  0.6507
 6500SOL     OW31135   3.716   1.444  17.488 -0.3394  0.7325  0.0749
 6500SOL    HW131136   3.785   1.420  17.549  1.1714 -4.0088 -3.5059
 6500SOL    HW231137   3.637   1.433  17.541  0.4038  1.7738  1.3777
 6501SOL     OW31138   3.528   4.432   3.527 -0.0629  0.4342  0.3975
 6501SOL    HW131139   3.522   4.391   3.441  0.2674  0.1601  0.5035
 6501SOL    HW231140   3.448   4.397   3.567 -0.7274  1.2025 -0.2918
 6502SOL     OW31141   1.551   0.877   4.811  0.6431 -0.4757  0.5582
 6502SOL    HW131142   1.552   0.971   4.793 -1.5208 -0.6720 -0.7088
 6502SOL    HW231143   1.493   0.849   4.740  0.8741 -0.0817  0.2192
 6503SOL     OW31144   4.232   0.407   7.826 -0.1043 -0.1585  0.3131
 6503SOL    HW131145   4.247   0.501   7.816 -2.1277  0.1043 -0.4003
 6503SOL    HW231146   4.139   0.409   7.804 -0.3117  1.3745  1.3735
 6504SOL     OW31147   1.979   2.876   6.949 -0.2676  0.6434  0.3370
 6504SOL    HW131148   1.911   2.872   6.882  0.9393 -3.9196 -0.6127
 6504SOL    HW231149   1.950   2.956   6.993  1.0176  1.2384  0.0952
 6505SOL     OW31150   4.421   3.362   2.333 -0.5719  0.0216  0.3176
 6505SOL    HW131151   4.497   3.417   2.317 -0.4205 -0.2409  0.1413
 6505SOL    HW231152   4.347   3.422   2.326 -2.3537 -2.2917 -0.8458
 6506SOL     OW31153   2.479   2.695   3.875  0.3163 -0.1423 -0.2803
 6506SOL    HW131154   2.471   2.783   3.910 -1.6164 -0.6012  0.4544
 6506SOL    HW231155   2.555   2.705   3.819 -0.1359 -0.0757 -0.8755
 6507SOL     OW31156   0.237   0.121   2.526 -0.4394 -0.2518  0.3554
 6507SOL    HW131157   0.331   0.106   2.537 -0.5172 -2.2961 -1.7923
 6507SOL    HW231158   0.233   0.142   2.433 -2.0608 -1.7404  0.0893
 6508SOL     OW31159   1.853   3.124  13.672 -0.5705 -0.0214 -0.1746
 6508SOL    HW131160   1.789   3.152  13.738 -0.8373  1.0212 -0.8899
 6508SOL    HW231161   1.843   3.196  13.611 -0.4381  1.7466  1.8805
 6509SOL     OW31162   0.826   0.842   1.632  0.0538 -0.1193  0.6145
 6509SOL    HW131163   0.876   0.864   1.554 -0.2535 -1.3794  0.0625
 6509SOL    HW231164   0.820   0.746   1.636 -2.9502  0.0731  0.6030
 6510SOL     OW31165   3.924   4.596   3.829  0.4355 -0.2802  0.2411
 6510SOL    HW131166   3.863   4.611   3.757  2.0920  1.1366 -0.8941
 6510SOL    HW231167   4.005   4.636   3.796  1.3518 -2.4970 -0.1815
 6511SOL     OW31168   4.079   3.975   8.558 -0.0455  0.4573  0.1261
 6511SOL    HW131169   4.009   4.038   8.575 -2.8284 -1.9028 -2.5817
 6511SOL    HW231170   4.036   3.903   8.604 -1.5945  1.6160  0.4589
 6512SOL     OW31171   1.931   0.058   4.792 -0.8006 -0.2234  0.7443
 6512SOL    HW131172   1.852   0.111   4.801  1.1090  2.2765  2.9076
 6512SOL    HW231173   1.998   0.104   4.842  2.0830 -2.4361 -1.0820
 6513SOL     OW31174   3.273   3.410   4.271  0.2674  0.6475  0.5860
 6513SOL    HW131175   3.248   3.369   4.189  0.2731 -0.4468  1.1284
 6513SOL    HW231176   3.369   3.403   4.267  0.2845  0.0445  1.7486
 6514SOL     OW31177   3.691   2.559   3.576  0.0877 -0.2379  0.5788
 6514SOL    HW131178   3.604   2.580   3.609 -0.9212 -3.3592 -0.0899
 6514SOL    HW231179   3.724   2.535   3.662 -0.2767 -0.9865  0.5142
 6515SOL     OW31180   1.839   0.211   8.815 -0.2122 -0.2730  0.4102
 6515SOL    HW131181   1.840   0.150   8.741  2.8555 -0.2577  0.4258
 6515SOL    HW231182   1.929   0.218   8.848 -0.5716  0.9732  1.1154
 6516SOL     OW31183   3.874   1.599   2.514 -0.4090 -0.4577  0.0811
 6516SOL    HW131184   3.788   1.612   2.555  0.2243 -0.6079  1.4430
 6516SOL    HW231185   3.934   1.628   2.583  0.6144  1.6469 -1.6703
 6517SOL     OW31186   0.519   2.689  14.182  0.1149 -0.5859  0.2751
 6517SOL    HW131187   0.586   2.664  14.245 -0.2192 -3.1077 -0.3583
 6517SOL    HW231188   0.489   2.599  14.167  1.6165 -1.2087  1.0294
 6518SOL     OW31189   3.571   1.713   7.211 -0.2306  0.0220  0.1142
 6518SOL    HW131190   3.521   1.632   7.213 -2.8081  1.6105 -0.4971
 6518SOL    HW231191   3.661   1.684   7.195  0.4162  1.8960  0.2591
 6519SOL     OW31192   1.725   0.784   7.918 -0.0080  0.4349 -0.3260
 6519SOL    HW131193   1.739   0.767   7.825  1.2692 -0.4563  0.0387
 6519SOL    HW231194   1.661   0.717   7.945 -0.1158  0.0260 -1.6256
 6520SOL     OW31195   2.356   4.299  15.043 -0.0702 -0.0381 -0.3101
 6520SOL    HW131196   2.392   4.254  15.120 -0.5222 -0.0599 -0.1071
 6520SOL    HW231197   2.401   4.256  14.971 -2.6439 -1.4758 -1.0856
 6521SOL     OW31198   0.488   3.795   8.078  0.6426 -0.4210 -0.2337
 6521SOL    HW131199   0.402   3.756   8.092 -0.4492  1.4979 -1.5546
 6521SOL    HW231200   0.484   3.846   7.997 -0.4164  1.1331  0.8001
 6522SOL     OW31201   2.769   1.421   9.585 -0.1502  0.4755 -0.6384
 6522SOL    HW131202   2.809   1.384   9.663  0.1933 -0.2799 -1.1804
 6522SOL    HW231203   2.773   1.345   9.527 -3.1027 -0.7641  0.7972
 6523SOL     OW31204   1.347   4.174   2.318 -0.1393  0.8017  0.0546
 6523SOL    HW131205   1.347   4.264   2.350  1.2520  0.5886  0.6606
 6523SOL    HW231206   1.438   4.145   2.325 -0.8930 -1.9171 -1.5999
 6524SOL     OW31207   0.771   0.598  11.535 -0.2121 -0.0912  0.7171
 6524SOL    HW131208   0.785   0.513  11.492 -0.4679  0.9023 -1.3357
 6524SOL    HW231209   0.859   0.611  11.572  0.4389 -0.7515 -0.5715
 6525SOL     OW31210   1.451   1.809   6.127  0.6722 -0.3899  0.1453
 6525SOL    HW131211   1.476   1.742   6.064  0.3204 -0.6233  0.2572
 6525SOL    HW231212   1.427   1.759   6.205 -4.7412  0.0171 -1.2712
 6526SOL     OW31213   0.951   2.828   6.284  0.0572  0.0295 -0.3164
 6526SOL    HW131214   0.939   2.862   6.373  2.5204 -2.9277  1.1133
 6526SOL    HW231215   0.864   2.795   6.262  0.4626  0.0137 -1.8595
 6527SOL     OW31216   2.651   4.428   7.351  0.4117 -0.0044  0.5286
 6527SOL    HW131217   2.690   4.345   7.321 -0.1111  0.6653 -2.0090
 6527SOL    HW231218   2.558   4.419   7.328  0.6072 -1.6529  0.3328
 6528SOL     OW31219   2.112   0.234   8.863  0.2148 -0.5209  0.3945
 6528SOL    HW131220   2.103   0.222   8.957 -2.6074  0.7592  0.3053
 6528SOL    HW231221   2.203   0.209   8.846 -0.0405 -1.9906  1.2311
 6529SOL     OW31222   2.609   1.320  15.290 -0.0805 -0.2643 -0.7302
 6529SOL    HW131223   2.621   1.307  15.384  2.7787  1.6099 -0.8547
 6529SOL    HW231224   2.514   1.306  15.286  0.2656 -2.6489 -0.4629
 6530SOL     OW31225   4.447   2.149   2.677 -0.3949 -0.1878 -0.5707
 6530SOL    HW131226   4.513   2.168   2.611 -0.2308  1.6500  0.1288
 6530SOL    HW231227   4.478   2.076   2.731 -2.1562 -1.3062 -1.0546
 6531SOL     OW31228   3.205   4.216   5.068 -0.5061 -0.3346 -0.1702
 6531SOL    HW131229   3.192   4.305   5.035  0.1101 -1.0439 -2.3168
 6531SOL    HW231230   3.284   4.189   5.022 -0.2387  0.1100  0.0319
 6532SOL     OW31231   4.727   3.268  11.853  0.3537 -0.2713  0.5927
 6532SOL    HW131232   0.022   3.349  11.896  0.2492 -0.5504  1.1955
 6532SOL    HW231233   4.637   3.299  11.856  0.5491  0.5554 -1.8738
 6533SOL     OW31234   2.029   1.669   0.247  0.3179  0.8409 -0.1068
 6533SOL    HW131235   2.096   1.700   0.307  1.1029 -0.6882 -0.2112
 6533SOL    HW231236   2.038   1.739   0.182  1.8742  2.0457  1.4163
 6534SOL     OW31237   2.180   2.273  15.764 -0.2250  0.0400  0.3450
 6534SOL    HW131238   2.142   2.227  15.689 -0.2681 -0.1133  0.4626
 6534SOL    HW231239   2.260   2.312  15.729 -0.3643  1.1256  1.2396
 6535SOL     OW31240   0.410   1.271   5.888 -0.5429 -0.2054  0.3756
 6535SOL    HW131241   0.370   1.278   5.975  0.5124  0.6189  0.8077
 6535SOL    HW231242   0.422   1.177   5.879  0.2154 -0.2087  1.3776
 6536SOL     OW31243   2.500   2.735   6.482  0.3419 -0.1463  0.0587
 6536SOL    HW131244   2.510   2.825   6.512  1.1836 -0.5358  0.9295
 6536SOL    HW231245   2.417   2.750   6.437  0.2750  1.8786  0.8866
 6537SOL     OW31246   3.119   2.190   3.588 -0.2029 -0.2251 -0.1172
 6537SOL    HW131247   3.058   2.140   3.642 -0.8782  1.4923  0.7092
 6537SOL    HW231248   3.157   2.247   3.655 -1.4539 -0.2669  0.6271
 6538SOL     OW31249   2.216   0.062   5.401  0.2084  0.3940  0.0679
 6538SOL    HW131250   2.172   0.120   5.463 -2.2723  0.3077 -1.5891
 6538SOL    HW231251   2.227   4.722   5.459  2.9051  1.2440  0.6747
 6539SOL     OW31252   2.849   4.473  12.386  0.0939 -0.6827  0.4148
 6539SOL    HW131253   2.874   4.402  12.446 -0.2451  0.6690  2.1223
 6539SOL    HW231254   2.901   4.450  12.309 -1.8541  0.3487 -1.1891
 6540SOL     OW31255   3.335   4.382   6.926  0.3133 -0.0631 -0.5834
 6540SOL    HW131256   3.365   4.292   6.943  0.4021 -0.3195 -2.1081
 6540SOL    HW231257   3.376   4.440   6.990 -0.0076 -0.9190  0.4157
 6541SOL     OW31258   1.753   1.409   3.123 -0.0185 -0.4853 -0.2517
 6541SOL    HW131259   1.709   1.334   3.163 -0.7626 -1.0284 -2.1185
 6541SOL    HW231260   1.815   1.356   3.073  1.5194  0.0927  1.0357
 6542SOL     OW31261   4.676   1.490   5.260 -0.1548  0.1774 -0.6729
 6542SOL    HW131262   4.600   1.436   5.238 -1.1987  1.8679 -1.1916
 6542SOL    HW231263   0.004   1.474   5.190 -0.3367 -1.2429 -0.5128
 6543SOL     OW31264   2.327   0.050  15.213 -0.2560 -0.2803 -0.2408
 6543SOL    HW131265   2.422   0.059  15.206 -0.2912  1.1875  1.1443
 6543SOL    HW231266   2.298   0.125  15.160 -0.7970 -0.4803 -0.2235
 6544SOL     OW31267   2.246   4.245   4.905 -0.0985  0.5613 -0.1426
 6544SOL    HW131268   2.340   4.248   4.887 -0.0748  2.1848  0.2609
 6544SOL    HW231269   2.248   4.222   4.998  0.6508 -0.2071 -0.3558
 6545SOL     OW31270   1.150   1.583   1.688  0.2018 -0.0165  0.2878
 6545SOL    HW131271   1.084   1.550   1.749  0.7996  2.2495  2.1638
 6545SOL    HW231272   1.099   1.552   1.612  1.2411 -2.4096  0.5639
 6546SOL     OW31273   1.228   2.788  14.151 -0.1754 -0.8907 -0.1136
 6546SOL    HW131274   1.309   2.782  14.100 -0.4810 -0.5204 -0.6344
 6546SOL    HW231275   1.172   2.741  14.089 -0.1384 -1.0316 -0.0407
 6547SOL     OW31276   2.610   0.679   6.440  0.1368  0.2316 -0.1738
 6547SOL    HW131277   2.582   0.722   6.359 -1.3287  0.1997  0.3207
 6547SOL    HW231278   2.570   0.592   6.431  0.4956  0.0750 -0.2371
 6548SOL     OW31279   2.066   0.301  14.670  0.4083 -0.7590  0.6431
 6548SOL    HW131280   2.055   0.243  14.745 -1.1751 -1.7552 -0.3521
 6548SOL    HW231281   1.984   0.349  14.676  0.4818 -0.6266  0.6086
 6549SOL     OW31282   2.141   0.146  16.081 -0.0285  0.0880 -0.1896
 6549SOL    HW131283   2.062   0.118  16.127 -1.1413 -0.2229 -2.2812
 6549SOL    HW231284   2.176   0.065  16.044  1.5213 -0.4343  2.4077
 6550SOL     OW31285   4.524   3.810   1.290  0.3526  0.0161 -0.1557
 6550SOL    HW131286   4.617   3.818   1.268  0.4147 -1.6728 -0.4911
 6550SOL    HW231287   4.500   3.903   1.292  1.8588  0.4091 -0.3588
 6551SOL     OW31288   2.700   1.149   7.478  0.2839  0.3717 -0.4910
 6551SOL    HW131289   2.667   1.228   7.436  1.6017  0.2139 -1.8144
 6551SOL    HW231290   2.752   1.185   7.550  2.0577 -1.0151 -1.0619
 6552SOL     OW31291   4.163   2.028  11.533 -0.1651  0.1737  0.2089
 6552SOL    HW131292   4.132   2.013  11.443 -0.7322 -1.4206  0.6856
 6552SOL    HW231293   4.205   2.114  11.526 -1.0582  0.5739 -0.2597
 6553SOL     OW31294   3.634   3.584   4.119 -0.1088  0.4573  0.2708
 6553SOL    HW131295   3.550   3.609   4.079  0.6576 -1.5082 -2.5472
 6553SOL    HW231296   3.603   3.518   4.181 -0.1411 -0.6268 -0.9068
 6554SOL     OW31297   3.797   2.941   6.630 -0.4099  0.5085 -0.1075
 6554SOL    HW131298   3.716   2.915   6.674 -2.5218  3.4446 -2.2662
 6554SOL    HW231299   3.819   2.876   6.563  2.9595  1.2396  0.2702
 6555SOL     OW31300   1.651   2.543   2.123  0.6254  0.3659  0.1129
 6555SOL    HW131301   1.608   2.485   2.185  1.1967  0.1254  0.2816
 6555SOL    HW231302   1.711   2.586   2.184  0.3450  0.7722  0.1078
 6556SOL     OW31303   3.951   0.430   2.370 -0.0121 -0.2527 -0.1400
 6556SOL    HW131304   3.930   0.517   2.335 -0.1202 -0.3599 -0.3375
 6556SOL    HW231305   4.044   0.431   2.350  0.0321  1.0551  0.1412
 6557SOL     OW31306   3.455   3.717   0.565  0.2619  0.0985  0.2536
 6557SOL    HW131307   3.381   3.688   0.512  0.9155 -1.0019 -0.0704
 6557SOL    HW231308   3.507   3.762   0.499  0.0519 -0.9416 -0.6326
 6558SOL     OW31309   3.527   0.323   3.007  0.4392 -0.6298  0.1742
 6558SOL    HW131310   3.571   0.241   2.987  1.2121  0.0962 -1.0479
 6558SOL    HW231311   3.436   0.294   3.000  1.3230 -3.2160 -0.6603
 6559SOL     OW31312   4.588   0.997  13.174 -0.3117 -0.3572 -0.4935
 6559SOL    HW131313   4.508   0.979  13.125 -2.4472  1.4579  2.3324
 6559SOL    HW231314   4.546   1.025  13.255  0.0371 -1.3673  0.0450
 6560SOL     OW31315   3.517   2.833   1.016  0.1992 -0.0509 -0.1698
 6560SOL    HW131316   3.517   2.770   1.088 -0.6353 -0.6160 -0.6715
 6560SOL    HW231317   3.441   2.887   1.039  1.0862  0.4554  1.5943
 6561SOL     OW31318   4.573   2.349   7.049  0.1503  0.0577 -0.0716
 6561SOL    HW131319   4.566   2.388   6.962 -0.1211 -0.5739 -0.3280
 6561SOL    HW231320   4.483   2.322   7.070 -0.0705  0.5733 -0.3362
 6562SOL     OW31321   3.173   1.979  13.594 -0.1907 -0.5080  0.0742
 6562SOL    HW131322   3.184   1.993  13.688  1.0529 -6.3980  0.8049
 6562SOL    HW231323   3.167   2.072  13.570 -0.4647 -0.7443 -0.7555
 6563SOL     OW31324   3.103   2.509  12.844  0.6289 -0.4014 -0.8142
 6563SOL    HW131325   3.033   2.481  12.903  2.2216 -0.8447  0.8474
 6563SOL    HW231326   3.155   2.568  12.898  0.2343  0.9697 -1.9488
 6564SOL     OW31327   4.490   4.673   7.132 -0.4488  0.1585 -0.2201
 6564SOL    HW131328   4.478   0.016   7.187 -3.7484  0.7513 -1.7524
 6564SOL    HW231329   4.585   4.667   7.137 -0.5285 -2.2757 -1.6637
 6565SOL     OW31330   1.352   1.900   1.129 -0.5053 -0.1249 -0.5986
 6565SOL    HW131331   1.374   1.898   1.036 -1.3143  1.0820 -0.8254
 6565SOL    HW231332   1.436   1.931   1.165 -0.8471  0.8617 -0.6576
 6566SOL     OW31333   1.477   0.556   8.480  0.6507  0.3355 -0.1648
 6566SOL    HW131334   1.554   0.526   8.527  2.3159  0.9487 -2.4925
 6566SOL    HW231335   1.427   0.586   8.556 -1.2988  0.7369 -1.6027
 6567SOL     OW31336   0.455   4.016  14.654 -0.3554 -0.1283 -0.3025
 6567SOL    HW131337   0.445   4.081  14.723  3.6841  0.1323  0.0789
 6567SOL    HW231338   0.479   4.065  14.576  3.8412  0.7730  1.5000
 6568SOL     OW31339   3.494   2.317   8.647 -0.1282 -0.2812 -0.0019
 6568SOL    HW131340   3.481   2.375   8.572 -1.8963 -0.3727  0.2534
 6568SOL    HW231341   3.447   2.362   8.717  0.2090 -1.4026  0.9429
 6569SOL     OW31342   1.661   1.843  13.559  0.0749 -0.4642 -0.1502
 6569SOL    HW131343   1.656   1.859  13.464 -0.5401 -0.1978 -0.0743
 6569SOL    HW231344   1.596   1.911  13.578 -1.4041 -1.6911 -0.7994
 6570SOL     OW31345   4.079   2.136   6.365 -0.4013 -0.4975  0.3183
 6570SOL    HW131346   4.077   2.075   6.291 -1.2213  1.0507 -0.9235
 6570SOL    HW231347   4.096   2.222   6.326 -0.8861 -0.1082  0.9847
 6571SOL     OW31348   3.664   2.818   9.856 -0.5184 -0.2687 -0.1187
 6571SOL    HW131349   3.690   2.896   9.807  0.1356 -0.1166  0.4588
 6571SOL    HW231350   3.579   2.847   9.889  0.0898  0.1409  1.0914
 6572SOL     OW31351   2.649   1.772  17.559 -0.0192 -0.1636  0.0560
 6572SOL    HW131352   2.629   1.840  17.494 -0.8590  0.6386  1.1634
 6572SOL    HW231353   2.647   1.827  17.637  3.5968 -1.1984  0.8836
 6573SOL     OW31354   4.015   3.305  11.269 -0.7199  0.4370 -0.2383
 6573SOL    HW131355   3.944   3.336  11.213  1.0582  0.4415 -2.4919
 6573SOL    HW231356   3.969   3.298  11.352 -0.5562  1.5505 -0.0441
 6574SOL     OW31357   2.339   3.528   8.586 -0.7681 -0.0823 -0.9392
 6574SOL    HW131358   2.350   3.549   8.493 -2.3825  2.2187 -0.5946
 6574SOL    HW231359   2.252   3.490   8.580 -0.9519 -0.0064  1.5240
 6575SOL     OW31360   2.738   4.078   8.990 -0.1863 -0.2967  0.4137
 6575SOL    HW131361   2.750   3.984   9.000 -2.5359 -0.5948  0.5472
 6575SOL    HW231362   2.655   4.085   9.038  3.0078 -0.6700  5.9369
 6576SOL     OW31363   3.041   2.041   3.186  0.1848  0.1553  0.6877
 6576SOL    HW131364   3.051   2.054   3.092  0.5102 -0.4394  0.6357
 6576SOL    HW231365   3.008   2.129   3.203  0.6331  0.6955 -1.2512
 6577SOL     OW31366   0.601   1.309   7.499 -0.3970  0.0942  0.3921
 6577SOL    HW131367   0.571   1.376   7.560 -2.7553  1.4790 -2.2283
 6577SOL    HW231368   0.617   1.240   7.563  0.7606 -0.7777 -0.8357
 6578SOL     OW31369   4.558   4.157   8.267 -0.1440 -0.4732 -0.0742
 6578SOL    HW131370   4.499   4.084   8.248 -0.8082  0.2496 -0.8046
 6578SOL    HW231371   4.543   4.180   8.359  2.1775 -0.1651  0.2163
 6579SOL     OW31372   3.674   1.176   8.646  0.5514 -0.9223 -0.1909
 6579SOL    HW131373   3.587   1.140   8.663  0.9604 -1.6928  0.2798
 6579SOL    HW231374   3.637   1.246   8.592  2.2704  0.2714  0.1811
 6580SOL     OW31375   3.616   0.738   4.753  0.6627 -0.2092 -0.4391
 6580SOL    HW131376   3.653   0.807   4.699  0.1140 -1.0676 -1.9197
 6580SOL    HW231377   3.594   0.782   4.835 -1.0597 -0.4553 -0.7704
 6581SOL     OW31378   0.341   0.867   3.181 -0.2316  0.3384 -0.2120
 6581SOL    HW131379   0.355   0.904   3.094 -3.1261  1.2807 -0.2782
 6581SOL    HW231380   0.432   0.875   3.210  0.4385 -1.0597 -1.9775
 6582SOL     OW31381   1.852   2.577   3.503  0.0895 -0.3938  0.6768
 6582SOL    HW131382   1.830   2.662   3.465 -0.1740 -0.4984  0.5935
 6582SOL    HW231383   1.841   2.522   3.426 -0.0052  1.2382 -0.4713
 6583SOL     OW31384   0.927   1.813  10.237  0.3860 -0.1544 -0.0780
 6583SOL    HW131385   0.885   1.801  10.152  0.4184  1.3845 -0.3217
 6583SOL    HW231386   0.897   1.902  10.256 -0.8554 -0.5536 -0.1439
 6584SOL     OW31387   2.374   1.036  17.366  0.2193  0.0822  0.2749
 6584SOL    HW131388   2.432   1.083  17.426  0.9976 -0.5120 -0.0195
 6584SOL    HW231389   2.298   1.094  17.380  1.0218  2.0646 -3.3769
 6585SOL     OW31390   1.001   2.714  17.027 -0.1405  0.0257 -0.3270
 6585SOL    HW131391   1.027   2.632  17.068 -0.5925  0.0452  0.0071
 6585SOL    HW231392   0.925   2.745  17.077  1.5173  1.3697  1.3247
 6586SOL     OW31393   0.355   1.304   8.244  0.3592  0.5687  0.1031
 6586SOL    HW131394   0.333   1.393   8.215  3.3754  0.9408 -1.0613
 6586SOL    HW231395   0.426   1.278   8.186 -2.7242 -2.6511 -2.2757
 6587SOL     OW31396   1.698   1.547   3.727  0.2057 -0.3944  0.2411
 6587SOL    HW131397   1.671   1.479   3.788 -2.3413 -0.2149 -0.7098
 6587SOL    HW231398   1.699   1.496   3.646 -1.5134 -1.6417  1.0115
 6588SOL     OW31399   3.168   1.772   9.116 -0.3242 -0.6088 -0.1037
 6588SOL    HW131400   3.134   1.723   9.191  1.8934 -2.3998 -0.2632
 6588SOL    HW231401   3.085   1.810   9.089  0.2856  0.1186 -0.9484
 6589SOL     OW31402   4.100   3.768   2.371  0.1898  0.8055  0.2448
 6589SOL    HW131403   4.161   3.825   2.418  1.0011  1.0173 -1.0620
 6589SOL    HW231404   4.038   3.835   2.340 -1.4853 -0.5544  0.6407
 6590SOL     OW31405   0.865   1.079  15.925 -0.4193  0.9509 -0.1815
 6590SOL    HW131406   0.887   1.131  15.847 -1.0066 -0.4523 -1.2888
 6590SOL    HW231407   0.922   1.006  15.901 -0.3765  1.1344 -0.6500
 6591SOL     OW31408   2.821   3.786   8.992 -0.1485  0.3256  0.3417
 6591SOL    HW131409   2.790   3.696   8.982 -1.3206  0.9730 -1.8846
 6591SOL    HW231410   2.805   3.798   9.085  2.2520  0.7839  0.6990
 6592SOL     OW31411   0.270   2.821  10.993 -0.0821  0.2697 -0.2288
 6592SOL    HW131412   0.279   2.915  11.007  1.2468  0.3131 -1.3731
 6592SOL    HW231413   0.319   2.815  10.911  0.0796  1.8061 -0.2450
 6593SOL     OW31414   1.685   2.158   4.573 -1.1757 -0.1956 -0.2606
 6593SOL    HW131415   1.620   2.227   4.586  1.2219  2.1834 -0.7968
 6593SOL    HW231416   1.720   2.206   4.497 -1.8287 -1.8954 -1.6324
 6594SOL     OW31417   0.257   4.371  16.256 -0.0419  0.0679 -0.0022
 6594SOL    HW131418   0.288   4.453  16.218  0.4502  0.6554  1.6666
 6594SOL    HW231419   0.303   4.305  16.204 -0.9597  0.2572 -1.0546
 6595SOL     OW31420   3.612   1.778  11.706 -0.2787  0.0957 -0.3530
 6595SOL    HW131421   3.683   1.718  11.683  0.4877  0.9791 -0.3262
 6595SOL    HW231422   3.616   1.786  11.801  0.6191  0.6062 -0.4279
 6596SOL     OW31423   2.099   3.434   8.492 -0.2703  0.0144  0.8680
 6596SOL    HW131424   2.073   3.405   8.405  0.6747  0.5002  0.4257
 6596SOL    HW231425   2.023   3.486   8.518 -1.5877 -1.3514 -0.2373
 6597SOL     OW31426   0.746   1.872  13.859 -0.3183 -0.3991  0.7379
 6597SOL    HW131427   0.715   1.821  13.934 -0.1407 -2.1790 -0.3840
 6597SOL    HW231428   0.775   1.804  13.797  1.2490  0.5964  0.3840
 6598SOL     OW31429   0.134   4.076   0.354 -0.0955  1.0260 -0.3196
 6598SOL    HW131430   0.044   4.046   0.369  0.6979 -1.7820 -1.3056
 6598SOL    HW231431   0.175   4.098   0.438  1.1154 -2.2974 -0.0577
 6599SOL     OW31432   1.031   2.756  12.100 -0.2645 -0.3411  0.3867
 6599SOL    HW131433   0.990   2.757  12.013 -0.2999 -0.9901  0.3989
 6599SOL    HW231434   1.112   2.713  12.073 -0.8806  0.4146 -2.7128
 6600SOL     OW31435   1.243   4.428   8.371  0.5824  0.0674 -0.8252
 6600SOL    HW131436   1.211   4.518   8.367 -0.9944 -0.4980 -0.8341
 6600SOL    HW231437   1.305   4.442   8.443  0.3858 -1.1519 -0.4123
 6601SOL     OW31438   4.532   2.716   2.752  0.0114  0.2766 -0.0276
 6601SOL    HW131439   4.595   2.651   2.720 -0.2046 -0.7148  1.5683
 6601SOL    HW231440   4.454   2.703   2.698 -1.3578  0.5370  1.9181
 6602SOL     OW31441   0.516   0.313   2.872  0.2700  0.2771 -0.3584
 6602SOL    HW131442   0.450   0.367   2.829  1.6581  2.0645 -0.2122
 6602SOL    HW231443   0.573   0.380   2.908  0.1862  0.2041 -0.0878
 6603SOL     OW31444   3.888   2.766   0.843  0.3363 -0.0080 -0.9741
 6603SOL    HW131445   3.977   2.732   0.834  1.0652  1.2960  1.3495
 6603SOL    HW231446   3.864   2.713   0.919  2.2948  1.3366  0.5733
 6604SOL     OW31447   2.956   3.982   8.819 -0.2460  0.4656  0.0324
 6604SOL    HW131448   2.969   3.935   8.902 -0.4316  0.4721  0.0662
 6604SOL    HW231449   2.869   4.021   8.831 -0.9702 -1.6662  1.7705
 6605SOL     OW31450   1.515   0.433   6.550  0.5721 -0.0163 -0.2965
 6605SOL    HW131451   1.514   0.360   6.489 -1.1237 -1.1620  1.1028
 6605SOL    HW231452   1.575   0.490   6.503  1.1067  0.2649  0.7171
 6606SOL     OW31453   0.533   0.052  14.506 -0.3463  0.2411 -0.4857
 6606SOL    HW131454   0.523   4.692  14.512 -0.7055  0.4281  1.7408
 6606SOL    HW231455   0.448   0.081  14.539 -0.7611 -0.8759 -0.6060
 6607SOL     OW31456   2.382   3.903  14.751 -0.2422 -0.1100  0.7232
 6607SOL    HW131457   2.420   3.817  14.767 -0.7357 -1.2342 -3.9394
 6607SOL    HW231458   2.385   3.902  14.655 -1.2226 -0.0347  0.6850
 6608SOL     OW31459   3.957   0.214   5.933  0.5496 -0.1633 -0.3811
 6608SOL    HW131460   3.934   0.135   5.981 -1.0082  1.4871  1.5603
 6608SOL    HW231461   3.872   0.255   5.943  1.4098  1.6201 -0.3211
 6609SOL     OW31462   2.124   2.975   6.652 -0.8616 -0.0181  0.3409
 6609SOL    HW131463   2.070   2.918   6.706 -0.2467 -0.7686  0.1682
 6609SOL    HW231464   2.209   2.932   6.656 -0.4213  0.9491  1.5136
 6610SOL     OW31465   2.671   2.928   6.348 -0.5036 -0.4015 -0.6774
 6610SOL    HW131466   2.737   2.859   6.339 -0.6889 -0.6529 -0.1301
 6610SOL    HW231467   2.591   2.878   6.331 -1.2187  0.0963  1.1941
 6611SOL     OW31468   3.810   0.491   1.637 -0.3797 -0.2375 -0.2491
 6611SOL    HW131469   3.726   0.527   1.610  0.4600  0.4631 -1.9690
 6611SOL    HW231470   3.837   0.543   1.713 -0.8858 -0.9287  0.4000
 6612SOL     OW31471   2.847   4.319   7.187  0.3941 -0.5117 -0.0072
 6612SOL    HW131472   2.862   4.367   7.105 -2.8911 -0.0505 -0.3212
 6612SOL    HW231473   2.813   4.234   7.162  0.1227 -1.2812  2.9434
 6613SOL     OW31474   0.191   1.262  10.734  0.1864  0.0872 -0.2746
 6613SOL    HW131475   0.272   1.251  10.785 -1.2159 -1.7632  1.5339
 6613SOL    HW231476   0.235   1.317  10.668  0.3929 -1.1478 -1.1785
 6614SOL     OW31477   3.030   1.068   3.189  0.0345  0.2408 -0.0908
 6614SOL    HW131478   3.062   1.020   3.113  1.0416  0.9187 -0.0954
 6614SOL    HW231479   3.078   1.151   3.191  0.0437  0.2125  1.0552
 6615SOL     OW31480   4.558   1.938   5.596 -0.2502 -0.2753 -0.5732
 6615SOL    HW131481   4.558   1.906   5.686  1.7601 -2.3432 -1.3202
 6615SOL    HW231482   4.622   2.010   5.594 -1.7851  1.0942 -0.7922
 6616SOL     OW31483   0.432   1.688  10.587  0.7791  0.0314  0.0330
 6616SOL    HW131484   0.451   1.715  10.677 -2.1333 -0.5664  0.8230
 6616SOL    HW231485   0.495   1.742  10.539  2.5872 -1.3742  0.8338
 6617SOL     OW31486   4.581   2.518   7.477 -0.3635 -0.0214 -0.1865
 6617SOL    HW131487   4.492   2.491   7.453 -1.2178 -0.7701  3.7752
 6617SOL    HW231488   4.579   2.610   7.449  2.0482 -0.5046 -1.9595
 6618SOL     OW31489   1.935   1.824  17.189  0.6963 -0.0787 -0.0428
 6618SOL    HW131490   2.001   1.833  17.259 -0.9356 -0.2526  1.5145
 6618SOL    HW231491   1.967   1.889  17.126  0.7818 -2.0844 -2.0382
 6619SOL     OW31492   0.288   3.776  12.076  0.1268 -0.3635 -0.1352
 6619SOL    HW131493   0.263   3.826  11.999 -0.1461 -0.8673 -0.3732
 6619SOL    HW231494   0.371   3.745  12.039  2.0062  2.1278  2.0476
 6620SOL     OW31495   3.445   3.619   3.377 -0.2826 -0.0736 -0.1548
 6620SOL    HW131496   3.518   3.676   3.351 -0.2386 -0.3822 -0.6870
 6620SOL    HW231497   3.424   3.584   3.291  0.4184 -0.4039 -0.1912
 6621SOL     OW31498   2.560   4.695   2.677 -0.2224  0.6936  0.3611
 6621SOL    HW131499   2.602   4.675   2.760 -0.0221  0.0055  0.0916
 6621SOL    HW231500   2.547   4.605   2.645 -0.7180  0.0718  2.2843
 6622SOL     OW31501   3.115   2.344   2.623  0.6590 -0.3346 -0.5142
 6622SOL    HW131502   3.098   2.334   2.717  1.6038 -0.2038 -0.3283
 6622SOL    HW231503   3.165   2.426   2.621 -0.3911  0.3578  1.0784
 6623SOL     OW31504   2.572   1.515   1.823 -0.2520 -0.0318  0.2376
 6623SOL    HW131505   2.638   1.579   1.797  0.0851 -0.3339  0.3456
 6623SOL    HW231506   2.497   1.571   1.841 -0.5907 -0.3904 -0.0642
 6624SOL     OW31507   1.904   4.185  12.622 -0.0995 -0.0181  0.4190
 6624SOL    HW131508   1.986   4.207  12.667  0.6026 -1.7004 -0.0293
 6624SOL    HW231509   1.880   4.272  12.591 -0.8282 -0.6273 -0.7082
 6625SOL     OW31510   2.458   1.606   3.383 -0.0707 -0.0388 -0.0216
 6625SOL    HW131511   2.537   1.555   3.401 -0.3084 -0.9549 -1.5503
 6625SOL    HW231512   2.478   1.610   3.290 -0.7915  0.4221 -0.1512
 6626SOL     OW31513   0.402   3.117   2.342 -0.1146  0.2520 -0.2981
 6626SOL    HW131514   0.350   3.039   2.322  0.4236  0.1713 -1.3216
 6626SOL    HW231515   0.335   3.175   2.380  1.7261  2.4328 -0.4036
 6627SOL     OW31516   1.751   1.864   9.671  0.5560 -0.5909 -0.1400
 6627SOL    HW131517   1.815   1.815   9.619  0.3701 -0.5229 -0.4321
 6627SOL    HW231518   1.753   1.827   9.760  0.7202  0.9384  0.4998
 6628SOL     OW31519   2.916   1.590  15.182  0.3444  0.2271 -0.2493
 6628SOL    HW131520   2.837   1.627  15.141  0.8967  2.0436  0.3377
 6628SOL    HW231521   2.899   1.496  15.168  3.1808 -0.4118  0.5673
 6629SOL     OW31522   4.013   3.476   1.909  0.0337 -0.4517 -0.4962
 6629SOL    HW131523   4.100   3.440   1.892  0.6014 -0.0119  1.4045
 6629SOL    HW231524   3.965   3.394   1.900 -0.6346 -0.0985 -0.0934
 6630SOL     OW31525   0.407   0.802   5.653 -0.1757 -0.5408 -0.3859
 6630SOL    HW131526   0.318   0.803   5.617  0.0221  1.8886 -0.7822
 6630SOL    HW231527   0.392   0.831   5.743 -0.7732 -0.2326 -0.5836
 6631SOL     OW31528   0.484   1.888   8.460  0.6642  0.1289 -0.0631
 6631SOL    HW131529   0.548   1.818   8.444 -0.4616 -0.9140  0.0282
 6631SOL    HW231530   0.402   1.858   8.422 -0.7514 -0.7216  3.6143
 6632SOL     OW31531   4.678   2.046  13.146  0.5683  0.0809  0.4513
 6632SOL    HW131532   0.007   2.081  13.209  0.5180  0.1543  0.4614
 6632SOL    HW231533   0.002   2.015  13.078  0.6309  1.3983 -0.0926
 6633SOL     OW31534   2.346   3.635   2.016 -0.5328  0.1065  0.0588
 6633SOL    HW131535   2.295   3.558   2.040 -0.4122 -0.5159 -1.6358
 6633SOL    HW231536   2.409   3.623   2.087 -1.4608 -2.1271  0.5260
 6634SOL     OW31537   3.862   3.323   3.652 -0.5765  0.2618  0.0919
 6634SOL    HW131538   3.813   3.397   3.616  2.5454  1.4234 -1.7678
 6634SOL    HW231539   3.786   3.267   3.666 -0.0043 -0.5161  0.0652
 6635SOL     OW31540   2.503   3.348   4.947  0.0095 -0.3834 -0.4799
 6635SOL    HW131541   2.466   3.294   4.877  1.0872  0.6493 -1.8446
 6635SOL    HW231542   2.570   3.283   4.970  0.5198 -0.3784 -1.9460
 6636SOL     OW31543   3.730   1.010  17.032  0.1557  0.2341  0.0255
 6636SOL    HW131544   3.673   1.072  17.078  1.3454  0.6467  0.9364
 6636SOL    HW231545   3.781   1.062  16.970  0.6988 -0.4236 -0.0795
 6637SOL     OW31546   3.235   3.319  12.688  0.3283 -0.7037  0.0445
 6637SOL    HW131547   3.178   3.268  12.746  0.6226  0.1893  1.1179
 6637SOL    HW231548   3.321   3.300  12.724  0.9640  0.2869 -0.9711
 6638SOL     OW31549   3.316   0.240   0.963 -0.5813  0.3857 -0.0363
 6638SOL    HW131550   3.240   0.294   0.941 -0.6109  0.8804  1.2800
 6638SOL    HW231551   3.378   0.257   0.891 -1.0797  0.4281 -0.4566
 6639SOL     OW31552   3.477   3.959   6.834 -0.3506 -0.3260 -0.4198
 6639SOL    HW131553   3.509   3.911   6.910 -0.0750  0.2508 -0.1745
 6639SOL    HW231554   3.562   3.998   6.815 -0.3457 -0.3134 -0.3736
 6640SOL     OW31555   1.560   1.292   2.444  0.0377  0.8416  0.0073
 6640SOL    HW131556   1.562   1.198   2.427  0.5224  1.0366 -1.0244
 6640SOL    HW231557   1.529   1.284   2.534 -0.5198 -0.9414 -0.3553
 6641SOL     OW31558   3.170   3.410  17.349  0.3156  0.0954  0.3162
 6641SOL    HW131559   3.159   3.381  17.258 -2.3564 -0.0218  0.6850
 6641SOL    HW231560   3.088   3.457  17.363  1.0877  1.8150 -0.8645
 6642SOL     OW31561   1.516   0.127  12.939 -0.1022 -0.1891 -0.8327
 6642SOL    HW131562   1.480   0.203  12.984 -0.1399 -0.1288 -0.9652
 6642SOL    HW231563   1.597   0.110  12.988 -0.2922  0.7528 -0.1886
 6643SOL     OW31564   4.195   3.285   7.071 -0.3801 -0.3125  0.3006
 6643SOL    HW131565   4.204   3.280   7.166 -0.1989  1.7387  0.3951
 6643SOL    HW231566   4.127   3.223   7.045  0.8528 -1.7924  0.6006
 6644SOL     OW31567   0.908   1.786  11.835  0.3760 -0.0320 -0.4377
 6644SOL    HW131568   0.853   1.862  11.854  1.7705  0.6427  0.8988
 6644SOL    HW231569   0.993   1.830  11.836  0.4911 -0.2986  1.6217
 6645SOL     OW31570   1.677   3.749   2.993  0.2119  0.3352 -0.2660
 6645SOL    HW131571   1.599   3.789   2.953  0.0147 -0.5452 -0.7542
 6645SOL    HW231572   1.747   3.801   2.952 -0.6215  2.2899  0.7654
 6646SOL     OW31573   3.813   1.456  16.149 -0.1047 -0.0824 -0.5592
 6646SOL    HW131574   3.858   1.437  16.067 -1.8514 -1.0980 -1.2866
 6646SOL    HW231575   3.827   1.550  16.156 -0.9094  0.1401 -1.9496
 6647SOL     OW31576   2.310   3.312   2.398  0.4848  0.1415  0.5509
 6647SOL    HW131577   2.405   3.313   2.411  0.7494  2.6793 -1.4378
 6647SOL    HW231578   2.303   3.241   2.334  0.5183 -0.1069  0.8254
 6648SOL     OW31579   0.363   0.890   7.527  0.4652  0.1327 -0.2198
 6648SOL    HW131580   0.305   0.937   7.466 -0.5823  0.0530  0.7084
 6648SOL    HW231581   0.335   0.903   7.617 -1.9606  0.8638 -1.0814
 6649SOL     OW31582   1.524   1.600   5.071  0.6346 -0.0706 -0.3149
 6649SOL    HW131583   1.581   1.665   5.111  1.4180 -1.4461  0.8040
 6649SOL    HW231584   1.438   1.641   5.083  0.3673 -0.9307  0.6960
 6650SOL     OW31585   0.333   1.475   6.230 -0.4745  0.6535 -0.4002
 6650SOL    HW131586   0.405   1.454   6.289 -1.3266  2.6765  1.3463
 6650SOL    HW231587   0.340   1.564   6.197  0.7419  1.5410  2.2451
 6651SOL     OW31588   4.673   2.383   4.419 -0.5910  0.5824 -0.0459
 6651SOL    HW131589   4.580   2.366   4.407 -1.0020  2.7789  0.1205
 6651SOL    HW231590   4.707   2.408   4.333 -1.0319  0.4879 -0.2486
 6652SOL     OW31591   4.274   1.707   4.806 -0.2881 -0.2348 -0.5773
 6652SOL    HW131592   4.215   1.636   4.780  1.1271 -1.4472 -0.4357
 6652SOL    HW231593   4.250   1.716   4.898 -0.7065 -2.0063 -0.5138
 6653SOL     OW31594   3.842   2.742   5.602 -0.2734  0.0775  0.1253
 6653SOL    HW131595   3.842   2.838   5.605  1.3991  0.0362  1.2956
 6653SOL    HW231596   3.919   2.721   5.550  1.9940 -0.1112  3.5544
 6654SOL     OW31597   0.220   3.264   8.798  0.2478 -0.0044  0.0727
 6654SOL    HW131598   0.258   3.339   8.844  0.5296  0.0828 -0.3042
 6654SOL    HW231599   0.165   3.311   8.735 -1.1247  1.2397  2.1867
 6655SOL     OW31600   2.095   2.356  14.947 -0.3881  0.6680 -0.1341
 6655SOL    HW131601   2.012   2.329  14.987  0.6378 -1.8942  0.3004
 6655SOL    HW231602   2.123   2.272  14.910 -2.0418  1.6898 -3.6534
 6656SOL     OW31603   3.889   1.082   4.235  0.3389 -0.1429  0.0090
 6656SOL    HW131604   3.946   1.083   4.312 -0.7912  0.2898  0.8482
 6656SOL    HW231605   3.882   0.986   4.237 -1.7203  0.0414  2.6717
 6657SOL     OW31606   4.350   1.268  12.123  0.3748 -0.3431  0.1250
 6657SOL    HW131607   4.367   1.176  12.142  0.4762 -1.2329 -4.2554
 6657SOL    HW231608   4.435   1.308  12.100 -0.5346  1.9288  0.6894
 6658SOL     OW31609   3.214   2.236  15.242  0.1956  0.1614 -0.1839
 6658SOL    HW131610   3.286   2.179  15.215 -0.2590 -0.8216  0.6949
 6658SOL    HW231611   3.203   2.199  15.330  0.7067 -2.3381 -1.1950
 6659SOL     OW31612   1.264   0.448   5.358  0.3917  0.2790 -0.0016
 6659SOL    HW131613   1.287   0.506   5.285  1.0519  1.0692  0.8483
 6659SOL    HW231614   1.285   0.364   5.318  1.1442  0.4612  0.0215
 6660SOL     OW31615   0.568   3.845   6.682  1.0552  0.2949  0.2984
 6660SOL    HW131616   0.652   3.880   6.710  0.7475 -0.3339  1.9587
 6660SOL    HW231617   0.580   3.816   6.591 -0.5687  1.0884 -0.1665
 6661SOL     OW31618   3.614   3.565  12.778  0.1491 -0.1163 -0.1440
 6661SOL    HW131619   3.524   3.583  12.752  0.0138 -1.7550 -0.7791
 6661SOL    HW231620   3.618   3.625  12.852 -0.8982 -1.1299  0.7236
 6662SOL     OW31621   2.326   0.443  15.358 -0.4060  0.2424 -0.1323
 6662SOL    HW131622   2.310   0.535  15.336  0.4500  0.6162  0.7935
 6662SOL    HW231623   2.250   0.422  15.412  0.5669 -0.2825  1.0477
 6663SOL     OW31624   0.452   1.868  12.488  0.0783  0.4599  0.3735
 6663SOL    HW131625   0.438   1.940  12.427  3.8464 -1.5045 -2.7742
 6663SOL    HW231626   0.545   1.859  12.507 -0.1900 -2.4336  0.2945
 6664SOL     OW31627   0.872   4.538   6.099  0.2315 -0.2810  0.5115
 6664SOL    HW131628   0.923   4.548   6.019 -0.1985  0.6691  0.3614
 6664SOL    HW231629   0.916   4.458   6.128 -1.8419 -1.8425 -0.6548
 6665SOL     OW31630   2.081   1.461   1.230 -0.1966  0.2245 -0.3352
 6665SOL    HW131631   2.026   1.393   1.193 -2.5737  1.8202  0.2512
 6665SOL    HW231632   2.018   1.532   1.246 -0.1006  0.4844 -1.1477
 6666SOL     OW31633   0.051   2.464   3.895  0.0600 -0.5792 -0.3594
 6666SOL    HW131634   0.009   2.549   3.881  2.1266  0.5675  0.3768
 6666SOL    HW231635   0.111   2.489   3.965  0.0335 -5.2556  1.3552
 6667SOL     OW31636   2.296   1.785   5.436  0.2079  0.3429 -0.1333
 6667SOL    HW131637   2.222   1.786   5.376  0.3782  0.5259 -0.3391
 6667SOL    HW231638   2.352   1.728   5.383 -0.4587 -2.0001  1.6616
 6668SOL     OW31639   2.901   1.392   2.517 -0.3053  0.2920  0.5709
 6668SOL    HW131640   2.856   1.397   2.433 -0.5092 -1.1535  0.6049
 6668SOL    HW231641   2.984   1.351   2.494  0.3413  1.6530  0.4332
 6669SOL     OW31642   4.521   0.589   9.491 -0.3501 -0.0392 -0.1591
 6669SOL    HW131643   4.430   0.564   9.507 -1.3910  1.6773 -3.2285
 6669SOL    HW231644   4.571   0.531   9.547 -0.0933 -1.7238 -2.1345
 6670SOL     OW31645   1.626   0.447   7.324  0.2148 -0.1774 -0.7701
 6670SOL    HW131646   1.701   0.499   7.353 -0.6377  0.8142 -0.3808
 6670SOL    HW231647   1.561   0.513   7.300  0.4818 -0.7394 -3.0098
 6671SOL     OW31648   2.608   3.111   4.510  0.2188 -0.1730 -0.0318
 6671SOL    HW131649   2.585   3.199   4.478  1.3711  0.1256 -0.0329
 6671SOL    HW231650   2.558   3.056   4.449 -0.2441  1.1515 -0.8504
 6672SOL     OW31651   0.296   3.615   8.547  0.4162  0.4368 -0.4211
 6672SOL    HW131652   0.263   3.667   8.474 -0.5088 -0.0206 -0.3373
 6672SOL    HW231653   0.265   3.657   8.628 -0.6054 -2.7864  0.8526
 6673SOL     OW31654   0.195   3.240  15.965 -0.0983  0.3592  0.2028
 6673SOL    HW131655   0.106   3.222  15.934  0.7908 -0.8955 -1.5791
 6673SOL    HW231656   0.254   3.226  15.891 -0.6791 -0.1372 -0.1643
 6674SOL     OW31657   1.405   1.220  15.348  0.3112  0.3279  0.3293
 6674SOL    HW131658   1.330   1.161  15.345 -0.9809  1.9326  1.1971
 6674SOL    HW231659   1.479   1.160  15.354 -1.1207 -1.3667  1.0740
 6675SOL     OW31660   0.510   3.849   5.919  0.2226 -0.5765  0.3481
 6675SOL    HW131661   0.481   3.940   5.921  0.1671 -0.5095 -2.4747
 6675SOL    HW231662   0.464   3.826   5.838  0.2214  1.0988 -0.1213
 6676SOL     OW31663   4.544   3.436   9.040  0.0259 -0.2540 -0.6591
 6676SOL    HW131664   4.491   3.377   9.093  0.1534  0.7135  0.5642
 6676SOL    HW231665   4.631   3.404   9.066  0.8539  2.8589  0.4693
 6677SOL     OW31666   1.148   1.066   3.765 -0.7578 -0.4884  0.6950
 6677SOL    HW131667   1.094   0.988   3.775  1.8980 -2.2939  0.8729
 6677SOL    HW231668   1.123   1.077   3.673  0.2338 -0.7431  0.3939
 6678SOL     OW31669   1.633   0.965   5.500 -0.3773 -0.3464  0.1743
 6678SOL    HW131670   1.623   0.951   5.406  0.4442  0.2708  0.0000
 6678SOL    HW231671   1.556   0.913   5.523  0.5449 -2.7672 -2.3490
 6679SOL     OW31672   1.340   4.116   7.497  0.3611 -0.2515 -0.4074
 6679SOL    HW131673   1.376   4.122   7.409 -0.4702 -1.4875 -0.8189
 6679SOL    HW231674   1.375   4.040   7.543 -0.3949  0.8582  2.0367
 6680SOL     OW31675   0.774   4.031  14.664 -0.1949 -0.8684  0.3297
 6680SOL    HW131676   0.775   3.951  14.611 -0.7201 -1.1580  0.7652
 6680SOL    HW231677   0.689   4.038  14.707  0.7053  0.6583  1.8433
 6681SOL     OW31678   4.404   2.184  14.740 -0.2725 -0.2182 -0.1103
 6681SOL    HW131679   4.381   2.108  14.794 -0.9728  1.5386  2.0455
 6681SOL    HW231680   4.482   2.202  14.792 -1.8779  1.8575  1.5968
 6682SOL     OW31681   3.710   2.787  10.970 -0.3099 -0.3073  0.0413
 6682SOL    HW131682   3.686   2.708  10.921 -0.8962 -1.6443  2.4999
 6682SOL    HW231683   3.752   2.833  10.896 -2.0431 -0.0912 -0.8131
 6683SOL     OW31684   2.219   2.182   0.462 -0.3049 -0.3029  0.4930
 6683SOL    HW131685   2.205   2.151   0.373 -0.9952 -1.2555  0.9271
 6683SOL    HW231686   2.167   2.261   0.450 -1.9894 -1.2678  1.4399
 6684SOL     OW31687   3.543   3.656   5.200 -0.6429 -0.0013 -0.0302
 6684SOL    HW131688   3.591   3.591   5.251 -1.7755 -0.2762  0.6848
 6684SOL    HW231689   3.455   3.630   5.228 -0.6648  0.3278  0.2107
 6685SOL     OW31690   4.114   2.249  13.963  0.2755  0.5777  0.5602
 6685SOL    HW131691   4.058   2.214  13.894  0.2991  0.1146  0.7772
 6685SOL    HW231692   4.179   2.304  13.919 -0.6915 -0.2472 -1.8843
 6686SOL     OW31693   0.308   4.278  16.768  0.3954 -0.0641  0.3434
 6686SOL    HW131694   0.297   4.268  16.674  1.8630  2.2371 -0.0645
 6686SOL    HW231695   0.374   4.347  16.763  0.1196  0.1834  0.1450
 6687SOL     OW31696   0.433   1.121   9.501  0.6242 -0.4451 -0.2308
 6687SOL    HW131697   0.465   1.202   9.539  2.0152 -1.2664  0.3424
 6687SOL    HW231698   0.512   1.076   9.473 -0.1363 -0.5587 -2.1945
 6688SOL     OW31699   0.929   4.732   9.799 -0.6198 -0.0193  0.3911
 6688SOL    HW131700   1.008   4.709   9.849 -0.5743 -0.7095 -0.0054
 6688SOL    HW231701   0.890   0.062   9.857 -1.9596  0.3418 -0.9299
 6689SOL     OW31702   1.832   3.010   1.288 -0.0610 -0.4969 -0.1683
 6689SOL    HW131703   1.920   2.993   1.320  0.0030  0.1991  0.0133
 6689SOL    HW231704   1.837   3.087   1.233  1.0705 -0.7347 -0.3869
 6690SOL     OW31705   0.916   2.565   5.570 -0.3991  0.0387 -0.1397
 6690SOL    HW131706   0.923   2.605   5.483  1.5127  1.1058  0.5031
 6690SOL    HW231707   0.996   2.583   5.619 -0.1529  1.9174 -1.2265
 6691SOL     OW31708   3.887   1.461   1.063  0.2432  0.4051 -0.2671
 6691SOL    HW131709   3.851   1.485   1.148 -4.0220 -0.9277 -1.6906
 6691SOL    HW231710   3.911   1.368   1.071  1.0745  0.4469 -2.1223
 6692SOL     OW31711   1.798   2.723   2.294  0.3561 -0.2588  1.2470
 6692SOL    HW131712   1.869   2.733   2.358  1.2132 -1.0966  0.4271
 6692SOL    HW231713   1.719   2.725   2.348 -0.0673  0.9826  0.5669
 6693SOL     OW31714   0.525   3.301   3.290 -0.4744 -0.0628  0.0480
 6693SOL    HW131715   0.526   3.397   3.292  0.9656 -0.0813  0.3443
 6693SOL    HW231716   0.433   3.279   3.301 -0.9359  0.3341 -3.1580
 6694SOL     OW31717   0.248   2.856   8.995  0.3196  0.1473  0.2527
 6694SOL    HW131718   0.205   2.909   8.928 -0.2371 -0.4689  0.1255
 6694SOL    HW231719   0.171   2.821   9.039  0.0087  0.3640 -0.1195
 6695SOL     OW31720   0.786   1.825   7.010 -0.6227  0.4722 -0.0403
 6695SOL    HW131721   0.785   1.866   6.924 -1.2961 -1.8023 -1.1312
 6695SOL    HW231722   0.785   1.894   7.077 -0.4455 -0.7505  1.2299
 6696SOL     OW31723   3.250   3.107   0.549  0.1993 -0.4650  0.1080
 6696SOL    HW131724   3.331   3.082   0.592 -1.5520 -0.4546  3.4214
 6696SOL    HW231725   3.252   3.064   0.463  2.5225 -1.4551  0.6719
 6697SOL     OW31726   0.117   1.370   0.816  0.7082 -0.5538  0.4911
 6697SOL    HW131727   0.135   1.449   0.765  0.7086 -1.0916 -0.3587
 6697SOL    HW231728   0.058   1.397   0.885 -2.2168 -0.2394 -2.1498
 6698SOL     OW31729   0.905   4.257   4.650  0.2278 -0.0397  0.2209
 6698SOL    HW131730   0.994   4.223   4.649  0.5573  0.8751 -1.9758
 6698SOL    HW231731   0.866   4.185   4.700  0.1612  0.4523  0.8862
 6699SOL     OW31732   3.198   3.734   6.530 -0.0597  0.1883 -0.0184
 6699SOL    HW131733   3.229   3.662   6.474  1.5192  1.1874 -0.4325
 6699SOL    HW231734   3.104   3.721   6.518 -0.1877  1.5546 -0.4564
 6700SOL     OW31735   1.523   0.793  12.353 -0.1859 -0.2849 -0.1575
 6700SOL    HW131736   1.578   0.769  12.279 -0.3486 -0.1272 -0.3291
 6700SOL    HW231737   1.496   0.710  12.394  0.3925 -0.7242 -0.6659
 6701SOL     OW31738   3.431   4.347  15.959  0.1642 -0.3311 -0.5874
 6701SOL    HW131739   3.445   4.435  15.922  1.0666  0.2018  1.0181
 6701SOL    HW231740   3.415   4.366  16.051  0.2449  0.2556 -0.6903
 6702SOL     OW31741   4.102   0.704   5.044  0.4791  0.0905 -0.1064
 6702SOL    HW131742   4.018   0.737   5.074  0.3839  0.1088 -0.3950
 6702SOL    HW231743   4.158   0.734   5.116 -0.2363 -0.0533  0.4992
 6703SOL     OW31744   0.337   0.303  10.367  0.0053  0.5221 -0.0086
 6703SOL    HW131745   0.388   0.222  10.375 -0.6304  0.0572 -0.6417
 6703SOL    HW231746   0.315   0.305  10.460  2.6715  2.6198  0.5875
 6704SOL     OW31747   3.301   1.542   8.641 -0.0203 -0.3380  0.2073
 6704SOL    HW131748   3.306   1.565   8.734 -0.5987  0.6264  0.0080
 6704SOL    HW231749   3.215   1.570   8.610  0.4366 -0.0518 -0.8049
 6705SOL     OW31750   3.139   0.173  14.614 -0.1969  0.1573  0.9621
 6705SOL    HW131751   3.214   0.190  14.671 -0.5951 -1.9572  2.1226
 6705SOL    HW231752   3.098   0.258  14.627  0.8197  0.8994 -0.6940
 6706SOL     OW31753   2.451   4.236   3.450  0.0081  0.3522  0.1811
 6706SOL    HW131754   2.371   4.185   3.439 -0.6192  1.6058 -0.9782
 6706SOL    HW231755   2.406   4.320   3.459 -0.4196  0.3141 -1.7571
 6707SOL     OW31756   1.495   1.637   7.809  0.2856 -0.1760  0.0416
 6707SOL    HW131757   1.404   1.631   7.779  0.6810  0.0289 -1.2359
 6707SOL    HW231758   1.510   1.562   7.866 -0.6264 -0.9589 -0.7513
 6708SOL     OW31759   3.377   2.290  11.911  0.8503 -0.2775 -0.1811
 6708SOL    HW131760   3.335   2.369  11.878 -2.9085 -1.0741  2.6936
 6708SOL    HW231761   3.329   2.229  11.855  1.1352 -0.2675 -0.4341
 6709SOL     OW31762   0.341   4.220  16.073  0.6557  0.1728  0.5471
 6709SOL    HW131763   0.315   4.264  15.992  2.2723 -1.1106 -0.6689
 6709SOL    HW231764   0.414   4.169  16.038  0.7787  1.1743 -0.6290
 6710SOL     OW31765   2.212   2.334   3.642 -0.4888  0.1717  0.4343
 6710SOL    HW131766   2.119   2.346   3.623 -0.5071 -2.6237 -1.2126
 6710SOL    HW231767   2.225   2.364   3.732  0.4181 -0.0311  0.3769
 6711SOL     OW31768   1.703   0.261  16.892 -0.2485 -0.7836  0.3744
 6711SOL    HW131769   1.659   0.333  16.937  1.5637  0.4838  0.1022
 6711SOL    HW231770   1.791   0.295  16.906 -0.1409 -0.9877  0.1960
 6712SOL     OW31771   1.264   4.363   4.974  0.1800  0.5553  0.1000
 6712SOL    HW131772   1.285   4.432   4.911 -1.8640  2.0140  1.0285
 6712SOL    HW231773   1.195   4.313   4.931  0.7170  2.0434 -2.4921
 6713SOL     OW31774   0.832   4.263   2.050 -0.4043  0.6119  0.4035
 6713SOL    HW131775   0.796   4.319   2.118 -1.7561 -2.6336  2.3655
 6713SOL    HW231776   0.891   4.210   2.103 -0.4410 -0.6612 -0.8250
 6714SOL     OW31777   2.671   1.987   2.224 -0.1391  0.4920 -0.1874
 6714SOL    HW131778   2.733   1.974   2.296  0.7871 -0.2339 -1.1114
 6714SOL    HW231779   2.632   1.901   2.210 -2.3147  1.1026  2.1451
 6715SOL     OW31780   4.112   4.590  12.905  0.1906  0.6473  0.0178
 6715SOL    HW131781   4.032   4.604  12.854 -0.7441  0.2333  1.3744
 6715SOL    HW231782   4.074   4.626  12.985 -1.3359 -1.3724  0.2052
 6716SOL     OW31783   1.588   0.035  16.985  0.3098 -0.1401  0.0398
 6716SOL    HW131784   1.603   4.702  16.920 -0.8749  1.7707 -2.2582
 6716SOL    HW231785   1.635   0.110  16.948  1.0906 -1.4885 -1.7148
 6717SOL     OW31786   0.960   2.467   4.474 -0.4420  0.3899 -0.2804
 6717SOL    HW131787   1.052   2.446   4.457 -1.1263 -1.1708 -1.9974
 6717SOL    HW231788   0.959   2.511   4.559  0.4431 -0.7387  0.3221
 6718SOL     OW31789   2.500   3.215   1.859  0.0302 -0.6496  0.0349
 6718SOL    HW131790   2.563   3.256   1.800  0.9804 -1.9065  0.1567
 6718SOL    HW231791   2.529   3.255   1.942  3.2577 -1.7024 -0.5632
 6719SOL     OW31792   1.197   0.282   8.841 -0.7717 -0.1778  0.1420
 6719SOL    HW131793   1.121   0.234   8.874 -0.9235  0.0053  0.0591
 6719SOL    HW231794   1.166   0.318   8.758  0.5451  2.6209  0.8853
 6720SOL     OW31795   4.619   1.030   1.926 -0.2906 -0.3734  0.0587
 6720SOL    HW131796   4.605   0.936   1.940  0.7318 -0.4717  0.3863
 6720SOL    HW231797   4.564   1.074   1.990 -0.3444 -0.8491  0.3391
 6721SOL     OW31798   2.507   3.970   4.023 -0.3767  0.1031 -0.0945
 6721SOL    HW131799   2.501   4.065   4.031  0.8032  0.0097  1.8171
 6721SOL    HW231800   2.593   3.947   4.059  1.1395  1.7318 -2.6273
 6722SOL     OW31801   1.662   0.671   3.722 -0.2460  0.5581  0.0692
 6722SOL    HW131802   1.583   0.637   3.680 -0.5475  1.3195  0.0300
 6722SOL    HW231803   1.642   0.764   3.721  2.0418  1.0518 -0.2072
 6723SOL     OW31804   0.752   3.890  17.290  0.1553 -0.4662  0.4048
 6723SOL    HW131805   0.689   3.884  17.218  0.5437 -0.9503  0.1076
 6723SOL    HW231806   0.765   3.984  17.297  2.3406 -0.8883  1.9944
 6724SOL     OW31807   1.634   2.309   1.780  0.1191 -0.2658 -0.0698
 6724SOL    HW131808   1.583   2.233   1.809 -1.3009  1.0018  0.7511
 6724SOL    HW231809   1.567   2.362   1.737 -0.1177  0.8446  1.6642
 6725SOL     OW31810   3.085   3.845  12.698  0.1217 -0.6439 -0.0043
 6725SOL    HW131811   3.132   3.762  12.703 -0.3485 -0.8945  0.1442
 6725SOL    HW231812   2.998   3.807  12.700 -0.3678  0.4655 -0.3917
 6726SOL     OW31813   1.701   0.012   7.912  0.2647  0.1817  0.2351
 6726SOL    HW131814   1.660   4.662   7.898 -0.3153  0.2153  1.7734
 6726SOL    HW231815   1.740   0.002   7.999 -0.6036 -0.6213  0.5279
 6727SOL     OW31816   1.136   2.280   8.692  0.4846 -0.4892 -0.4002
 6727SOL    HW131817   1.069   2.343   8.665  1.0541  0.1228 -0.3777
 6727SOL    HW231818   1.071   2.219   8.727  0.2288 -0.7590 -1.3346
 6728SOL     OW31819   2.288   2.471   3.917 -0.1597  0.0460  0.0505
 6728SOL    HW131820   2.352   2.542   3.916  0.1483 -0.2365 -0.1212
 6728SOL    HW231821   2.333   2.387   3.912 -1.4052 -0.6888  0.9730
 6729SOL     OW31822   2.923   2.951  13.670  0.9465 -0.1934  0.5490
 6729SOL    HW131823   2.836   2.987  13.684  1.1735  0.0909  1.2284
 6729SOL    HW231824   2.974   3.031  13.657 -1.5640  1.2555 -0.2732
 6730SOL     OW31825   0.025   3.897   2.310  0.5163 -0.1189  0.2774
 6730SOL    HW131826   0.071   3.821   2.345  0.8580 -0.8341 -1.7531
 6730SOL    HW231827   4.702   3.867   2.241 -0.6531 -0.5855  1.4659
 6731SOL     OW31828   4.106   2.452   3.235 -0.6112 -0.0416  0.2571
 6731SOL    HW131829   4.043   2.478   3.302 -0.3632 -1.5566  1.0601
 6731SOL    HW231830   4.169   2.392   3.275 -0.0355 -1.1880 -2.2926
 6732SOL     OW31831   4.048   1.548   6.695 -0.7582  0.2857 -0.6471
 6732SOL    HW131832   3.974   1.570   6.751 -0.8438 -1.2001 -0.1879
 6732SOL    HW231833   4.114   1.500   6.745 -1.2742  1.1235  0.8330
 6733SOL     OW31834   0.877   1.219   8.740  0.3311 -0.6581  0.2149
 6733SOL    HW131835   0.876   1.184   8.829  1.0619 -1.6026 -0.1532
 6733SOL    HW231836   0.819   1.294   8.750 -2.7809 -2.9692 -0.6441
 6734SOL     OW31837   3.861   0.565   6.228  0.2400 -0.3078 -0.6066
 6734SOL    HW131838   3.913   0.631   6.275 -1.7224  0.3570  0.6281
 6734SOL    HW231839   3.781   0.617   6.218  0.6602 -0.3209 -4.0663
 6735SOL     OW31840   2.918   2.640  16.136  0.0948  0.1099 -0.1207
 6735SOL    HW131841   2.980   2.709  16.111  0.5714 -0.2224  0.1527
 6735SOL    HW231842   2.876   2.609  16.056  1.7316  2.2483 -1.8061
 6736SOL     OW31843   1.320   1.014   5.958  0.2525  0.2248 -0.7493
 6736SOL    HW131844   1.317   0.989   5.865 -0.8351  0.9786 -0.9237
 6736SOL    HW231845   1.379   1.089   5.956  1.1566 -0.4464  1.5170
 6737SOL     OW31846   2.901   3.223   4.434 -0.0070 -0.2742  0.1815
 6737SOL    HW131847   2.834   3.284   4.466  0.8408  0.5129  0.4745
 6737SOL    HW231848   2.882   3.196   4.345 -1.0479 -0.4507  0.4587
 6738SOL     OW31849   1.437   4.263  11.451  0.0844 -0.1151 -0.1811
 6738SOL    HW131850   1.499   4.212  11.503 -0.1787 -0.0238  0.2292
 6738SOL    HW231851   1.457   4.241  11.361 -1.6900 -1.0053 -0.3643
 6739SOL     OW31852   0.791   3.026   4.860  1.1008 -0.0243 -0.5874
 6739SOL    HW131853   0.794   3.012   4.954 -1.1328  0.2474 -0.4637
 6739SOL    HW231854   0.714   3.083   4.859  0.3892 -0.9503  1.7340
 6740SOL     OW31855   1.300   0.923   7.497 -0.0694 -0.2568  0.3118
 6740SOL    HW131856   1.234   0.872   7.448 -0.3462  0.3483  0.0537
 6740SOL    HW231857   1.302   0.998   7.438  0.5831 -1.5163 -1.2773
 6741SOL     OW31858   3.603   3.436   6.014 -0.4339  0.3230  0.2166
 6741SOL    HW131859   3.585   3.475   5.928 -3.3819 -1.6340 -0.0417
 6741SOL    HW231860   3.515   3.412   6.041 -0.0809 -0.1132  0.9986
 6742SOL     OW31861   2.247   2.971  13.392  0.1378 -0.2237  0.7402
 6742SOL    HW131862   2.187   3.008  13.327 -0.0242 -0.7360  0.6043
 6742SOL    HW231863   2.256   3.045  13.452  0.7883  0.8049 -0.6087
 6743SOL     OW31864   3.231   3.280   5.281  0.3585 -0.3204  0.7745
 6743SOL    HW131865   3.142   3.253   5.261  1.1639 -2.0371 -0.4705
 6743SOL    HW231866   3.222   3.264   5.374  0.3036 -0.1595  0.7977
 6744SOL     OW31867   4.394   1.363   7.675  0.4267 -0.5748 -0.6362
 6744SOL    HW131868   4.337   1.386   7.601  2.0296  1.2154 -1.3268
 6744SOL    HW231869   4.345   1.406   7.745 -0.7048 -1.1558 -1.0540
 6745SOL     OW31870   2.409   3.352   5.612  1.2253  0.0240  0.3429
 6745SOL    HW131871   2.434   3.277   5.666  3.5014 -0.4910 -1.4175
 6745SOL    HW231872   2.493   3.398   5.618  1.1731  0.1753 -0.0451
 6746SOL     OW31873   1.340   2.035  14.433  0.0285  0.3070 -0.1740
 6746SOL    HW131874   1.297   1.951  14.423 -0.2551  0.6721 -1.9291
 6746SOL    HW231875   1.429   2.006  14.412  0.5949  1.4514  0.6518
 6747SOL     OW31876   1.907   4.610   7.693 -0.1040  0.4856 -0.2388
 6747SOL    HW131877   1.911   4.515   7.699  1.1030  0.5429 -0.0856
 6747SOL    HW231878   1.884   4.635   7.783 -1.5034 -1.7821  0.0223
 6748SOL     OW31879   0.555   0.215   9.212  0.1652 -0.0932  0.1007
 6748SOL    HW131880   0.641   0.173   9.213  0.9842  1.6172  2.0296
 6748SOL    HW231881   0.550   0.273   9.288  0.9744  0.3570 -0.1859
 6749SOL     OW31882   2.229   4.368   9.893  0.2008 -0.0422  0.1737
 6749SOL    HW131883   2.240   4.397   9.984 -0.2128  1.5163 -0.2789
 6749SOL    HW231884   2.170   4.294   9.907  1.7496 -0.9057  2.1200
 6750SOL     OW31885   2.023   1.405   2.570 -0.0313 -0.0105 -0.4163
 6750SOL    HW131886   1.935   1.425   2.601  0.5708  1.3650  0.4131
 6750SOL    HW231887   2.017   1.353   2.491 -0.9687  0.0356 -0.3730
 6751SOL     OW31888   1.397   0.557  12.456  0.1564  0.1677  0.1707
 6751SOL    HW131889   1.336   0.498  12.498  0.0195  1.8728  2.3774
 6751SOL    HW231890   1.464   0.490  12.442 -0.9106 -1.1683  1.5461
 6752SOL     OW31891   3.459   3.156   8.848  0.2466  0.0137  0.4357
 6752SOL    HW131892   3.406   3.119   8.919 -0.9333 -1.2645 -1.1021
 6752SOL    HW231893   3.401   3.143   8.772 -1.1491  0.0538  1.4931
 6753SOL     OW31894   0.253   0.279   1.517  0.3666  0.1928  0.2760
 6753SOL    HW131895   0.268   0.372   1.501 -0.5347  0.1639 -0.7427
 6753SOL    HW231896   0.263   0.285   1.612  0.8006  0.4342  0.2121
 6754SOL     OW31897   0.991   0.064   4.619  0.1483 -0.1801  0.4263
 6754SOL    HW131898   0.981   0.107   4.704  0.7537  0.7563  0.0162
 6754SOL    HW231899   0.903   0.077   4.583  0.3563 -1.5026 -0.5846
 6755SOL     OW31900   4.102   0.913   7.875  0.3247  0.0964  0.3559
 6755SOL    HW131901   4.107   0.953   7.788 -2.8592  2.8878  1.4449
 6755SOL    HW231902   4.010   0.921   7.898  0.8225  0.9255  2.1094
 6756SOL     OW31903   0.272   0.121   2.242  0.5636 -0.0496  0.7667
 6756SOL    HW131904   0.254   0.206   2.202  1.1458 -1.1307 -1.7565
 6756SOL    HW231905   0.334   0.077   2.183  0.5773  1.0030  0.0019
 6757SOL     OW31906   1.225   1.043   2.886 -0.1269 -0.5974 -0.2670
 6757SOL    HW131907   1.271   0.960   2.877  0.6357 -0.4331  2.1199
 6757SOL    HW231908   1.167   1.036   2.810  2.4517 -1.5154 -2.1185
 6758SOL     OW31909   3.335   0.708  13.047  0.3297 -0.1090  0.2510
 6758SOL    HW131910   3.273   0.732  12.978  1.0282  1.6480  0.2386
 6758SOL    HW231911   3.333   0.767  13.122 -0.1404 -0.4330  0.4929
 6759SOL     OW31912   1.878   4.342  16.660 -0.5549  0.2637  0.1836
 6759SOL    HW131913   1.929   4.416  16.694  0.8225  1.3926 -4.1916
 6759SOL    HW231914   1.919   4.318  16.576  0.7304  1.1525  0.5453
 6760SOL     OW31915   1.040   1.490   1.215 -0.3989  0.3515  0.1731
 6760SOL    HW131916   1.070   1.415   1.163  0.8582  1.3922 -0.6152
 6760SOL    HW231917   0.948   1.464   1.212 -0.1382 -0.7304  1.5428
 6761SOL     OW31918   1.799   2.099  15.452  0.1152  0.3967  0.3930
 6761SOL    HW131919   1.776   2.006  15.447  0.4198  0.2838  1.0194
 6761SOL    HW231920   1.745   2.135  15.523 -0.6805 -2.0262  1.0156
 6762SOL     OW31921   1.455   3.687   1.432  0.2904  0.1552  0.1785
 6762SOL    HW131922   1.454   3.780   1.408  2.2245 -0.0176 -0.6439
 6762SOL    HW231923   1.487   3.652   1.349 -0.3885  2.2775 -0.9814
 6763SOL     OW31924   2.803   3.234  17.444  0.3512 -0.7900 -0.2084
 6763SOL    HW131925   2.819   3.263  17.354  0.5991 -0.9203 -0.2063
 6763SOL    HW231926   2.747   3.307  17.469  1.8928  0.1128  0.6264
 6764SOL     OW31927   4.154   1.650   5.045 -0.3020  0.2188 -0.1216
 6764SOL    HW131928   4.121   1.733   5.079 -0.9467  0.0600 -0.3517
 6764SOL    HW231929   4.093   1.584   5.081 -0.4386  1.2257  1.4840
 6765SOL     OW31930   0.705   1.496   3.855  0.5166  0.0042  0.4411
 6765SOL    HW131931   0.693   1.590   3.866 -0.5674 -0.2743  1.6505
 6765SOL    HW231932   0.665   1.459   3.934 -0.6570  0.0242 -0.1380
 6766SOL     OW31933   3.426   2.431   1.902 -0.1996  0.1119 -0.1030
 6766SOL    HW131934   3.349   2.379   1.882  0.4394 -0.6568 -0.5705
 6766SOL    HW231935   3.460   2.450   1.815  0.6856 -0.0631  0.1963
 6767SOL     OW31936   0.880   3.054   2.694 -0.1749  0.2220 -0.1934
 6767SOL    HW131937   0.873   3.129   2.635 -0.4884 -2.2697 -3.2597
 6767SOL    HW231938   0.965   3.060   2.737 -0.4451  0.0972  0.3573
 6768SOL     OW31939   4.508   0.573   7.653  0.1801  0.3493  0.1689
 6768SOL    HW131940   4.482   0.619   7.734 -1.4740 -1.0020  0.4062
 6768SOL    HW231941   4.575   0.509   7.675 -1.4849 -0.6432  2.3069
 6769SOL     OW31942   2.083   4.582   3.863  0.1890 -0.1063 -0.0927
 6769SOL    HW131943   2.017   4.567   3.931 -0.1374  0.4320 -0.2903
 6769SOL    HW231944   2.143   4.644   3.905 -1.1654 -0.5502  2.4954
 6770SOL     OW31945   1.748   4.597   8.133  0.0872  0.3238 -0.1724
 6770SOL    HW131946   1.810   4.574   8.203 -0.6855  0.8025  0.6655
 6770SOL    HW231947   1.676   4.548   8.171  0.3281 -0.1666 -0.3597
 6771SOL     OW31948   3.953   1.771   6.316  0.0622 -0.1399 -0.1004
 6771SOL    HW131949   4.022   1.766   6.382 -0.7944 -1.5592  0.6828
 6771SOL    HW231950   3.993   1.809   6.238  0.7803 -0.0445  0.3245
 6772SOL     OW31951   1.359   1.604  10.902 -0.0363 -0.4503 -0.2069
 6772SOL    HW131952   1.332   1.604  10.994  1.6076  1.6877  0.2882
 6772SOL    HW231953   1.452   1.616  10.922 -0.4622  0.9042  1.0115
 6773SOL     OW31954   2.641   3.371   7.312  0.3282 -0.2059  0.0456
 6773SOL    HW131955   2.735   3.360   7.327  0.1521 -2.1979 -0.3215
 6773SOL    HW231956   2.625   3.295   7.257  0.3014 -2.6780  3.4430
 6774SOL     OW31957   0.802   0.563   1.606  0.1330  0.2272  0.2533
 6774SOL    HW131958   0.778   0.548   1.515  2.8340  0.2819 -0.4775
 6774SOL    HW231959   0.834   0.476   1.634  2.0684  0.6110 -0.7276
 6775SOL     OW31960   3.755   1.164   3.532 -0.1906  0.8027 -0.0989
 6775SOL    HW131961   3.807   1.206   3.464 -0.4621 -0.2578 -0.9550
 6775SOL    HW231962   3.697   1.124   3.467 -0.2054  2.5595 -1.1817
 6776SOL     OW31963   2.174   1.809  16.900 -0.0633  0.4221  0.5006
 6776SOL    HW131964   2.266   1.793  16.880  0.7721  0.7058  4.1187
 6776SOL    HW231965   2.172   1.905  16.899  0.2198  0.4340  1.8078
 6777SOL     OW31966   0.961   0.682   0.435  0.1050  0.3096  0.3996
 6777SOL    HW131967   0.890   0.628   0.469 -0.0215  0.8910  1.0669
 6777SOL    HW231968   0.939   0.681   0.342 -1.8140  0.7069  0.8578
 6778SOL     OW31969   2.939   3.501   5.664  0.7220 -0.0492  0.7944
 6778SOL    HW131970   3.018   3.471   5.708  1.0199  0.9681  0.9708
 6778SOL    HW231971   2.898   3.416   5.650 -1.7129  1.3984 -1.0519
 6779SOL     OW31972   0.380   4.200   9.124 -0.0898 -0.0271 -0.1206
 6779SOL    HW131973   0.322   4.207   9.200 -0.8080  1.6847 -0.8318
 6779SOL    HW231974   0.347   4.261   9.058 -0.3786 -0.3400 -0.2716
 6780SOL     OW31975   2.804   1.414  16.082 -0.5759  0.6816  0.0382
 6780SOL    HW131976   2.876   1.462  16.121 -1.3668  0.9478  1.1620
 6780SOL    HW231977   2.777   1.471  16.010 -1.4544  0.3547  0.1020
 6781SOL     OW31978   1.910   2.423   3.720 -0.3991 -0.0934 -0.0024
 6781SOL    HW131979   1.900   2.333   3.688 -1.9989  0.2901 -0.6108
 6781SOL    HW231980   1.871   2.475   3.649  1.7107  0.8027 -0.5061
 6782SOL     OW31981   0.509   4.542   5.710 -0.1277  0.1767  0.8785
 6782SOL    HW131982   0.562   4.492   5.649 -0.6880  1.1926 -0.4376
 6782SOL    HW231983   0.502   4.631   5.676  0.4031  0.2624  0.9989
 6783SOL     OW31984   2.518   3.536   6.938  0.5079  0.0571 -0.2353
 6783SOL    HW131985   2.608   3.554   6.910  0.7992 -1.0604 -0.0382
 6783SOL    HW231986   2.525   3.441   6.952  0.7438  0.5200  2.7773
 6784SOL     OW31987   3.166   2.121  12.469  0.4945  0.3024 -0.1802
 6784SOL    HW131988   3.180   2.196  12.526 -0.5887  0.1149  0.3426
 6784SOL    HW231989   3.108   2.076  12.531 -0.9277  0.4940 -1.3580
 6785SOL     OW31990   2.244   0.411   6.063  0.2030 -0.1926 -0.2174
 6785SOL    HW131991   2.338   0.424   6.076  0.0438 -0.5256  1.2703
 6785SOL    HW231992   2.215   0.462   6.139 -1.4580 -0.2086 -0.8523
 6786SOL     OW31993   0.030   0.781  13.256  0.2382  0.0600  0.3473
 6786SOL    HW131994   4.696   0.830  13.210 -0.6861 -0.1437  1.5279
 6786SOL    HW231995   0.102   0.827  13.214 -2.6463  1.9313 -2.5891
 6787SOL     OW31996   3.502   1.469   2.841  0.0544 -0.4124 -0.1975
 6787SOL    HW131997   3.565   1.487   2.911  0.1247  2.7700 -1.0607
 6787SOL    HW231998   3.435   1.415   2.882  0.2826 -1.5508 -1.3365
 6788SOL     OW31999   0.884   4.175  16.716 -0.2395  0.5997 -0.3817
 6788SOL    HW132000   0.965   4.164  16.765 -0.2554  0.3589 -0.4092
 6788SOL    HW232001   0.861   4.084  16.700  1.8590 -0.3774  2.1249
 6789SOL     OW32002   2.261   1.209  15.124 -0.0562 -0.5377  0.4235
 6789SOL    HW132003   2.329   1.145  15.099 -0.2766 -1.0434  1.1261
 6789SOL    HW232004   2.202   1.197  15.050  0.6029  0.2054 -0.2207
 6790SOL     OW32005   1.321   0.460  13.357  0.1980  0.2904 -0.1922
 6790SOL    HW132006   1.371   0.542  13.364 -2.0994  1.4827  2.2165
 6790SOL    HW232007   1.263   0.463  13.281 -1.9109 -2.2716  1.3189
 6791SOL     OW32008   1.617   0.600   5.437 -0.0732  1.1522  0.7351
 6791SOL    HW132009   1.669   0.672   5.401 -1.5723  2.5551  1.3809
 6791SOL    HW232010   1.683   0.563   5.495  1.2302  2.1653 -0.0918
 6792SOL     OW32011   0.785   2.890   0.493 -0.4369 -0.3182  0.4768
 6792SOL    HW132012   0.808   2.802   0.522 -2.2594  0.1694  3.3934
 6792SOL    HW232013   0.717   2.907   0.559  1.1772  1.3389  1.6948
 6793SOL     OW32014   2.103   0.881   4.862  0.4517 -0.5354  0.3646
 6793SOL    HW132015   2.098   0.818   4.934 -2.1401 -2.4697 -1.5061
 6793SOL    HW232016   2.024   0.929   4.884 -0.2315 -1.5097  0.0310
 6794SOL     OW32017   3.831   4.170   0.914  0.3371  0.5081 -0.1108
 6794SOL    HW132018   3.906   4.113   0.896  1.2412  1.6246  0.1880
 6794SOL    HW232019   3.863   4.244   0.863  0.8103  0.6969  0.4721
 6795SOL     OW32020   4.395   1.870   9.691  0.2961  0.5661  0.5094
 6795SOL    HW132021   4.479   1.887   9.648  0.3145 -0.4811  0.1434
 6795SOL    HW232022   4.361   1.956   9.716  1.1750  1.1605 -0.3506
 6796SOL     OW32023   0.289   2.289   2.371  0.1411 -0.0901 -0.6397
 6796SOL    HW132024   0.340   2.218   2.411 -1.9122 -1.4028 -0.3436
 6796SOL    HW232025   0.287   2.253   2.282  0.8553 -1.1274 -0.2382
 6797SOL     OW32026   0.350   2.681  11.193  0.4932 -0.2683 -0.0407
 6797SOL    HW132027   0.425   2.732  11.223 -0.0710  0.2085  0.5626
 6797SOL    HW232028   0.321   2.735  11.119 -0.0211  0.1826  0.4919
 6798SOL     OW32029   1.382   0.135   7.892  0.2791 -0.4731  0.4751
 6798SOL    HW132030   1.355   0.060   7.838 -0.9422  0.4197 -0.1729
 6798SOL    HW232031   1.428   0.092   7.963  0.1962 -1.9351 -0.3558
 6799SOL     OW32032   2.224   4.091   5.714 -0.0170 -0.6435 -0.3291
 6799SOL    HW132033   2.305   4.107   5.762 -0.0204 -1.0962 -0.1697
 6799SOL    HW232034   2.260   4.124   5.631 -0.2956  0.7525  0.1038
 6800SOL     OW32035   3.849   3.150  15.968  0.5271 -0.3905  0.5590
 6800SOL    HW132036   3.811   3.188  16.047 -2.6965 -0.5616 -0.9071
 6800SOL    HW232037   3.838   3.055  15.974  1.5679 -0.7611 -3.1182
 6801SOL     OW32038   4.490   1.649   5.532  0.0547 -0.1910  0.3260
 6801SOL    HW132039   4.521   1.738   5.548  0.2544 -0.3139  0.6115
 6801SOL    HW232040   4.573   1.608   5.553 -1.6076 -1.3386  4.5261
 6802SOL     OW32041   1.299   0.110   8.546 -0.9202  0.1860 -0.5779
 6802SOL    HW132042   1.305   0.170   8.621 -0.8843 -1.2453  0.5669
 6802SOL    HW232043   1.297   0.169   8.471  0.8382  0.5932 -0.3162
 6803SOL     OW32044   1.029   0.918   8.329 -0.2792  0.2654 -0.1994
 6803SOL    HW132045   1.018   0.824   8.323 -0.4433  0.2684  0.0635
 6803SOL    HW232046   0.978   0.934   8.409 -0.3032  0.3988 -0.2408
 6804SOL     OW32047   0.593   4.337   6.347  0.2919 -0.3339 -0.2859
 6804SOL    HW132048   0.529   4.268   6.331  0.6570 -0.4770 -1.1169
 6804SOL    HW232049   0.582   4.395   6.272  1.9289  1.4286  0.8249
 6805SOL     OW32050   0.582   4.519   2.928  0.1683  0.2615 -0.3743
 6805SOL    HW132051   0.501   4.545   2.885 -1.2608 -4.1801 -0.3789
 6805SOL    HW232052   0.563   4.427   2.946 -1.0224  0.2259 -1.7710
 6806SOL     OW32053   3.537   1.371   9.948  0.5310  0.4705  0.1209
 6806SOL    HW132054   3.546   1.439  10.014  0.9125 -1.0921  1.6794
 6806SOL    HW232055   3.561   1.292   9.996 -2.0737  0.6230  1.6730
 6807SOL     OW32056   0.136   0.893   4.511  0.2194 -0.4868 -0.0907
 6807SOL    HW132057   0.098   0.977   4.539  0.4966 -0.8165  1.3074
 6807SOL    HW232058   0.230   0.908   4.516  0.0622  1.5711 -3.7020
 6808SOL     OW32059   3.213   4.200   7.639  0.4310  0.1640 -0.3207
 6808SOL    HW132060   3.189   4.230   7.551 -3.3821  3.2658  1.8164
 6808SOL    HW232061   3.142   4.138   7.656 -1.1007  1.7881 -0.7880
 6809SOL     OW32062   0.531   3.096   6.700  0.1192 -0.0278  0.0030
 6809SOL    HW132063   0.591   3.049   6.758 -1.4633 -2.1969 -0.1465
 6809SOL    HW232064   0.529   3.185   6.735 -0.1149  0.8538 -2.2320
 6810SOL     OW32065   2.571   2.016   6.248 -0.1624  0.3995  0.2748
 6810SOL    HW132066   2.604   2.098   6.211  1.5405 -0.4934 -0.1671
 6810SOL    HW232067   2.652   1.993   6.293 -2.0737 -1.1425  2.9048
 6811SOL     OW32068   3.991   2.087   9.516 -0.2775  0.1014 -0.0479
 6811SOL    HW132069   3.943   2.169   9.503 -1.4045 -0.2325  2.0771
 6811SOL    HW232070   3.947   2.037   9.585  0.6112 -0.2136  0.3000
 6812SOL     OW32071   0.636   0.403   4.239  0.4542  0.1407  0.7586
 6812SOL    HW132072   0.595   0.452   4.310 -3.4048 -0.8943 -0.7595
 6812SOL    HW232073   0.703   0.461   4.201  2.9376 -2.0162  1.8630
 6813SOL     OW32074   3.804   3.284  15.709 -0.4111  0.1523  0.5509
 6813SOL    HW132075   3.755   3.217  15.662  1.0374 -1.0287  0.7256
 6813SOL    HW232076   3.803   3.248  15.797 -0.4132 -1.3264 -0.0578
 6814SOL     OW32077   3.068   3.308   2.921  0.2327  0.2841 -0.6136
 6814SOL    HW132078   2.976   3.301   2.898  0.0262 -0.6323  0.4677
 6814SOL    HW232079   3.075   3.403   2.922  0.3549  0.2387  3.0676
 6815SOL     OW32080   1.092   4.415   7.344 -0.2787  0.5338 -0.4179
 6815SOL    HW132081   1.151   4.441   7.274  1.5252 -0.7224  0.6325
 6815SOL    HW232082   1.153   4.377   7.408 -2.1313 -2.1108 -0.2067
 6816SOL     OW32083   2.334   1.830  10.542  0.1606  0.8765  0.1689
 6816SOL    HW132084   2.329   1.762  10.475 -0.5822  0.3572  0.7653
 6816SOL    HW232085   2.363   1.779  10.617 -1.6894  0.5132  0.6297
 6817SOL     OW32086   0.791   3.130   9.268  0.1477 -0.3950 -0.7570
 6817SOL    HW132087   0.699   3.125   9.293  0.2846 -1.9427 -0.5422
 6817SOL    HW232088   0.815   3.138   9.361 -0.3009  0.3171 -0.7048
 6818SOL     OW32089   0.529   3.972   4.881 -0.0527  0.3789  0.0744
 6818SOL    HW132090   0.537   4.065   4.900 -0.6475  0.3885  0.2768
 6818SOL    HW232091   0.453   3.960   4.938 -0.0191 -1.6321 -0.3087
 6819SOL     OW32092   2.707   0.389   3.239  0.1269  0.4079  0.2748
 6819SOL    HW132093   2.671   0.477   3.248  0.5900  0.3312  2.7017
 6819SOL    HW232094   2.780   0.391   3.300 -0.8872 -1.2491  1.5688
 6820SOL     OW32095   1.194   4.175   7.145  0.5308  0.3726  0.3832
 6820SOL    HW132096   1.107   4.186   7.108  1.1134  1.4008 -0.6566
 6820SOL    HW232097   1.239   4.243   7.096 -0.3752  1.0669  0.5259
 6821SOL     OW32098   3.538   1.920   1.002 -0.3218 -0.0025  0.4276
 6821SOL    HW132099   3.607   1.856   1.020 -1.6073 -2.4341 -3.3233
 6821SOL    HW232100   3.503   1.879   0.923  0.0705  0.6165 -0.0644
 6822SOL     OW32101   2.562   0.421   8.263 -0.6183 -0.6289 -0.4806
 6822SOL    HW132102   2.584   0.486   8.330  1.3672  1.2277 -2.9696
 6822SOL    HW232103   2.635   0.419   8.202  0.0041  1.7629  0.1998
 6823SOL     OW32104   2.878   3.471   6.321  0.3012 -0.6306  0.2559
 6823SOL    HW132105   2.851   3.380   6.331 -0.3267 -0.3733  0.9272
 6823SOL    HW232106   2.795   3.512   6.299 -0.2569 -2.2578 -0.6819
 6824SOL     OW32107   4.516   1.891   1.201  0.0003 -0.1032 -0.2179
 6824SOL    HW132108   4.575   1.894   1.276 -0.0634 -1.4373 -0.1093
 6824SOL    HW232109   4.464   1.967   1.226 -1.9849 -1.7866  0.7687
 6825SOL     OW32110   1.795   1.119   8.307  0.3838  0.3077  0.0690
 6825SOL    HW132111   1.836   1.080   8.383 -0.4979 -3.6958 -1.5310
 6825SOL    HW232112   1.868   1.178   8.289 -0.3392  0.6611 -1.8257
 6826SOL     OW32113   2.068   0.490   5.467  0.3253  0.4964  0.1358
 6826SOL    HW132114   2.098   0.456   5.383  0.4933 -0.5597  0.6213
 6826SOL    HW232115   2.080   0.585   5.469  1.5063  0.3496  0.2552
 6827SOL     OW32116   4.014   2.019   4.399 -0.4841 -0.3730 -0.7200
 6827SOL    HW132117   3.996   2.019   4.493 -0.4080 -1.2422 -0.7025
 6827SOL    HW232118   3.973   1.933   4.389  0.5944 -0.7707 -1.7220
 6828SOL     OW32119   1.797   1.027   0.359  0.0876 -0.0373  0.1427
 6828SOL    HW132120   1.778   1.121   0.360 -0.7015 -0.1850 -0.9646
 6828SOL    HW232121   1.859   1.035   0.431  0.7530  3.7536 -0.8453
 6829SOL     OW32122   3.888   3.185  11.486  0.1242  0.0282 -0.1854
 6829SOL    HW132123   3.848   3.245  11.549  1.6235 -1.2490  1.9644
 6829SOL    HW232124   3.806   3.157  11.445 -0.3534  0.5800  0.3722
 6830SOL     OW32125   1.054   2.997   4.838 -0.4750  0.8704 -0.8587
 6830SOL    HW132126   0.959   3.002   4.831 -0.7698 -0.7607  2.1166
 6830SOL    HW232127   1.072   3.087   4.866 -0.9599  0.6636  0.1248
 6831SOL     OW32128   4.327   2.609   2.175  0.0029 -0.1380  0.3230
 6831SOL    HW132129   4.282   2.686   2.211  0.0887  0.5436 -1.0500
 6831SOL    HW232130   4.306   2.621   2.083 -0.0605  1.1785  0.5028
 6832SOL     OW32131   4.503   4.608  15.283 -0.6536  0.8441 -0.0334
 6832SOL    HW132132   4.516   4.689  15.234 -2.0485  1.0617 -0.0549
 6832SOL    HW232133   4.592   4.583  15.309 -1.1720 -2.0878 -1.0436
 6833SOL     OW32134   3.205   2.761   7.073 -0.0500 -0.0735  0.1120
 6833SOL    HW132135   3.243   2.836   7.028 -0.8163 -0.6543 -1.5298
 6833SOL    HW232136   3.218   2.777   7.166 -1.8997 -0.0999  0.3745
 6834SOL     OW32137   4.604   4.546   4.106 -0.1205 -0.0841 -0.1301
 6834SOL    HW132138   4.582   4.601   4.031 -0.0875  0.4712  0.2623
 6834SOL    HW232139   4.566   4.461   4.085  2.1006 -0.9509 -0.6712
 6835SOL     OW32140   4.501   1.486   6.529  0.6383 -0.5303 -0.3762
 6835SOL    HW132141   4.546   1.412   6.488  1.2058  0.6537 -1.8666
 6835SOL    HW232142   4.415   1.468   6.492 -0.1607  1.4894  0.4968
 6836SOL     OW32143   3.677   1.958   5.455  0.1357 -0.3290  0.1326
 6836SOL    HW132144   3.654   1.866   5.465  1.5249 -0.5649  1.0120
 6836SOL    HW232145   3.612   2.001   5.512 -2.6064 -2.8052 -1.1287
 6837SOL     OW32146   3.467   1.824   5.215  0.3561 -0.3863 -0.0940
 6837SOL    HW132147   3.517   1.774   5.279  1.1670  1.2333  0.5349
 6837SOL    HW232148   3.515   1.802   5.135 -1.4829  1.1152 -1.6083
 6838SOL     OW32149   2.131   1.352   6.708  0.1483  0.3128  0.1115
 6838SOL    HW132150   2.114   1.260   6.690  0.8093  0.3915 -0.8992
 6838SOL    HW232151   2.102   1.396   6.628  0.1801  1.3873  0.6826
 6839SOL     OW32152   3.614   1.144  10.364 -0.0739 -0.3415  0.6554
 6839SOL    HW132153   3.626   1.105  10.450 -1.7097 -1.9025  0.1688
 6839SOL    HW232154   3.532   1.186  10.391 -0.2723 -0.2365 -0.1030
 6840SOL     OW32155   3.605   3.350  14.995 -0.2916  0.0577  0.4963
 6840SOL    HW132156   3.518   3.336  14.958  0.6184 -1.0663 -1.2187
 6840SOL    HW232157   3.607   3.310  15.082 -1.4962 -0.3585  0.3337
 6841SOL     OW32158   0.072   2.831   4.097  0.3320 -0.1948  0.2007
 6841SOL    HW132159   0.110   2.784   4.023 -1.3380 -0.6744 -0.3537
 6841SOL    HW232160   4.733   2.781   4.133  1.0475 -1.0046  0.5345
 6842SOL     OW32161   0.654   4.060   6.520  0.5567  0.8170 -0.5101
 6842SOL    HW132162   0.606   4.073   6.438  1.0410  1.2995 -0.7227
 6842SOL    HW232163   0.625   4.139   6.565 -0.3200 -1.9460  3.7323
 6843SOL     OW32164   0.069   0.612   1.757  0.1273  0.1564 -0.1638
 6843SOL    HW132165   0.106   0.684   1.706  0.1077 -0.8735 -1.6342
 6843SOL    HW232166   0.111   0.635   1.840 -0.5404 -0.6493  0.3986
 6844SOL     OW32167   3.908   2.170   8.031  0.0820 -0.2095 -0.4592
 6844SOL    HW132168   3.827   2.164   7.981  0.5903 -0.5695 -1.2498
 6844SOL    HW232169   3.978   2.147   7.970 -0.2041  0.9687 -1.2349
 6845SOL     OW32170   0.774   2.255  14.257 -0.0992 -0.6918  0.3744
 6845SOL    HW132171   0.679   2.266  14.258 -0.0882 -0.6394  0.9719
 6845SOL    HW232172   0.781   2.185  14.192  0.1734 -1.8182  1.6275
 6846SOL     OW32173   2.353   4.036   7.012 -0.5189 -0.1380  0.2735
 6846SOL    HW132174   2.437   3.991   7.001  0.1463  1.7418 -2.1853
 6846SOL    HW232175   2.364   4.044   7.107 -1.1964 -1.7482  0.5037
 6847SOL     OW32176   2.009   2.114   6.669 -0.2337  0.2919 -0.0841
 6847SOL    HW132177   2.075   2.181   6.688 -0.6272  0.2719  1.3596
 6847SOL    HW232178   2.044   2.038   6.716 -1.1457 -0.3193 -0.3951
 6848SOL     OW32179   1.069   3.289  11.274  0.5187  0.1302 -0.3484
 6848SOL    HW132180   1.003   3.346  11.235 -0.2051 -1.8579 -2.0740
 6848SOL    HW232181   1.009   3.219  11.301 -0.1484  0.4623 -0.9566
 6849SOL     OW32182   2.571   0.993   6.924 -0.5015 -0.2817  0.1385
 6849SOL    HW132183   2.550   1.085   6.937 -0.8210 -0.8229  3.6165
 6849SOL    HW232184   2.659   1.001   6.962 -0.0706  0.7628 -1.0583
 6850SOL     OW32185   3.238   4.090   6.957 -0.0131  0.2532 -0.7084
 6850SOL    HW132186   3.288   4.161   6.998  1.8207 -1.3553 -0.1520
 6850SOL    HW232187   3.290   4.009   6.965  0.1877  0.3709 -0.8168
 6851SOL     OW32188   4.144   0.874  10.199  0.0173 -0.4763  0.1920
 6851SOL    HW132189   4.174   0.796  10.151  0.1314  0.1573 -0.7709
 6851SOL    HW232190   4.222   0.927  10.186  0.1594 -1.3588 -2.5395
 6852SOL     OW32191   1.527   1.916   6.972  0.8409  0.7272  0.2713
 6852SOL    HW132192   1.594   1.897   7.038 -2.6217  0.5476  3.7417
 6852SOL    HW232193   1.570   1.888   6.891  0.3268 -1.2836  0.6832
 6853SOL     OW32194   2.383   0.960   0.361  0.4156  0.4876 -0.0069
 6853SOL    HW132195   2.348   0.872   0.343  1.7864 -0.1699  0.5457
 6853SOL    HW232196   2.429   0.982   0.281 -2.5220 -1.0414 -2.1143
 6854SOL     OW32197   2.808   1.444   8.731  0.0178  0.3317  0.4216
 6854SOL    HW132198   2.861   1.496   8.791  2.5381 -3.0375  1.1163
 6854SOL    HW232199   2.720   1.472   8.752  0.2324  1.5264 -0.2482
 6855SOL     OW32200   1.143   2.881   3.902  0.4552 -0.0528 -0.5694
 6855SOL    HW132201   1.089   2.806   3.878  1.1970 -0.5825 -0.5681
 6855SOL    HW232202   1.225   2.832   3.906  0.9509  0.7305 -1.0604
 6856SOL     OW32203   4.576   0.896   3.973 -0.1653  0.0410 -0.0494
 6856SOL    HW132204   4.629   0.965   3.934  1.8661 -0.9869  0.8826
 6856SOL    HW232205   4.487   0.931   3.961 -1.0650 -2.2298 -0.0774
 6857SOL     OW32206   3.348   2.215  11.048  0.3453 -0.2623 -0.1909
 6857SOL    HW132207   3.374   2.293  10.999  0.2158 -0.7585 -1.0497
 6857SOL    HW232208   3.390   2.234  11.132 -0.6032 -1.3954  0.5442
 6858SOL     OW32209   3.174   1.200   8.561 -0.0257  0.2236  0.3430
 6858SOL    HW132210   3.082   1.217   8.578 -0.6193 -2.9693  0.3315
 6858SOL    HW232211   3.182   1.266   8.492  0.2687  0.9049  1.0262
 6859SOL     OW32212   4.593   4.212   6.127 -0.3458  0.5339 -0.1381
 6859SOL    HW132213   4.631   4.205   6.214  1.0238 -0.7538 -0.8282
 6859SOL    HW232214   4.670   4.257   6.091 -1.4656  1.6169 -1.2038
 6860SOL     OW32215   0.091   4.508   4.256  0.0633 -0.6369  0.0430
 6860SOL    HW132216   0.036   4.465   4.322  1.2964  0.2012  1.6365
 6860SOL    HW232217   0.028   4.554   4.201  1.3502 -0.3054 -1.1575
 6861SOL     OW32218   3.495   3.335  13.011 -0.6849 -0.1857 -0.0268
 6861SOL    HW132219   3.488   3.430  13.015 -1.0819 -0.1440 -1.4840
 6861SOL    HW232220   3.588   3.344  13.034 -0.8214  1.1964 -0.0340
 6862SOL     OW32221   3.203   1.415   9.336  0.4670  0.2635  0.4614
 6862SOL    HW132222   3.132   1.479   9.341  0.5698  0.2969  1.5050
 6862SOL    HW232223   3.163   1.353   9.276  1.5652  0.4386 -0.4627
 6863SOL     OW32224   0.892   1.285   7.633  0.2854  1.0395 -0.4266
 6863SOL    HW132225   0.828   1.354   7.619 -0.2463  0.4789 -0.7611
 6863SOL    HW232226   0.967   1.343   7.648  0.4074  0.1021  2.5758
 6864SOL     OW32227   1.481   3.531   0.778  0.2671  0.0147 -0.0559
 6864SOL    HW132228   1.550   3.472   0.807 -0.2159  1.3665  3.8752
 6864SOL    HW232229   1.471   3.593   0.850 -0.5508  0.1078 -0.2494
 6865SOL     OW32230   3.413   3.210   8.546 -0.4390 -0.3005  0.3386
 6865SOL    HW132231   3.470   3.133   8.551  0.7386  0.4598 -1.6910
 6865SOL    HW232232   3.425   3.240   8.456 -1.3234  2.3743  1.1420
 6866SOL     OW32233   0.415   0.774   3.588  0.2739  0.1589  0.0668
 6866SOL    HW132234   0.350   0.807   3.525 -1.5855 -0.0315  1.9088
 6866SOL    HW232235   0.363   0.782   3.668 -2.0228  0.2997 -1.4062
 6867SOL     OW32236   1.540   2.311  14.649 -0.2343  0.6695 -0.1555
 6867SOL    HW132237   1.542   2.252  14.724 -0.8976  2.3730  1.2061
 6867SOL    HW232238   1.632   2.321  14.626 -0.4759 -0.4841 -1.6380
 6868SOL     OW32239   3.597   1.158   2.781  0.6245 -0.3102  0.8262
 6868SOL    HW132240   3.555   1.073   2.792 -1.1960  0.3674 -0.8961
 6868SOL    HW232241   3.671   1.142   2.839  1.2591  1.4931  0.5190
 6869SOL     OW32242   4.567   3.863   8.808 -0.4080 -0.0830  0.1147
 6869SOL    HW132243   4.473   3.861   8.789  0.1245  4.7641 -3.1969
 6869SOL    HW232244   4.582   3.956   8.788  1.2023 -0.0966  1.2142
 6870SOL     OW32245   3.673   2.411  12.565 -0.1953  0.0799  0.2279
 6870SOL    HW132246   3.641   2.411  12.475 -0.3733 -1.6565  0.2780
 6870SOL    HW232247   3.769   2.410  12.563 -0.1960  1.2043 -0.2882
 6871SOL     OW32248   0.299   3.955   0.175  0.4610 -0.4361 -0.4169
 6871SOL    HW132249   0.211   3.975   0.208  1.7146 -0.0387  2.7000
 6871SOL    HW232250   0.317   4.040   0.136 -0.7648 -0.4261 -0.9708
 6872SOL     OW32251   3.963   0.927   3.803  0.0588 -0.0734  0.3796
 6872SOL    HW132252   3.899   0.875   3.853 -0.8091  1.0335  0.4287
 6872SOL    HW232253   3.966   1.003   3.861  0.0452  0.7973 -0.7638
 6873SOL     OW32254   1.093   0.460  12.242  0.2116  0.5791  0.0597
 6873SOL    HW132255   1.169   0.449  12.184  0.4429 -1.3778  0.7478
 6873SOL    HW232256   1.110   0.392  12.307  1.7152 -2.4638 -3.5251
 6874SOL     OW32257   1.396   1.934  11.101 -0.3126  0.1538 -0.4710
 6874SOL    HW132258   1.387   2.028  11.121  0.3052 -0.2622  1.7301
 6874SOL    HW232259   1.318   1.907  11.054 -0.8686  2.3298 -0.7912
 6875SOL     OW32260   1.296   0.275   6.880 -0.1443  0.0784 -0.0459
 6875SOL    HW132261   1.337   0.359   6.898 -1.0115 -0.0288  2.3252
 6875SOL    HW232262   1.258   0.290   6.793 -1.3680 -2.2532  0.0731
 6876SOL     OW32263   0.069   3.885   7.182  0.0652 -0.2364 -0.2993
 6876SOL    HW132264   0.063   3.975   7.214  0.2811  0.1357 -1.3081
 6876SOL    HW232265   0.138   3.890   7.115 -0.6710  1.7313 -0.9181
 6877SOL     OW32266   3.907   0.199   2.204 -0.2835 -0.0909 -0.1863
 6877SOL    HW132267   3.874   0.244   2.126  2.4628  2.5938  0.2113
 6877SOL    HW232268   3.913   0.276   2.260  0.0049 -1.5747  1.8147
 6878SOL     OW32269   3.176   1.839   7.162 -0.1763 -0.2347 -0.0984
 6878SOL    HW132270   3.118   1.763   7.167  1.4249 -1.5237 -0.9872
 6878SOL    HW232271   3.156   1.870   7.073  0.7961 -1.3783 -0.7089
 6879SOL     OW32272   2.683   1.211   9.418  0.7339 -0.1373  0.2346
 6879SOL    HW132273   2.667   1.139   9.480 -2.6705 -0.0056 -0.4973
 6879SOL    HW232274   2.604   1.262   9.438  1.1645  1.1569 -1.4564
 6880SOL     OW32275   1.696   2.717   3.761  0.1737  0.1879  0.1308
 6880SOL    HW132276   1.627   2.659   3.729  0.7528  0.0493 -0.8772
 6880SOL    HW232277   1.755   2.647   3.785  1.5738  1.7987  1.3478
 6881SOL     OW32278   0.660   3.872   3.818  0.3866 -0.4407  0.2267
 6881SOL    HW132279   0.704   3.946   3.860  0.9108 -1.0659  0.7723
 6881SOL    HW232280   0.568   3.894   3.832  0.4344  0.5405 -1.0640
 6882SOL     OW32281   2.174   1.667  10.307  0.1368 -0.2505  0.0321
 6882SOL    HW132282   2.212   1.675  10.219 -3.3480 -0.6299 -1.4866
 6882SOL    HW232283   2.252   1.631  10.349  0.3043  0.6909  0.5284
 6883SOL     OW32284   4.652   4.092  13.603 -0.2274  0.2986  0.4507
 6883SOL    HW132285   4.637   4.008  13.646  0.0346 -0.3076 -0.6467
 6883SOL    HW232286   4.662   4.154  13.675 -0.9051  0.2976  0.5429
 6884SOL     OW32287   0.987   3.390  11.691 -0.5079  0.1242  0.5482
 6884SOL    HW132288   1.072   3.429  11.712 -0.1213  0.9956 -2.7652
 6884SOL    HW232289   0.940   3.471  11.672 -0.4809  0.0697  0.2562
 6885SOL     OW32290   3.969   3.272   7.330  0.6485  0.4311 -0.2788
 6885SOL    HW132291   3.982   3.367   7.341 -2.5349  0.9526 -1.1331
 6885SOL    HW232292   4.061   3.248   7.337  0.4752 -0.7990 -2.2308
 6886SOL     OW32293   0.230   2.506   4.459 -0.1678 -0.4335  0.8296
 6886SOL    HW132294   0.220   2.417   4.425 -0.7189  0.3756 -1.1244
 6886SOL    HW232295   0.324   2.521   4.447  0.0174 -1.0854  1.4500
 6887SOL     OW32296   3.534   1.779   2.087  0.4794  0.4137 -0.0085
 6887SOL    HW132297   3.622   1.742   2.090  0.5289  0.3468 -2.1852
 6887SOL    HW232298   3.508   1.763   2.178 -0.9123 -0.7174 -0.6055
 6888SOL     OW32299   1.619   2.529  14.133  0.4042  0.0369  0.6156
 6888SOL    HW132300   1.526   2.521  14.116  0.7908  1.1933 -1.9744
 6888SOL    HW232301   1.663   2.498  14.054 -0.6539  0.5403 -0.1545
 6889SOL     OW32302   4.088   3.583   2.787 -0.0510  0.5004 -0.1092
 6889SOL    HW132303   4.169   3.602   2.835 -1.7322  1.0081  2.5742
 6889SOL    HW232304   4.114   3.579   2.695 -1.1469 -2.3857 -0.3004
 6890SOL     OW32305   0.944   0.246   5.831  0.4364 -0.3911 -0.0342
 6890SOL    HW132306   0.963   0.178   5.766  1.9050 -0.6370  0.6633
 6890SOL    HW232307   0.850   0.262   5.823  0.7128  1.4174  0.3409
 6891SOL     OW32308   1.608   3.699   6.628  0.2496 -0.4966 -0.1794
 6891SOL    HW132309   1.693   3.678   6.667 -0.1645 -0.9518  0.4699
 6891SOL    HW232310   1.614   3.794   6.637 -0.1999 -0.4941  0.0963
 6892SOL     OW32311   3.217   0.015   5.073  0.4720  0.1863  0.0768
 6892SOL    HW132312   3.222   0.031   4.979 -0.3691 -1.1920 -0.1936
 6892SOL    HW232313   3.303   0.051   5.096  1.3927 -0.9896 -1.5467
 6893SOL     OW32314   0.698   1.979  13.502 -0.0269 -0.1453 -0.6678
 6893SOL    HW132315   0.763   1.979  13.432 -0.0236  1.1006 -0.6592
 6893SOL    HW232316   0.625   1.932  13.461  0.1613 -0.3039 -0.8206
 6894SOL     OW32317   2.756   1.234   5.201  0.0459  0.4065 -0.9950
 6894SOL    HW132318   2.839   1.232   5.248 -0.7571 -0.4676  0.4297
 6894SOL    HW232319   2.703   1.172   5.253  0.9683  0.9933  0.6585
 6895SOL     OW32320   3.226   3.617  12.680 -0.0429 -0.2047  0.1486
 6895SOL    HW132321   3.228   3.615  12.585  3.6159  1.3186  0.1634
 6895SOL    HW232322   3.237   3.522  12.680 -0.1733 -0.2229  0.7603
 6896SOL     OW32323   2.793   3.899   7.853 -0.1416 -0.0963  0.0972
 6896SOL    HW132324   2.721   3.949   7.891  0.5454  1.8228 -1.1610
 6896SOL    HW232325   2.750   3.859   7.778  1.0681 -0.1969 -0.5385
 6897SOL     OW32326   2.288   1.568  11.875 -0.1310  0.1877 -0.5279
 6897SOL    HW132327   2.272   1.662  11.882 -1.0013 -0.0039  0.1084
 6897SOL    HW232328   2.309   1.539  11.964 -2.2490  2.1450  0.6214
 6898SOL     OW32329   0.723   0.953   0.335 -0.3332  0.4085 -0.0365
 6898SOL    HW132330   0.812   0.961   0.302  0.1524  0.4837  1.3097
 6898SOL    HW232331   0.737   0.976   0.427  0.9395  0.8438 -0.3435
 6899SOL     OW32332   2.809   4.702   5.404 -0.1966 -0.2289 -0.1703
 6899SOL    HW132333   2.811   4.679   5.311  2.6777  1.2083 -0.4857
 6899SOL    HW232334   2.745   0.037   5.391  2.2472  1.8705 -0.9655
 6900SOL     OW32335   2.126   0.897   4.577 -0.2244  0.3448  0.3145
 6900SOL    HW132336   2.133   0.990   4.600 -0.7303 -0.1198  2.3769
 6900SOL    HW232337   2.122   0.864   4.667  0.2240  0.7998  0.5022
 6901SOL     OW32338   2.658   2.541   0.732 -0.5573  0.2452  0.0560
 6901SOL    HW132339   2.585   2.596   0.759  1.0542  1.3487  2.2191
 6901SOL    HW232340   2.648   2.563   0.640  0.1595  0.3857  0.0054
 6902SOL     OW32341   2.831   4.644   5.804  0.6702 -0.5792 -0.1610
 6902SOL    HW132342   2.798   4.647   5.894  1.4086  2.4553 -0.0191
 6902SOL    HW232343   2.756   4.684   5.760 -0.9878 -0.9355  2.3332
 6903SOL     OW32344   3.422   2.795   6.643  0.3203 -0.2746  0.1372
 6903SOL    HW132345   3.355   2.748   6.693 -1.9647  2.3649 -0.4917
 6903SOL    HW232346   3.491   2.804   6.709 -0.4348  0.3072  0.8527
 6904SOL     OW32347   2.881   4.138   4.805 -0.0732  0.4706 -0.0143
 6904SOL    HW132348   2.835   4.054   4.809 -0.4867  0.7203  0.3812
 6904SOL    HW232349   2.929   4.138   4.722  0.0725 -0.9189  0.0602
 6905SOL     OW32350   1.443   4.571   9.571  0.2159 -0.3165  0.3359
 6905SOL    HW132351   1.430   4.620   9.652 -0.3025 -2.1944  1.3785
 6905SOL    HW232352   1.441   4.483   9.608  1.1314 -0.5239 -0.0929
 6906SOL     OW32353   3.663   0.609   8.534  0.1745  0.0487 -0.2947
 6906SOL    HW132354   3.718   0.602   8.612  1.3850 -0.1124 -1.1635
 6906SOL    HW232355   3.605   0.534   8.543 -1.4334  1.4854  1.2310
 6907SOL     OW32356   0.993   0.611   7.111  0.1163  0.3845  0.0509
 6907SOL    HW132357   1.066   0.668   7.084 -0.7387  1.7592  0.6569
 6907SOL    HW232358   0.963   0.593   7.022  0.9673  1.3452 -0.4364
 6908SOL     OW32359   0.190   2.408   7.041  0.2691 -0.0381  0.4079
 6908SOL    HW132360   0.179   2.349   6.967  0.7015  1.5945 -0.9632
 6908SOL    HW232361   0.138   2.480   7.007  1.4772 -0.6123 -2.5877
 6909SOL     OW32362   2.160   4.021  12.782 -0.0427  0.0864 -0.3673
 6909SOL    HW132363   2.130   3.992  12.868  0.3072 -1.4152 -0.7395
 6909SOL    HW232364   2.244   3.979  12.765  0.6912  1.0102  1.0293
 6910SOL     OW32365   3.414   2.925   5.243 -0.1115  0.8160 -0.1149
 6910SOL    HW132366   3.420   2.870   5.165 -0.0481  0.2175  0.3149
 6910SOL    HW232367   3.325   2.909   5.275 -0.0983 -0.6049 -0.7720
 6911SOL     OW32368   3.942   3.499   5.188 -0.1014 -0.6025  0.2055
 6911SOL    HW132369   3.960   3.590   5.210 -2.3187 -0.5242  1.7239
 6911SOL    HW232370   3.858   3.495   5.233  0.6752  3.0145  2.0207
 6912SOL     OW32371   2.200   4.193   5.191 -0.0549 -0.2189  0.0002
 6912SOL    HW132372   2.296   4.194   5.198  0.0517  0.4932 -1.5576
 6912SOL    HW232373   2.174   4.119   5.247  0.5295 -2.1193 -2.2436
 6913SOL     OW32374   0.943   1.039  10.924 -0.1870 -0.2135 -0.3263
 6913SOL    HW132375   0.972   1.102  10.857 -0.7048 -0.7599 -1.0648
 6913SOL    HW232376   0.870   1.090  10.957 -0.7956  0.0186 -2.0121
 6914SOL     OW32377   2.293   2.795   6.314  0.1350  0.2720 -0.2617
 6914SOL    HW132378   2.206   2.835   6.315 -0.3400 -0.7741  0.5975
 6914SOL    HW232379   2.345   2.866   6.277 -1.3520  2.1976  1.4223
 6915SOL     OW32380   3.221   3.996  17.209  0.3303  0.2169 -0.3370
 6915SOL    HW132381   3.249   3.910  17.177  1.7622 -0.4765  2.7247
 6915SOL    HW232382   3.138   3.967  17.248  0.4275  0.8891  0.3813
 6916SOL     OW32383   1.529   2.019   8.665  0.7429 -0.0739  0.2137
 6916SOL    HW132384   1.515   1.948   8.601 -1.6018  0.7045 -0.1431
 6916SOL    HW232385   1.460   2.079   8.637  0.2533 -0.5487  0.3923
 6917SOL     OW32386   2.702   2.506  16.690  0.4746 -0.2729 -0.1267
 6917SOL    HW132387   2.686   2.585  16.639 -1.8143 -1.0450 -0.6040
 6917SOL    HW232388   2.617   2.505  16.735  1.1114  0.2803  1.1045
 6918SOL     OW32389   0.631   1.180   4.839  0.1580  0.0276 -0.4688
 6918SOL    HW132390   0.540   1.190   4.812 -0.0443  1.3461  0.7853
 6918SOL    HW232391   0.676   1.216   4.762 -1.1083 -1.7688 -2.0720
 6919SOL     OW32392   2.415   3.861   5.695 -0.0541 -0.4974  0.0985
 6919SOL    HW132393   2.473   3.894   5.626 -0.0619 -0.5777  0.0541
 6919SOL    HW232394   2.341   3.822   5.648  0.0883 -1.7907  0.9638
 6920SOL     OW32395   3.123   3.948   6.188 -0.0233 -0.0673  0.1753
 6920SOL    HW132396   3.119   3.991   6.102 -0.7658  0.7131  0.6140
 6920SOL    HW232397   3.108   3.857   6.162  0.5644 -0.1814  0.2407
 6921SOL     OW32398   4.101   0.296   5.508  0.3041  0.3902  0.1908
 6921SOL    HW132399   4.041   0.351   5.558 -0.8235 -0.1042 -0.6227
 6921SOL    HW232400   4.146   0.365   5.458  0.3240  1.3222  1.4987
 6922SOL     OW32401   0.010   0.019   4.594  0.0644  0.0256  0.5268
 6922SOL    HW132402   4.671   0.075   4.620 -2.5991 -1.1862 -4.3491
 6922SOL    HW232403   4.699   4.723   4.515 -0.0096  3.2537 -0.7034
 6923SOL     OW32404   1.776   0.171  13.849  0.1662  0.0862 -0.2579
 6923SOL    HW132405   1.735   0.257  13.836 -0.5984 -0.7187 -3.1759
 6923SOL    HW232406   1.849   0.181  13.787  0.7027  0.3855  0.4170
 6924SOL     OW32407   0.915   3.697   1.497  0.4406  0.3524 -0.3103
 6924SOL    HW132408   1.009   3.716   1.496  0.6618 -0.8035 -1.4656
 6924SOL    HW232409   0.888   3.755   1.426  2.9984  0.2585 -1.3786
 6925SOL     OW32410   3.067   4.080   2.580 -0.1129 -0.4827 -0.7354
 6925SOL    HW132411   3.110   4.136   2.645 -1.7451 -1.1046  0.8771
 6925SOL    HW232412   3.018   4.015   2.630  1.9714 -0.8301  0.8507
 6926SOL     OW32413   4.552   3.314   2.086 -0.3000 -0.6083  0.5629
 6926SOL    HW132414   4.488   3.296   2.155  2.1917 -3.5894  2.0658
 6926SOL    HW232415   4.631   3.278   2.126 -0.1284 -1.6461 -0.7459
 6927SOL     OW32416   4.577   0.030  12.913  0.4885 -0.0055 -0.3793
 6927SOL    HW132417   4.483   0.042  12.904  0.5669  1.5684  0.9755
 6927SOL    HW232418   4.609   0.087  12.843 -0.4590  0.1125 -0.7082
 6928SOL     OW32419   1.893   1.675   6.109  0.2648 -0.4131 -0.2022
 6928SOL    HW132420   1.934   1.726   6.039  0.7480  0.0434  0.4154
 6928SOL    HW232421   1.956   1.673   6.181  0.0485 -1.5704 -0.0394
 6929SOL     OW32422   3.863   2.986   5.699 -0.3239  0.1258  0.5818
 6929SOL    HW132423   3.897   3.013   5.784  0.1860 -0.1925  0.4834
 6929SOL    HW232424   3.859   3.074   5.661  0.4293 -0.1629 -0.1851
 6930SOL     OW32425   2.113   1.829   1.900 -0.7355 -0.0850 -0.0787
 6930SOL    HW132426   2.048   1.847   1.969 -0.7203  1.0323 -0.3464
 6930SOL    HW232427   2.111   1.734   1.896 -4.3229 -0.0499  0.8137
 6931SOL     OW32428   3.817   2.774   2.802 -0.1269  0.1902 -0.2672
 6931SOL    HW132429   3.909   2.773   2.826 -0.1105  1.0577 -0.3045
 6931SOL    HW232430   3.796   2.868   2.804 -1.5495 -0.0773 -2.1351
 6932SOL     OW32431   1.441   2.467  17.345  0.1818 -0.3902  0.5377
 6932SOL    HW132432   1.415   2.480  17.254  0.2648 -1.0699  0.4146
 6932SOL    HW232433   1.357   2.448  17.386  0.1843  1.3976  1.3341
 6933SOL     OW32434   4.188   1.368   6.867 -0.6692  0.3851 -0.2146
 6933SOL    HW132435   4.278   1.369   6.901 -1.1335  1.6239  0.9778
 6933SOL    HW232436   4.136   1.352   6.945 -0.5358  0.0766 -0.1914
 6934SOL     OW32437   4.607   3.879   0.888 -0.7114  0.3112 -0.2735
 6934SOL    HW132438   4.581   3.943   0.822  0.8870  2.3802  1.1009
 6934SOL    HW232439   4.524   3.873   0.935 -0.2561 -1.6852  0.2628
 6935SOL     OW32440   3.191   2.129  16.552 -0.6671 -0.2189 -0.3529
 6935SOL    HW132441   3.238   2.189  16.495  1.7889 -0.9527  0.9205
 6935SOL    HW232442   3.249   2.130  16.628 -1.1245  0.5117 -0.0068
 6936SOL     OW32443   2.967   0.862   8.151  0.0041 -0.1776 -0.3323
 6936SOL    HW132444   2.935   0.772   8.158 -0.7530  0.0973 -0.2874
 6936SOL    HW232445   2.966   0.870   8.056 -0.5626  0.2046 -0.2897
 6937SOL     OW32446   4.450   1.799  15.924  0.2685 -0.0948 -0.2298
 6937SOL    HW132447   4.443   1.887  15.888 -0.2561 -0.2873 -0.6140
 6937SOL    HW232448   4.364   1.794  15.967  0.3457  0.1283 -0.0486
 6938SOL     OW32449   2.844   0.236   7.195 -0.1585 -0.0703 -0.5926
 6938SOL    HW132450   2.859   0.143   7.211  2.3572  0.2272 -1.2805
 6938SOL    HW232451   2.752   0.241   7.221  0.1006 -2.5287  0.7012
 6939SOL     OW32452   2.493   1.206   3.687  0.0952 -0.3667 -0.5448
 6939SOL    HW132453   2.401   1.191   3.665  0.0371 -0.7560 -0.0163
 6939SOL    HW232454   2.500   1.300   3.667  0.0920 -0.1318  0.5421
 6940SOL     OW32455   3.188   3.918  16.062  0.2080  0.1837 -0.1597
 6940SOL    HW132456   3.150   3.902  15.975  0.0169 -1.5840  0.2425
 6940SOL    HW232457   3.171   4.011  16.074  2.0756  0.6722 -1.2209
 6941SOL     OW32458   2.196   0.448   2.729  0.1364  0.7485  0.1916
 6941SOL    HW132459   2.163   0.474   2.643 -1.0134 -2.8934 -0.4577
 6941SOL    HW232460   2.122   0.424   2.784  1.7434 -2.9121  0.7537
 6942SOL     OW32461   4.444   3.659   2.381  0.2584 -0.4808  0.0069
 6942SOL    HW132462   4.526   3.621   2.348 -0.8656 -0.9658 -2.1900
 6942SOL    HW232463   4.443   3.742   2.333 -0.3983 -1.8097 -2.2397
 6943SOL     OW32464   2.824   0.546   6.795 -0.0710  0.1055 -0.1305
 6943SOL    HW132465   2.809   0.464   6.843  0.7441  0.1776  0.2397
 6943SOL    HW232466   2.854   0.505   6.714 -2.5616 -0.4488 -0.7666
 6944SOL     OW32467   0.286   4.456   5.854  0.5790  0.2517 -0.2653
 6944SOL    HW132468   0.239   4.411   5.784  0.4496  1.2855 -0.8389
 6944SOL    HW232469   0.376   4.430   5.831  0.3899  0.4615 -1.2268
 6945SOL     OW32470   4.151   4.327   7.796  0.0009 -0.4568 -0.1993
 6945SOL    HW132471   4.087   4.397   7.787  0.3330 -0.3426 -1.6788
 6945SOL    HW232472   4.099   4.260   7.841 -0.2793  0.5733  1.0146
 6946SOL     OW32473   1.888   3.486  11.890 -1.1275  0.0529  0.0840
 6946SOL    HW132474   1.966   3.494  11.944 -1.2554  0.6248  0.1927
 6946SOL    HW232475   1.818   3.498  11.954 -0.6510  0.7004  0.4867
 6947SOL     OW32476   4.579   4.062   0.256  0.3689 -0.2401 -0.0388
 6947SOL    HW132477   4.495   4.071   0.301  0.2033 -0.0715 -0.3806
 6947SOL    HW232478   4.578   3.966   0.258 -0.5414 -0.3009 -3.2717
 6948SOL     OW32479   3.029   2.104   5.988  0.1275  0.0683 -0.2954
 6948SOL    HW132480   2.955   2.051   6.018 -0.8425  1.3547 -0.4118
 6948SOL    HW232481   3.014   2.182   6.043  1.7954 -0.3348  0.7216
 6949SOL     OW32482   0.319   4.625   9.620 -0.6606  0.2499 -0.2540
 6949SOL    HW132483   0.233   4.589   9.640 -0.6226  0.0116 -0.5119
 6949SOL    HW232484   0.349   4.559   9.557 -0.5005 -1.0281  1.1629
 6950SOL     OW32485   1.357   3.347   3.822  0.2801 -0.0179  0.7436
 6950SOL    HW132486   1.282   3.404   3.837  0.1734  0.1899 -0.6311
 6950SOL    HW232487   1.317   3.264   3.794  0.5044 -0.1888  0.9248
 6951SOL     OW32488   4.686   0.924   3.500 -0.2654 -0.3715 -0.3707
 6951SOL    HW132489   4.674   1.010   3.460 -1.9488 -1.0638 -1.3628
 6951SOL    HW232490   4.602   0.909   3.543  0.6673 -2.3706  0.7494
 6952SOL     OW32491   4.149   0.384   8.748  0.1258 -0.2969  0.4870
 6952SOL    HW132492   4.107   0.369   8.663 -0.0618  0.5806  0.4276
 6952SOL    HW232493   4.073   0.386   8.807  0.0526 -0.2114  0.3894
 6953SOL     OW32494   0.587   1.970  14.450  0.1810  0.4021  0.4246
 6953SOL    HW132495   0.615   2.035  14.516 -1.1490  0.1190  1.2685
 6953SOL    HW232496   0.495   1.961  14.473  0.4534 -1.6750  0.6658
 6954SOL     OW32497   1.846   1.996   1.401  0.3456 -0.4379 -0.2249
 6954SOL    HW132498   1.842   2.008   1.496  1.0245 -0.5930 -0.1807
 6954SOL    HW232499   1.872   1.904   1.397  1.1549 -0.2513  0.7335
 6955SOL     OW32500   1.307   3.268   4.186 -0.5191 -0.4705 -0.0744
 6955SOL    HW132501   1.259   3.206   4.242  0.2628  0.0745  1.2115
 6955SOL    HW232502   1.245   3.340   4.191 -1.1087 -0.9942  0.2061
 6956SOL     OW32503   4.279   2.700   6.194 -0.3491  0.1202 -0.3221
 6956SOL    HW132504   4.314   2.648   6.267 -0.1551  5.4306  3.3540
 6956SOL    HW232505   4.237   2.769   6.244  1.2175  0.1015  1.0302
 6957SOL     OW32506   2.206   4.454   5.339  1.0948 -0.4941 -0.1299
 6957SOL    HW132507   2.249   4.375   5.372 -0.5843 -1.1819  0.4148
 6957SOL    HW232508   2.254   4.473   5.258  1.1316 -1.9392 -0.4520
 6958SOL     OW32509   2.234   0.555   7.480  0.0736  0.2302 -0.3797
 6958SOL    HW132510   2.185   0.473   7.478  2.6736 -1.3353  1.5116
 6958SOL    HW232511   2.296   0.540   7.551 -1.0026 -0.0241  0.5108
 6959SOL     OW32512   4.410   4.168   6.542  0.2635 -0.1459 -0.2835
 6959SOL    HW132513   4.376   4.252   6.513  0.4864  0.4201  1.1307
 6959SOL    HW232514   4.501   4.182   6.565 -0.3739  0.1633  1.9977
 6960SOL     OW32515   0.696   3.473   8.177  0.2650 -0.2441 -0.1655
 6960SOL    HW132516   0.746   3.554   8.169  0.1233 -0.0682  0.7076
 6960SOL    HW232517   0.644   3.478   8.097 -0.7119  2.8877  0.6346
 6961SOL     OW32518   0.451   1.303  10.290  0.3996 -0.0447  0.1155
 6961SOL    HW132519   0.369   1.351  10.286 -1.0975 -2.3879  2.0910
 6961SOL    HW232520   0.486   1.332  10.374  1.4239 -1.4598  0.1918
 6962SOL     OW32521   2.184   2.172   1.939  0.0917 -0.1432  0.4279
 6962SOL    HW132522   2.241   2.197   1.867 -1.0548 -0.7628 -0.7111
 6962SOL    HW232523   2.230   2.216   2.010 -0.0819  1.3451 -0.3980
 6963SOL     OW32524   3.254   1.169   9.118 -0.4243 -0.4767  0.2415
 6963SOL    HW132525   3.202   1.118   9.180  0.9507 -1.0484  0.9232
 6963SOL    HW232526   3.320   1.106   9.089 -1.4067 -1.2753 -0.2627
 6964SOL     OW32527   0.610   1.285   8.065 -0.4514  0.1917 -0.7405
 6964SOL    HW132528   0.637   1.358   8.121  3.7570 -2.5842  0.7285
 6964SOL    HW232529   0.646   1.322   7.984  0.5013 -1.4097 -1.0339
 6965SOL     OW32530   4.480   0.828   2.287 -0.5666 -0.4536  0.5603
 6965SOL    HW132531   4.416   0.775   2.336 -0.4031 -1.0231  0.1642
 6965SOL    HW232532   4.521   0.884   2.353 -3.0849  1.8658  0.1764
 6966SOL     OW32533   2.010   2.047  17.050  0.2540 -0.1919  0.2948
 6966SOL    HW132534   2.083   2.077  16.996 -0.1928  2.8975  1.3902
 6966SOL    HW232535   1.971   2.127  17.087 -3.0658 -1.3366 -0.7093
 6967SOL     OW32536   1.390   2.563   6.862  0.0354 -0.1470  0.3580
 6967SOL    HW132537   1.431   2.575   6.948  0.5322 -1.5132  0.3168
 6967SOL    HW232538   1.329   2.495   6.892  0.0607 -0.8673 -1.2339
 6968SOL     OW32539   4.118   4.599  13.506  0.1644  0.7117 -0.5919
 6968SOL    HW132540   4.162   4.660  13.565  0.4083  0.5119 -0.5644
 6968SOL    HW232541   4.047   4.573  13.565  1.3304  0.8223  0.8805
 6969SOL     OW32542   1.451   3.545  14.122 -0.0006 -0.4830 -0.6146
 6969SOL    HW132543   1.501   3.615  14.081 -0.4255  0.1755 -0.0006
 6969SOL    HW232544   1.377   3.534  14.062 -0.8826  1.0510  0.2111
 6970SOL     OW32545   2.331   3.207   2.682 -0.0276 -0.1520  0.1164
 6970SOL    HW132546   2.360   3.220   2.591  1.1944  3.2455  0.9787
 6970SOL    HW232547   2.250   3.159   2.665 -0.4562  0.5951  0.0123
 6971SOL     OW32548   1.704   0.957  16.921  0.1163  0.2522 -0.3660
 6971SOL    HW132549   1.669   1.040  16.889  5.1986  2.2337 -0.7933
 6971SOL    HW232550   1.795   0.984  16.909  0.0821  0.6085  0.1855
 6972SOL     OW32551   0.320   0.657   0.271 -1.1271 -0.8167 -1.0982
 6972SOL    HW132552   0.295   0.750   0.277 -2.5086 -1.1869 -1.0804
 6972SOL    HW232553   0.404   0.668   0.228  1.3998 -1.6908  3.6062
 6973SOL     OW32554   3.315   2.852   0.751  0.4536  0.2180 -0.1577
 6973SOL    HW132555   3.244   2.892   0.801 -0.3614  0.1348 -1.2531
 6973SOL    HW232556   3.310   2.767   0.796 -3.3117  0.8006  0.5322
 6974SOL     OW32557   0.951   3.550  13.385  0.2502 -0.4705 -0.4426
 6974SOL    HW132558   0.962   3.472  13.439  2.4446 -0.3882 -0.7536
 6974SOL    HW232559   0.907   3.516  13.307  1.0660  0.6093 -1.3717
 6975SOL     OW32560   1.165   2.753  14.580  0.5627 -0.1190 -0.2902
 6975SOL    HW132561   1.221   2.676  14.584  0.8268  0.0188 -1.5258
 6975SOL    HW232562   1.230   2.800  14.528 -0.1438  2.4749  1.1844
 6976SOL     OW32563   1.059   1.169  16.159  0.0580  0.4541 -0.5219
 6976SOL    HW132564   0.977   1.160  16.110 -0.4216  2.3753 -0.0541
 6976SOL    HW232565   1.062   1.264  16.156 -0.8016  0.4560 -1.3738
 6977SOL     OW32566   0.231   3.764   4.596  0.2459 -0.4736  0.1126
 6977SOL    HW132567   0.318   3.782   4.631  0.1180 -1.4286  0.9283
 6977SOL    HW232568   0.256   3.703   4.526 -0.0073  0.1824 -0.5484
 6978SOL     OW32569   1.063   4.002   3.226 -0.3564  0.1099  0.3835
 6978SOL    HW132570   1.038   3.910   3.214  0.3006  0.0127 -0.2405
 6978SOL    HW232571   1.127   4.025   3.158  1.5044 -1.2749  1.6875
 6979SOL     OW32572   0.058   0.593   7.592 -0.5161  0.1854  0.3200
 6979SOL    HW132573   4.734   0.654   7.636 -0.6139  1.8733 -2.1134
 6979SOL    HW232574   0.053   0.512   7.643  0.2855 -1.0197 -1.4955
 6980SOL     OW32575   2.543   0.346   7.880 -0.1491  0.0138 -0.0496
 6980SOL    HW132576   2.591   0.330   7.961  0.5189  1.9250 -0.0574
 6980SOL    HW232577   2.460   0.321   7.920 -0.1991  0.4749  0.1343
 6981SOL     OW32578   4.242   2.704   3.034  0.2613  0.2715 -0.7016
 6981SOL    HW132579   4.223   2.625   3.084  1.5849 -0.7974 -1.8830
 6981SOL    HW232580   4.210   2.772   3.093  1.8579 -1.8902  2.6230
 6982SOL     OW32581   3.485   4.309   0.278 -0.1051  0.3625  0.0006
 6982SOL    HW132582   3.464   4.400   0.298  0.7239  0.1876  1.6450
 6982SOL    HW232583   3.471   4.265   0.362 -0.1276 -0.8157 -0.6092
 6983SOL     OW32584   4.182   0.489   5.334  0.1223 -0.2115 -0.0949
 6983SOL    HW132585   4.088   0.507   5.324  0.3375  2.2310  2.1384
 6983SOL    HW232586   4.192   0.428   5.261  0.1904 -3.2120  2.4140
 6984SOL     OW32587   0.390   2.377   4.241 -0.4582  0.0569 -0.1717
 6984SOL    HW132588   0.361   2.290   4.265 -0.2397  0.4473  1.4620
 6984SOL    HW232589   0.445   2.363   4.164  0.8632  1.7120  0.4748
 6985SOL     OW32590   3.791   0.111   3.356 -0.9906  0.5195 -0.1506
 6985SOL    HW132591   3.767   0.177   3.421  0.5116  2.5239 -1.6608
 6985SOL    HW232592   3.705   0.109   3.312 -0.9714  3.7260 -0.3609
 6986SOL     OW32593   0.263   2.272   6.094 -0.0549 -0.1200 -0.0150
 6986SOL    HW132594   0.314   2.201   6.056  1.5772  0.4785  1.0599
 6986SOL    HW232595   0.319   2.348   6.080  1.3023 -0.7244  2.0912
 6987SOL     OW32596   3.790   3.183   6.742  0.3441  0.2685  0.7630
 6987SOL    HW132597   3.803   3.101   6.695  0.1002  0.1094  0.9758
 6987SOL    HW232598   3.879   3.218   6.744  0.6754 -0.6712  2.5314
 6988SOL     OW32599   3.983   0.692   6.538 -0.3935 -0.1804  0.2280
 6988SOL    HW132600   4.071   0.654   6.545 -0.6240 -0.5490  1.1447
 6988SOL    HW232601   3.931   0.621   6.577 -0.0523 -0.9349 -0.6797
 6989SOL     OW32602   2.415   1.081   2.517  0.3523 -0.2365 -0.3543
 6989SOL    HW132603   2.446   1.171   2.506 -0.3068  0.2945  2.2210
 6989SOL    HW232604   2.351   1.075   2.447 -1.7148 -0.4883  1.5730
 6990SOL     OW32605   1.867   1.010   7.644 -0.2939  0.0844  0.3183
 6990SOL    HW132606   1.781   1.024   7.603  1.0299  0.8710 -2.1998
 6990SOL    HW232607   1.854   0.920   7.675 -0.0662 -0.0693 -0.0297
 6991SOL     OW32608   3.370   3.378   6.164 -0.2548 -0.1237  0.1974
 6991SOL    HW132609   3.353   3.285   6.153  1.2675 -0.0180 -2.9873
 6991SOL    HW232610   3.282   3.411   6.185 -0.6001 -0.1207 -1.3031
 6992SOL     OW32611   4.721   2.161   4.115 -0.4878  0.3333  0.0239
 6992SOL    HW132612   4.660   2.108   4.167  1.5324 -2.1971 -0.2081
 6992SOL    HW232613   0.054   2.164   4.182  0.7526 -1.9442 -1.1477
 6993SOL     OW32614   2.304   4.028   7.522  0.2302 -0.1885  0.6503
 6993SOL    HW132615   2.304   4.117   7.556  0.7126 -0.6939  2.0069
 6993SOL    HW232616   2.245   3.987   7.585  0.3357 -2.3943 -0.6886
 6994SOL     OW32617   3.024   0.868   9.490 -0.0755  0.1327 -0.1973
 6994SOL    HW132618   2.943   0.827   9.519  0.7770  0.1221  2.1947
 6994SOL    HW232619   3.086   0.863   9.563  0.3743  0.3227 -0.5641
 6995SOL     OW32620   4.201   1.948   2.841 -0.1672  0.6496  0.8289
 6995SOL    HW132621   4.111   1.956   2.874 -0.5694 -0.6574  0.0752
 6995SOL    HW232622   4.242   2.026   2.878 -0.1167  1.4239 -0.9005
 6996SOL     OW32623   0.364   1.731   6.142  0.0853 -0.3352  0.1426
 6996SOL    HW132624   0.451   1.748   6.105  0.4136 -0.2283  0.9722
 6996SOL    HW232625   0.340   1.823   6.156  0.5310 -0.2308  0.2198
 6997SOL     OW32626   0.497   0.639   6.029  0.6560  0.2552  0.3995
 6997SOL    HW132627   0.460   0.551   6.037  0.5193  0.1340 -1.6058
 6997SOL    HW232628   0.513   0.668   6.119  0.1038 -0.3476  0.6859
 6998SOL     OW32629   2.143   4.517   0.509 -0.0835  0.5919  0.0141
 6998SOL    HW132630   2.232   4.537   0.479  0.2055  0.0389  0.4890
 6998SOL    HW232631   2.155   4.430   0.549 -2.6385 -0.6498 -1.9588
 6999SOL     OW32632   3.361   2.659   4.413 -0.3099  0.0253  0.1486
 6999SOL    HW132633   3.266   2.652   4.402 -0.2935  0.5397 -0.2864
 6999SOL    HW232634   3.371   2.644   4.507 -0.0448  1.2762  0.3081
 7000SOL     OW32635   2.258   0.733   6.461 -0.5034  0.7073  0.4641
 7000SOL    HW132636   2.342   0.741   6.506 -0.3352  0.7622  0.1404
 7000SOL    HW232637   2.200   0.794   6.507  2.1942  1.0334  3.3799
 7001SOL     OW32638   1.767   3.999   3.719  0.0872 -0.0573  0.4936
 7001SOL    HW132639   1.681   4.038   3.735  1.9126  4.2419 -0.2692
 7001SOL    HW232640   1.780   4.024   3.628  0.0501  1.4983  0.9219
 7002SOL     OW32641   2.130   4.280  12.753 -0.5931 -0.4053  0.2639
 7002SOL    HW132642   2.133   4.189  12.782  4.0392 -0.0015  1.0355
 7002SOL    HW232643   2.223   4.288  12.733 -0.3495  0.3871  1.6984
 7003SOL     OW32644   2.004   3.167   9.926  0.4361 -0.3309 -0.6415
 7003SOL    HW132645   2.058   3.228   9.876  2.8314 -0.2007  2.1639
 7003SOL    HW232646   2.029   3.078   9.901  1.4064  0.0984 -1.2218
 7004SOL     OW32647   2.797   2.566   4.312 -0.1181  0.4078 -0.0015
 7004SOL    HW132648   2.721   2.625   4.312  0.3792  1.0465 -0.5865
 7004SOL    HW232649   2.813   2.553   4.219 -1.6432 -0.3758 -0.1569
 7005SOL     OW32650   4.030   2.312  12.119 -0.4071 -0.3505 -0.0933
 7005SOL    HW132651   4.025   2.342  12.028 -0.0684 -0.0054  0.0025
 7005SOL    HW232652   4.110   2.351  12.154 -1.4740  0.9544  0.9179
 7006SOL     OW32653   0.763   1.269   4.596 -0.2886 -1.0862  0.1848
 7006SOL    HW132654   0.798   1.355   4.574  3.4045 -2.3657  1.0098
 7006SOL    HW232655   0.836   1.212   4.574  0.4244  0.1646 -0.6396
 7007SOL     OW32656   4.272   0.156   3.447  0.2649  0.4018  0.5421
 7007SOL    HW132657   4.181   0.144   3.473 -0.1079  0.1300 -0.8848
 7007SOL    HW232658   4.302   0.071   3.414  1.2213  0.9091  0.0901
 7008SOL     OW32659   1.553   1.322  12.496 -0.4620  0.2564  0.0536
 7008SOL    HW132660   1.516   1.238  12.523 -1.2129  0.6944  0.3984
 7008SOL    HW232661   1.646   1.304  12.488 -0.7092 -1.1048  0.2405
 7009SOL     OW32662   2.808   4.671   7.512  0.1354 -0.1052  0.3349
 7009SOL    HW132663   2.869   4.618   7.564  0.8126  1.0657  0.7625
 7009SOL    HW232664   2.784   4.625   7.432 -0.1447  1.1231 -0.2837
 7010SOL     OW32665   4.641   1.019   7.686  0.6922 -0.1396  0.1643
 7010SOL    HW132666   4.705   1.087   7.707  0.9431  0.4017 -2.3809
 7010SOL    HW232667   4.562   1.046   7.731  0.3958 -1.1464  0.2451
 7011SOL     OW32668   3.570   3.340   7.120 -0.5883 -0.2313 -0.0402
 7011SOL    HW132669   3.525   3.417   7.154 -0.6775 -0.1971 -0.2378
 7011SOL    HW232670   3.594   3.306   7.207  1.4322  2.0836  0.3083
 7012SOL     OW32671   4.305   0.871   5.701  0.5368  0.4772  0.9001
 7012SOL    HW132672   4.334   0.894   5.612 -2.5442 -0.7296 -0.4296
 7012SOL    HW232673   4.245   0.942   5.723  0.5310  1.3618 -1.8542
 7013SOL     OW32674   2.162   2.719   1.619  0.6743 -0.3057 -0.0692
 7013SOL    HW132675   2.132   2.635   1.582 -0.5301 -0.3323  0.9471
 7013SOL    HW232676   2.087   2.777   1.608  1.0667  0.2188  0.0582
 7014SOL     OW32677   1.225   1.780  12.705  0.2001  0.0816  0.1469
 7014SOL    HW132678   1.294   1.745  12.760  0.8804  0.0033 -0.7558
 7014SOL    HW232679   1.269   1.771  12.621  2.8889 -0.5200  1.6316
 7015SOL     OW32680   4.382   1.441   4.162  0.3021  0.2303  0.7981
 7015SOL    HW132681   4.345   1.528   4.147 -1.1096 -0.6025 -0.5798
 7015SOL    HW232682   4.299   1.394   4.166 -0.8667  2.1797 -0.7103
 7016SOL     OW32683   2.806   2.552   9.611  0.2970  0.2186  0.5345
 7016SOL    HW132684   2.847   2.510   9.686 -0.6823 -1.5677  0.0519
 7016SOL    HW232685   2.852   2.636   9.625  0.3549  0.4308 -0.9840
 7017SOL     OW32686   1.325   0.864   2.359 -0.7942  0.9314  0.3427
 7017SOL    HW132687   1.307   0.788   2.305 -0.7215  0.0641  1.5355
 7017SOL    HW232688   1.243   0.912   2.351 -1.8521 -0.9992 -0.3392
 7018SOL     OW32689   4.115   1.673   6.060  0.0030 -0.2387 -1.0208
 7018SOL    HW132690   4.107   1.764   6.087 -2.5441 -0.4215 -1.1488
 7018SOL    HW232691   4.203   1.666   6.096  0.6869  0.6423 -2.4946
 7019SOL     OW32692   0.085   1.964   2.002  0.0513 -0.3684  0.0788
 7019SOL    HW132693   0.081   1.871   2.025 -1.3184 -0.2360  0.3559
 7019SOL    HW232694   0.140   1.961   1.923 -1.1072  3.1267 -0.8654
 7020SOL     OW32695   2.119   0.453   3.280  0.3879  0.5586  0.4749
 7020SOL    HW132696   2.031   0.492   3.287  0.3953  0.6723 -0.0386
 7020SOL    HW232697   2.104   0.394   3.353  0.4499 -0.1988 -0.1213
 7021SOL     OW32698   0.599   2.386  14.562  0.2227  0.1436 -0.2904
 7021SOL    HW132699   0.674   2.414  14.614  1.1764  1.7939 -2.4979
 7021SOL    HW232700   0.580   2.313  14.620  0.2768 -0.3734 -0.9283
 7022SOL     OW32701   0.610   2.638   8.128  0.3418 -0.1429  0.3660
 7022SOL    HW132702   0.631   2.586   8.050 -2.4938  0.9028 -1.0995
 7022SOL    HW232703   0.594   2.720   8.082 -2.4314 -1.0714 -0.3288
 7023SOL     OW32704   0.292   2.368  11.732  0.1918 -0.6528  0.2166
 7023SOL    HW132705   0.217   2.349  11.789 -0.2811  0.2684 -0.0981
 7023SOL    HW232706   0.261   2.418  11.656 -2.1548 -1.0482  0.9193
 7024SOL     OW32707   1.011   2.643   2.080  0.2413  0.0774 -0.5710
 7024SOL    HW132708   1.081   2.623   2.143  0.7014  2.2023 -0.3914
 7024SOL    HW232709   1.051   2.596   2.006 -1.2314 -1.1668 -0.5672
 7025SOL     OW32710   2.092   1.596  17.067 -0.0878 -0.2204  0.6810
 7025SOL    HW132711   2.136   1.659  17.010 -4.0303  1.3352 -0.6058
 7025SOL    HW232712   2.026   1.655  17.103  0.7651  0.0267  1.8302
 7026SOL     OW32713   2.211   3.642   5.917  0.1078  0.0619 -0.1963
 7026SOL    HW132714   2.166   3.610   5.839  2.0481 -0.3635 -1.1304
 7026SOL    HW232715   2.234   3.731   5.888 -0.7686  0.1636 -0.5852
 7027SOL     OW32716   1.304   0.231   6.609 -0.4399  0.1659 -0.2844
 7027SOL    HW132717   1.348   0.165   6.555  0.9396  1.5674 -0.8735
 7027SOL    HW232718   1.307   0.308   6.552 -1.6155  1.1887  1.0252
 7028SOL     OW32719   0.656   3.690   4.193  0.3662  0.1868  0.0134
 7028SOL    HW132720   0.675   3.616   4.252  0.6965 -0.1045 -0.4520
 7028SOL    HW232721   0.700   3.762   4.238 -0.3442 -0.9651  2.5541
 7029SOL     OW32722   1.650   2.511  13.286  0.6623 -0.2573  0.1597
 7029SOL    HW132723   1.623   2.481  13.373 -0.7116 -0.0377 -0.1819
 7029SOL    HW232724   1.741   2.482  13.284  0.1974 -1.6100 -1.0937
 7030SOL     OW32725   0.049   3.609  17.313 -0.6734  0.6150  0.0647
 7030SOL    HW132726   0.142   3.590  17.303 -1.0751 -0.6860 -1.1050
 7030SOL    HW232727   0.005   3.524  17.315  0.9936 -0.2128  1.1755
 7031SOL     OW32728   4.699   1.806   3.228  0.1915  0.6701  0.3293
 7031SOL    HW132729   0.010   1.785   3.310 -0.5899 -0.7251  0.4058
 7031SOL    HW232730   4.611   1.831   3.255 -0.1461 -1.2537  1.0842
 7032SOL     OW32731   4.505   3.280  13.394 -0.4150 -0.6296 -0.0183
 7032SOL    HW132732   4.581   3.224  13.377  0.3337  0.1362  0.8262
 7032SOL    HW232733   4.432   3.219  13.385 -1.5232  0.8903 -1.1675
 7033SOL     OW32734   2.038   3.115  11.874  0.3512  0.1667 -0.3549
 7033SOL    HW132735   1.949   3.082  11.882  0.1941  0.6442 -0.1649
 7033SOL    HW232736   2.039   3.172  11.951  0.8846  3.1570 -2.5991
 7034SOL     OW32737   3.188   4.155   1.949 -0.1256 -0.2755 -0.3349
 7034SOL    HW132738   3.266   4.136   2.001  0.0892  1.2925 -0.0593
 7034SOL    HW232739   3.170   4.073   1.904  1.8893 -0.5890 -0.5407
 7035SOL     OW32740   0.510   3.788   9.506  0.3785  0.2254 -0.0409
 7035SOL    HW132741   0.416   3.794   9.487  0.2459  0.6236  0.7343
 7035SOL    HW232742   0.524   3.882   9.518 -3.2893  0.8391 -0.4664
 7036SOL     OW32743   3.782   0.609   8.779 -0.3440  0.3577 -0.3434
 7036SOL    HW132744   3.804   0.556   8.856  1.5065  1.5928  0.0030
 7036SOL    HW232745   3.864   0.657   8.769 -0.3095  0.1016 -1.2800
 7037SOL     OW32746   0.738   1.679   9.278 -0.2054  0.7516 -0.0699
 7037SOL    HW132747   0.651   1.675   9.239 -0.3823  1.2685  0.2735
 7037SOL    HW232748   0.771   1.759   9.237  2.0129  0.4364  1.0956
 7038SOL     OW32749   1.709   3.347  14.955  0.1339  0.1918  0.6298
 7038SOL    HW132750   1.629   3.300  14.931 -0.1130  1.9566 -2.0505
 7038SOL    HW232751   1.695   3.432  14.914  0.3184  0.4387  1.0757
 7039SOL     OW32752   2.887   0.141   4.483 -0.4446 -0.1594 -0.2669
 7039SOL    HW132753   2.880   0.186   4.399  1.9421 -2.1686 -1.5751
 7039SOL    HW232754   2.981   0.123   4.491 -0.9046 -2.6281 -0.2995
 7040SOL     OW32755   1.852   3.438   1.675 -0.5221 -0.2878 -0.0709
 7040SOL    HW132756   1.860   3.373   1.606  0.5097 -2.9547  2.5417
 7040SOL    HW232757   1.838   3.517   1.623 -3.0089 -1.2157 -0.7707
 7041SOL     OW32758   2.888   2.423   1.638  0.4003 -0.4390 -0.1472
 7041SOL    HW132759   2.817   2.369   1.670  1.4869 -1.5070  0.4452
 7041SOL    HW232760   2.950   2.357   1.606 -1.1693 -1.4540 -1.1113
 7042SOL     OW32761   2.847   3.641  12.756  0.0294  0.6377 -0.4417
 7042SOL    HW132762   2.832   3.664  12.848  0.4052  1.1482 -0.5040
 7042SOL    HW232763   2.882   3.552  12.752 -1.6347 -0.1008  1.5360
 7043SOL     OW32764   2.584   2.154   9.177  0.4979 -0.0203  0.0898
 7043SOL    HW132765   2.509   2.199   9.216  0.0781  0.2611 -1.0462
 7043SOL    HW232766   2.545   2.086   9.122 -0.2949 -0.2012  0.8649
 7044SOL     OW32767   1.647   3.489  14.313  0.4364  0.2922 -0.6720
 7044SOL    HW132768   1.591   3.474  14.237 -1.0858 -0.3593  0.5462
 7044SOL    HW232769   1.698   3.566  14.290 -1.1710  1.3328 -0.7237
 7045SOL     OW32770   3.822   4.282  17.370 -0.1508 -0.3411  0.4016
 7045SOL    HW132771   3.742   4.232  17.384 -1.1783  0.5653 -2.1474
 7045SOL    HW232772   3.885   4.210  17.369  0.5910  0.3181 -1.0389
 7046SOL     OW32773   2.231   0.467   9.157 -0.4734 -0.2067 -0.4101
 7046SOL    HW132774   2.291   0.403   9.120  0.4385 -0.8489  2.2054
 7046SOL    HW232775   2.149   0.454   9.109 -0.3608 -1.9344 -0.1016
 7047SOL     OW32776   2.534   1.994   4.233  0.0754  0.0443 -0.0471
 7047SOL    HW132777   2.555   1.931   4.301 -0.3242 -1.4637 -1.3233
 7047SOL    HW232778   2.439   2.003   4.247  0.1241 -0.3821  0.5270
 7048SOL     OW32779   0.409   0.863  12.172 -0.0581  0.5473 -0.0381
 7048SOL    HW132780   0.494   0.886  12.208 -1.0115  1.5400  1.5850
 7048SOL    HW232781   0.440   0.785  12.127  1.9664  0.1391  2.1094
 7049SOL     OW32782   1.333   4.108   3.861  0.0974  0.1515 -0.5951
 7049SOL    HW132783   1.359   4.026   3.902 -0.3465  0.9114  1.2050
 7049SOL    HW232784   1.258   4.069   3.816  0.8691  0.6749 -2.3490
 7050SOL     OW32785   2.962   1.203   3.540 -0.5874  0.4754  0.3052
 7050SOL    HW132786   2.942   1.291   3.506  0.7016 -0.2703 -2.3364
 7050SOL    HW232787   2.886   1.153   3.509  0.2926 -2.7526  3.4237
 7051SOL     OW32788   4.610   0.528   4.569  0.1139 -0.3090  0.2449
 7051SOL    HW132789   4.676   0.581   4.614  1.4425 -3.4970  2.0671
 7051SOL    HW232790   4.565   0.593   4.516 -1.1667 -2.4070 -1.2342
 7052SOL     OW32791   2.084   2.014  11.992  0.4013  0.7186 -0.1291
 7052SOL    HW132792   2.016   1.996  11.928 -0.2554 -1.3296  1.1677
 7052SOL    HW232793   2.028   2.056  12.057 -0.3332 -1.0098  0.3431
 7053SOL     OW32794   0.973   1.882  14.363  0.3703 -0.8634 -0.4074
 7053SOL    HW132795   1.061   1.871  14.399 -0.4631 -1.4719  1.4349
 7053SOL    HW232796   0.992   1.872  14.269 -0.1798 -2.3789 -0.3538
 7054SOL     OW32797   1.116   1.640   7.515 -0.8169  0.9495  0.2976
 7054SOL    HW132798   1.174   1.681   7.579  0.7166 -1.1267  0.2486
 7054SOL    HW232799   1.103   1.555   7.557  1.9560 -1.0671 -2.9224
 7055SOL     OW32800   3.796   0.022   5.433  0.0329  0.0354 -0.4032
 7055SOL    HW132801   3.801   0.066   5.348 -2.4753 -1.1785 -1.1766
 7055SOL    HW232802   3.752   0.088   5.487  0.6290 -0.3168  0.5050
 7056SOL     OW32803   3.905   4.342   4.409 -0.1549 -0.2242  0.4912
 7056SOL    HW132804   3.839   4.385   4.354 -1.2495  0.4727  2.3602
 7056SOL    HW232805   3.853   4.303   4.479 -2.8392 -0.4023 -1.6149
 7057SOL     OW32806   3.903   2.499  11.864  0.5919 -0.0252  0.1651
 7057SOL    HW132807   3.937   2.416  11.829 -0.4162 -1.8479  3.5265
 7057SOL    HW232808   3.810   2.487  11.843  0.7526 -0.8835 -0.0718
 7058SOL     OW32809   4.572   0.343   6.569  0.3328  0.0227  0.2842
 7058SOL    HW132810   4.572   0.267   6.627  0.0066  2.3294  3.3250
 7058SOL    HW232811   4.544   0.311   6.483  0.1668 -0.3764  0.4886
 7059SOL     OW32812   2.977   2.366   0.323 -0.3509  0.0623 -0.0474
 7059SOL    HW132813   2.949   2.338   0.410  1.3097 -0.3896  0.3574
 7059SOL    HW232814   2.915   2.318   0.268  0.0685 -1.7326  1.0380
 7060SOL     OW32815   1.954   2.649   3.881 -0.7151  0.4941 -0.0041
 7060SOL    HW132816   1.949   2.599   3.963 -1.4688  2.3491  1.0538
 7060SOL    HW232817   1.952   2.587   3.808  1.5491 -0.6397  0.8797
 7061SOL     OW32818   2.924   3.061   6.637  0.8080  0.1909 -0.6617
 7061SOL    HW132819   2.959   2.989   6.584 -0.0045  0.6300 -1.8044
 7061SOL    HW232820   2.945   3.044   6.729  0.8847  2.3167 -0.2670
 7062SOL     OW32821   2.476   4.729   9.686 -0.0006 -0.5271  0.1163
 7062SOL    HW132822   2.456   4.640   9.716  0.9772 -0.5600  0.6737
 7062SOL    HW232823   2.502   4.702   9.598  0.2476 -1.7497  0.5655
 7063SOL     OW32824   2.454   3.726   7.570  0.0059  0.1532  0.1859
 7063SOL    HW132825   2.404   3.701   7.648 -0.4667  2.8868  0.7655
 7063SOL    HW232826   2.412   3.687   7.494  0.6713  1.9269 -1.0940
 7064SOL     OW32827   3.772   1.498  15.064 -0.2970  0.2879  0.9297
 7064SOL    HW132828   3.739   1.553  15.135 -2.3344  0.2618  0.0161
 7064SOL    HW232829   3.808   1.434  15.125 -2.4089 -1.0755  0.7672
 7065SOL     OW32830   2.035   4.245   9.365  0.0020 -0.0293  0.1411
 7065SOL    HW132831   1.946   4.269   9.339 -0.1538 -0.0067  0.7147
 7065SOL    HW232832   2.045   4.316   9.428 -0.1282  0.5130 -0.4390
 7066SOL     OW32833   0.330   2.479   6.774 -0.5061  0.4812 -0.1069
 7066SOL    HW132834   0.401   2.534   6.740 -0.0553  0.0624  0.1540
 7066SOL    HW232835   0.338   2.395   6.728  0.0494  1.4948 -1.8515
 7067SOL     OW32836   0.070   2.211   4.921 -0.7229  0.1335  0.0148
 7067SOL    HW132837   0.020   2.134   4.949  0.6810 -0.7026  0.1893
 7067SOL    HW232838   0.036   2.221   4.833  0.9806  0.1444 -0.6355
 7068SOL     OW32839   4.549   3.052   1.152 -0.4769 -0.1921 -0.3019
 7068SOL    HW132840   4.464   3.080   1.118 -1.1907 -1.5194  0.3934
 7068SOL    HW232841   4.604   3.110   1.100  0.4568  0.3705  1.3080
 7069SOL     OW32842   4.182   1.458   8.281 -0.3269  0.0674  0.8400
 7069SOL    HW132843   4.226   1.374   8.270  1.1957  1.2510 -1.9905
 7069SOL    HW232844   4.156   1.481   8.192  2.4855  1.3617  0.3553
 7070SOL     OW32845   4.085   2.340   1.995 -0.1522 -0.4672 -0.5181
 7070SOL    HW132846   4.041   2.420   1.967 -0.7180 -0.2744  0.8957
 7070SOL    HW232847   4.033   2.319   2.073 -0.2632 -1.3048 -0.8128
 7071SOL     OW32848   0.715   0.442   2.987  0.5390  0.0231  0.1309
 7071SOL    HW132849   0.806   0.471   2.979  0.7662 -1.3411 -2.1510
 7071SOL    HW232850   0.718   0.420   3.080  0.6821 -0.5851 -0.0219
 7072SOL     OW32851   0.124   3.653   3.848 -0.0755 -0.8452  0.3059
 7072SOL    HW132852   0.116   3.710   3.771 -0.2068  0.4363  1.2630
 7072SOL    HW232853   0.198   3.598   3.825 -0.8676 -1.9339  0.3562
 7073SOL     OW32854   0.588   1.391   2.811 -0.6055 -0.2911  0.0094
 7073SOL    HW132855   0.653   1.392   2.881 -0.7833  0.7198  0.1681
 7073SOL    HW232856   0.621   1.464   2.757  1.9225 -0.0167  1.8838
 7074SOL     OW32857   2.509   4.259   3.943 -0.3663  0.5503  0.0076
 7074SOL    HW132858   2.498   4.348   3.975 -2.2699  1.0005 -1.8979
 7074SOL    HW232859   2.488   4.275   3.851 -0.6650  0.6675  0.0978
 7075SOL     OW32860   1.940   1.724   4.295  0.2827 -0.6002 -0.1196
 7075SOL    HW132861   1.978   1.797   4.344  1.1201 -0.1160 -1.4717
 7075SOL    HW232862   2.012   1.661   4.294  1.2790  0.5625 -1.6880
 7076SOL     OW32863   1.583   1.251   7.045  0.5513  0.1779  0.9825
 7076SOL    HW132864   1.675   1.224   7.053  0.4277 -0.3202  0.7108
 7076SOL    HW232865   1.533   1.172   7.067 -0.9672  0.8140 -0.1839
 7077SOL     OW32866   1.189   0.071  10.742  0.1090 -0.3262  0.0655
 7077SOL    HW132867   1.170   0.163  10.761  0.4104  0.6140 -4.3618
 7077SOL    HW232868   1.143   0.036  10.819  0.0404 -1.3029 -0.4253
 7078SOL     OW32869   0.749   0.651  11.145 -0.7524 -0.1726  0.8823
 7078SOL    HW132870   0.695   0.607  11.080  0.1832  0.6604 -0.4592
 7078SOL    HW232871   0.762   0.571  11.196  1.7736  0.4872  1.2859
 7079SOL     OW32872   1.448   0.224   9.183 -0.2977  0.5756  0.0865
 7079SOL    HW132873   1.543   0.239   9.192 -0.3080  0.7156 -0.0298
 7079SOL    HW232874   1.413   0.313   9.177 -0.8499  0.1836 -2.5529
 7080SOL     OW32875   2.958   2.748   2.706 -0.1125  0.1719 -0.1376
 7080SOL    HW132876   2.950   2.838   2.674  1.3150  0.1079 -0.6598
 7080SOL    HW232877   3.050   2.736   2.682 -1.0687 -2.1223 -2.6437
 7081SOL     OW32878   3.604   2.414   5.611  1.0155  0.1751  0.2756
 7081SOL    HW132879   3.558   2.367   5.541  1.3923 -0.9533  0.7929
 7081SOL    HW232880   3.634   2.499   5.578  1.3673 -0.0134  0.1102
 7082SOL     OW32881   4.435   0.317   2.134 -0.1990 -0.1198 -0.2150
 7082SOL    HW132882   4.491   0.282   2.204  0.8828 -1.1888 -1.6252
 7082SOL    HW232883   4.500   0.309   2.064 -0.7297  1.8786 -0.9513
 7083SOL     OW32884   3.534   3.719   1.815  0.1915  0.5753  0.3176
 7083SOL    HW132885   3.567   3.636   1.851  1.6577  0.8265 -0.4658
 7083SOL    HW232886   3.597   3.736   1.746 -1.1836 -0.2935 -1.1582
 7084SOL     OW32887   2.148   3.029   5.283  0.4650  0.4292 -0.5072
 7084SOL    HW132888   2.208   2.955   5.296 -2.1275 -1.6821 -0.6018
 7084SOL    HW232889   2.206   3.103   5.302 -0.7934  0.9242  1.3928
 7085SOL     OW32890   0.227   4.236   7.559 -0.0892  0.2695  0.1540
 7085SOL    HW132891   0.211   4.313   7.613  0.0419  1.0014 -0.8331
 7085SOL    HW232892   0.147   4.233   7.506  1.2318  0.9240 -1.9232
 7086SOL     OW32893   4.135   4.380   3.872 -0.0272  0.0278 -0.0695
 7086SOL    HW132894   4.040   4.390   3.879  0.2514  3.2877 -0.7482
 7086SOL    HW232895   4.175   4.434   3.804 -1.5944  0.2084 -0.8587
 7087SOL     OW32896   4.592   1.818   9.010 -0.1086  0.2641  0.3330
 7087SOL    HW132897   4.502   1.834   8.982  0.2053 -0.2644 -0.9778
 7087SOL    HW232898   4.616   1.758   8.939 -0.6203  0.7363 -0.2332
 7088SOL     OW32899   3.202   0.112   1.838  0.0771  0.1468  0.5930
 7088SOL    HW132900   3.137   0.064   1.787  0.5178  0.4414 -0.2425
 7088SOL    HW232901   3.261   0.126   1.765 -0.1386 -0.4534  0.2997
 7089SOL     OW32902   0.716   2.453   5.690 -0.4478 -0.2762  0.0926
 7089SOL    HW132903   0.794   2.497   5.657 -0.9443 -0.4737 -1.3605
 7089SOL    HW232904   0.672   2.522   5.739 -1.1310 -0.9146  0.3825
 7090SOL     OW32905   0.683   2.310   9.894  0.5518  0.3839  0.1121
 7090SOL    HW132906   0.615   2.376   9.908 -0.8761 -0.4654 -2.7969
 7090SOL    HW232907   0.768   2.354   9.897  0.9407 -0.2972 -0.9128
 7091SOL     OW32908   2.137   3.130   7.936 -0.0462  0.2921 -0.4508
 7091SOL    HW132909   2.230   3.149   7.951  0.3423 -1.4382 -0.6946
 7091SOL    HW232910   2.124   3.200   7.872 -0.5897  1.1810  0.6248
 7092SOL     OW32911   0.662   3.418   3.955  0.0859 -0.5540  0.2963
 7092SOL    HW132912   0.623   3.409   3.868  1.9368 -1.4713 -0.4192
 7092SOL    HW232913   0.721   3.493   3.956  1.3058 -1.4943 -2.0053
 7093SOL     OW32914   0.307   4.628   5.215 -0.4318  0.3419 -0.3065
 7093SOL    HW132915   0.318   4.659   5.305  0.3894  0.1048 -0.3257
 7093SOL    HW232916   0.249   4.553   5.231  2.0126 -1.1234  1.6380
 7094SOL     OW32917   3.231   1.685   5.035  0.3724 -0.0685 -0.2562
 7094SOL    HW132918   3.317   1.717   5.064  0.9755 -0.7820 -1.2827
 7094SOL    HW232919   3.180   1.712   5.112 -0.0928  1.5495 -1.1406
 7095SOL     OW32920   4.326   4.387   3.074  0.1452 -0.2470 -0.3341
 7095SOL    HW132921   4.257   4.355   3.015 -0.7080  4.5912 -1.9937
 7095SOL    HW232922   4.340   4.469   3.027  1.6678 -0.9317 -1.0455
 7096SOL     OW32923   3.404   2.261  13.384  0.4611 -0.1241 -0.7125
 7096SOL    HW132924   3.328   2.318  13.390 -0.3814 -1.4137  1.0109
 7096SOL    HW232925   3.462   2.322  13.339  0.7960 -0.0518 -0.1872
 7097SOL     OW32926   3.513   1.034  12.085  0.2721  0.0561 -0.2396
 7097SOL    HW132927   3.561   1.036  12.167 -1.8482  1.6781  0.9619
 7097SOL    HW232928   3.425   1.026  12.121 -0.4625  2.4504 -1.4879
 7098SOL     OW32929   2.272   2.234   7.823  0.4065  0.2466  0.4839
 7098SOL    HW132930   2.319   2.172   7.878 -1.9388 -1.6184  0.3645
 7098SOL    HW232931   2.345   2.281   7.782 -0.4158  0.2293 -0.9920
 7099SOL     OW32932   2.383   1.469  15.580  0.2700  0.0763 -0.2866
 7099SOL    HW132933   2.404   1.406  15.511  2.0268  1.0900 -0.6605
 7099SOL    HW232934   2.441   1.435  15.648 -1.1463  0.5889  1.1945
 7100SOL     OW32935   1.547   3.412  16.865 -0.3764 -0.0446  0.0635
 7100SOL    HW132936   1.464   3.398  16.820 -1.0455  0.3724  1.1572
 7100SOL    HW232937   1.514   3.472  16.932  0.0835 -1.0251  1.1776
 7101SOL     OW32938   3.671   2.004   9.320  0.4665  0.0031  0.5079
 7101SOL    HW132939   3.592   1.967   9.359  0.2922  0.3412  0.4738
 7101SOL    HW232940   3.659   2.093   9.355 -0.3409  0.7947 -1.7642
 7102SOL     OW32941   1.702   0.495   4.211 -0.0017 -0.1456  0.2867
 7102SOL    HW132942   1.747   0.464   4.290  1.1896 -0.7770 -0.6301
 7102SOL    HW232943   1.767   0.483   4.141 -0.2285 -1.8493  0.3697
 7103SOL     OW32944   4.433   1.798   1.548  0.1656  0.3926 -0.0609
 7103SOL    HW132945   4.454   1.888   1.572  2.0584  0.1852 -0.8857
 7103SOL    HW232946   4.339   1.806   1.535  0.4637 -0.7692 -3.1782
 7104SOL     OW32947   0.621   0.520   4.826  0.1714 -0.4200  0.5094
 7104SOL    HW132948   0.586   0.590   4.771  1.3848 -0.4735 -0.3335
 7104SOL    HW232949   0.585   0.443   4.782  0.0486 -0.6703  1.0534
 7105SOL     OW32950   3.542   0.602   0.161 -0.2688  0.8952 -0.2971
 7105SOL    HW132951   3.524   0.558   0.077  0.0242 -2.3725  1.3272
 7105SOL    HW232952   3.455   0.594   0.200 -0.4844 -0.5316 -1.0175
 7106SOL     OW32953   4.014   3.580   4.492 -0.3187 -0.0127 -0.2950
 7106SOL    HW132954   4.008   3.644   4.563  2.1079 -1.2605  1.0703
 7106SOL    HW232955   3.933   3.531   4.509  0.1396 -0.0558  1.8377
 7107SOL     OW32956   3.087   1.680   8.543  0.0145  0.5097  0.7837
 7107SOL    HW132957   3.093   1.760   8.492 -1.6673 -0.7035 -1.3106
 7107SOL    HW232958   3.041   1.623   8.482  1.7058 -0.0048 -0.0253
 7108SOL     OW32959   0.176   3.938   0.834 -0.3186 -0.2167 -0.5115
 7108SOL    HW132960   0.086   3.955   0.861 -0.8508 -0.9839 -1.8225
 7108SOL    HW232961   0.212   4.008   0.889 -0.3112 -0.5752 -0.0607
 7109SOL     OW32962   1.504   0.719   7.601  0.3376 -0.3597 -0.4909
 7109SOL    HW132963   1.452   0.788   7.561  1.1619  0.7597  0.3742
 7109SOL    HW232964   1.432   0.660   7.622 -0.5237  0.6290 -0.6840
 7110SOL     OW32965   3.168   2.091   8.964  0.0748  0.9035 -0.1819
 7110SOL    HW132966   3.087   2.136   8.941  0.1456  0.5272 -1.1703
 7110SOL    HW232967   3.219   2.096   8.883 -1.1065 -0.4339 -0.9967
 7111SOL     OW32968   0.961   2.492   3.575  0.1889  0.0632  0.5091
 7111SOL    HW132969   0.912   2.433   3.519  0.5395  0.8201 -0.6035
 7111SOL    HW232970   0.907   2.571   3.563 -0.0293 -0.0401  0.8110
 7112SOL     OW32971   3.087   0.538   7.877  0.4616 -0.4213  0.1660
 7112SOL    HW132972   3.078   0.444   7.859 -2.6045 -0.0326 -0.2853
 7112SOL    HW232973   3.114   0.572   7.791 -0.3718 -1.7018 -0.5969
 7113SOL     OW32974   2.501   0.767   5.014  0.3516 -0.3132  0.0712
 7113SOL    HW132975   2.501   0.835   4.947 -1.0700 -0.7928 -0.4211
 7113SOL    HW232976   2.422   0.720   4.987  0.1469  0.3091 -0.3951
 7114SOL     OW32977   1.784   4.073   1.879  0.2688 -0.1576  0.3061
 7114SOL    HW132978   1.806   4.165   1.890 -0.3096 -0.1166  1.1626
 7114SOL    HW232979   1.840   4.034   1.947 -0.0472 -0.3074  0.4818
 7115SOL     OW32980   3.244   3.750   8.713  0.1226  0.0399 -0.1434
 7115SOL    HW132981   3.271   3.834   8.674  1.6828 -0.7376 -0.7218
 7115SOL    HW232982   3.159   3.785   8.741  0.2682  0.4409 -0.1930
 7116SOL     OW32983   0.198   3.789  11.785 -0.3415 -0.1970 -0.5414
 7116SOL    HW132984   0.104   3.806  11.786 -0.5275 -1.2588 -0.1758
 7116SOL    HW232985   0.202   3.736  11.706  1.6273  0.7515 -1.0812
 7117SOL     OW32986   0.493   0.570   3.396 -0.3353 -0.6882  0.1939
 7117SOL    HW132987   0.510   0.504   3.463 -1.3119 -2.0420 -0.9060
 7117SOL    HW232988   0.513   0.654   3.437  1.9186 -1.9786  1.7083
 7118SOL     OW32989   1.826   2.486  13.956  0.1687 -0.3600  0.0842
 7118SOL    HW132990   1.828   2.582  13.963  3.6901 -0.3766 -0.9527
 7118SOL    HW232991   1.832   2.476  13.862 -0.8435  1.5222 -0.1822
 7119SOL     OW32992   3.174   0.491   0.922 -0.2572  0.6855  0.1125
 7119SOL    HW132993   3.102   0.428   0.916 -1.0844  1.3275  3.3436
 7119SOL    HW232994   3.134   0.561   0.973  0.5504  1.3232 -0.1459
 7120SOL     OW32995   2.798   3.750  13.003  0.0405  0.3221  0.2958
 7120SOL    HW132996   2.814   3.745  13.097  1.5427  0.2897  0.0523
 7120SOL    HW232997   2.832   3.839  12.995 -0.1733  0.4529  0.8685
 7121SOL     OW32998   3.665   4.441   7.781 -0.4516  0.6700  0.4021
 7121SOL    HW132999   3.603   4.392   7.835  0.0148 -1.5356 -1.0332
 7121SOL    HW233000   3.638   4.528   7.810  1.3953  1.2504  0.3785
 7122SOL     OW33001   3.793   3.386   6.966  0.3034 -0.2404 -0.0664
 7122SOL    HW133002   3.720   3.376   7.027 -0.3316  1.7556 -0.4937
 7122SOL    HW233003   3.737   3.397   6.889  1.5302  1.9916 -0.6583
 7123SOL     OW33004   3.049   0.596   6.947 -0.2169 -0.1367 -0.8903
 7123SOL    HW133005   3.066   0.689   6.930  0.1006  0.0464  0.3855
 7123SOL    HW233006   2.967   0.595   6.898 -1.5286  2.4717  1.2394
 7124SOL     OW33007   1.391   0.182  15.549  0.2643 -0.0387  0.0268
 7124SOL    HW133008   1.318   0.172  15.489  1.0672 -0.1629 -0.9251
 7124SOL    HW233009   1.451   0.212  15.481 -0.9463  1.4558 -0.3792
 7125SOL     OW33010   1.932   1.362   8.285  0.3634 -0.2014 -0.4970
 7125SOL    HW133011   1.873   1.370   8.360  2.8428  1.7819  1.2229
 7125SOL    HW233012   1.982   1.443   8.293 -0.4010  0.2215  0.1068
 7126SOL     OW33013   1.895   2.923  14.831 -0.0817  0.4938  0.0741
 7126SOL    HW133014   1.891   2.933  14.926 -0.1500  1.7956 -0.0732
 7126SOL    HW233015   1.837   2.847  14.825 -2.5289  2.3540  0.0918
 7127SOL     OW33016   4.443   3.249   6.078 -0.0125 -0.1737  0.4529
 7127SOL    HW133017   4.484   3.277   5.996 -1.4416  0.8390  0.0825
 7127SOL    HW233018   4.520   3.220   6.126  0.5491  1.4483  0.5072
 7128SOL     OW33019   1.842   1.923   9.128  0.0482 -0.3755 -0.5307
 7128SOL    HW133020   1.880   1.835   9.123  0.2411 -0.2374 -1.4773
 7128SOL    HW233021   1.748   1.907   9.119 -0.2286  2.1268 -2.1008
 7129SOL     OW33022   3.935   1.624  14.433 -0.0151 -0.1341  0.2418
 7129SOL    HW133023   4.009   1.656  14.382 -2.0580  1.5288 -1.7185
 7129SOL    HW233024   3.874   1.695  14.413  1.7687  0.8579 -1.6042
 7130SOL     OW33025   3.051   3.116  17.493  0.0304 -0.2431  0.4374
 7130SOL    HW133026   3.024   3.026  17.474  1.5049 -0.6077  0.0579
 7130SOL    HW233027   2.975   3.164  17.461  0.0169 -2.0279 -2.2317
 7131SOL     OW33028   4.149   3.598   3.737  0.4488 -0.1427 -0.1502
 7131SOL    HW133029   4.216   3.604   3.669 -0.6289  0.3774 -1.1614
 7131SOL    HW233030   4.067   3.619   3.693 -0.0020 -0.7697  0.4115
 7132SOL     OW33031   3.061   4.592   4.368 -0.5230  0.1528 -0.2849
 7132SOL    HW133032   3.154   4.597   4.344 -0.5635  1.6676 -0.1525
 7132SOL    HW233033   3.024   4.644   4.297 -1.6325  1.5555  1.3240
 7133SOL     OW33034   3.433   2.101   5.097  0.4819  0.0096  0.5375
 7133SOL    HW133035   3.433   2.007   5.117  0.1007  0.2519  1.6463
 7133SOL    HW233036   3.373   2.101   5.023  1.1298  0.8237  0.0222
 7134SOL     OW33037   2.141   1.489   3.963 -0.1786  0.2469 -0.5493
 7134SOL    HW133038   2.148   1.568   3.910  1.1514  0.2918 -0.3096
 7134SOL    HW233039   2.157   1.519   4.052  0.2542  2.3567 -1.3426
 7135SOL     OW33040   3.213   0.686   7.360  0.0132 -0.3143  0.1330
 7135SOL    HW133041   3.218   0.778   7.387  1.9507 -0.0733 -0.9759
 7135SOL    HW233042   3.257   0.688   7.275 -1.5494 -0.0361 -0.6718
 7136SOL     OW33043   1.522   4.009   5.977 -0.1159  0.3261  0.1586
 7136SOL    HW133044   1.602   3.995   5.927 -0.1995  0.8771 -0.1271
 7136SOL    HW233045   1.470   3.950   5.922  0.1899 -0.6665  0.9300
 7137SOL     OW33046   2.332   2.187   7.423 -0.2031 -0.4556  0.3783
 7137SOL    HW133047   2.389   2.260   7.447 -1.4340  0.7589 -0.3708
 7137SOL    HW233048   2.254   2.226   7.383  0.0423  1.9853  2.2034
 7138SOL     OW33049   0.697   1.353  11.557 -0.0065 -0.1337 -0.1241
 7138SOL    HW133050   0.729   1.346  11.467  0.3187  2.9717 -0.2539
 7138SOL    HW233051   0.769   1.392  11.607  0.6573 -0.8317 -0.5406
 7139SOL     OW33052   4.442   4.662   1.857  0.3479  0.2604 -0.8576
 7139SOL    HW133053   4.400   4.686   1.939  2.5094 -0.0899  0.3413
 7139SOL    HW233054   4.478   4.575   1.873 -0.9056 -0.1964 -0.5962
 7140SOL     OW33055   3.487   3.160   4.407  0.0083  0.1114 -0.4982
 7140SOL    HW133056   3.553   3.097   4.438  0.8066  0.1776 -2.0502
 7140SOL    HW233057   3.412   3.109   4.437  1.3238 -1.1051  0.7569
 7141SOL     OW33058   0.246   3.357   8.450  0.0572 -0.6107 -0.0409
 7141SOL    HW133059   0.331   3.335   8.413  0.7514  1.6102  0.2347
 7141SOL    HW233060   0.258   3.451   8.455  0.9837 -0.7040 -0.5696
 7142SOL     OW33061   3.300   0.565   3.854  0.0975 -0.3474  0.0711
 7142SOL    HW133062   3.382   0.594   3.813  1.2271 -0.2883  2.3404
 7142SOL    HW233063   3.310   0.567   3.949 -1.3811 -1.8617  0.2685
 7143SOL     OW33064   4.664   1.870   5.291 -0.2152 -0.0906 -0.3309
 7143SOL    HW133065   4.693   1.927   5.221  1.9197 -1.8664 -0.8834
 7143SOL    HW233066   4.595   1.923   5.332 -0.2047  1.2976 -2.1258
 7144SOL     OW33067   0.814   2.842   7.084  0.3931  0.2877  0.0068
 7144SOL    HW133068   0.893   2.870   7.130  2.0868  0.9048 -3.2994
 7144SOL    HW233069   0.771   2.923   7.055  0.0497  0.5661  1.2825
 7145SOL     OW33070   1.817   4.584   8.658 -0.4364 -0.0339 -0.5332
 7145SOL    HW133071   1.795   4.664   8.611 -0.5982 -0.9204 -1.9468
 7145SOL    HW233072   1.901   4.615   8.692 -0.8807  0.0181  0.5249
 7146SOL     OW33073   3.082   0.534   3.151 -0.0898  0.3201 -0.3439
 7146SOL    HW133074   3.166   0.575   3.131  0.3917 -0.6855 -0.4091
 7146SOL    HW233075   3.032   0.557   3.073 -1.3297  2.6033  1.1393
 7147SOL     OW33076   0.248   4.043   4.809  0.3817 -0.5303 -0.2090
 7147SOL    HW133077   0.190   4.048   4.885 -0.3101 -2.5697 -0.5802
 7147SOL    HW233078   0.190   4.015   4.738 -1.9259  1.9341  0.7216
 7148SOL     OW33079   0.872   2.102  10.772  0.1466 -0.4511 -0.0800
 7148SOL    HW133080   0.849   2.194  10.787 -0.8059 -0.8506  0.9285
 7148SOL    HW233081   0.965   2.114  10.754 -0.5713  3.8980 -0.8659
 7149SOL     OW33082   2.142   2.700   2.781  0.2021 -0.5092  0.2331
 7149SOL    HW133083   2.231   2.711   2.815  0.2172 -0.1372  0.0689
 7149SOL    HW233084   2.120   2.790   2.759 -1.0259 -0.7678  0.4362
 7150SOL     OW33085   0.802   0.425   9.381 -0.0181  0.1439  0.4859
 7150SOL    HW133086   0.770   0.394   9.465  0.2213  0.6189  0.7518
 7150SOL    HW233087   0.833   0.343   9.343  1.4121  1.1086 -0.4299
 7151SOL     OW33088   0.564   3.470   8.798 -0.0314 -0.0442  0.2374
 7151SOL    HW133089   0.601   3.552   8.766  0.2072 -0.6483 -1.0321
 7151SOL    HW233090   0.577   3.412   8.723  0.1745  1.5451 -0.9542
 7152SOL     OW33091   0.943   4.060  17.062  0.1802 -0.7417  0.1048
 7152SOL    HW133092   1.009   4.058  16.993  0.0572 -0.5222 -0.0166
 7152SOL    HW233093   0.963   4.132  17.122 -1.2278 -0.2005 -0.0974
 7153SOL     OW33094   2.984   3.922   0.848 -0.5569 -0.6491 -0.5191
 7153SOL    HW133095   2.898   3.883   0.833 -0.8413 -0.7949  1.3889
 7153SOL    HW233096   3.016   3.915   0.758  0.2300 -0.3826 -0.2623
 7154SOL     OW33097   4.233   2.097   2.238 -0.0347  0.0087 -0.2829
 7154SOL    HW133098   4.305   2.034   2.244  0.3184  0.3865 -0.5610
 7154SOL    HW233099   4.225   2.119   2.330  0.3234 -2.3427  0.3157
 7155SOL     OW33100   4.024   1.292   7.064 -0.6131  0.2598 -0.2866
 7155SOL    HW133101   3.934   1.274   7.091 -0.3334 -1.4007 -0.4930
 7155SOL    HW233102   4.030   1.202   7.031 -2.2219 -0.2276  0.7564
 7156SOL     OW33103   3.947   4.453  17.519 -0.2038 -0.1224  0.2951
 7156SOL    HW133104   3.915   4.379  17.468 -0.4902  0.5363 -0.4801
 7156SOL    HW233105   3.872   4.507  17.492  0.2690 -0.7223 -2.2609
 7157SOL     OW33106   3.890   3.874   2.593  0.6311 -0.1744  0.0477
 7157SOL    HW133107   3.851   3.787   2.583  1.1488 -0.5313  1.2303
 7157SOL    HW233108   3.811   3.907   2.637 -0.0084 -0.8145 -0.6056
 7158SOL     OW33109   1.150   4.691   8.069  0.5409  0.0897  0.4212
 7158SOL    HW133110   1.103   4.669   7.989 -0.4350 -0.4672  1.1530
 7158SOL    HW233111   1.074   4.725   8.116  0.0604 -0.0427 -0.2682
 7159SOL     OW33112   0.620   4.504   5.395 -0.2104 -0.0155 -0.6695
 7159SOL    HW133113   0.646   4.445   5.466  0.5562  0.7452 -0.3257
 7159SOL    HW233114   0.591   4.438   5.332  0.1955 -1.7050  0.9251
 7160SOL     OW33115   4.644   4.403  17.134 -0.2760  0.4498 -0.1475
 7160SOL    HW133116   4.556   4.411  17.170 -1.4599 -0.3806 -2.8648
 7160SOL    HW233117   4.621   4.365  17.049 -1.2277 -1.5994  1.0232
 7161SOL     OW33118   1.265   0.868   6.162 -0.4131  0.2457 -0.0334
 7161SOL    HW133119   1.219   0.789   6.135 -0.6789  0.2792  0.3299
 7161SOL    HW233120   1.285   0.914   6.081 -2.0185 -1.8170 -1.6033
 7162SOL     OW33121   1.701   2.738  14.801 -0.0788  0.0108 -0.3660
 7162SOL    HW133122   1.628   2.733  14.740  0.5060 -0.7548 -1.0084
 7162SOL    HW233123   1.672   2.682  14.874  1.9380  0.2193  0.6077
 7163SOL     OW33124   0.349   0.244   8.528 -0.3135 -0.2671  0.1420
 7163SOL    HW133125   0.390   0.331   8.524  0.4676 -0.6273  0.3954
 7163SOL    HW233126   0.262   0.265   8.563 -0.8917  0.0540 -1.4845
 7164SOL     OW33127   1.062   1.617  16.457 -0.3931  0.2323 -0.4128
 7164SOL    HW133128   0.984   1.659  16.420  0.0147  1.1544 -0.2243
 7164SOL    HW233129   1.017   1.576  16.531  0.1228 -1.6488 -1.1447
 7165SOL     OW33130   0.258   1.328   5.627  0.0273 -0.2548 -0.2256
 7165SOL    HW133131   0.336   1.308   5.575 -0.4810  0.3119 -1.2144
 7165SOL    HW233132   0.263   1.269   5.701 -0.8033 -0.4591 -0.3313
 7166SOL     OW33133   1.657   3.758   5.280  0.3295  0.0122 -0.1008
 7166SOL    HW133134   1.621   3.685   5.230 -0.4477  0.5484 -0.3143
 7166SOL    HW233135   1.657   3.824   5.211  0.7354 -0.5435 -0.6321
 7167SOL     OW33136   1.615   0.278   4.598 -0.6637  0.0075 -0.2147
 7167SOL    HW133137   1.527   0.313   4.615 -0.1758 -0.4638  3.3953
 7167SOL    HW233138   1.668   0.357   4.595 -0.4335 -0.1234  0.3482
 7168SOL     OW33139   4.009   0.051   8.923  0.3560  0.1742 -0.4512
 7168SOL    HW133140   4.097   0.057   8.962  0.1894 -2.5852  0.3520
 7168SOL    HW233141   3.950   0.078   8.993 -0.0326 -0.6734 -0.4556
 7169SOL     OW33142   4.151   4.305   5.146  0.2471 -0.6518  0.7084
 7169SOL    HW133143   4.164   4.358   5.225  0.0557 -0.4939  0.6359
 7169SOL    HW233144   4.230   4.332   5.099 -0.2906  0.6044  0.5056
 7170SOL     OW33145   3.726   1.968   0.321 -0.4542  0.1600  0.5165
 7170SOL    HW133146   3.673   1.920   0.258 -0.5982 -1.5135  1.9208
 7170SOL    HW233147   3.743   2.047   0.270 -1.3553 -0.0821 -0.1387
 7171SOL     OW33148   3.260   2.616   5.899 -0.2521  0.5628 -0.3672
 7171SOL    HW133149   3.297   2.536   5.862 -1.6082 -0.4716  0.4967
 7171SOL    HW233150   3.320   2.680   5.861  0.8132  0.0184  0.3883
 7172SOL     OW33151   4.706   0.900  16.673  0.1319  0.2591  0.3536
 7172SOL    HW133152   0.049   0.871  16.719  1.1690  1.6590 -0.5379
 7172SOL    HW233153   4.634   0.892  16.736 -1.7978  1.5228 -1.6792
 7173SOL     OW33154   1.705   2.394   0.357 -0.1929  0.2868 -0.1780
 7173SOL    HW133155   1.628   2.350   0.393  0.2577  0.5995  1.1714
 7173SOL    HW233156   1.771   2.359   0.417 -0.7675 -1.2210 -0.4443
 7174SOL     OW33157   2.385   3.884   4.918  0.1775  0.2413  0.3721
 7174SOL    HW133158   2.417   3.798   4.890  0.1030  0.4934 -0.4956
 7174SOL    HW233159   2.312   3.905   4.860  0.8916  3.1987  0.5269
 7175SOL     OW33160   1.469   3.863   2.839  0.4191 -0.1149  0.2112
 7175SOL    HW133161   1.399   3.826   2.785 -0.6377  0.7369  0.9955
 7175SOL    HW233162   1.523   3.894   2.766 -0.2076 -0.0783 -0.2432
 7176SOL     OW33163   2.569   2.833   4.706  0.6736  0.0021 -0.6489
 7176SOL    HW133164   2.629   2.758   4.709  0.0149 -0.5168 -0.5835
 7176SOL    HW233165   2.527   2.830   4.792  1.4071 -0.5647 -0.3095
 7177SOL     OW33166   1.968   2.905   5.725 -0.1550 -0.0365 -0.3258
 7177SOL    HW133167   1.907   2.965   5.768 -2.4085 -2.5925  0.0333
 7177SOL    HW233168   1.906   2.836   5.699 -0.7339  0.7695 -1.0649
 7178SOL     OW33169   3.761   0.295  13.659 -0.1254 -1.0865 -0.5265
 7178SOL    HW133170   3.806   0.214  13.684  0.2417 -0.7628 -0.1352
 7178SOL    HW233171   3.683   0.259  13.616 -0.0082  1.5594 -2.9058
 7179SOL     OW33172   4.455   0.334   1.622 -0.8576  0.0519  0.1493
 7179SOL    HW133173   4.397   0.285   1.679 -2.0335  1.1470 -0.1032
 7179SOL    HW233174   4.488   0.263   1.566 -1.2437 -0.0449  0.0491
 7180SOL     OW33175   3.928   1.855   8.834  0.1206  0.2416  0.8339
 7180SOL    HW133176   3.885   1.771   8.850 -1.7759  1.5341  2.4817
 7180SOL    HW233177   3.879   1.911   8.893 -1.0719 -0.5540  0.5936
 7181SOL     OW33178   0.904   2.343  13.830 -0.0903 -0.2504 -0.1656
 7181SOL    HW133179   0.900   2.345  13.925  0.7651  0.5542 -0.1495
 7181SOL    HW233180   0.845   2.270  13.811 -0.8039  0.2150  0.2908
 7182SOL     OW33181   1.649   1.210  13.868 -0.3807 -0.8949  0.0412
 7182SOL    HW133182   1.639   1.127  13.913  0.1685 -0.2551  1.3330
 7182SOL    HW233183   1.603   1.184  13.788 -2.5547  0.5904  0.7779
 7183SOL     OW33184   0.514   0.855   4.061  0.3905  0.0303 -0.1002
 7183SOL    HW133185   0.527   0.816   4.147 -2.9519  0.6060  0.6692
 7183SOL    HW233186   0.431   0.902   4.071  1.6557  1.9509  1.4492
 7184SOL     OW33187   3.942   0.533   7.223  0.0363 -0.0346  0.5076
 7184SOL    HW133188   3.872   0.475   7.251 -1.8764  1.7244 -0.6072
 7184SOL    HW233189   3.897   0.599   7.170  2.1687  1.1636  0.1425
 7185SOL     OW33190   4.312   2.958   7.107 -0.0796 -0.6500 -0.5056
 7185SOL    HW133191   4.353   2.991   7.187  1.7066 -0.7315 -1.4049
 7185SOL    HW233192   4.340   3.026   7.045 -1.7294 -1.2521 -1.9303
 7186SOL     OW33193   0.645   2.089   4.603  0.8493  0.3467  0.3158
 7186SOL    HW133194   0.674   2.119   4.690  1.4251 -0.3054  0.3430
 7186SOL    HW233195   0.680   2.158   4.547  0.9448 -0.3502 -0.4781
 7187SOL     OW33196   3.863   4.253   9.098 -0.0754  0.2198 -0.0343
 7187SOL    HW133197   3.824   4.171   9.127  2.3471 -0.9374 -0.1318
 7187SOL    HW233198   3.948   4.233   9.060 -0.6185 -1.9435 -0.0634
 7188SOL     OW33199   0.912   3.750  14.725  0.2272  0.5914 -0.3950
 7188SOL    HW133200   0.886   3.792  14.644 -1.2049  0.0139 -0.2264
 7188SOL    HW233201   0.984   3.807  14.753 -0.6170 -0.1939  3.4066
 7189SOL     OW33202   4.482   1.265   3.933  0.3730 -0.6411 -0.0995
 7189SOL    HW133203   4.556   1.229   3.884  1.4288  1.7683 -0.2706
 7189SOL    HW233204   4.537   1.292   4.006  0.0662 -0.6283  0.1246
 7190SOL     OW33205   2.912   1.666   7.746  0.3698 -0.7795  0.3959
 7190SOL    HW133206   2.933   1.757   7.723 -4.1507 -0.3970 -2.0620
 7190SOL    HW233207   2.912   1.627   7.659  1.0232 -0.9162  0.4598
 7191SOL     OW33208   2.613   3.755  15.192  0.1838  0.2273  0.1772
 7191SOL    HW133209   2.617   3.825  15.127  0.2179  0.4409  0.4128
 7191SOL    HW233210   2.531   3.715  15.162  0.3313 -1.5057  2.0652
 7192SOL     OW33211   2.056   4.218  17.442  0.1259  0.3446 -0.7428
 7192SOL    HW133212   1.967   4.253  17.452  0.5441  0.5571  2.4043
 7192SOL    HW233213   2.072   4.192  17.533  0.6986 -0.1748 -1.0018
 7193SOL     OW33214   3.747   3.377   6.360  0.5214 -0.3957 -0.0113
 7193SOL    HW133215   3.703   3.451   6.404 -1.3429 -1.3769 -0.2282
 7193SOL    HW233216   3.838   3.366   6.386  0.2851  2.0957  1.8535
 7194SOL     OW33217   0.605   3.727  12.224 -0.1951 -0.2971 -0.7043
 7194SOL    HW133218   0.612   3.811  12.270  0.8858 -1.9470  2.1665
 7194SOL    HW233219   0.535   3.678  12.267 -0.3134  2.7553  2.6020
 7195SOL     OW33220   3.113   4.642   4.669  0.2746  0.2145  0.3244
 7195SOL    HW133221   3.201   4.665   4.699  0.3311 -1.4893  1.4261
 7195SOL    HW233222   3.137   4.594   4.589 -0.6957  2.0461 -1.0693
 7196SOL     OW33223   3.659   3.834   1.226  0.8307 -0.2734  0.6017
 7196SOL    HW133224   3.706   3.758   1.191 -0.1313 -0.7206  0.2817
 7196SOL    HW233225   3.604   3.840   1.148  0.1880  0.5551  1.1267
 7197SOL     OW33226   2.770   4.487   4.356  0.2568 -0.0573 -0.3418
 7197SOL    HW133227   2.755   4.465   4.264 -0.6415 -0.5656 -0.0827
 7197SOL    HW233228   2.844   4.548   4.355  0.4873 -0.3057  2.0247
 7198SOL     OW33229   0.568   2.472   4.656  0.1072 -0.0110 -0.5650
 7198SOL    HW133230   0.619   2.550   4.677 -1.4010  1.2511 -1.6836
 7198SOL    HW233231   0.565   2.492   4.563 -1.8380  0.7540 -0.3374
 7199SOL     OW33232   0.331   0.925   6.979 -0.0321  0.7301 -0.1590
 7199SOL    HW133233   0.296   0.983   6.912 -1.8218 -2.5253 -2.0427
 7199SOL    HW233234   0.406   0.881   6.939  1.0127  1.5998  0.8429
 7200SOL     OW33235   1.974   2.834   7.837 -0.2815  0.0728  0.7100
 7200SOL    HW133236   1.989   2.870   7.924 -1.4315 -1.4500  1.5224
 7200SOL    HW233237   1.878   2.835   7.833 -0.4264  0.9031  4.0030
 7201SOL     OW33238   3.508   4.388  10.201 -0.7561  0.2061  0.1444
 7201SOL    HW133239   3.516   4.300  10.164 -0.3872  0.5621 -0.6193
 7201SOL    HW233240   3.581   4.390  10.263 -1.7702 -0.3578  1.3577
 7202SOL     OW33241   1.620   3.840   3.519 -0.5934  0.0090 -0.2562
 7202SOL    HW133242   1.679   3.866   3.448 -0.5160  0.6439  0.0379
 7202SOL    HW233243   1.544   3.812   3.467 -0.4577 -2.5964  0.9587
 7203SOL     OW33244   3.174   4.101   5.533 -1.0257  0.8191 -0.0308
 7203SOL    HW133245   3.091   4.075   5.573 -0.6994 -1.5851 -0.9507
 7203SOL    HW233246   3.189   4.047   5.456  1.6048  1.8156 -0.2056
 7204SOL     OW33247   3.686   0.521  10.916  0.1728 -0.1744  0.2294
 7204SOL    HW133248   3.731   0.598  10.881 -0.3889  1.6875  3.5407
 7204SOL    HW233249   3.700   0.532  11.010 -1.2311 -1.8229  0.6266
 7205SOL     OW33250   2.504   1.028   7.331  0.2161  0.6885 -0.4133
 7205SOL    HW133251   2.563   1.079   7.387 -1.5111 -0.2671  2.2660
 7205SOL    HW233252   2.556   0.948   7.323  0.1375  0.5724  0.2882
 7206SOL     OW33253   4.725   2.982  11.684  0.2057 -0.3724 -0.8202
 7206SOL    HW133254   4.732   3.077  11.672  1.9002 -0.8726 -3.9527
 7206SOL    HW233255   4.708   2.961  11.592 -0.7170 -0.7024 -0.5761
 7207SOL     OW33256   2.826   0.332   7.768  0.1953  0.0446  0.0551
 7207SOL    HW133257   2.739   0.372   7.767 -0.5573 -1.5762  0.4240
 7207SOL    HW233258   2.802   0.239   7.768 -0.3761  0.1955  0.9541
 7208SOL     OW33259   3.216   1.932   0.798 -0.5223 -0.1498 -0.4334
 7208SOL    HW133260   3.278   1.900   0.733 -1.1872 -0.7940 -0.7519
 7208SOL    HW233261   3.168   1.994   0.743 -1.9102 -0.6501  0.1938
 7209SOL     OW33262   0.035   4.189   1.283 -0.1628 -0.1754 -0.1681
 7209SOL    HW133263   0.124   4.173   1.314 -0.5310 -3.1824 -0.6693
 7209SOL    HW233264   0.059   4.257   1.221 -0.2098 -0.6955 -0.7543
 7210SOL     OW33265   2.196   1.929   6.389  0.1844 -0.1864  0.6111
 7210SOL    HW133266   2.173   2.010   6.343 -0.2557  0.1881  1.4862
 7210SOL    HW233267   2.252   1.959   6.460 -1.1686 -0.3982  1.7841
 7211SOL     OW33268   3.852   2.822   3.164 -0.1860  0.0254  0.2811
 7211SOL    HW133269   3.798   2.752   3.201 -1.0493  0.1742 -0.7030
 7211SOL    HW233270   3.923   2.823   3.229  0.8003  0.1462 -0.8017
 7212SOL     OW33271   0.311   0.608   7.062  0.1383  0.3319  0.2800
 7212SOL    HW133272   0.309   0.693   7.107 -1.9653  1.0727 -1.1817
 7212SOL    HW233273   0.269   0.642   6.983  0.5443 -0.0954 -0.1129
 7213SOL     OW33274   3.612   3.724   3.201 -0.2137 -0.2988  0.1532
 7213SOL    HW133275   3.598   3.677   3.119  0.2728  1.3331 -0.8790
 7213SOL    HW233276   3.707   3.727   3.212 -0.0405  0.9252 -1.6040
 7214SOL     OW33277   2.246   4.710  15.477  0.0511 -0.2496  0.6591
 7214SOL    HW133278   2.251   4.709  15.382  3.2153 -1.0794  0.8295
 7214SOL    HW233279   2.177   0.035  15.505 -1.3906 -1.0887 -1.1140
 7215SOL     OW33280   2.881   0.700   6.379 -0.0094  0.7653 -0.7848
 7215SOL    HW133281   2.796   0.661   6.404  2.5952 -3.4730  1.4727
 7215SOL    HW233282   2.865   0.715   6.286 -0.2973 -0.7271 -0.9795
 7216SOL     OW33283   3.343   3.090   1.358  0.4625  0.6407 -0.5124
 7216SOL    HW133284   3.340   3.005   1.314 -1.7056  0.7483 -0.5432
 7216SOL    HW233285   3.377   3.065   1.444 -0.3538 -1.0519 -0.6859
 7217SOL     OW33286   0.327   2.203   8.244 -0.5331 -0.6443 -0.0833
 7217SOL    HW133287   0.310   2.202   8.338  1.0116  0.4362  0.2031
 7217SOL    HW233288   0.285   2.282   8.209 -1.9413 -2.1177 -1.7135
 7218SOL     OW33289   3.242   4.070  16.922 -0.3155 -0.1267 -0.1151
 7218SOL    HW133290   3.271   4.161  16.929  0.1785 -0.4330  1.6828
 7218SOL    HW233291   3.257   4.027  17.006  0.7231  3.3208  1.4874
 7219SOL     OW33292   3.017   2.850   4.237  0.5040 -0.2056  0.0909
 7219SOL    HW133293   2.973   2.892   4.311  1.9636 -0.3344  1.0499
 7219SOL    HW233294   3.039   2.773   4.289 -2.0490  0.7972  2.6388
 7220SOL     OW33295   0.259   2.887   2.291 -0.6261 -0.5394 -0.1416
 7220SOL    HW133296   0.242   2.849   2.377  0.4458  0.9838  0.7538
 7220SOL    HW233297   0.189   2.837   2.250 -1.5543  1.7443 -1.3561
 7221SOL     OW33298   0.244   4.431   5.525  0.1096 -0.1563 -0.5759
 7221SOL    HW133299   0.159   4.416   5.483 -0.2070 -0.2900  0.1258
 7221SOL    HW233300   0.254   4.344   5.565 -2.4835  0.7221  1.9707
 7222SOL     OW33301   2.626   4.331   5.846  0.2215 -0.4722 -0.3456
 7222SOL    HW133302   2.571   4.408   5.831 -1.2872 -1.4988 -0.0333
 7222SOL    HW233303   2.656   4.307   5.758 -1.3142  1.4992 -1.4254
 7223SOL     OW33304   3.695   2.590   6.566  0.4180 -0.3358 -0.9957
 7223SOL    HW133305   3.728   2.506   6.599 -1.5569 -0.3426  0.9443
 7223SOL    HW233306   3.623   2.597   6.629  0.9063 -1.4649 -0.3021
 7224SOL     OW33307   2.910   1.132   9.230  0.5923 -0.3336 -0.3144
 7224SOL    HW133308   2.841   1.143   9.295  1.2510  1.0546  0.1447
 7224SOL    HW233309   2.915   1.218   9.189 -0.6644 -0.8633 -1.5564
 7225SOL     OW33310   2.654   2.916   6.673 -0.0967  0.5699  0.5451
 7225SOL    HW133311   2.711   2.944   6.601 -0.8519  1.5940  0.3346
 7225SOL    HW233312   2.719   2.890   6.738 -2.4492 -1.1898  2.2241
 7226SOL     OW33313   0.183   1.340   9.616 -0.6877  0.7477  0.0424
 7226SOL    HW133314   0.230   1.350   9.533  2.4037 -0.1133  1.6750
 7226SOL    HW233315   0.251   1.290   9.662 -3.9813 -1.1891  2.7287
 7227SOL     OW33316   0.947   1.262   2.767 -0.9515  0.8820  0.2165
 7227SOL    HW133317   0.984   1.305   2.690 -1.5183 -1.3698 -1.3040
 7227SOL    HW233318   1.015   1.280   2.833  2.7759  0.6747 -3.5427
 7228SOL     OW33319   4.499   2.336   9.338  0.2204 -0.1229  0.1231
 7228SOL    HW133320   4.508   2.363   9.246 -1.2062 -1.4166 -0.3996
 7228SOL    HW233321   4.591   2.340   9.364  0.8594 -0.7883 -2.0057
 7229SOL     OW33322   2.239   4.529   5.755  0.1430 -0.0948 -0.4525
 7229SOL    HW133323   2.167   4.540   5.692  0.2170 -0.0852 -0.5360
 7229SOL    HW233324   2.195   4.475   5.820  1.0496 -1.8705 -1.3285
 7230SOL     OW33325   4.144   2.494   6.422 -0.1240  0.0321  0.4255
 7230SOL    HW133326   4.199   2.457   6.353 -0.1821  0.1963  0.2898
 7230SOL    HW233327   4.074   2.430   6.413  2.3846 -2.3552 -2.3009
 7231SOL     OW33328   4.421   4.630   6.361 -0.4675 -0.0787  0.3662
 7231SOL    HW133329   4.478   4.667   6.293 -1.3176  1.8820  0.6978
 7231SOL    HW233330   4.459   4.670   6.439  1.6802  0.4593 -0.9652
 7232SOL     OW33331   3.864   2.627  12.425  0.0222 -0.2615 -0.2147
 7232SOL    HW133332   3.952   2.664  12.433  1.4888 -3.2581 -2.6493
 7232SOL    HW233333   3.888   2.545  12.382 -0.1317 -0.9137  0.9317
 7233SOL     OW33334   3.561   0.568   8.966 -0.1060 -0.6339  0.0150
 7233SOL    HW133335   3.475   0.529   8.951  0.4755 -2.2467  0.8784
 7233SOL    HW233336   3.591   0.617   8.889 -1.0208  1.7913  1.1962
 7234SOL     OW33337   0.359   3.536  14.933 -0.2609  0.1766  0.0598
 7234SOL    HW133338   0.401   3.604  14.881  1.3648 -0.6528  0.3107
 7234SOL    HW233339   0.392   3.462  14.882 -1.2298 -0.0068 -0.3189
 7235SOL     OW33340   0.742   4.246  16.265 -0.0899  0.6754 -0.0445
 7235SOL    HW133341   0.783   4.163  16.240 -0.4994  0.8510 -1.2611
 7235SOL    HW233342   0.806   4.273  16.332 -0.7577 -1.1852  1.3662
 7236SOL     OW33343   0.606   1.439  17.361  0.2779 -0.0813  0.4034
 7236SOL    HW133344   0.584   1.412  17.272  1.2736 -1.5609  0.6032
 7236SOL    HW233345   0.585   1.533  17.361 -1.6945 -0.5166  1.1920
 7237SOL     OW33346   0.694   0.089   2.820  0.2074 -0.3250 -0.0764
 7237SOL    HW133347   0.624   0.143   2.855 -0.9168 -0.2934 -2.3903
 7237SOL    HW233348   0.739   0.064   2.901  1.9078  0.2778 -0.8231
 7238SOL     OW33349   3.437   0.859  13.459  0.3380 -0.2576  0.2838
 7238SOL    HW133350   3.485   0.868  13.377  0.1670  1.4482  0.3786
 7238SOL    HW233351   3.415   0.949  13.482  0.1511  0.0879 -1.2875
 7239SOL     OW33352   3.926   1.840   5.925 -0.3185 -0.0143 -0.0347
 7239SOL    HW133353   3.901   1.895   5.850  1.0171  1.5085  0.6335
 7239SOL    HW233354   3.867   1.765   5.916  0.4043 -0.7465  1.3565
 7240SOL     OW33355   2.822   1.790   5.427 -0.1298  0.1672  0.3788
 7240SOL    HW133356   2.881   1.715   5.427  0.2788  0.4868  0.6202
 7240SOL    HW233357   2.853   1.829   5.346  1.0231 -2.4625 -0.4474
 7241SOL     OW33358   1.454   1.220  17.675  0.2019 -0.0552 -0.4960
 7241SOL    HW133359   1.536   1.171  17.673 -0.0914 -0.5933  1.0472
 7241SOL    HW233360   1.449   1.249   0.027  1.1506  1.9757 -1.0720
 7242SOL     OW33361   0.037   3.510  13.390  0.0446 -0.2199 -0.5242
 7242SOL    HW133362   0.131   3.522  13.403 -0.1484 -0.7652  1.4128
 7242SOL    HW233363   0.031   3.415  13.403  6.2561 -0.2937  1.8821
 7243SOL     OW33364   0.880   2.396   2.864  0.6446  0.5069 -0.3128
 7243SOL    HW133365   0.864   2.351   2.782  1.5372 -0.4760  0.0464
 7243SOL    HW233366   0.823   2.472   2.854 -1.0312 -1.0259 -2.2407
 7244SOL     OW33367   2.367   3.167   4.800  0.0206 -0.1042 -0.9713
 7244SOL    HW133368   2.283   3.164   4.848  0.1777 -1.3614 -0.7897
 7244SOL    HW233369   2.401   3.078   4.797  0.7286  0.0772  1.8530
 7245SOL     OW33370   4.731   3.833   6.267 -0.3137 -0.5245  0.7226
 7245SOL    HW133371   4.648   3.850   6.221  0.0495 -0.4665  0.0858
 7245SOL    HW233372   4.704   3.851   6.357 -4.5718 -1.2510 -0.3687
 7246SOL     OW33373   3.715   4.056   0.555  0.2516 -0.7069  0.0515
 7246SOL    HW133374   3.717   3.974   0.506  1.0702 -1.4469  1.3007
 7246SOL    HW233375   3.789   4.106   0.521 -0.1210 -0.1109  0.1096
 7247SOL     OW33376   1.299   0.064  17.709  0.0900 -0.3381  0.4142
 7247SOL    HW133377   1.284   0.095   0.059  2.3084  1.9476 -0.0330
 7247SOL    HW233378   1.214   0.094  17.677 -0.2109 -2.0382 -0.4170
 7248SOL     OW33379   2.881   3.507   2.239 -0.4259  0.4168  0.2626
 7248SOL    HW133380   2.922   3.437   2.188 -0.7113 -0.0729  0.7094
 7248SOL    HW233381   2.812   3.532   2.178 -1.3061  2.5975  2.1985
 7249SOL     OW33382   4.561   1.670   1.050 -0.2655 -0.6871 -0.1354
 7249SOL    HW133383   4.536   1.730   1.120 -1.4016 -0.1308 -1.0103
 7249SOL    HW233384   4.476   1.629   1.033 -0.5042  0.6261 -2.1429
 7250SOL     OW33385   0.989   4.155   3.555 -0.1395 -0.3109  0.5918
 7250SOL    HW133386   0.945   4.085   3.507 -1.5934  1.2121 -0.2980
 7250SOL    HW233387   0.920   4.201   3.603  0.4090  0.2110  0.8758
 7251SOL     OW33388   2.239   3.253   1.808  0.0533 -0.3582 -0.2041
 7251SOL    HW133389   2.240   3.347   1.790  0.0274 -0.4091 -0.4676
 7251SOL    HW233390   2.333   3.247   1.828  0.1905 -0.9370 -1.0032
 7252SOL     OW33391   1.988   1.273  15.288 -0.7804  0.7422  0.6604
 7252SOL    HW133392   2.012   1.257  15.379 -0.1850 -0.2554  0.3385
 7252SOL    HW233393   2.024   1.191  15.252 -2.0167  1.0701 -1.3102
 7253SOL     OW33394   4.002   3.712   6.081 -0.2795  0.0213 -0.7854
 7253SOL    HW133395   4.011   3.805   6.059 -2.6302 -0.0141 -1.8848
 7253SOL    HW233396   3.908   3.697   6.071 -0.4890  0.8720 -0.0739
 7254SOL     OW33397   1.418   2.823   8.610  0.0747  0.5580 -0.3774
 7254SOL    HW133398   1.360   2.862   8.675 -1.4173 -1.3349 -0.5513
 7254SOL    HW233399   1.438   2.884   8.540 -1.6004  1.0624 -0.4106
 7255SOL     OW33400   1.761   1.948   8.790  0.0626  0.2069 -0.0629
 7255SOL    HW133401   1.673   1.958   8.754 -0.3049 -2.9055  0.0328
 7255SOL    HW233402   1.769   1.856   8.814  2.4537  0.2822 -0.5488
 7256SOL     OW33403   3.095   1.303   1.549  0.2747  0.5600 -0.0648
 7256SOL    HW133404   3.157   1.304   1.621 -0.1229  0.7957  0.2723
 7256SOL    HW233405   3.100   1.209   1.528  1.4463  0.2461  1.5912
 7257SOL     OW33406   1.768   0.090  13.051 -0.2473 -0.1610 -0.4051
 7257SOL    HW133407   1.847   0.051  13.014 -0.4195  1.6832 -2.6680
 7257SOL    HW233408   1.778   0.175  13.008  1.7957 -1.2630 -2.1115
 7258SOL     OW33409   4.136   4.197   3.586  0.0875  0.5259 -0.3325
 7258SOL    HW133410   4.077   4.136   3.630 -0.7118  1.4306 -0.1418
 7258SOL    HW233411   4.224   4.170   3.612  0.0097  2.6928  2.1809
 7259SOL     OW33412   1.603   0.116   6.570  0.7338  0.1428 -0.2871
 7259SOL    HW133413   1.655   0.166   6.507  1.1832  1.5971  1.2417
 7259SOL    HW233414   1.613   0.177   6.643  1.4756  0.1114 -0.3619
 7260SOL     OW33415   3.697   2.038  11.575 -0.5100 -0.3485 -0.0803
 7260SOL    HW133416   3.691   1.995  11.661 -0.3341  2.8867  1.5653
 7260SOL    HW233417   3.610   2.076  11.565  0.6868  2.3852 -0.0331
 7261SOL     OW33418   3.839   0.510  11.623  0.0470 -1.1367  0.2127
 7261SOL    HW133419   3.865   0.550  11.706 -2.2511 -2.7762  1.7357
 7261SOL    HW233420   3.883   0.426  11.613  0.3595 -1.0427  0.7574
 7262SOL     OW33421   1.832   1.562   2.042 -0.4057 -0.4512  0.4181
 7262SOL    HW133422   1.757   1.504   2.057  1.1053 -1.7067  3.0801
 7262SOL    HW233423   1.868   1.518   1.965 -1.5049 -3.0188  1.3816
 7263SOL     OW33424   1.014   0.862   1.374 -0.3973  0.0503  0.4499
 7263SOL    HW133425   0.922   0.861   1.351  0.1094 -0.6350 -1.5605
 7263SOL    HW233426   1.054   0.853   1.288 -0.6096  1.6306  0.1976
 7264SOL     OW33427   1.276   0.308   4.671 -0.4642 -0.1005  0.4079
 7264SOL    HW133428   1.324   0.379   4.715 -1.1779  0.4987  0.2140
 7264SOL    HW233429   1.198   0.293   4.724 -0.7848 -2.0728 -0.6228
 7265SOL     OW33430   2.587   3.805  12.096  0.4241  0.3118  0.3695
 7265SOL    HW133431   2.677   3.820  12.122  1.0243 -0.7548 -1.0480
 7265SOL    HW233432   2.586   3.774  12.005  0.6344  0.0215  0.4651
 7266SOL     OW33433   1.299   1.188  11.383 -0.3007  0.2162 -0.3217
 7266SOL    HW133434   1.388   1.221  11.372 -0.2226 -0.2416 -1.0975
 7266SOL    HW233435   1.274   1.190  11.291 -0.2374 -1.8233 -0.3706
 7267SOL     OW33436   4.468   0.772   1.677  0.3564  0.6121  0.3735
 7267SOL    HW133437   4.501   0.830   1.608  0.1530  0.8654  0.4902
 7267SOL    HW233438   4.479   0.685   1.638  0.3042  1.1747 -0.8913
 7268SOL     OW33439   0.759   0.482   8.315 -0.4897 -0.0286  0.3150
 7268SOL    HW133440   0.805   0.463   8.233  1.4428  0.0844  1.3768
 7268SOL    HW233441   0.717   0.566   8.296 -2.3423 -0.5981  1.8530
 7269SOL     OW33442   4.257   1.222   2.784  0.6160  0.1306  0.7700
 7269SOL    HW133443   4.183   1.162   2.797  0.8525 -0.1340  0.9096
 7269SOL    HW233444   4.307   1.203   2.863 -0.3093  1.9471  1.7614
 7270SOL     OW33445   3.497   4.414   8.942  0.1443  0.1575  0.2155
 7270SOL    HW133446   3.427   4.477   8.923 -1.6453 -0.6053  4.4101
 7270SOL    HW233447   3.477   4.401   9.034 -1.2625 -2.0518 -0.3976
 7271SOL     OW33448   0.281   3.273  17.026  0.0819  1.0903 -0.2119
 7271SOL    HW133449   0.221   3.256  16.953  0.7216  1.8692 -0.9114
 7271SOL    HW233450   0.307   3.363  17.010  0.5843  0.8505 -0.7708
 7272SOL     OW33451   0.817   4.522   4.514  0.3725  0.6914  0.3621
 7272SOL    HW133452   0.773   4.449   4.470 -0.5367 -0.2053  2.7351
 7272SOL    HW233453   0.749   4.559   4.571 -2.1135 -2.1970 -0.7388
 7273SOL     OW33454   3.666   2.625  16.700  0.1877  0.5334 -0.1827
 7273SOL    HW133455   3.578   2.599  16.674  0.0700  0.2179  0.5389
 7273SOL    HW233456   3.641   2.708  16.742 -0.5614  0.3501 -0.2671
 7274SOL     OW33457   0.166   2.294   8.520 -0.1800  0.0701 -0.2425
 7274SOL    HW133458   0.233   2.360   8.499  0.4270 -1.0218 -1.7442
 7274SOL    HW233459   0.219   2.218   8.544  1.8728  0.6169 -3.0226
 7275SOL     OW33460   1.580   2.953  10.770 -0.0484  0.5798 -0.0186
 7275SOL    HW133461   1.635   3.021  10.732  0.5605  0.3011  0.3735
 7275SOL    HW233462   1.560   2.980  10.859 -0.9194  0.6406 -0.2270
 7276SOL     OW33463   2.783   3.784   5.465  0.5295 -0.1965 -0.0049
 7276SOL    HW133464   2.869   3.767   5.505  0.8159 -1.5819 -1.2071
 7276SOL    HW233465   2.803   3.827   5.382 -0.4759 -2.7494 -1.5818
 7277SOL     OW33466   1.002   2.232   5.181 -1.0059 -0.5619  0.6619
 7277SOL    HW133467   0.910   2.206   5.176 -0.9936 -0.2333 -1.3876
 7277SOL    HW233468   1.016   2.222   5.275 -0.3702 -1.8005  0.4466
 7278SOL     OW33469   4.459   1.074   2.162  0.3255  0.4962 -0.0331
 7278SOL    HW133470   4.470   0.999   2.220 -0.2016  0.0606 -0.5074
 7278SOL    HW233471   4.384   1.053   2.106 -0.2822  1.3457  0.4564
 7279SOL     OW33472   1.732   3.286   9.968 -0.0822 -0.4891  0.1534
 7279SOL    HW133473   1.819   3.258   9.996 -0.5857 -1.9120  0.3046
 7279SOL    HW233474   1.755   3.315   9.879 -1.1299 -1.4950 -0.4508
 7280SOL     OW33475   3.356   3.539   6.401  0.3458  0.5798 -0.1626
 7280SOL    HW133476   3.285   3.498   6.450  0.9530 -2.1447 -1.6188
 7280SOL    HW233477   3.387   3.471   6.342 -0.7848 -1.1729  1.2827
 7281SOL     OW33478   4.180   0.122   2.264 -0.3486 -0.2015  0.2640
 7281SOL    HW133479   4.162   0.135   2.357 -1.6478  2.4464 -0.3733
 7281SOL    HW233480   4.093   0.140   2.230 -0.7017  1.4287  2.0315
 7282SOL     OW33481   2.511   4.124   6.650  0.7758 -0.0587  0.2843
 7282SOL    HW133482   2.452   4.199   6.655  1.5426  0.4811  1.2280
 7282SOL    HW233483   2.594   4.162   6.679  0.7168  0.7430 -0.6110
 7283SOL     OW33484   3.743   3.274   3.237 -0.1274  0.3547  0.3815
 7283SOL    HW133485   3.720   3.341   3.173  0.5364  0.3405  0.1274
 7283SOL    HW233486   3.829   3.312   3.256 -0.9767  0.7212  3.4777
 7284SOL     OW33487   0.604   0.653   5.528 -0.3479  0.6093 -0.0236
 7284SOL    HW133488   0.535   0.712   5.559  0.4693  0.0062  2.9333
 7284SOL    HW233489   0.617   0.601   5.607  0.6961 -1.0475 -1.2758
 7285SOL     OW33490   1.773   0.717   7.666  0.3823 -0.0063  0.9935
 7285SOL    HW133491   1.692   0.750   7.626 -0.1306 -2.3965  0.1171
 7285SOL    HW233492   1.799   0.642   7.614  0.6624  0.3137  0.6734
 7286SOL     OW33493   2.335   1.321  15.352  0.5654 -0.7083 -0.1797
 7286SOL    HW133494   2.262   1.293  15.407 -0.0174 -0.8543 -1.0268
 7286SOL    HW233495   2.303   1.293  15.266 -2.0497  0.6861  0.3194
 7287SOL     OW33496   3.852   1.501   8.083  0.1689  0.1822  0.4002
 7287SOL    HW133497   3.830   1.417   8.123 -0.4124  1.5331  2.8722
 7287SOL    HW233498   3.843   1.561   8.157  0.8424  1.8990 -0.9108
 7288SOL     OW33499   4.034   0.640   6.892 -0.3119 -0.3242  0.1829
 7288SOL    HW133500   4.087   0.705   6.938  0.6756 -0.6371 -0.5238
 7288SOL    HW233501   3.981   0.679   6.823  1.6463 -0.2656 -1.2744
 7289SOL     OW33502   0.609   2.659   5.877 -0.5933  0.3693 -0.1703
 7289SOL    HW133503   0.532   2.699   5.836 -1.4287 -0.5136  0.5574
 7289SOL    HW233504   0.661   2.738   5.893  1.4875 -1.0487  0.1357
 7290SOL     OW33505   2.764   2.022   4.485 -0.3461  0.5919  0.4760
 7290SOL    HW133506   2.782   2.116   4.492 -0.6216  0.4430  3.0132
 7290SOL    HW233507   2.841   1.986   4.529  0.2194 -1.0588 -1.8578
 7291SOL     OW33508   1.028   2.901   4.450 -0.0569 -0.4040 -0.3568
 7291SOL    HW133509   1.072   2.978   4.486  2.3624 -0.9282 -2.2335
 7291SOL    HW233510   1.039   2.843   4.525  0.9389  1.9662  1.3418
 7292SOL     OW33511   3.761   3.458  11.216 -0.4414  0.0722 -0.1267
 7292SOL    HW133512   3.724   3.521  11.154  1.6235  0.0304 -1.3677
 7292SOL    HW233513   3.827   3.516  11.253 -0.9386  1.9810 -2.1682
 7293SOL     OW33514   1.532   2.663   3.463 -0.0146  0.3111 -0.4654
 7293SOL    HW133515   1.607   2.723   3.460  0.1515  0.1539  0.6491
 7293SOL    HW233516   1.523   2.636   3.372  0.5478 -0.6119 -0.2436
 7294SOL     OW33517   4.204   0.827   6.195 -0.0067  0.4949  0.3380
 7294SOL    HW133518   4.287   0.856   6.158  0.6118 -0.5465  0.8838
 7294SOL    HW233519   4.155   0.845   6.116 -2.3026 -1.7230  1.2372
 7295SOL     OW33520   1.503   1.042  14.487 -0.0795  0.1054  0.0137
 7295SOL    HW133521   1.564   1.039  14.413  0.9786  2.3721  0.8154
 7295SOL    HW233522   1.481   1.134  14.496  1.3154  0.4602 -0.2539
 7296SOL     OW33523   4.296   2.869  12.882  0.3666 -0.4358 -0.2849
 7296SOL    HW133524   4.345   2.919  12.816 -0.2878  2.3196  1.2925
 7296SOL    HW233525   4.325   2.784  12.850  1.1793 -0.9132  1.7296
 7297SOL     OW33526   4.443   4.414   9.484 -0.0036  0.2613 -0.0771
 7297SOL    HW133527   4.466   4.350   9.550  1.0519  0.1969 -0.5160
 7297SOL    HW233528   4.465   4.499   9.522 -1.0493  0.6386 -0.2888
 7298SOL     OW33529   4.328   3.370   3.593  0.0695 -0.4174 -0.0604
 7298SOL    HW133530   4.358   3.303   3.532  1.6174 -0.3112  0.5920
 7298SOL    HW233531   4.404   3.388   3.649 -0.7484  1.2398  0.5332
 7299SOL     OW33532   0.815   0.050   1.820  0.4597  0.4106  0.3945
 7299SOL    HW133533   0.756   4.711   1.807  0.0374  1.0703 -1.5502
 7299SOL    HW233534   0.895   0.018   1.779  0.0709 -1.3110  1.0159
 7300SOL     OW33535   3.040   4.312   4.394  0.3964 -0.1150  0.1799
 7300SOL    HW133536   3.070   4.400   4.371 -1.5441  0.1501 -1.3482
 7300SOL    HW233537   2.947   4.330   4.404  0.6922  1.6344 -0.3149
 7301SOL     OW33538   2.285   4.625   6.754 -0.2764 -0.4735  0.2236
 7301SOL    HW133539   2.287   4.624   6.849 -0.7207 -0.1792  0.2351
 7301SOL    HW233540   2.379   4.621   6.736  0.0744  3.9574  1.0829
 7302SOL     OW33541   3.083   4.068   1.533 -0.3437 -0.1146 -0.6233
 7302SOL    HW133542   3.006   4.016   1.555  0.2548  0.1690  2.1149
 7302SOL    HW233543   3.037   4.151   1.515  0.3744 -0.0207 -2.0209
 7303SOL     OW33544   3.110   1.614  15.359  0.2151  0.2312  0.5441
 7303SOL    HW133545   3.099   1.519  15.356 -1.2949  0.4413 -0.5613
 7303SOL    HW233546   3.036   1.633  15.302  1.0096 -0.1675 -0.6272
 7304SOL     OW33547   3.889   4.020   4.461  0.4450  0.5398  0.3087
 7304SOL    HW133548   3.850   3.936   4.435  0.3662  0.2926  1.2404
 7304SOL    HW233549   3.813   4.072   4.488 -1.0666 -0.9937 -1.0307
 7305SOL     OW33550   2.782   3.143   8.873  0.0062 -0.2491 -0.0259
 7305SOL    HW133551   2.818   3.228   8.896 -1.2847  0.8093 -1.8764
 7305SOL    HW233552   2.853   3.082   8.889 -0.9265 -0.9487  1.3982
 7306SOL     OW33553   1.906   1.304   7.350  0.0060  0.1688  0.0522
 7306SOL    HW133554   1.868   1.265   7.271  1.4761 -4.6904  1.7203
 7306SOL    HW233555   1.845   1.377   7.357 -1.7498 -1.2707 -0.1239
 7307SOL     OW33556   0.887   4.007  12.353  0.3247 -0.5526  0.2124
 7307SOL    HW133557   0.879   3.980  12.262  3.7421 -1.2123  0.1071
 7307SOL    HW233558   0.929   4.093  12.348 -2.5715  0.8112 -0.6777
 7308SOL     OW33559   1.849   3.804   6.758 -0.5701  0.1766 -0.1672
 7308SOL    HW133560   1.884   3.829   6.673 -2.0288  2.2733 -0.1703
 7308SOL    HW233561   1.847   3.884   6.811 -0.0211 -0.1393  0.3244
 7309SOL     OW33562   1.276   4.243  13.602  0.0300  0.1800  0.1826
 7309SOL    HW133563   1.286   4.338  13.598 -2.7783  0.5600  2.3278
 7309SOL    HW233564   1.211   4.229  13.671  1.1086 -5.8214 -0.0564
 7310SOL     OW33565   4.268   3.651  11.879 -0.2376 -0.2505  0.2633
 7310SOL    HW133566   4.252   3.557  11.892 -0.5833 -0.1876  0.2886
 7310SOL    HW233567   4.202   3.677  11.943 -0.8262  2.2325 -1.3516
 7311SOL     OW33568   2.613   3.661   6.254  0.5495  0.1145  0.1686
 7311SOL    HW133569   2.547   3.635   6.190 -1.4170  0.7444  1.9457
 7311SOL    HW233570   2.684   3.693   6.199  0.0756 -0.4495 -0.7547
 7312SOL     OW33571   3.746   0.193   5.206  0.4847  0.4296  0.4724
 7312SOL    HW133572   3.657   0.212   5.235  0.1181  0.9088 -0.9765
 7312SOL    HW233573   3.740   0.212   5.112  0.0284  1.7839  0.7781
 7313SOL     OW33574   3.503   4.296   5.838  0.2183 -0.6107  0.1172
 7313SOL    HW133575   3.589   4.265   5.867  0.8948 -0.9898 -2.3512
 7313SOL    HW233576   3.472   4.341   5.917  1.7050  0.7607 -0.0792
 7314SOL     OW33577   3.007   0.160   3.231  0.0711  0.5025  0.4531
 7314SOL    HW133578   2.934   0.129   3.178  1.1348 -2.1171  0.5018
 7314SOL    HW233579   2.969   0.236   3.274  0.6588 -0.0999  2.0695
 7315SOL     OW33580   3.756   3.013   7.007 -0.8872  0.2290  0.0489
 7315SOL    HW133581   3.742   3.108   7.001  1.7703  0.6816  0.9578
 7315SOL    HW233582   3.852   3.012   7.013 -0.9449 -0.6700  0.7191
 7316SOL     OW33583   2.385   2.306   4.818 -0.0844  0.2934  0.1156
 7316SOL    HW133584   2.350   2.294   4.906 -1.4353 -2.7947 -0.8442
 7316SOL    HW233585   2.379   2.401   4.813  0.0938  0.4284  2.5617
 7317SOL     OW33586   3.058   4.211   6.797 -0.0198 -0.0777  0.6339
 7317SOL    HW133587   3.053   4.141   6.733  1.1972 -0.1895  0.6763
 7317SOL    HW233588   3.141   4.196   6.842 -0.7903 -0.5338  1.9169
 7318SOL     OW33589   2.023   2.939   3.482  0.2259  0.2321 -0.0081
 7318SOL    HW133590   2.056   2.871   3.541 -0.8356 -1.5872 -1.5211
 7318SOL    HW233591   2.080   3.011   3.510  0.8793 -0.0990 -0.4858
 7319SOL     OW33592   1.039   1.200   5.598 -0.4277 -0.0743  0.3156
 7319SOL    HW133593   1.080   1.287   5.605 -0.1714 -0.0600 -1.4760
 7319SOL    HW233594   0.971   1.193   5.665 -0.4617  0.0030  0.2893
 7320SOL     OW33595   2.838   0.359   1.769  0.1033  0.9814  0.0642
 7320SOL    HW133596   2.864   0.328   1.855 -0.9793 -0.1713 -0.0141
 7320SOL    HW233597   2.846   0.454   1.779 -0.2043  0.8146  1.9047
 7321SOL     OW33598   1.951   3.328   3.353  0.1816 -0.4702 -0.2680
 7321SOL    HW133599   1.864   3.369   3.353 -0.3400 -1.5947 -0.0367
 7321SOL    HW233600   2.000   3.385   3.413 -1.3277  1.1916 -0.6076
 7322SOL     OW33601   4.399   2.009   4.377  0.1325 -0.6538  0.1734
 7322SOL    HW133602   4.393   2.014   4.473  1.7827  4.6358  0.0121
 7322SOL    HW233603   4.461   1.940   4.353 -0.0771 -0.8573  0.2196
 7323SOL     OW33604   4.710   3.696   5.498  0.4411 -0.0243 -0.4609
 7323SOL    HW133605   4.639   3.641   5.466 -1.4812  1.7143  0.8344
 7323SOL    HW233606   4.678   3.691   5.588  1.5641 -1.5405 -0.1429
 7324SOL     OW33607   4.265   1.753   6.937 -0.0758  0.1801  0.3479
 7324SOL    HW133608   4.310   1.763   7.021 -1.1516  0.4855  0.8826
 7324SOL    HW233609   4.333   1.732   6.872 -1.4135 -0.7273 -0.7447
 7325SOL     OW33610   0.876   0.497   7.819 -0.9029 -0.6007  0.7166
 7325SOL    HW133611   0.901   0.405   7.811  2.7016  0.4332 -0.0813
 7325SOL    HW233612   0.863   0.518   7.727  0.4595 -0.8609  0.4551
 7326SOL     OW33613   3.693   4.475  16.820 -0.5547  0.4014 -0.0052
 7326SOL    HW133614   3.742   4.399  16.791 -0.9881  0.3040 -0.4812
 7326SOL    HW233615   3.617   4.470  16.762  1.2097 -0.2989 -2.3050
 7327SOL     OW33616   4.476   0.438   0.451 -0.0186  0.1772 -0.2645
 7327SOL    HW133617   4.486   0.515   0.394  1.4627 -0.0621 -0.3034
 7327SOL    HW233618   4.569   0.427   0.470 -0.0077  0.9593  0.1421
 7328SOL     OW33619   3.217   4.610  14.367  0.2693  0.1397 -0.3571
 7328SOL    HW133620   3.202   4.690  14.316 -3.7307 -1.0439 -1.0234
 7328SOL    HW233621   3.310   4.602  14.344  0.1529 -1.1051 -0.3899
 7329SOL     OW33622   0.003   1.737   8.735  0.5733  0.3075 -0.1584
 7329SOL    HW133623   4.660   1.790   8.718 -1.3225 -1.8248  2.0490
 7329SOL    HW233624   0.045   1.752   8.649  0.9088  0.4779  0.0342
 7330SOL     OW33625   3.014   1.710  11.546  0.2252  0.7326  0.1994
 7330SOL    HW133626   3.097   1.662  11.544 -1.0366 -1.4340 -0.1095
 7330SOL    HW233627   3.037   1.793  11.588  0.0897  0.6280  0.4794
 7331SOL     OW33628   3.266   3.701   1.773  0.1436 -0.3604  0.9337
 7331SOL    HW133629   3.354   3.726   1.800  0.1327  1.8219 -1.0395
 7331SOL    HW233630   3.284   3.645   1.697  0.1356 -1.1507  1.5144
 7332SOL     OW33631   2.292   2.705  16.432  0.4012 -0.3789  0.3724
 7332SOL    HW133632   2.323   2.792  16.409  0.0406 -0.2980  0.1885
 7332SOL    HW233633   2.339   2.696  16.515 -1.4845  1.1309  1.5975
 7333SOL     OW33634   4.438   3.203   3.401 -0.2692  0.4789 -0.1402
 7333SOL    HW133635   4.417   3.144   3.328 -0.9281 -1.8726  1.9298
 7333SOL    HW233636   4.534   3.204   3.391 -0.2382 -0.3543  0.0052
 7334SOL     OW33637   3.531   2.459   7.433 -0.3245 -0.0744  0.0348
 7334SOL    HW133638   3.509   2.371   7.463  0.8889 -0.2049  0.5273
 7334SOL    HW233639   3.465   2.513   7.477  0.4431  1.5778 -0.8279
 7335SOL     OW33640   4.150   1.225   6.658  0.1152 -0.0321  0.4318
 7335SOL    HW133641   4.057   1.220   6.677 -0.1242  0.8816 -0.5074
 7335SOL    HW233642   4.176   1.287   6.726  1.1191 -1.6433  1.5381
 7336SOL     OW33643   2.122   1.538   5.024  0.5660 -0.0977 -0.5516
 7336SOL    HW133644   2.056   1.558   4.957  0.3841 -1.2370 -0.7113
 7336SOL    HW233645   2.081   1.466   5.072 -0.7001 -1.4942 -3.6929
 7337SOL     OW33646   3.513   0.286   5.282 -0.3132  0.3453  0.8828
 7337SOL    HW133647   3.424   0.275   5.316  0.1304  0.9256  2.2159
 7337SOL    HW233648   3.498   0.365   5.230  0.2829  0.2731  0.6009
 7338SOL     OW33649   0.610   4.336  13.736  0.0658  0.5095 -0.4730
 7338SOL    HW133650   0.633   4.370  13.650  0.6621 -0.0416 -0.5356
 7338SOL    HW233651   0.565   4.258  13.702 -0.8662  0.8784 -0.0905
 7339SOL     OW33652   3.553   3.696  17.522  0.1416 -0.0609  0.8886
 7339SOL    HW133653   3.467   3.737  17.532  0.2011  0.1411  0.5591
 7339SOL    HW233654   3.522   3.613  17.484  0.7531  0.0003  0.2701
 7340SOL     OW33655   2.214   0.519  14.643  0.3467  0.9345  0.7100
 7340SOL    HW133656   2.298   0.490  14.607  0.4324  0.6534  1.1315
 7340SOL    HW233657   2.170   0.435  14.648 -1.7344  2.0504  1.1120
 7341SOL     OW33658   3.117   0.726   5.158  0.1297  0.1273  0.0023
 7341SOL    HW133659   3.039   0.682   5.123  0.2061  0.9735 -1.1951
 7341SOL    HW233660   3.100   0.745   5.251  1.5688  1.9738 -0.1203
 7342SOL     OW33661   3.482   1.695  10.973  0.3629  0.5760  0.0240
 7342SOL    HW133662   3.441   1.615  10.940  1.1359  0.2620 -0.1828
 7342SOL    HW233663   3.519   1.731  10.892 -0.8526 -0.4808 -0.9984
 7343SOL     OW33664   0.852   2.352  17.008 -0.2526  0.7487  0.2734
 7343SOL    HW133665   0.846   2.375  16.915 -1.4878  2.6569  0.8201
 7343SOL    HW233666   0.913   2.420  17.036 -0.7131  1.0351  0.5944
 7344SOL     OW33667   1.414   3.404   6.098  0.3734  0.2619 -0.1649
 7344SOL    HW133668   1.366   3.423   6.179 -1.0271 -1.4287 -0.6026
 7344SOL    HW233669   1.491   3.360   6.136  0.1755  0.8102  0.8894
 7345SOL     OW33670   1.966   1.941   7.259 -0.4462 -0.0952 -0.2498
 7345SOL    HW133671   2.035   2.006   7.244  0.5415 -1.0998 -0.0952
 7345SOL    HW233672   2.006   1.862   7.221  0.4853 -0.0364  0.6226
 7346SOL     OW33673   2.418   0.476   7.679 -0.6373 -0.0036 -0.1583
 7346SOL    HW133674   2.484   0.539   7.650  0.2161 -0.2213  1.3272
 7346SOL    HW233675   2.464   0.443   7.756 -0.1030 -0.5177 -0.6934
 7347SOL     OW33676   3.357   2.518   2.631  0.1417  0.1322  0.5005
 7347SOL    HW133677   3.383   2.547   2.719 -2.3092 -0.3394  1.3589
 7347SOL    HW233678   3.321   2.599   2.596 -0.9770 -1.3320 -1.7056
 7348SOL     OW33679   2.314   1.489   8.139  0.3685  0.0055 -0.1622
 7348SOL    HW133680   2.328   1.500   8.233  0.9061 -1.3476 -0.0924
 7348SOL    HW233681   2.317   1.394   8.137  1.2084  0.0202  0.2647
 7349SOL     OW33682   1.159   3.908   6.092 -0.3476  0.1012  0.4000
 7349SOL    HW133683   1.109   3.846   6.147  2.2360 -1.1952  1.2844
 7349SOL    HW233684   1.208   3.949   6.163 -0.6323  4.0834 -1.7324
 7350SOL     OW33685   0.928   3.217   2.075 -0.6243  0.1144  0.4503
 7350SOL    HW133686   0.889   3.255   1.996  2.0081  2.9372  0.5155
 7350SOL    HW233687   0.954   3.128   2.051  0.1439 -0.0370  1.8538
 7351SOL     OW33688   2.102   0.295   4.905  0.0129 -0.4837 -0.1812
 7351SOL    HW133689   2.169   0.252   4.852  2.3888  2.4462  0.4349
 7351SOL    HW233690   2.084   0.367   4.845 -0.8670  0.4449  1.1924
 7352SOL     OW33691   4.635   1.604   7.097 -0.0995 -0.1489  0.2139
 7352SOL    HW133692   4.653   1.663   7.025  1.0555 -0.7002  0.0545
 7352SOL    HW233693   4.696   1.535   7.071 -0.2385 -0.9358  1.9517
 7353SOL     OW33694   2.163   1.144   0.263  0.3666  0.6423  0.6141
 7353SOL    HW133695   2.228   1.081   0.296 -0.0942 -0.0409  0.2254
 7353SOL    HW233696   2.206   1.169   0.182 -1.7203 -1.8527 -1.2741
 7354SOL     OW33697   4.133   1.932   4.148 -0.0232  0.1757  0.4599
 7354SOL    HW133698   4.114   1.985   4.225  0.9223  0.3211  0.5901
 7354SOL    HW233699   4.228   1.940   4.142  0.0322 -2.4822 -2.1597
 7355SOL     OW33700   1.170   3.577   2.245 -0.2277 -0.5262  0.1279
 7355SOL    HW133701   1.212   3.558   2.329  0.5030 -1.5562 -0.4609
 7355SOL    HW233702   1.221   3.524   2.183  0.6573 -0.2805  0.6390
 7356SOL     OW33703   4.465   4.247   4.924  0.3472 -0.6712  0.3385
 7356SOL    HW133704   4.428   4.315   4.979  1.3237  0.4087 -0.3453
 7356SOL    HW233705   4.466   4.286   4.836 -0.9192 -2.6745 -0.5810
 7357SOL     OW33706   1.741   0.753   2.904 -0.3235  0.1270  0.2102
 7357SOL    HW133707   1.829   0.777   2.875 -0.1130  1.3226  1.7704
 7357SOL    HW233708   1.691   0.833   2.893 -0.4869  0.5256  3.5980
 7358SOL     OW33709   2.222   0.912  12.441  0.3021 -0.0757 -0.0521
 7358SOL    HW133710   2.286   0.842  12.451  1.2984  0.9869  1.0345
 7358SOL    HW233711   2.262   0.982  12.492  3.0319 -0.8862 -1.0608
 7359SOL     OW33712   3.494   3.756   0.150  0.4347  0.4822  0.4141
 7359SOL    HW133713   3.567   3.728   0.095  0.7730  1.4156  0.3848
 7359SOL    HW233714   3.426   3.693   0.127  1.0634 -1.0629  2.7721
 7360SOL     OW33715   2.040   1.926   7.581  0.4323  0.3592 -0.0238
 7360SOL    HW133716   2.056   1.834   7.561 -0.0652  0.8198 -2.4702
 7360SOL    HW233717   1.956   1.951   7.542  0.5105  1.0417  0.2477
 7361SOL     OW33718   3.845   0.940   2.913  0.3182  0.1130  0.4574
 7361SOL    HW133719   3.871   0.849   2.929 -0.8674 -0.4415 -0.7204
 7361SOL    HW233720   3.752   0.938   2.938 -0.3426 -0.5219 -2.0173
 7362SOL     OW33721   0.179   1.008  12.161  0.5851  0.1345 -0.3946
 7362SOL    HW133722   0.221   1.087  12.127  0.2100  0.4959 -0.0307
 7362SOL    HW233723   0.259   0.956  12.163  0.5024 -0.0023 -0.6333
 7363SOL     OW33724   2.600   1.964   9.475  0.1579 -0.0984 -0.8740
 7363SOL    HW133725   2.659   1.953   9.548  1.1979  1.3961 -1.4912
 7363SOL    HW233726   2.606   2.058   9.458  3.0873 -0.0711  0.4966
 7364SOL     OW33727   2.603   1.740   5.562 -0.3955 -0.3160 -0.4902
 7364SOL    HW133728   2.637   1.726   5.650 -0.3621  1.5059 -0.1981
 7364SOL    HW233729   2.682   1.769   5.516 -1.9783  2.4901 -1.4070
 7365SOL     OW33730   2.577   4.535   8.477 -0.0724 -0.0802 -0.4344
 7365SOL    HW133731   2.512   4.579   8.421  0.0612  0.4741 -0.1580
 7365SOL    HW233732   2.567   4.445   8.448 -1.4200 -0.7860  2.1782
 7366SOL     OW33733   1.566   0.985   1.430  0.2583 -0.5507  0.1465
 7366SOL    HW133734   1.609   0.956   1.511  1.2741 -1.5854 -0.7689
 7366SOL    HW233735   1.493   1.028   1.476 -1.0150 -2.2274 -0.2907
 7367SOL     OW33736   2.814   2.132   6.390 -0.3224  0.0011 -0.0358
 7367SOL    HW133737   2.838   2.215   6.431 -3.1389  1.5243 -1.4027
 7367SOL    HW233738   2.896   2.098   6.354 -1.2129  0.5592 -2.5843
 7368SOL     OW33739   1.838   0.410  15.672 -0.2749 -0.1919 -0.0551
 7368SOL    HW133740   1.765   0.348  15.675  0.3462 -1.0224 -2.0608
 7368SOL    HW233741   1.849   0.438  15.763 -1.0161  0.6526 -0.2290
 7369SOL     OW33742   1.393   4.259   5.887  0.3688 -0.4948  0.8086
 7369SOL    HW133743   1.421   4.168   5.896 -1.1143 -1.1303 -1.0922
 7369SOL    HW233744   1.302   4.247   5.912  0.0317 -0.4420 -0.3799
 7370SOL     OW33745   3.289   2.243   5.975  0.2507  0.0862 -0.1975
 7370SOL    HW133746   3.228   2.174   5.997  0.3636  0.4281  1.1487
 7370SOL    HW233747   3.263   2.269   5.886 -2.5536  0.8327  0.8447
 7371SOL     OW33748   2.302   1.568   9.197  0.4338  0.2983  0.3447
 7371SOL    HW133749   2.307   1.503   9.266  0.8586 -0.4583 -0.4035
 7371SOL    HW233750   2.260   1.645   9.236  1.8158  0.3055  1.7930
 7372SOL     OW33751   1.432   4.174  12.904  0.2931  0.2908  0.1794
 7372SOL    HW133752   1.507   4.114  12.905 -0.1049 -0.2241 -0.5884
 7372SOL    HW233753   1.448   4.213  12.819  1.3935  1.1543  0.7970
 7373SOL     OW33754   2.962   0.709   4.135  0.0016  0.1909  0.3395
 7373SOL    HW133755   3.006   0.626   4.153 -0.2921  0.0692  0.4819
 7373SOL    HW233756   2.997   0.738   4.051  1.3236  0.6785  1.0508
 7374SOL     OW33757   2.839   4.248   5.620  0.0377  0.4415 -0.1661
 7374SOL    HW133758   2.895   4.203   5.684 -0.2826  0.1022 -0.1216
 7374SOL    HW233759   2.878   4.335   5.613  1.0210  0.0147 -0.0193
 7375SOL     OW33760   4.171   4.222   3.240 -0.1898  0.0063 -0.2081
 7375SOL    HW133761   4.230   4.268   3.180  0.9778 -0.4185  0.6109
 7375SOL    HW233762   4.098   4.282   3.256 -0.4035 -0.2016 -0.3921
 7376SOL     OW33763   4.144   4.050   4.571 -0.5549  0.3267 -0.4245
 7376SOL    HW133764   4.073   4.059   4.508 -0.6817  0.9216 -0.1911
 7376SOL    HW233765   4.224   4.070   4.522  0.5031  0.4166  1.3475
 7377SOL     OW33766   3.301   0.720  10.684  0.5441 -0.4392  0.1568
 7377SOL    HW133767   3.321   0.688  10.772  2.7321  0.6801  0.0658
 7377SOL    HW233768   3.386   0.752  10.652  1.2371 -3.8854 -1.5084
 7378SOL     OW33769   1.067   0.449   1.426  0.4329 -0.4737  0.1647
 7378SOL    HW133770   1.007   0.465   1.354  0.5720  0.4643  0.2532
 7378SOL    HW233771   1.091   0.539   1.450 -1.5909  0.2722 -0.6036
 7379SOL     OW33772   0.045   3.055  10.594  0.4498 -0.2275  0.6127
 7379SOL    HW133773   0.077   3.145  10.597  0.4938 -0.2572  1.0591
 7379SOL    HW233774   0.047   3.045  10.498  0.3989 -0.8334  0.6707
 7380SOL     OW33775   3.401   1.183   9.796 -0.0820 -0.0679 -0.1407
 7380SOL    HW133776   3.343   1.258   9.784  0.3030  0.2784  0.1646
 7380SOL    HW233777   3.476   1.226   9.837 -1.0978  1.2650  0.3186
 7381SOL     OW33778   4.689   3.865  17.277 -0.1902 -0.2206  0.0973
 7381SOL    HW133779   4.698   3.771  17.293 -0.4141 -0.2429  0.0943
 7381SOL    HW233780   0.007   3.904  17.347 -3.2446 -0.4560  2.5606
 7382SOL     OW33781   3.519   3.710   3.649 -0.2884  0.7514 -0.3005
 7382SOL    HW133782   3.443   3.754   3.687  0.9737  1.5152  1.3733
 7382SOL    HW233783   3.532   3.748   3.562  0.8577  1.3170  0.1129
 7383SOL     OW33784   0.438   4.403   9.457 -0.3492  0.4710 -0.1421
 7383SOL    HW133785   0.529   4.433   9.449 -0.5723  1.5553  1.2643
 7383SOL    HW233786   0.450   4.317   9.417  0.5153  0.6168 -0.1912
 7384SOL     OW33787   4.220   3.869   8.833 -0.4584  0.3378 -0.3209
 7384SOL    HW133788   4.150   3.878   8.768 -0.1321  1.3948 -0.5211
 7384SOL    HW233789   4.196   3.945   8.885 -0.1826  0.9447 -1.0678
 7385SOL     OW33790   0.260   2.990   3.482 -0.0266 -0.0036 -0.0687
 7385SOL    HW133791   0.228   2.948   3.403  0.0225  0.1922 -0.1948
 7385SOL    HW233792   0.310   2.914   3.512 -0.6523 -0.2194  0.4155
 7386SOL     OW33793   0.329   4.308   3.533  0.4327 -0.6923  0.0235
 7386SOL    HW133794   0.270   4.361   3.586 -0.4993 -0.5040 -1.1968
 7386SOL    HW233795   0.268   4.238   3.511  0.6382 -0.8774  0.0365
 7387SOL     OW33796   0.856   4.680  16.336 -0.0085  0.5631  0.1651
 7387SOL    HW133797   0.760   4.681  16.337 -0.0264 -1.6194 -1.1349
 7387SOL    HW233798   0.863   4.586  16.349 -1.2495  0.2392 -1.5481
 7388SOL     OW33799   1.510   3.765   7.203  0.0777  0.8372 -0.0122
 7388SOL    HW133800   1.566   3.769   7.281 -0.5028 -2.2416  0.5579
 7388SOL    HW233801   1.453   3.689   7.216  1.3400 -0.5450 -2.5567
 7389SOL     OW33802   0.818   1.180   3.599  0.2625 -0.0513 -0.3845
 7389SOL    HW133803   0.762   1.102   3.592  1.0469 -0.5348 -1.1839
 7389SOL    HW233804   0.864   1.177   3.515 -0.6025  0.0447 -0.8670
 7390SOL     OW33805   0.360   0.358   5.081 -0.5407 -0.4117  0.0647
 7390SOL    HW133806   0.282   0.412   5.066 -0.4668 -0.6920 -1.3415
 7390SOL    HW233807   0.320   0.285   5.129  0.2932 -1.0402 -0.1996
 7391SOL     OW33808   1.093   1.031  15.520  0.0430  0.0210 -0.5483
 7391SOL    HW133809   1.054   1.075  15.445  1.6413  3.6619  0.7743
 7391SOL    HW233810   1.157   0.970  15.483  0.0778 -0.9700  1.1475
 7392SOL     OW33811   1.755   2.559   5.179  0.3412 -0.1927 -0.4926
 7392SOL    HW133812   1.708   2.620   5.123  0.5716  1.7434  1.4113
 7392SOL    HW233813   1.694   2.547   5.252 -0.7243  0.6772 -1.2525
 7393SOL     OW33814   2.829   1.797   5.139  0.0757  0.1748 -0.0335
 7393SOL    HW133815   2.742   1.784   5.177  0.7906  1.3377  1.9990
 7393SOL    HW233816   2.842   1.729   5.073  0.2901  0.6779 -0.5168
 7394SOL     OW33817   2.155   4.185  17.187  0.4959  0.1967 -0.4908
 7394SOL    HW133818   2.086   4.154  17.129  0.9335  1.6816 -1.8087
 7394SOL    HW233819   2.106   4.198  17.268 -1.0463 -1.7559 -1.0868
 7395SOL     OW33820   0.487   3.343   4.158 -0.2695  0.2280 -0.3005
 7395SOL    HW133821   0.537   3.262   4.167  0.2770  0.5377 -0.5286
 7395SOL    HW233822   0.543   3.375   4.087 -0.0434 -0.2702 -0.3516
 7396SOL     OW33823   2.503   2.549   1.399  0.1211 -0.8384 -0.7006
 7396SOL    HW133824   2.545   2.601   1.330  0.8857  0.5154  0.7936
 7396SOL    HW233825   2.485   2.610   1.471 -0.3741 -2.4133  0.4854
 7397SOL     OW33826   2.451   1.654  11.344  0.0856 -0.1269  0.0028
 7397SOL    HW133827   2.493   1.611  11.420  1.2066  0.7967 -0.0945
 7397SOL    HW233828   2.485   1.741  11.365 -2.5226  0.7257  0.6827
 7398SOL     OW33829   4.553   1.150   8.784  0.3393 -0.3315  0.1514
 7398SOL    HW133830   4.547   1.197   8.867  0.9389  1.2836 -0.7129
 7398SOL    HW233831   4.505   1.204   8.721  0.3183 -2.6477 -1.8316
 7399SOL     OW33832   4.732   2.731  14.705 -0.4239 -0.2422 -0.2587
 7399SOL    HW133833   4.687   2.815  14.693 -1.4309 -0.5988  1.0390
 7399SOL    HW233834   4.686   2.687  14.633 -1.4883  2.5252 -1.2721
 7400SOL     OW33835   1.818   2.332   1.019  0.4295  0.0006 -0.0571
 7400SOL    HW133836   1.762   2.396   1.062 -0.4236 -0.9780  0.2937
 7400SOL    HW233837   1.838   2.281   1.097  1.7801  3.4685  1.8214
 7401SOL     OW33838   4.602   3.108  14.135  0.3559  0.5308  0.0781
 7401SOL    HW133839   4.660   3.183  14.127  0.5853  0.0530 -2.6637
 7401SOL    HW233840   4.515   3.127  14.100  1.4878  3.0450 -1.3315
 7402SOL     OW33841   2.088   3.311   6.119 -0.3753 -0.1282  0.4163
 7402SOL    HW133842   2.176   3.334   6.089 -0.3582 -1.1243 -0.3046
 7402SOL    HW233843   2.066   3.367   6.193 -0.3570 -1.3052  1.3136
 7403SOL     OW33844   4.236   3.603   5.075 -0.0745 -0.0907 -0.5929
 7403SOL    HW133845   4.261   3.685   5.117 -0.1356 -0.8265  0.8771
 7403SOL    HW233846   4.204   3.553   5.150 -1.4454  2.3621  0.4695
 7404SOL     OW33847   3.588   4.188   2.664 -0.3500 -0.6713  0.1114
 7404SOL    HW133848   3.520   4.248   2.694  0.7789  0.9910 -0.6811
 7404SOL    HW233849   3.648   4.241   2.611 -0.9359 -0.7587 -0.6260
 7405SOL     OW33850   2.947   4.172   5.165  0.1657  0.1688 -0.3080
 7405SOL    HW133851   2.977   4.251   5.210 -2.2196  0.3633  0.9369
 7405SOL    HW233852   3.027   4.150   5.118  1.4085 -3.2403  3.4939
 7406SOL     OW33853   4.571   0.556   6.784 -0.2826  0.4858 -0.0448
 7406SOL    HW133854   4.562   0.492   6.713  3.2723 -0.3638  0.2955
 7406SOL    HW233855   4.496   0.527   6.837 -0.5839  0.8100 -0.2948
 7407SOL     OW33856   1.854   4.715   4.275  0.4382  0.4941  1.0000
 7407SOL    HW133857   1.883   4.678   4.359 -1.6901  0.2368  1.6126
 7407SOL    HW233858   1.774   0.026   4.300  0.6676  1.7373 -0.5704
 7408SOL     OW33859   3.143   3.637   4.215  0.0822  0.2781 -0.4936
 7408SOL    HW133860   3.071   3.656   4.276  1.7132  0.4979  1.3628
 7408SOL    HW233861   3.192   3.561   4.245 -0.1961 -0.7987 -2.7547
 7409SOL     OW33862   3.505   3.966   1.883 -1.2647 -0.1037  0.7397
 7409SOL    HW133863   3.524   4.017   1.804  1.4657  0.2516  1.6379
 7409SOL    HW233864   3.491   3.880   1.843 -1.4035  0.5073 -0.5591
 7410SOL     OW33865   4.237   1.218  10.410 -0.5834  0.3502 -0.2199
 7410SOL    HW133866   4.255   1.233  10.317 -0.9468  3.1461  0.1533
 7410SOL    HW233867   4.326   1.240  10.439 -0.1906 -2.5128  0.7409
 7411SOL     OW33868   3.158   3.191   5.956 -0.3761  0.3085  0.1590
 7411SOL    HW133869   3.234   3.143   5.987 -0.1994  1.0756  0.9269
 7411SOL    HW233870   3.121   3.231   6.035 -1.6018  1.4827 -0.9924
 7412SOL     OW33871   1.420   0.849   9.062 -0.1916  0.1352 -0.1811
 7412SOL    HW133872   1.414   0.769   9.115  1.0570  1.0680  1.3702
 7412SOL    HW233873   1.339   0.843   9.012 -0.5994 -0.5904  0.5610
 7413SOL     OW33874   2.280   4.617  14.584  0.5519  0.0294  0.0906
 7413SOL    HW133875   2.306   4.526  14.599  0.5964  0.2840  1.5514
 7413SOL    HW233876   2.186   4.608  14.569  0.9986 -3.8140 -0.4520
 7414SOL     OW33877   3.641   1.187  10.656 -0.1989 -0.1615 -0.4672
 7414SOL    HW133878   3.734   1.178  10.675 -0.2429  1.2250  0.4050
 7414SOL    HW233879   3.590   1.169  10.734 -1.6619  0.8257 -1.1847
 7415SOL     OW33880   0.433   0.251   4.115  0.4962  0.6518 -0.5250
 7415SOL    HW133881   0.387   0.259   4.199  2.5802 -1.4032  0.8060
 7415SOL    HW233882   0.520   0.286   4.133  0.4908 -0.7600  2.2926
 7416SOL     OW33883   3.394   0.776  11.085 -0.5111 -0.5521  0.5205
 7416SOL    HW133884   3.385   0.687  11.050  1.3912  0.1079 -1.6272
 7416SOL    HW233885   3.486   0.802  11.081 -0.3867 -1.0763 -0.1008
 7417SOL     OW33886   2.720   1.809   2.508  0.1995 -0.1838  0.1626
 7417SOL    HW133887   2.798   1.860   2.488 -0.6736  2.5373  3.6364
 7417SOL    HW233888   2.683   1.858   2.582  2.1150  1.8333 -0.2198
 7418SOL     OW33889   1.981   1.666   2.844 -0.6300  0.1041  0.1242
 7418SOL    HW133890   1.979   1.604   2.917  1.6203  1.6422  1.4866
 7418SOL    HW233891   2.074   1.689   2.848 -0.6046  0.1071 -0.4734
 7419SOL     OW33892   2.474   3.623   4.857 -0.2642 -0.1896  0.1723
 7419SOL    HW133893   2.474   3.535   4.895  0.0568 -0.0054  0.5990
 7419SOL    HW233894   2.412   3.621   4.784 -0.4971  0.6791  0.3464
 7420SOL     OW33895   0.508   0.155  14.829  0.5366 -0.0095  0.0620
 7420SOL    HW133896   0.599   0.132  14.808  1.6421  0.4734  4.1896
 7420SOL    HW233897   0.488   0.077  14.881  2.4673 -0.3370  0.3108
 7421SOL     OW33898   4.589   0.092   3.601  0.0863 -0.2621 -0.1184
 7421SOL    HW133899   4.548   0.168   3.642  0.0121 -0.1400 -0.4200
 7421SOL    HW233900   4.601   0.124   3.512  0.2919 -2.3237 -0.8342
 7422SOL     OW33901   1.981   2.039   8.479 -0.8140  0.2509 -0.8106
 7422SOL    HW133902   2.041   2.113   8.473 -1.6621  1.0452  0.5900
 7422SOL    HW233903   1.921   2.071   8.546 -0.2309  0.8964 -0.5992
 7423SOL     OW33904   1.862   3.939   7.195  0.0700  0.3164  0.2957
 7423SOL    HW133905   1.954   3.948   7.221  0.4543  1.0478 -1.2780
 7423SOL    HW233906   1.820   3.933   7.280 -0.3102 -1.0858  0.0138
 7424SOL     OW33907   2.718   1.518   5.180 -0.2281  0.0390 -0.3050
 7424SOL    HW133908   2.691   1.433   5.214  0.3337 -0.7868 -1.9278
 7424SOL    HW233909   2.760   1.489   5.099 -0.3489 -0.7478 -0.0859
 7425SOL     OW33910   1.967   3.901   9.746 -0.3205 -0.5267  0.8920
 7425SOL    HW133911   1.930   3.844   9.814  0.7026 -1.5706  0.5766
 7425SOL    HW233912   1.966   3.984   9.793  1.0531 -1.0280  1.7736
 7426SOL     OW33913   2.671   1.993  13.046  0.2675 -0.1915 -0.0779
 7426SOL    HW133914   2.602   2.050  13.080  1.8523  1.6883 -0.0373
 7426SOL    HW233915   2.710   1.952  13.123  1.4027  1.0618  0.0108
 7427SOL     OW33916   0.692   3.102   4.128 -0.6151 -0.4245 -0.2194
 7427SOL    HW133917   0.731   3.141   4.207 -1.3690 -0.2312  0.0623
 7427SOL    HW233918   0.766   3.059   4.084 -1.3559 -1.4931 -0.4088
 7428SOL     OW33919   4.699   1.516  14.490  0.0368  0.6129 -0.2862
 7428SOL    HW133920   4.710   1.611  14.495  0.5776  0.4768  1.0412
 7428SOL    HW233921   0.047   1.482  14.457 -0.6983 -0.8633 -0.6050
 7429SOL     OW33922   2.184   3.923   1.195  0.1600 -0.8839  0.7550
 7429SOL    HW133923   2.142   3.974   1.264  0.5730  1.2139 -0.5431
 7429SOL    HW233924   2.153   3.834   1.213  1.0688 -1.5286 -0.7739
 7430SOL     OW33925   1.101   3.356   8.801  0.2893 -0.3143 -0.5511
 7430SOL    HW133926   1.068   3.268   8.817 -0.1869 -0.0200  0.0890
 7430SOL    HW233927   1.062   3.405   8.873  1.9411  1.7149 -1.0331
 7431SOL     OW33928   2.354   3.652   9.126  0.8085 -0.5105 -0.2876
 7431SOL    HW133929   2.337   3.585   9.060  0.9360  1.4198 -2.2640
 7431SOL    HW233930   2.444   3.630   9.152  0.2276 -0.7610  1.5431
 7432SOL     OW33931   4.203   0.198  14.982 -0.0224 -0.0092 -0.0336
 7432SOL    HW133932   4.270   0.168  15.044 -0.6088 -0.3309  0.4480
 7432SOL    HW233933   4.246   0.205  14.897 -0.9377 -1.3623 -0.5982
 7433SOL     OW33934   2.251   2.816  16.936  0.3827 -0.2125  0.0402
 7433SOL    HW133935   2.169   2.791  16.894  1.4603  0.5655 -2.4983
 7433SOL    HW233936   2.307   2.753  16.892  2.4862  1.0147  0.9468
 7434SOL     OW33937   0.078   4.193   3.989 -0.1936  0.4523  0.6112
 7434SOL    HW133938   0.107   4.110   4.028  1.6912  0.9292  0.2536
 7434SOL    HW233939   0.165   4.231   3.973  0.7596 -2.6073 -1.6470
 7435SOL     OW33940   4.635   4.556   5.895 -0.5189 -0.0305  0.3992
 7435SOL    HW133941   4.546   4.586   5.916  0.0554  0.8041  1.6834
 7435SOL    HW233942   4.663   4.559   5.987 -1.2418 -0.3384  0.6313
 7436SOL     OW33943   4.699   3.798   2.842  0.2484 -0.5035  0.5204
 7436SOL    HW133944   4.649   3.744   2.782 -1.1614  0.3943  0.8980
 7436SOL    HW233945   4.698   3.886   2.806 -0.0855 -1.0289 -0.7533
 7437SOL     OW33946   0.268   2.677   8.250  0.6373  0.0190  0.4336
 7437SOL    HW133947   0.308   2.724   8.177 -2.7063  1.1391 -0.6803
 7437SOL    HW233948   0.234   2.594   8.215  0.9353 -0.7620  1.9807
 7438SOL     OW33949   3.315   1.084   0.004 -0.0002 -0.1005  0.4638
 7438SOL    HW133950   3.378   1.105  17.674 -1.8736  0.1945 -1.1630
 7438SOL    HW233951   3.360   1.009   0.043  0.2458 -0.6961 -0.9552
 7439SOL     OW33952   2.899   1.261   7.105 -0.1648 -0.7860 -0.1910
 7439SOL    HW133953   2.855   1.346   7.103  0.5278 -0.4712 -1.7478
 7439SOL    HW233954   2.933   1.257   7.194 -1.5371  0.5252  0.3968
 7440SOL     OW33955   3.860   1.483   7.555 -0.1039 -0.6723  0.3011
 7440SOL    HW133956   3.895   1.560   7.510 -5.0660 -0.7965 -3.7323
 7440SOL    HW233957   3.840   1.515   7.643 -2.1382 -1.5164  0.1491
 7441SOL     OW33958   1.354   2.187   8.568 -0.1631  0.3373  0.4063
 7441SOL    HW133959   1.275   2.222   8.608 -0.6896  0.1239 -0.4468
 7441SOL    HW233960   1.368   2.257   8.505  0.6418  1.1888  1.5381
 7442SOL     OW33961   1.558   1.449   7.992  0.5952 -0.3807 -0.1237
 7442SOL    HW133962   1.550   1.384   8.062 -0.9294  0.1930  0.2295
 7442SOL    HW233963   1.638   1.497   8.014  0.0358  1.0108 -1.1134
 7443SOL     OW33964   0.428   1.593   4.388  0.7171  0.1758 -0.1872
 7443SOL    HW133965   0.421   1.615   4.295  2.8587  1.1413 -0.1359
 7443SOL    HW233966   0.500   1.531   4.378  0.1562 -0.1911 -1.9437
 7444SOL     OW33967   0.557   0.659  13.465  0.4082 -0.3136 -0.2262
 7444SOL    HW133968   0.475   0.650  13.514  1.1654 -1.4178  0.8559
 7444SOL    HW233969   0.554   0.748  13.432 -0.2135 -0.1904  0.1658
 7445SOL     OW33970   2.703   0.906  11.873 -0.0037 -0.0380 -0.4596
 7445SOL    HW133971   2.645   0.928  11.945 -0.8787 -0.3114 -1.0787
 7445SOL    HW233972   2.767   0.976  11.879  1.3738 -1.2591 -0.8890
 7446SOL     OW33973   0.858   0.847   3.006 -0.5164  0.7758 -0.5452
 7446SOL    HW133974   0.855   0.927   2.954  0.7192  0.0479 -1.7351
 7446SOL    HW233975   0.908   0.875   3.082  1.2452  1.0904 -1.8168
 7447SOL     OW33976   0.664   0.674   6.673 -0.3202  0.0932 -0.7720
 7447SOL    HW133977   0.598   0.716   6.619  0.3762  1.8944 -0.2092
 7447SOL    HW233978   0.726   0.741   6.703 -0.7257  0.9574 -1.8827
 7448SOL     OW33979   2.254   0.218  11.729 -0.3349 -0.2743 -0.3103
 7448SOL    HW133980   2.197   0.179  11.795  1.7157 -0.1340  1.5675
 7448SOL    HW233981   2.326   0.248  11.785  0.2573 -1.4120 -0.4761
 7449SOL     OW33982   4.350   3.959  12.437 -0.1405 -0.1074  0.3326
 7449SOL    HW133983   4.258   3.954  12.464 -0.9160  0.2339 -2.1986
 7449SOL    HW233984   4.340   3.954  12.342 -0.9161  2.6063  0.2639
 7450SOL     OW33985   3.775   2.399   6.767 -0.2892  0.2202  0.3588
 7450SOL    HW133986   3.811   2.447   6.842 -1.7095 -0.0966  1.2546
 7450SOL    HW233987   3.827   2.322   6.790  0.5012  1.1129  1.5960
 7451SOL     OW33988   1.892   2.295   5.105  0.0252  0.4618  0.3930
 7451SOL    HW133989   1.894   2.390   5.113  1.2103  0.6155 -1.7971
 7451SOL    HW233990   1.956   2.266   5.170  1.7064  0.9760 -1.0543
 7452SOL     OW33991   0.651   4.595   8.453  0.1919 -0.0848  0.2546
 7452SOL    HW133992   0.634   4.579   8.360  2.5070  2.1219 -0.5307
 7452SOL    HW233993   0.745   4.580   8.460  0.2191 -0.6753 -1.3472
 7453SOL     OW33994   3.546   1.924  14.618  0.1370 -0.1449 -0.5312
 7453SOL    HW133995   3.570   2.008  14.579 -1.4349 -0.0046 -1.2063
 7453SOL    HW233996   3.479   1.907  14.551  0.4361  1.1467 -1.1689
 7454SOL     OW33997   2.852   0.297   8.479 -0.4643  0.2437 -0.3872
 7454SOL    HW133998   2.793   0.363   8.514 -0.6955 -0.9700  1.5160
 7454SOL    HW233999   2.781   0.248   8.438  0.5688 -1.6763  0.1043
 7455SOL     OW34000   3.200   4.115   6.385 -0.2371  0.0561  0.2933
 7455SOL    HW134001   3.178   4.190   6.330 -3.4690 -1.9588 -1.1433
 7455SOL    HW234002   3.162   4.051   6.325 -0.4922  0.3287  0.1656
 7456SOL     OW34003   4.710   3.189   8.960  0.0431  0.1922 -0.1477
 7456SOL    HW134004   4.716   3.126   8.889  0.8150  1.1811 -0.9672
 7456SOL    HW234005   4.687   3.269   8.913  1.1173  1.1874  1.0151
 7457SOL     OW34006   2.801   0.323   4.235 -0.7712 -0.1010  0.5741
 7457SOL    HW134007   2.806   0.329   4.139 -0.8146 -0.2554  0.5626
 7457SOL    HW234008   2.894   0.322   4.257 -0.5051  0.7002 -0.4745
 7458SOL     OW34009   2.774   2.839   0.239  0.1062 -0.5940 -0.5188
 7458SOL    HW134010   2.681   2.864   0.243  0.0442 -0.8540 -0.3335
 7458SOL    HW234011   2.811   2.898   0.173  1.1371 -0.4363  0.2077
 7459SOL     OW34012   4.264   2.159   8.287 -0.1452 -0.0142  0.8667
 7459SOL    HW134013   4.288   2.145   8.195 -0.0620  0.3291  0.8357
 7459SOL    HW234014   4.172   2.131   8.289 -0.6825  1.6021 -1.0707
 7460SOL     OW34015   1.318   2.839  12.265  0.4045  0.1058 -0.4819
 7460SOL    HW134016   1.301   2.865  12.174 -2.7900 -0.8196 -0.1444
 7460SOL    HW234017   1.307   2.918  12.318 -1.5634  0.8718 -2.0601
 7461SOL     OW34018   4.672   0.101   1.957  0.2121 -0.3478 -0.0823
 7461SOL    HW134019   4.607   0.047   1.912 -1.1639 -1.8127  3.6317
 7461SOL    HW234020   4.641   0.189   1.937  0.3320 -0.1732  0.5063
 7462SOL     OW34021   4.207   1.393   3.904 -0.2879 -0.2625  0.3109
 7462SOL    HW134022   4.298   1.373   3.883 -0.6760 -0.6037 -1.0106
 7462SOL    HW234023   4.206   1.370   3.997 -0.7080  0.6893  0.5419
 7463SOL     OW34024   3.388   0.319   0.319  0.1138  0.0831 -0.2720
 7463SOL    HW134025   3.325   0.302   0.388  0.3951 -1.3680 -0.3852
 7463SOL    HW234026   3.384   0.415   0.314 -2.1953  0.0315  0.9245
 7464SOL     OW34027   2.458   1.620  17.703  0.2056  0.2707 -0.1903
 7464SOL    HW134028   2.516   1.656  17.636  1.0257 -0.1656  0.2818
 7464SOL    HW234029   2.376   1.660  17.677  1.0311  1.3421 -1.1223
 7465SOL     OW34030   3.081   1.734   3.680  0.6083  0.0635 -0.2910
 7465SOL    HW134031   3.010   1.672   3.696  1.3118 -0.5867  0.2996
 7465SOL    HW234032   3.050   1.759   3.593 -0.1016  0.3101  0.0309
 7466SOL     OW34033   3.427   0.198   4.356 -0.4565 -0.2940  0.0943
 7466SOL    HW134034   3.450   0.109   4.329 -0.0445  0.1924 -1.1536
 7466SOL    HW234035   3.414   0.247   4.275 -1.8046 -0.2521  0.3445
 7467SOL     OW34036   0.947   2.718   6.847 -0.1155 -0.2809  0.3633
 7467SOL    HW134037   1.001   2.655   6.894 -0.1811  0.1978  1.0807
 7467SOL    HW234038   0.925   2.784   6.914  0.9835 -1.1280  1.5554
 7468SOL     OW34039   0.898   3.909   2.792 -0.2872  0.3518  0.3756
 7468SOL    HW134040   0.892   3.888   2.699  4.0362  0.1695  0.1639
 7468SOL    HW234041   0.888   4.003   2.803  0.5791  0.4849  0.0196
 7469SOL     OW34042   3.946   2.549   3.997  0.1886 -0.5499 -0.0704
 7469SOL    HW134043   3.903   2.544   4.083 -0.7938 -1.2517 -0.5922
 7469SOL    HW234044   3.916   2.633   3.964  0.2530 -0.4901  0.0232
 7470SOL     OW34045   1.345   1.120   1.557 -0.4227  0.0094 -0.5847
 7470SOL    HW134046   1.342   1.178   1.481 -1.0870  0.3360 -0.3040
 7470SOL    HW234047   1.326   1.197   1.610  1.1847 -0.0469  0.0761
 7471SOL     OW34048   1.172   0.780   8.957 -0.6606  0.1926  0.1363
 7471SOL    HW134049   1.109   0.837   8.914  2.1956  3.2928  0.0347
 7471SOL    HW234050   1.123   0.705   8.988 -1.1147 -0.1954 -1.5034
 7472SOL     OW34051   0.689   4.510  11.659  0.6253 -0.0358 -0.8151
 7472SOL    HW134052   0.744   4.433  11.671  2.8444  1.4584 -1.3586
 7472SOL    HW234053   0.721   4.573  11.723 -1.4100  0.2009 -0.0222
 7473SOL     OW34054   1.748   1.516  15.459  0.5880 -0.0720  0.1210
 7473SOL    HW134055   1.687   1.572  15.506  0.6246 -1.2284  1.5758
 7473SOL    HW234056   1.811   1.501  15.530  1.1507  1.1184 -0.1353
 7474SOL     OW34057   1.264   2.565   5.594 -0.3591  0.4029 -0.2154
 7474SOL    HW134058   1.253   2.507   5.519  2.5184 -0.8863  0.3458
 7474SOL    HW234059   1.266   2.505   5.669  0.3003  1.8553  0.9234
 7475SOL     OW34060   1.518   4.087  16.902 -0.0605 -0.3731  0.5786
 7475SOL    HW134061   1.435   4.061  16.942 -0.8194  1.4680  0.1589
 7475SOL    HW234062   1.493   4.077  16.810 -1.0895  0.6351  0.7430
 7476SOL     OW34063   2.171   3.466   5.613 -0.5103 -0.1527 -0.3218
 7476SOL    HW134064   2.256   3.423   5.602 -0.3203 -0.4543  2.2493
 7476SOL    HW234065   2.128   3.417   5.684 -0.7609 -0.9895 -1.0522
 7477SOL     OW34066   1.914   1.148   0.112 -0.2388  0.4841 -0.5573
 7477SOL    HW134067   1.853   1.085   0.150  0.3616  0.5511  0.5163
 7477SOL    HW234068   1.973   1.153   0.187 -2.2659 -0.7485  1.1427
 7478SOL     OW34069   2.090   3.948   7.361 -0.7550 -0.4493 -0.4804
 7478SOL    HW134070   2.115   3.866   7.318 -2.9107 -1.1167 -0.4868
 7478SOL    HW234071   2.173   3.976   7.399 -1.1748  0.8963 -0.5740
 7479SOL     OW34072   1.839   3.426   5.851  0.6335  0.2633 -0.3148
 7479SOL    HW134073   1.897   3.494   5.815 -1.3499  0.9519 -2.1661
 7479SOL    HW234074   1.777   3.482   5.899  0.8645  0.8005 -0.6439
 7480SOL     OW34075   0.886   1.359   4.971  0.4817  0.5413 -0.0366
 7480SOL    HW134076   0.802   1.405   4.971  0.2674  0.1286 -1.9763
 7480SOL    HW234077   0.860   1.271   4.946  2.7040 -0.1270  0.0528
 7481SOL     OW34078   0.004   1.147   6.917  0.4726  0.3569 -0.7189
 7481SOL    HW134079   4.651   1.114   6.898  0.2685 -0.1947  1.2522
 7481SOL    HW234080   0.018   1.118   7.007 -1.2775 -0.7199 -0.8031
 7482SOL     OW34081   1.429   2.043  12.395  0.1168  0.3106 -0.1814
 7482SOL    HW134082   1.414   1.949  12.406 -1.0723  0.4362 -0.7746
 7482SOL    HW234083   1.520   2.055  12.421 -0.1036  0.0973  0.6890
 7483SOL     OW34084   3.547   3.417   4.314  0.1876  0.1814 -0.4146
 7483SOL    HW134085   3.540   3.432   4.409  3.7586 -0.1003 -0.1237
 7483SOL    HW234086   3.558   3.322   4.316 -0.2128  0.1497  0.5414
 7484SOL     OW34087   4.497   1.618   9.241 -0.0910 -0.5786 -0.2801
 7484SOL    HW134088   4.509   1.624   9.147  0.4116  0.3727 -0.1484
 7484SOL    HW234089   4.579   1.651   9.278  0.7829 -0.7382 -2.0969
 7485SOL     OW34090   3.832   4.581   3.142 -0.5363 -0.0567  0.2004
 7485SOL    HW134091   3.793   4.494   3.138 -2.7134  0.9652 -0.4677
 7485SOL    HW234092   3.779   4.617   3.213 -0.7166 -0.9856  0.5286
 7486SOL     OW34093   0.705   3.979   3.328 -0.1010  0.0689  0.5309
 7486SOL    HW134094   0.610   3.966   3.324  0.3970 -2.9976 -1.4949
 7486SOL    HW234095   0.722   3.964   3.235 -1.0967  0.3332  0.3056
 7487SOL     OW34096   2.057   2.968   1.439  0.5175 -0.6704  0.2695
 7487SOL    HW134097   2.153   2.974   1.431  0.1007  3.8971 -0.7809
 7487SOL    HW234098   2.065   2.965   1.534 -0.6505  1.4821  0.4264
 7488SOL     OW34099   1.576   1.082   7.529  0.2970 -0.4951  0.6283
 7488SOL    HW134100   1.490   1.070   7.569  0.1731  0.4338  0.6347
 7488SOL    HW234101   1.588   1.171   7.560 -0.5466 -0.2982  0.3892
 7489SOL     OW34102   4.369   2.413   2.381  0.0000  0.2100 -0.4021
 7489SOL    HW134103   4.338   2.461   2.304 -0.3306  0.6672  0.0177
 7489SOL    HW234104   4.287   2.372   2.409  0.9532 -1.1213  0.4361
 7490SOL     OW34105   0.940   4.060   6.059  1.0038 -0.4068  0.3192
 7490SOL    HW134106   1.004   3.989   6.062  1.8304  0.3643  0.8369
 7490SOL    HW234107   0.867   4.017   6.015 -0.7894  2.2625  0.6715
 7491SOL     OW34108   1.635   4.674  16.704  0.6115 -0.4154  0.0034
 7491SOL    HW134109   1.597   0.012  16.656 -1.2725  1.0833  3.7714
 7491SOL    HW234110   1.721   4.706  16.731  0.6593 -0.3353 -0.2493
 7492SOL     OW34111   0.379   3.694   9.059  0.3227  0.3434 -0.3435
 7492SOL    HW134112   0.409   3.779   9.091 -0.4795  1.0783 -1.5547
 7492SOL    HW234113   0.415   3.641   9.130  0.0188  1.5411  0.6970
 7493SOL     OW34114   2.536   3.951   3.116 -0.0387 -0.3724  1.4519
 7493SOL    HW134115   2.573   3.982   3.199 -1.9971 -1.0775  2.5875
 7493SOL    HW234116   2.445   3.947   3.146  0.1816  1.0108  2.3007
 7494SOL     OW34117   2.097   1.832  13.612  0.0135  0.1596  0.0091
 7494SOL    HW134118   2.172   1.775  13.597  0.1184  0.6397 -1.2688
 7494SOL    HW234119   2.029   1.764  13.613  0.5394 -0.3633  0.0854
 7495SOL     OW34120   0.592   1.921   6.364  0.0140  0.4272  0.3427
 7495SOL    HW134121   0.669   1.892   6.315 -0.4947 -0.0981 -0.1372
 7495SOL    HW234122   0.521   1.876   6.319  1.4448 -0.1151 -1.3620
 7496SOL     OW34123   4.408   2.029  14.238 -0.0206  0.0363 -0.4686
 7496SOL    HW134124   4.336   2.092  14.233  0.9388  1.1717  0.0100
 7496SOL    HW234125   4.440   2.051  14.326 -1.1689 -0.2958  0.0367
 7497SOL     OW34126   3.201   4.485   7.628  0.4654  0.2382  0.0410
 7497SOL    HW134127   3.209   4.395   7.660  0.5635  0.0560 -0.4898
 7497SOL    HW234128   3.133   4.479   7.561  3.2325 -1.0162 -2.6857
 7498SOL     OW34129   1.806   2.928   4.310 -0.6133  0.3516  0.2191
 7498SOL    HW134130   1.811   2.891   4.222 -1.4981  2.0761 -0.5419
 7498SOL    HW234131   1.820   3.021   4.294 -0.9777  0.4003  0.1783
 7499SOL     OW34132   2.738   3.724   2.062  0.3755  0.1693  0.3959
 7499SOL    HW134133   2.741   3.808   2.108 -0.3410  1.8010 -2.4915
 7499SOL    HW234134   2.665   3.731   2.001  0.9773 -2.1371 -0.5839
 7500SOL     OW34135   4.655   0.630   8.231 -0.0166  0.5268 -0.8340
 7500SOL    HW134136   4.653   0.724   8.215  0.6358  0.2835 -2.3821
 7500SOL    HW234137   4.563   0.626   8.259 -0.0048 -1.4346 -1.0717
 7501SOL     OW34138   2.065   3.353   3.116  0.4140 -0.3248 -0.0449
 7501SOL    HW134139   2.016   3.323   3.193 -1.1762 -0.1436 -0.9930
 7501SOL    HW234140   2.067   3.448   3.127  2.6821 -0.2173 -1.2829
 7502SOL     OW34141   4.178   2.387   5.159 -0.5666 -0.4303  0.1002
 7502SOL    HW134142   4.255   2.422   5.114 -1.9401  2.3016 -0.1120
 7502SOL    HW234143   4.211   2.299   5.173  0.4405 -0.2897 -1.4159
 7503SOL     OW34144   0.583   0.718  12.793 -0.1254  0.3790  0.3687
 7503SOL    HW134145   0.595   0.729  12.699  0.4425  0.5441  0.4611
 7503SOL    HW234146   0.496   0.754  12.812 -0.1846  0.1499  0.5260
 7504SOL     OW34147   4.239   3.265   7.320  0.2491  0.0183 -0.2910
 7504SOL    HW134148   4.303   3.195   7.308 -1.6531 -1.5440 -1.4229
 7504SOL    HW234149   4.295   3.338   7.346  0.2346 -1.3712  3.7084
 7505SOL     OW34150   2.245   4.698   2.835 -0.5080  0.1633  0.5933
 7505SOL    HW134151   2.310   4.727   2.899  0.2378  2.8874 -1.4066
 7505SOL    HW234152   2.250   4.603   2.846  1.7883  0.2569  0.4368
 7506SOL     OW34153   1.665   2.284  12.160  0.0909 -0.1283  0.1595
 7506SOL    HW134154   1.661   2.339  12.238  0.0883 -1.5793  1.1966
 7506SOL    HW234155   1.591   2.226  12.177 -0.5635  0.6513 -0.0675
 7507SOL     OW34156   1.819   3.477   2.728 -0.3937 -0.3476 -0.0961
 7507SOL    HW134157   1.884   3.485   2.798  0.2474 -2.2238 -0.4949
 7507SOL    HW234158   1.781   3.565   2.724  0.2204 -0.0044  1.5797
 7508SOL     OW34159   0.083   4.151   7.212 -0.0498 -0.1773 -0.0788
 7508SOL    HW134160   0.094   4.218   7.145 -2.5492 -0.3097 -0.6423
 7508SOL    HW234161   0.162   4.152   7.266 -1.2235  0.7440  1.6029
 7509SOL     OW34162   2.461   3.088  11.324 -0.6250  0.0860  0.3346
 7509SOL    HW134163   2.430   3.178  11.322 -2.0188 -0.4377 -2.8645
 7509SOL    HW234164   2.388   3.030  11.300  0.2564 -1.0507  0.4006
 7510SOL     OW34165   2.388   1.788   5.079 -0.7044  0.0215 -0.1286
 7510SOL    HW134166   2.294   1.801   5.066 -0.5733 -0.6442 -1.7324
 7510SOL    HW234167   2.391   1.750   5.167  0.9292 -0.6302 -0.4583
 7511SOL     OW34168   2.510   0.181  16.590 -0.0332  0.0090  0.3125
 7511SOL    HW134169   2.528   0.239  16.516 -0.7797  1.1019  0.9745
 7511SOL    HW234170   2.536   0.095  16.558 -1.3919 -0.2156 -0.1810
 7512SOL     OW34171   1.634   2.939   4.530  0.3238 -0.4611 -0.3948
 7512SOL    HW134172   1.701   2.930   4.462 -2.8227 -2.6614 -3.2150
 7512SOL    HW234173   1.669   3.019   4.569 -0.7875  0.5307 -1.4205
 7513SOL     OW34174   0.729   2.690   0.062 -0.4028  0.0999 -0.4387
 7513SOL    HW134175   0.761   2.769   0.105 -2.5638  0.5702  0.3426
 7513SOL    HW234176   0.791   2.629   0.101 -1.9918 -0.2329  1.5634
 7514SOL     OW34177   2.846   3.175  12.244  0.5978 -0.4060 -0.1974
 7514SOL    HW134178   2.765   3.136  12.213  0.7853 -1.3363  0.4629
 7514SOL    HW234179   2.829   3.265  12.218  0.9860 -0.4609 -0.6383
 7515SOL     OW34180   2.609   1.426   7.205  0.0680 -0.0109  0.1772
 7515SOL    HW134181   2.675   1.480   7.161 -1.5763  1.7002 -0.2112
 7515SOL    HW234182   2.597   1.359   7.138  1.1603 -0.7583  0.7484
 7516SOL     OW34183   4.189   0.023  15.497  0.1775 -0.2800  0.7068
 7516SOL    HW134184   4.125   4.716  15.554 -0.4697  1.0653  0.9445
 7516SOL    HW234185   4.155   4.735  15.410 -1.6311  1.7171  0.8982
 7517SOL     OW34186   1.485   1.442  15.179 -0.2094 -0.0545  0.4290
 7517SOL    HW134187   1.467   1.348  15.192  1.2823 -0.2469  1.1222
 7517SOL    HW234188   1.580   1.446  15.168 -0.5509  2.4759 -1.5315
 7518SOL     OW34189   4.669   1.511  16.790 -0.1790  0.0120  0.5986
 7518SOL    HW134190   4.586   1.490  16.833 -1.1654  1.5566 -0.5566
 7518SOL    HW234191   4.717   1.547  16.864 -2.2951  3.1099  0.4645
 7519SOL     OW34192   1.392   3.683  12.946  0.9889 -0.3844  0.7198
 7519SOL    HW134193   1.307   3.648  12.973  2.0815 -4.2068 -0.8445
 7519SOL    HW234194   1.365   3.775  12.945  0.7585 -0.4664 -0.2470
 7520SOL     OW34195   2.201   1.558   1.822  0.2714  0.4666 -0.0653
 7520SOL    HW134196   2.225   1.591   1.735  1.2850  0.7630  0.3265
 7520SOL    HW234197   2.171   1.469   1.803  0.8393  0.2633  0.0007
 7521SOL     OW34198   0.931   4.377   5.792  0.2339 -0.3270  0.2073
 7521SOL    HW134199   1.003   4.314   5.790  0.8536  0.3514  1.0206
 7521SOL    HW234200   0.978   4.456   5.820  2.1974 -1.6044  0.4813
 7522SOL     OW34201   0.691   4.289   2.551 -0.0785 -0.2544 -0.0875
 7522SOL    HW134202   0.621   4.227   2.570  1.8547 -2.8007 -1.2879
 7522SOL    HW234203   0.637   4.367   2.542 -0.1074 -0.3028 -0.3606
 7523SOL     OW34204   0.114   1.390   5.059  0.3745  0.2576  0.3475
 7523SOL    HW134205   0.149   1.434   4.982  0.9413 -2.5810 -1.0418
 7523SOL    HW234206   0.195   1.362   5.104 -0.8043 -1.8584  1.1634
 7524SOL     OW34207   3.382   3.918  11.168  0.2185  0.4819  0.2540
 7524SOL    HW134208   3.295   3.927  11.129  1.2687 -0.2674 -2.3195
 7524SOL    HW234209   3.376   3.824  11.186  0.0601  0.8020  1.8692
 7525SOL     OW34210   1.432   1.556   7.347  0.7370  0.3434 -0.8880
 7525SOL    HW134211   1.465   1.644   7.369  0.1029  0.6961 -1.3554
 7525SOL    HW234212   1.411   1.568   7.255 -2.6756  1.6931  0.0831
 7526SOL     OW34213   3.339   2.638   5.454 -0.4086  0.0894 -0.0019
 7526SOL    HW134214   3.318   2.690   5.532  2.9299  0.2342  0.7741
 7526SOL    HW234215   3.428   2.667   5.435  0.1546 -0.2968  2.0500
 7527SOL     OW34216   0.383   2.267   7.742 -0.4777 -0.7831 -0.2460
 7527SOL    HW134217   0.422   2.265   7.654 -0.2497 -0.8966 -0.1449
 7527SOL    HW234218   0.439   2.201   7.785 -2.7954 -3.4708 -1.3828
 7528SOL     OW34219   2.831   1.713  15.965  0.1761 -0.3264  0.2739
 7528SOL    HW134220   2.786   1.654  15.904  1.6714 -1.1880 -0.0029
 7528SOL    HW234221   2.878   1.775  15.909  0.8036  0.6921  1.9221
 7529SOL     OW34222   1.805   2.984   8.165  0.1349  0.2472  0.2503
 7529SOL    HW134223   1.820   3.057   8.105 -2.8100  0.6477  0.0043
 7529SOL    HW234224   1.855   3.019   8.239  0.6138 -0.6346  0.3497
 7530SOL     OW34225   0.063   1.084   4.187 -0.0824  0.0502  0.2827
 7530SOL    HW134226   0.030   1.076   4.277 -0.3680  0.7550  0.2462
 7530SOL    HW234227   4.725   1.132   4.148  0.1121 -0.9142 -1.2570
 7531SOL     OW34228   0.174   3.599  13.033  0.2773  0.0781 -0.2489
 7531SOL    HW134229   0.154   3.505  13.031 -0.3955  0.2214 -0.0655
 7531SOL    HW234230   0.243   3.602  12.967  0.5265  2.4520  0.1408
 7532SOL     OW34231   0.684   1.761  12.881  0.0226 -0.0121  0.5252
 7532SOL    HW134232   0.672   1.856  12.879 -2.4659 -0.3297 -0.2000
 7532SOL    HW234233   0.773   1.754  12.846 -0.0897  0.6734  0.1209
 7533SOL     OW34234   4.165   3.289   4.851 -0.7328 -0.2811  0.6366
 7533SOL    HW134235   4.133   3.379   4.854 -1.7696 -0.6290 -0.0776
 7533SOL    HW234236   4.183   3.275   4.944  1.1488  2.3659  0.6631
 7534SOL     OW34237   2.557   1.643  10.016 -0.2351  0.0428  0.3707
 7534SOL    HW134238   2.587   1.597  10.094 -0.2106  0.3369  0.5346
 7534SOL    HW234239   2.635   1.643   9.960  0.9831 -2.0193  2.0866
 7535SOL     OW34240   1.237   1.545   6.188 -0.3063 -0.1960 -0.8149
 7535SOL    HW134241   1.243   1.464   6.239 -1.0697 -0.0113 -0.4306
 7535SOL    HW234242   1.292   1.596   6.247 -1.1137  0.1288 -0.3535
 7536SOL     OW34243   2.587   3.513   1.713 -0.0709  0.8328 -0.7983
 7536SOL    HW134244   2.637   3.476   1.640 -0.3632 -1.2144  0.0213
 7536SOL    HW234245   2.520   3.561   1.666  1.0003  0.9519 -2.2034
 7537SOL     OW34246   1.282   4.523   3.565  0.1410 -0.2051  0.1614
 7537SOL    HW134247   1.189   4.533   3.589 -0.2629 -0.7777 -1.1560
 7537SOL    HW234248   1.281   4.554   3.474  0.8315 -0.2480  0.1430
 7538SOL     OW34249   1.832   1.734   5.413 -0.4429 -0.1673  0.2979
 7538SOL    HW134250   1.851   1.827   5.399 -1.5643 -0.1917 -1.4348
 7538SOL    HW234251   1.894   1.718   5.484  0.6695 -0.6187 -0.7776
 7539SOL     OW34252   0.349   4.305   8.103  0.2792  1.0377  0.1820
 7539SOL    HW134253   0.279   4.277   8.044 -0.1942 -0.8737  1.6351
 7539SOL    HW234254   0.329   4.399   8.105  0.3875  1.0410  0.9183
 7540SOL     OW34255   4.310   1.484   5.721 -0.9703 -0.1711 -0.1106
 7540SOL    HW134256   4.353   1.559   5.681 -0.2261  0.8022  2.5534
 7540SOL    HW234257   4.369   1.464   5.794  2.5423 -0.6962 -3.1266
 7541SOL     OW34258   0.103   2.696   1.244 -0.1214 -0.7648  0.1108
 7541SOL    HW134259   0.137   2.741   1.322 -0.9204  0.3680 -0.1901
 7541SOL    HW234260   0.097   2.764   1.177 -0.5955 -1.0249 -0.1089
 7542SOL     OW34261   4.010   3.017   8.800  0.6070 -0.0242  1.2169
 7542SOL    HW134262   4.023   2.956   8.727  2.5445 -0.4309  1.9118
 7542SOL    HW234263   3.915   3.027   8.811  0.5392 -1.4382  1.8689
 7543SOL     OW34264   2.529   2.053   6.832 -0.1301 -0.2395 -0.2073
 7543SOL    HW134265   2.614   2.050   6.876 -1.5307 -1.9033  2.3749
 7543SOL    HW234266   2.505   2.145   6.821 -0.0134  0.1977  3.2861
 7544SOL     OW34267   3.199   0.076   7.381 -0.6228 -0.2660  0.0705
 7544SOL    HW134268   3.254   4.733   7.376 -0.6517 -0.2791 -0.0491
 7544SOL    HW234269   3.251   0.134   7.436 -0.2380 -1.9060  1.4079
 7545SOL     OW34270   4.327   1.997   5.055 -0.7455 -0.2018 -0.3294
 7545SOL    HW134271   4.400   1.940   5.033 -0.2102  1.1429 -2.0464
 7545SOL    HW234272   4.297   1.961   5.139  4.2126 -0.0942  1.4510
 7546SOL     OW34273   0.162   0.866   5.201 -0.4307  0.1400  0.2347
 7546SOL    HW134274   0.250   0.873   5.163 -0.0822  1.8580  1.3820
 7546SOL    HW234275   0.109   0.931   5.154 -0.4500  0.1818  0.3151
 7547SOL     OW34276   2.002   3.866   4.080 -0.1459 -0.7009  0.4514
 7547SOL    HW134277   1.943   3.936   4.109  1.2336 -0.0931  1.7572
 7547SOL    HW234278   2.038   3.850   4.168  0.6561  0.3442  0.3107
 7548SOL     OW34279   1.377   0.101   8.965 -0.1721 -0.0454  0.5097
 7548SOL    HW134280   1.331   0.175   8.926 -1.5654 -1.5252 -0.6801
 7548SOL    HW234281   1.370   0.125   9.057 -1.1668  1.0615  0.1452
 7549SOL     OW34282   0.565   3.576   8.523 -0.4713  0.0765 -0.0328
 7549SOL    HW134283   0.474   3.602   8.536 -1.1348 -2.6813  0.9249
 7549SOL    HW234284   0.566   3.541   8.434  0.8227 -1.1597  0.4781
 7550SOL     OW34285   3.955   2.951   1.225  0.2516 -0.3009 -0.0515
 7550SOL    HW134286   4.036   2.998   1.245 -1.0737  1.4043  1.2713
 7550SOL    HW234287   3.934   2.977   1.136 -0.8422 -1.8775 -0.2607
 7551SOL     OW34288   2.129   1.933   7.957 -0.1398  0.9390 -0.6670
 7551SOL    HW134289   2.137   1.838   7.965 -1.1618  0.8689 -0.4436
 7551SOL    HW234290   2.203   1.952   7.899  1.1717 -0.6131  0.5196
 7552SOL     OW34291   4.435   4.669   8.191 -0.4661  0.5726  0.2061
 7552SOL    HW134292   4.425   0.021   8.232  0.4052  0.7331  0.0817
 7552SOL    HW234293   4.411   4.615   8.266  0.9365 -1.7905 -1.0726
 7553SOL     OW34294   3.673   2.476  11.753  0.1365  0.0277 -0.5656
 7553SOL    HW134295   3.597   2.533  11.767 -0.2813 -0.6614 -0.0165
 7553SOL    HW234296   3.669   2.450  11.661  0.9813 -1.0894 -0.2913
 7554SOL     OW34297   4.731   4.019   7.896 -0.2247  0.1572 -0.4124
 7554SOL    HW134298   0.013   3.966   7.818  3.1495 -0.7486  0.9276
 7554SOL    HW234299   4.637   4.030   7.881  0.1663  0.7588 -2.4170
 7555SOL     OW34300   1.166   2.803   2.970  0.6039 -0.1968  0.2988
 7555SOL    HW134301   1.165   2.712   2.999  0.5057 -0.3714 -0.2417
 7555SOL    HW234302   1.259   2.822   2.986  0.2129  0.1133  2.1223
 7556SOL     OW34303   0.791   0.307   1.851 -0.0056  0.5764  0.3152
 7556SOL    HW134304   0.790   0.212   1.841 -1.7909  0.3398  2.8751
 7556SOL    HW234305   0.864   0.329   1.792 -0.2284 -1.9335 -0.8902
 7557SOL     OW34306   1.053   4.597   5.891 -0.1548 -0.5068  0.2342
 7557SOL    HW134307   1.054   4.669   5.828 -2.2741  1.3058  2.2540
 7557SOL    HW234308   1.112   4.640   5.953 -1.3611  0.1034  0.9640
 7558SOL     OW34309   3.581   1.375  12.693 -0.3332 -0.3976 -0.4609
 7558SOL    HW134310   3.664   1.335  12.721  0.6645  1.8319 -0.2661
 7558SOL    HW234311   3.562   1.327  12.612  0.0436 -0.9782 -0.2102
 7559SOL     OW34312   2.650   2.167   9.797 -0.0031  0.0848  0.0357
 7559SOL    HW134313   2.723   2.126   9.751 -2.3084  0.8022 -4.3181
 7559SOL    HW234314   2.607   2.084   9.816  1.0368 -0.2224  1.0248
 7560SOL     OW34315   0.337   4.131   6.974  0.3714 -0.0239  0.1005
 7560SOL    HW134316   0.286   4.052   6.955 -0.5215  0.1665  1.7166
 7560SOL    HW234317   0.420   4.127   6.927  0.7737 -0.9980  0.8756
 7561SOL     OW34318   2.837   0.689  11.760  0.4544 -0.7297  0.0291
 7561SOL    HW134319   2.895   0.732  11.698  1.0438 -0.5244  0.7261
 7561SOL    HW234320   2.800   0.759  11.813  0.1083  0.9766 -2.4640
 7562SOL     OW34321   1.426   4.687   3.790 -0.2285  0.2297  0.3761
 7562SOL    HW134322   1.419   0.035   3.743 -2.8158 -0.1778  0.0100
 7562SOL    HW234323   1.344   4.651   3.756 -0.7182  0.3682  1.4100
 7563SOL     OW34324   1.061   4.339  13.820  0.5218 -0.0451  0.1374
 7563SOL    HW134325   0.971   4.331  13.850  1.2837  0.0410  2.4430
 7563SOL    HW234326   1.063   4.432  13.798 -0.7079 -0.3108 -1.1558
 7564SOL     OW34327   2.681   2.392   3.844  0.3008 -0.0149  0.4472
 7564SOL    HW134328   2.616   2.391   3.915  0.7836  2.6907  0.9060
 7564SOL    HW234329   2.621   2.399   3.769  0.0626  0.5879  0.6982
 7565SOL     OW34330   2.642   4.293   7.935 -0.5013  0.2375 -0.1745
 7565SOL    HW134331   2.636   4.328   7.846 -0.4535 -2.3932 -1.1852
 7565SOL    HW234332   2.598   4.365   7.980 -1.1475 -0.2072 -0.1037
 7566SOL     OW34333   2.945   0.411   3.388  0.0050 -0.3041 -0.6655
 7566SOL    HW134334   3.025   0.377   3.429  0.2050  0.6080 -0.3145
 7566SOL    HW234335   2.985   0.480   3.335 -0.7173 -0.8174 -1.8884
 7567SOL     OW34336   1.237   3.897   7.262 -0.1520  0.1453  0.1518
 7567SOL    HW134337   1.313   3.895   7.203  0.3730 -0.4998  0.8517
 7567SOL    HW234338   1.206   3.988   7.262 -1.1744 -0.2073 -0.7070
 7568SOL     OW34339   4.722   3.612  14.289 -0.0441  0.4895 -0.0012
 7568SOL    HW134340   0.056   3.654  14.341  0.5759 -0.2084 -0.2530
 7568SOL    HW234341   0.001   3.522  14.318 -0.9196  0.5068  0.4676
 7569SOL     OW34342   1.938   3.110   7.291  0.2731  0.0095 -0.6454
 7569SOL    HW134343   1.950   3.154   7.375 -1.6589 -0.0766 -0.3181
 7569SOL    HW234344   1.914   3.025   7.328  0.7470 -0.4730 -1.4609
 7570SOL     OW34345   4.125   2.024  16.126  0.2635  0.3193 -0.5393
 7570SOL    HW134346   4.086   2.111  16.133 -1.2311 -0.2566 -1.9361
 7570SOL    HW234347   4.114   1.989  16.215 -0.2933  0.6258 -0.4872
 7571SOL     OW34348   3.574   1.613  13.751  0.1381  0.4284  0.0246
 7571SOL    HW134349   3.630   1.670  13.802 -0.0221 -1.3789  2.2087
 7571SOL    HW234350   3.511   1.578  13.814  0.5405 -1.9225 -0.8908
 7572SOL     OW34351   4.261   2.443   5.457  0.3816 -0.1690  0.5082
 7572SOL    HW134352   4.204   2.441   5.379  0.6962 -1.6633  0.3169
 7572SOL    HW234353   4.227   2.530   5.479  0.2517  0.2017 -1.1240
 7573SOL     OW34354   0.501   0.759   4.904  0.1670 -0.7933 -0.5000
 7573SOL    HW134355   0.589   0.725   4.924  0.0829 -0.8818 -0.2772
 7573SOL    HW234356   0.518   0.788   4.814 -2.6177 -1.4621 -1.2308
 7574SOL     OW34357   2.177   1.722   2.526  0.0275 -0.1679  0.4801
 7574SOL    HW134358   2.141   1.795   2.475  1.6445 -0.0735 -0.5588
 7574SOL    HW234359   2.100   1.700   2.578  0.0272 -0.1226  0.4983
 7575SOL     OW34360   0.312   1.862   2.788 -0.1582  0.0230 -0.1708
 7575SOL    HW134361   0.304   1.936   2.728 -0.5471  0.9091  0.9699
 7575SOL    HW234362   0.405   1.845   2.798 -0.1455  1.6707  2.4917
 7576SOL     OW34363   1.096   3.627   7.512 -0.4431 -0.1215 -0.0995
 7576SOL    HW134364   1.174   3.679   7.533 -0.0946 -0.2616 -1.0238
 7576SOL    HW234365   1.044   3.662   7.584 -1.6287 -0.1255 -0.9489
 7577SOL     OW34366   2.502   2.149   0.545  0.7070 -0.0861 -0.3338
 7577SOL    HW134367   2.508   2.238   0.579 -1.7388  0.2421 -0.7679
 7577SOL    HW234368   2.442   2.167   0.472 -1.4390  2.0209  1.9643
 7578SOL     OW34369   4.280   3.578  10.281  0.1976  0.3849  0.5532
 7578SOL    HW134370   4.227   3.526  10.342 -1.5327 -1.1841 -2.2192
 7578SOL    HW234371   4.363   3.540  10.309  0.6959  0.5376 -0.7182
 7579SOL     OW34372   3.969   4.493   2.186 -0.0289 -0.1236 -0.0224
 7579SOL    HW134373   3.943   4.531   2.102 -1.3603 -0.1089  0.4012
 7579SOL    HW234374   3.892   4.520   2.236 -0.0739 -0.0803 -0.1149
 7580SOL     OW34375   2.767   4.100  11.491 -0.1044 -0.2818  0.2051
 7580SOL    HW134376   2.840   4.040  11.503  2.4537  2.7554 -0.1503
 7580SOL    HW234377   2.791   4.142  11.408  1.7843  0.4786  1.1323
 7581SOL     OW34378   2.024   0.934   2.582 -0.5837 -0.8473  0.1878
 7581SOL    HW134379   2.013   0.852   2.535  3.1662 -0.6291 -1.0640
 7581SOL    HW234380   2.058   0.988   2.510 -1.8262  1.4683  1.3188
 7582SOL     OW34381   2.563   2.924  11.517 -0.4008  0.5710  0.1389
 7582SOL    HW134382   2.557   2.977  11.597 -0.5161  1.4263 -0.4392
 7582SOL    HW234383   2.539   2.990  11.453 -1.1529  0.7101  0.5654
 7583SOL     OW34384   1.089   3.148   7.318 -0.0206 -0.6752 -0.5440
 7583SOL    HW134385   1.088   3.072   7.259  1.4496 -0.8340 -0.3610
 7583SOL    HW234386   1.090   3.217   7.252 -2.9596  1.2332  1.4258
 7584SOL     OW34387   4.055   1.809   3.705 -0.2245 -0.3849  0.1091
 7584SOL    HW134388   4.029   1.802   3.797 -0.5761 -0.0597  0.0366
 7584SOL    HW234389   3.966   1.782   3.680 -0.1436  0.3088 -0.9202
 7585SOL     OW34390   2.829   3.836   1.507 -0.0304 -0.2955 -0.0023
 7585SOL    HW134391   2.755   3.786   1.473  0.3085 -1.2602  0.6754
 7585SOL    HW234392   2.781   3.917   1.523  0.2582  0.1832 -1.5551
 7586SOL     OW34393   2.868   2.999   0.050 -0.0410  0.1820 -0.9670
 7586SOL    HW134394   2.918   2.939  17.733  1.7125  0.8787 -0.1363
 7586SOL    HW234395   2.933   3.066   0.069  1.6643 -1.9945  1.0128
 7587SOL     OW34396   1.013   3.534   2.536  0.9183 -0.1875 -0.0706
 7587SOL    HW134397   0.978   3.546   2.624  0.9241 -1.8877  0.1602
 7587SOL    HW234398   0.943   3.495   2.484  1.7319 -0.0138 -1.2905
 7588SOL     OW34399   3.351   1.862   6.557 -0.4242  1.0580  0.2229
 7588SOL    HW134400   3.379   1.938   6.608 -1.2781  0.2522  1.9152
 7588SOL    HW234401   3.277   1.898   6.509  0.1976  0.9336 -0.8252
 7589SOL     OW34402   3.577   4.324   6.625  0.0694 -0.2655  0.0064
 7589SOL    HW134403   3.610   4.379   6.695  0.6393  0.6005 -0.9372
 7589SOL    HW234404   3.483   4.317   6.643  0.4097 -1.2039  1.4343
 7590SOL     OW34405   1.231   2.403   5.380  0.1134 -0.3399 -0.4312
 7590SOL    HW134406   1.145   2.378   5.413  1.1241 -2.3096  0.7379
 7590SOL    HW234407   1.260   2.325   5.332 -0.2647 -0.3795 -0.5948
 7591SOL     OW34408   3.834   2.713  17.260 -0.2381 -0.4841  0.3517
 7591SOL    HW134409   3.893   2.692  17.188 -0.0687  0.2259  0.2909
 7591SOL    HW234410   3.801   2.800  17.239  0.0563 -0.2376  0.9441
 7592SOL     OW34411   1.075   4.537   9.194  0.3357 -0.1400 -0.2455
 7592SOL    HW134412   1.015   4.514   9.123  0.8544 -1.4816 -0.2361
 7592SOL    HW234413   1.067   4.462   9.253 -1.3754  0.8847  0.8450
 7593SOL     OW34414   3.999   2.348   4.539 -0.8281  0.0605  0.0098
 7593SOL    HW134415   3.933   2.309   4.482 -2.4182 -0.0380  1.9157
 7593SOL    HW234416   3.943   2.385   4.607  0.3201 -1.6594  1.9048
 7594SOL     OW34417   2.383   3.044   8.237 -0.2964 -0.5583  0.3814
 7594SOL    HW134418   2.432   2.983   8.293 -0.6009 -1.0168  0.1456
 7594SOL    HW234419   2.339   3.100   8.302 -1.1746 -1.9262  0.9680
 7595SOL     OW34420   4.614   1.859   6.424  0.1605 -0.8952  0.4076
 7595SOL    HW134421   4.637   1.821   6.339 -0.2294  0.6384 -0.3714
 7595SOL    HW234422   4.620   1.781   6.479 -0.5821  0.4183  2.3635
 7596SOL     OW34423   1.863   0.704   6.496  0.6950 -0.4645  0.0216
 7596SOL    HW134424   1.923   0.667   6.561  0.3525  2.1075  1.8316
 7596SOL    HW234425   1.841   0.787   6.538 -2.1827 -1.3527  0.2419
 7597SOL     OW34426   3.802   1.043   7.535 -0.5364  0.2281  0.1315
 7597SOL    HW134427   3.709   1.056   7.515 -0.8855 -0.5454  1.2366
 7597SOL    HW234428   3.813   0.956   7.495 -1.7779  0.4393 -0.6852
 7598SOL     OW34429   0.806   1.600   8.658 -0.2506 -0.2513 -0.3116
 7598SOL    HW134430   0.764   1.666   8.713  0.1068 -0.1631 -0.1388
 7598SOL    HW234431   0.778   1.518   8.699 -0.3106  0.3252  0.7962
 7599SOL     OW34432   0.047   3.343   5.332 -0.3096 -0.1664  0.0494
 7599SOL    HW134433   0.087   3.419   5.373 -2.0587  1.4233 -1.2158
 7599SOL    HW234434   4.699   3.333   5.379 -0.2961  1.3718  0.3841
 7600SOL     OW34435   4.271   2.766   8.311  0.6513 -0.3318 -0.0386
 7600SOL    HW134436   4.220   2.706   8.256  2.1906 -1.1756 -0.5738
 7600SOL    HW234437   4.290   2.718   8.391  1.5107  0.1122  0.0297
 7601SOL     OW34438   0.808   3.040   5.118 -0.3999  0.0228  0.5577
 7601SOL    HW134439   0.767   3.056   5.203 -2.2081  0.4732 -0.3841
 7601SOL    HW234440   0.888   2.992   5.141  0.6826  1.4759 -0.1848
 7602SOL     OW34441   0.198   2.488   9.266 -0.2171 -0.0993 -0.2813
 7602SOL    HW134442   0.123   2.429   9.255  0.5390 -1.2374  0.7189
 7602SOL    HW234443   0.163   2.562   9.316  0.7760 -0.0937  0.3826
 7603SOL     OW34444   3.330   4.537   4.107 -0.0429  0.5261 -0.1167
 7603SOL    HW134445   3.256   4.484   4.077  0.8128 -0.8070  0.0859
 7603SOL    HW234446   3.340   4.602   4.038  0.3660  0.2512 -0.3133
 7604SOL     OW34447   0.503   0.257   6.290  0.3441 -0.7348  0.6308
 7604SOL    HW134448   0.501   0.171   6.331  1.0726  0.6482  3.4914
 7604SOL    HW234449   0.589   0.252   6.248  0.0202 -1.4787  0.0498
 7605SOL     OW34450   1.981   0.259   5.574 -0.2623 -0.3572  0.8048
 7605SOL    HW134451   2.003   0.288   5.663  3.1401 -1.5108  0.3349
 7605SOL    HW234452   1.985   0.344   5.531 -1.0901 -1.3386 -1.1686
 7606SOL     OW34453   2.811   3.251   5.617  0.2418 -0.1261 -0.1580
 7606SOL    HW134454   2.857   3.187   5.562 -1.3172 -0.7210 -0.7730
 7606SOL    HW234455   2.759   3.191   5.670  0.8602 -1.0208 -0.5500
 7607SOL     OW34456   0.687   0.213   7.007  0.1870 -0.5891  0.3398
 7607SOL    HW134457   0.618   0.197   7.071 -1.6610  0.9014 -1.2901
 7607SOL    HW234458   0.629   0.223   6.931  0.1346  1.1318  0.6081
 7608SOL     OW34459   1.541   2.322  10.910  0.3149  0.2730  0.3594
 7608SOL    HW134460   1.601   2.373  10.855  2.7071 -2.1695  0.7091
 7608SOL    HW234461   1.583   2.329  10.996  1.3160  0.8514 -0.1836
 7609SOL     OW34462   3.685   4.539   2.624  0.2980  0.5024 -0.1447
 7609SOL    HW134463   3.756   4.514   2.683  0.8818  1.0981 -0.5860
 7609SOL    HW234464   3.719   4.498   2.545  0.4609  0.6324 -0.1443
 7610SOL     OW34465   3.162   4.370  17.313 -0.1484  0.7166 -0.0918
 7610SOL    HW134466   3.123   4.444  17.359  0.4162  1.0911 -0.2104
 7610SOL    HW234467   3.115   4.376  17.231  1.1681 -2.4798 -1.0711
 7611SOL     OW34468   0.887   2.711   9.885  0.0516 -0.4328 -0.2881
 7611SOL    HW134469   0.864   2.759   9.805  0.2065  1.7588  0.9846
 7611SOL    HW234470   0.886   2.775   9.956  2.7825 -2.0206  1.1657
 7612SOL     OW34471   0.755   0.423  11.297 -0.8147 -0.2069  0.3704
 7612SOL    HW134472   0.777   0.333  11.272 -0.5505  0.8291 -3.1077
 7612SOL    HW234473   0.660   0.415  11.305 -0.8701 -1.2655 -1.3266
 7613SOL     OW34474   0.333   1.321   7.388 -0.1272 -0.7261  0.1501
 7613SOL    HW134475   0.420   1.325   7.428 -0.5530 -0.5942  1.0809
 7613SOL    HW234476   0.341   1.258   7.316  0.3781  0.4313 -0.7858
 7614SOL     OW34477   3.715   1.190   0.804 -0.6785  0.4646  0.3483
 7614SOL    HW134478   3.727   1.095   0.808 -0.4746  0.4531 -0.7629
 7614SOL    HW234479   3.664   1.209   0.883  1.0427 -0.2461  1.6398
 7615SOL     OW34480   4.478   2.237   6.739 -0.2243  0.8844 -0.2501
 7615SOL    HW134481   4.384   2.254   6.731  0.2834  3.0725 -1.4437
 7615SOL    HW234482   4.518   2.323   6.751 -0.3316  0.4964  3.1180
 7616SOL     OW34483   4.441   0.917   5.454  0.3951  0.2584  0.2904
 7616SOL    HW134484   4.450   0.825   5.431 -0.0864 -0.0778  1.3957
 7616SOL    HW234485   4.516   0.964   5.417  1.6002 -2.5651 -0.7833
 7617SOL     OW34486   2.180   0.055   5.109  0.0793  0.5593  0.2230
 7617SOL    HW134487   2.221   0.134   5.075  0.0758  0.5392  0.1718
 7617SOL    HW234488   2.214   0.036   5.196 -0.1199  0.4499  0.2773
 7618SOL     OW34489   4.480   3.427   0.134  0.4423 -0.4960  0.4021
 7618SOL    HW134490   4.555   3.421   0.193  0.7983  1.6089  0.1430
 7618SOL    HW234491   4.425   3.487   0.184 -1.2158 -0.6089 -1.2978
 7619SOL     OW34492   1.308   3.867  11.377 -0.2209  0.1165  0.5537
 7619SOL    HW134493   1.238   3.802  11.367 -1.5874  2.4126 -4.5326
 7619SOL    HW234494   1.327   3.840  11.467  2.0760 -0.9783 -0.2665
 7620SOL     OW34495   1.806   0.789   4.783  0.0654  0.2886  0.1038
 7620SOL    HW134496   1.728   0.826   4.823 -0.7282 -1.9182  0.6167
 7620SOL    HW234497   1.805   0.849   4.708 -1.5650  3.6694  2.8451
 7621SOL     OW34498   3.029   3.330   2.060  0.0467  0.0977  0.1358
 7621SOL    HW134499   3.116   3.298   2.036  0.4996  0.3720  1.4169
 7621SOL    HW234500   3.022   3.398   1.993  1.5569 -2.4122 -2.5814
 7622SOL     OW34501   1.793   1.696   8.866 -0.1419  0.1989 -0.0928
 7622SOL    HW134502   1.853   1.685   8.940  1.7275  0.3555 -1.6060
 7622SOL    HW234503   1.845   1.664   8.793 -1.0813 -1.6078  0.0371
 7623SOL     OW34504   2.715   4.173   2.751 -0.1077  0.0385  0.0570
 7623SOL    HW134505   2.689   4.104   2.812  2.1208 -1.6030 -0.8460
 7623SOL    HW234506   2.777   4.228   2.800 -0.2018  0.1249  0.0774
 7624SOL     OW34507   4.023   4.020   3.738  0.1887 -0.1861  0.1546
 7624SOL    HW134508   4.005   3.992   3.827  0.0277  1.7269  0.7210
 7624SOL    HW234509   3.955   3.970   3.693 -0.1764 -0.6353  1.2175
 7625SOL     OW34510   4.190   2.964   3.850  0.8043 -0.0688 -0.1219
 7625SOL    HW134511   4.122   3.018   3.892 -0.0828 -0.3110 -1.2475
 7625SOL    HW234512   4.248   3.028   3.810  0.8278  0.6532  1.0678
 7626SOL     OW34513   2.765   3.625   6.811  0.4529 -0.4747 -0.5035
 7626SOL    HW134514   2.806   3.705   6.777  2.5512 -1.1929  0.3355
 7626SOL    HW234515   2.746   3.569   6.735  1.4006 -1.8093  0.2568
 7627SOL     OW34516   1.088   3.251   6.468  0.2993  0.0590  0.0642
 7627SOL    HW134517   1.051   3.336   6.490  0.1646 -0.0543  0.2805
 7627SOL    HW234518   1.182   3.264   6.483  0.8380 -2.3394 -1.3225
 7628SOL     OW34519   2.939   0.709  15.963  0.6881 -0.3717 -0.0567
 7628SOL    HW134520   2.937   0.733  15.870 -0.3348  0.9054  0.2973
 7628SOL    HW234521   2.894   0.778  16.012 -0.2293 -1.5011  0.6981
 7629SOL     OW34522   1.851   1.155   4.852 -0.4018 -0.2299 -0.1707
 7629SOL    HW134523   1.804   1.124   4.929 -0.1958 -0.3634 -0.0984
 7629SOL    HW234524   1.782   1.161   4.786 -0.2421 -1.0498 -0.4097
 7630SOL     OW34525   0.017   1.996   2.686  0.2385  0.5189  0.0650
 7630SOL    HW134526   4.732   1.956   2.771 -1.6907  0.5658 -0.3519
 7630SOL    HW234527   4.687   1.959   2.626  1.4018  0.1464 -0.9620
 7631SOL     OW34528   4.584   0.284   1.356 -0.1202  0.1437 -0.5056
 7631SOL    HW134529   4.659   0.232   1.326 -0.8513 -0.7401 -0.8291
 7631SOL    HW234530   4.625   0.354   1.406 -0.9337  0.0975  0.2192
 7632SOL     OW34531   0.884   1.182   0.433  0.3402  0.1339  0.1360
 7632SOL    HW134532   0.929   1.249   0.381  0.0121  0.4773  0.2919
 7632SOL    HW234533   0.806   1.236   0.451  0.5365 -0.3352  2.4186
 7633SOL     OW34534   3.568   1.661   2.349  0.3606 -0.1919  0.1525
 7633SOL    HW134535   3.575   1.579   2.299  0.1052 -0.0108 -0.1833
 7633SOL    HW234536   3.587   1.633   2.438  0.2935 -1.9044 -0.3764
 7634SOL     OW34537   3.050   4.301  12.931  0.6061  0.4537  0.3629
 7634SOL    HW134538   2.963   4.319  12.896  1.2169  2.8926  0.0999
 7634SOL    HW234539   3.092   4.385  12.914  1.2682 -0.3014 -1.7853
 7635SOL     OW34540   2.062   2.581   5.887  0.6897  0.4343 -0.1112
 7635SOL    HW134541   2.105   2.580   5.973 -0.0999  1.5133  0.2978
 7635SOL    HW234542   1.990   2.644   5.897  1.2722  1.2444 -1.0153
 7636SOL     OW34543   3.068   1.665   4.292 -0.0487 -0.3585 -0.1055
 7636SOL    HW134544   3.020   1.746   4.277  2.3838  0.3778 -3.8653
 7636SOL    HW234545   3.043   1.649   4.383 -1.0942  0.9331 -0.1735
 7637SOL     OW34546   4.092   3.289  15.991  0.1018 -0.2404 -0.3592
 7637SOL    HW134547   4.117   3.257  16.077 -2.4704  2.6144  1.4287
 7637SOL    HW234548   4.024   3.225  15.972 -2.3898  1.9005  1.3740
 7638SOL     OW34549   1.956   4.324   5.072  0.5651 -0.1999 -0.0059
 7638SOL    HW134550   2.029   4.277   5.113  0.1417 -1.3784 -0.6321
 7638SOL    HW234551   1.993   4.412   5.058  1.0222 -0.5215 -0.8032
 7639SOL     OW34552   2.997   1.667   6.260  0.4329  0.4602 -0.5195
 7639SOL    HW134553   2.999   1.675   6.356  1.3829 -0.4272 -0.4724
 7639SOL    HW234554   3.072   1.725   6.247  0.8318  0.3999  1.3849
 7640SOL     OW34555   3.966   0.953   4.686  0.2735  0.0946 -0.4338
 7640SOL    HW134556   4.016   1.014   4.740 -0.5652 -0.3085  0.7866
 7640SOL    HW234557   4.038   0.919   4.633 -0.9310  1.7539 -3.1294
 7641SOL     OW34558   3.570   3.487   1.243 -0.8141  0.7347 -0.0264
 7641SOL    HW134559   3.529   3.415   1.195 -0.2802  0.0994  0.4575
 7641SOL    HW234560   3.614   3.441   1.314 -1.4830 -0.7772 -0.5741
 7642SOL     OW34561   0.077   1.319   2.037  0.2201  0.0401  0.1103
 7642SOL    HW134562   0.104   1.316   1.945 -1.0953 -1.2509 -0.2375
 7642SOL    HW234563   0.063   1.225   2.052  1.8397 -0.5199 -1.9274
 7643SOL     OW34564   4.418   3.868   4.247  0.3934 -0.4715  0.6586
 7643SOL    HW134565   4.449   3.896   4.334 -1.6566 -2.8721  2.1821
 7643SOL    HW234566   4.334   3.824   4.260 -0.3964  0.9718  0.3824
 7644SOL     OW34567   3.300   2.982   4.482 -0.1199  0.1211  0.0060
 7644SOL    HW134568   3.286   2.901   4.433  0.0603  1.2505 -1.8929
 7644SOL    HW234569   3.214   3.017   4.506  0.3999  0.5633  1.2259
 7645SOL     OW34570   0.570   2.060   7.852 -0.0628  0.3732 -0.1098
 7645SOL    HW134571   0.565   1.971   7.887  1.5563 -0.2841 -1.5692
 7645SOL    HW234572   0.570   2.113   7.932 -0.9175 -1.8207  1.3391
 7646SOL     OW34573   2.036   0.595  11.969 -0.0292 -0.2464 -0.0412
 7646SOL    HW134574   2.009   0.506  11.991 -0.6837 -0.4905 -1.8262
 7646SOL    HW234575   2.044   0.637  12.055  0.0961  1.8102 -1.0412
 7647SOL     OW34576   1.217   1.463  15.377 -0.3017 -0.3721 -0.5929
 7647SOL    HW134577   1.176   1.480  15.462 -0.5658 -2.6932 -0.2694
 7647SOL    HW234578   1.286   1.406  15.411 -2.2765 -2.0858  0.5552
 7648SOL     OW34579   0.825   4.091   4.342  0.3792  0.6041 -0.1291
 7648SOL    HW134580   0.881   4.143   4.398  0.5137  2.1970 -1.7279
 7648SOL    HW234581   0.767   4.160   4.309 -0.8482  0.2753  1.3582
 7649SOL     OW34582   4.595   1.405   7.848  0.6093 -0.2654 -0.4290
 7649SOL    HW134583   4.528   1.388   7.782 -1.4691  2.4291  0.9532
 7649SOL    HW234584   4.602   1.501   7.844  2.0646 -0.3485  0.2847
 7650SOL     OW34585   1.201   0.533  13.591  0.3974 -0.5913  0.0868
 7650SOL    HW134586   1.176   0.481  13.514 -2.3523  0.5637  0.1931
 7650SOL    HW234587   1.292   0.548  13.568  0.8547 -0.6420  1.8416
 7651SOL     OW34588   3.532   3.625   6.598  0.6242  0.5447  0.4137
 7651SOL    HW134589   3.588   3.698   6.573 -0.7479  0.8043 -1.9211
 7651SOL    HW234590   3.502   3.600   6.511  2.4517 -1.1772  0.2834
 7652SOL     OW34591   2.434   1.524   8.402 -0.0540 -0.2564 -0.0044
 7652SOL    HW134592   2.412   1.449   8.455  0.8598  0.1986  1.0237
 7652SOL    HW234593   2.530   1.521   8.403 -0.0255 -0.9803 -2.9127
 7653SOL     OW34594   0.366   2.541   8.493  0.2940 -0.2115 -0.2993
 7653SOL    HW134595   0.323   2.564   8.411 -0.4777 -0.0349  0.1528
 7653SOL    HW234596   0.320   2.585   8.565 -1.0270 -1.5199 -0.3442
 7654SOL     OW34597   1.014   3.325   4.616 -0.4126  0.0543 -0.7126
 7654SOL    HW134598   1.050   3.237   4.606  0.0890  0.0787  0.8066
 7654SOL    HW234599   0.920   3.314   4.610 -0.3822 -2.6977  4.2165
 7655SOL     OW34600   0.610   4.573   6.187  0.7482  0.0001  0.1480
 7655SOL    HW134601   0.604   4.649   6.130  2.1346 -1.3644 -1.8258
 7655SOL    HW234602   0.703   4.554   6.201  1.1175  0.9368 -1.0169
 7656SOL     OW34603   1.933   2.162   3.661 -0.2350 -0.2901 -0.0299
 7656SOL    HW134604   1.899   2.077   3.633  1.5419 -0.6630 -1.0099
 7656SOL    HW234605   2.005   2.122   3.710  0.7065  1.2876 -0.1298
 7657SOL     OW34606   3.541   4.465   2.092  0.2017  0.5370 -0.5020
 7657SOL    HW134607   3.470   4.410   2.059  0.6953  0.0476 -0.7340
 7657SOL    HW234608   3.505   4.497   2.175  0.2925 -2.5287  0.6997
 7658SOL     OW34609   0.497   3.158  12.530 -0.1874 -0.0082 -0.1700
 7658SOL    HW134610   0.470   3.227  12.590 -2.4464 -2.0419  1.1303
 7658SOL    HW234611   0.553   3.207  12.470  2.6618  0.0722  2.5303
 7659SOL     OW34612   1.320   4.410  13.857  0.1180 -0.0684  0.0588
 7659SOL    HW134613   1.232   4.374  13.863  1.0854 -2.6409 -1.5771
 7659SOL    HW234614   1.312   4.496  13.815  0.4034 -0.7707 -1.4028
 7660SOL     OW34615   2.256   0.173   4.736  0.2605  0.4116 -0.3541
 7660SOL    HW134616   2.229   0.099   4.681  2.4590  0.0570 -0.9271
 7660SOL    HW234617   2.351   0.169   4.740  0.3052  2.0342  0.1917
 7661SOL     OW34618   0.107   4.697  12.533 -0.4750 -0.4829 -0.2288
 7661SOL    HW134619   0.157   4.712  12.613 -0.8994  2.3626 -0.4987
 7661SOL    HW234620   0.061   4.617  12.556 -0.7771 -0.0844  0.5552
 7662SOL     OW34621   0.005   0.803   0.547 -0.0776  0.6233  0.3982
 7662SOL    HW134622   0.006   0.891   0.508  0.7778  0.1830 -0.5674
 7662SOL    HW234623   4.646   0.788   0.548 -0.1428  0.9379 -0.6495
 7663SOL     OW34624   2.408   1.181   4.718 -0.5875 -0.1037  0.3505
 7663SOL    HW134625   2.319   1.146   4.722 -0.9823  0.7203 -1.0662
 7663SOL    HW234626   2.375   1.270   4.722  0.0953  0.1073  1.3688
 7664SOL     OW34627   4.037   3.828   4.195 -0.1535  0.7454 -0.6637
 7664SOL    HW134628   4.094   3.792   4.128  2.8759  0.8504  1.8594
 7664SOL    HW234629   4.094   3.805   4.268 -0.6979  1.6976  0.0589
 7665SOL     OW34630   1.791   1.641   1.712 -0.2277  0.3231  1.2548
 7665SOL    HW134631   1.820   1.553   1.737 -2.4080 -1.2554 -1.6358
 7665SOL    HW234632   1.697   1.636   1.694  0.1694 -0.9257 -0.4726
 7666SOL     OW34633   4.323   3.409   3.270 -0.0701 -0.0363  0.0329
 7666SOL    HW134634   4.296   3.377   3.184 -0.6012  1.0657 -0.2112
 7666SOL    HW234635   4.398   3.355   3.294  0.6854  0.7102 -0.6408
 7667SOL     OW34636   1.038   0.786   3.428 -0.0701 -0.5844  0.1071
 7667SOL    HW134637   1.116   0.785   3.372  0.2208 -2.2692  0.5411
 7667SOL    HW234638   0.983   0.733   3.370  1.3663  0.1249 -1.9171
 7668SOL     OW34639   2.110   1.451   5.820  0.1428  0.6779 -0.0348
 7668SOL    HW134640   2.138   1.458   5.912 -3.1631  1.2271  0.9062
 7668SOL    HW234641   2.016   1.465   5.824  0.0613 -0.0235  0.6744
 7669SOL     OW34642   4.489   1.678  16.559 -0.5621  0.4612 -0.1659
 7669SOL    HW134643   4.563   1.725  16.520  0.2461  0.1319  0.9605
 7669SOL    HW234644   4.518   1.595  16.522 -3.6279  0.0700 -1.6580
 7670SOL     OW34645   0.776   2.104   2.810 -0.4235  0.9045 -0.1736
 7670SOL    HW134646   0.787   2.181   2.755  0.9146  0.1374 -0.9750
 7670SOL    HW234647   0.868   2.077   2.814 -0.1068  2.0785  0.3124
 7671SOL     OW34648   1.524   3.859   3.968 -0.0922  0.0365  0.2390
 7671SOL    HW134649   1.522   3.777   4.017  1.5111  0.1615  0.5374
 7671SOL    HW234650   1.618   3.853   3.947 -0.0469  1.4242  0.0601
 7672SOL     OW34651   1.424   2.728   0.776  0.5565 -0.2035 -0.3830
 7672SOL    HW134652   1.358   2.793   0.802 -0.4688 -1.0157 -0.9502
 7672SOL    HW234653   1.512   2.764   0.791 -0.1145  1.8542 -1.3209
 7673SOL     OW34654   4.309   0.004   4.441 -0.0424 -0.3123  0.3482
 7673SOL    HW134655   4.215   0.020   4.444 -0.1408 -0.5265 -1.2484
 7673SOL    HW234656   4.312   4.647   4.415 -2.3739  0.3674 -2.3411
 7674SOL     OW34657   1.158   3.471   8.571 -0.4718  0.6350 -0.4044
 7674SOL    HW134658   1.081   3.512   8.531 -0.9037 -0.6129 -0.8590
 7674SOL    HW234659   1.124   3.446   8.657 -0.9153 -2.2583 -1.4149
 7675SOL     OW34660   0.356   0.762   2.559  0.2795  0.0047 -0.2779
 7675SOL    HW134661   0.264   0.786   2.570 -0.6236 -2.5069 -2.2359
 7675SOL    HW234662   0.388   0.799   2.641  0.2403 -1.5106  0.4297
 7676SOL     OW34663   3.682   1.530   5.189 -0.2547  0.0699  0.0310
 7676SOL    HW134664   3.673   1.450   5.242 -0.5142 -0.9308 -1.5163
 7676SOL    HW234665   3.613   1.520   5.124 -2.0042 -0.1004  1.8993
 7677SOL     OW34666   3.781   3.135   4.928 -0.3492  1.3364 -0.0005
 7677SOL    HW134667   3.765   3.224   4.896  1.9789  0.9697 -2.1798
 7677SOL    HW234668   3.693   3.104   4.947 -0.4343  1.3323 -0.4070
 7678SOL     OW34669   4.547   4.601   3.721 -0.3632  0.7610 -0.4278
 7678SOL    HW134670   4.518   4.630   3.808 -0.1433 -2.9039  0.8714
 7678SOL    HW234671   4.569   4.680   3.673  0.1298 -0.6038 -2.4537
 7679SOL     OW34672   0.448   4.502   7.528 -0.1581  0.5436  0.3636
 7679SOL    HW134673   0.485   4.506   7.440 -0.5017 -1.0440  0.1412
 7679SOL    HW234674   0.474   4.418   7.566  0.7762  0.5962 -0.1695
 7680SOL     OW34675   1.068   2.676   1.008  0.2925  0.3044  0.1317
 7680SOL    HW134676   1.116   2.734   0.949 -2.8892  1.3153 -1.4898
 7680SOL    HW234677   1.129   2.653   1.077  2.8561  0.6941 -2.0179
 7681SOL     OW34678   1.072   1.556   3.218  0.8016  0.3738  0.1654
 7681SOL    HW134679   0.993   1.596   3.181  0.3016 -1.4353 -0.6836
 7681SOL    HW234680   1.058   1.539   3.311  0.4954  1.6303  0.3556
 7682SOL     OW34681   4.037   2.707  11.775 -0.3518 -0.2431  0.0099
 7682SOL    HW134682   4.003   2.635  11.828  1.2816 -1.8113 -1.0654
 7682SOL    HW234683   4.106   2.742  11.831 -0.3567 -0.8554  0.3995
 7683SOL     OW34684   3.967   3.552   9.030  0.4268  0.0945 -0.6653
 7683SOL    HW134685   4.056   3.566   9.060  1.2374 -0.9155 -2.6014
 7683SOL    HW234686   3.962   3.456   9.029 -2.5746  0.2325 -0.3427
 7684SOL     OW34687   3.437   0.521  17.654 -0.4978 -0.7138 -0.2592
 7684SOL    HW134688   3.424   0.567  17.571  3.4398  0.3803 -0.2809
 7684SOL    HW234689   3.359   0.466  17.650  0.2324 -1.9087  1.9262
 7685SOL     OW34690   0.728   0.207  13.105  0.4127 -0.0547  0.0697
 7685SOL    HW134691   0.712   0.284  13.050 -0.5664  0.7450  1.4670
 7685SOL    HW234692   0.671   0.135  13.078 -0.1415  0.5272 -0.3446
 7686SOL     OW34693   3.818   1.719   2.964  0.0100  0.2600  0.3440
 7686SOL    HW134694   3.848   1.786   2.902 -1.4717  0.2900 -0.3400
 7686SOL    HW234695   3.863   1.746   3.044  0.7485  0.7242 -0.2214
 7687SOL     OW34696   0.800   0.787   2.337  0.4240  0.1176  0.1480
 7687SOL    HW134697   0.721   0.824   2.376  0.6316 -2.1378  2.7326
 7687SOL    HW234698   0.761   0.725   2.275 -0.1581 -0.3948  1.0334
 7688SOL     OW34699   2.512   4.587   5.868 -0.1018  0.3860 -0.0170
 7688SOL    HW134700   2.418   4.574   5.851 -0.4215  1.6751  0.7452
 7688SOL    HW234701   2.528   4.656   5.804  1.9902  0.1725  0.2723
 7689SOL     OW34702   1.840   3.850  15.484  0.1053  0.3306 -0.4780
 7689SOL    HW134703   1.898   3.802  15.424 -0.3579 -1.8501  0.7990
 7689SOL    HW234704   1.856   3.941  15.458  1.4174 -0.3667 -2.1547
 7690SOL     OW34705   4.386   3.820   1.035  0.1355  0.1055 -0.3088
 7690SOL    HW134706   4.307   3.872   1.053  0.1320  1.1227 -3.1586
 7690SOL    HW234707   4.414   3.801   1.124 -0.6259  0.1432 -0.0604
 7691SOL     OW34708   3.856   4.584   6.693 -0.7795 -0.5858  0.1963
 7691SOL    HW134709   3.830   4.502   6.735  0.5414 -0.7962  0.6103
 7691SOL    HW234710   3.938   4.561   6.648 -0.2685 -1.4057  1.5335
 7692SOL     OW34711   2.488   3.722   2.760 -0.3586 -0.4616 -0.0868
 7692SOL    HW134712   2.434   3.720   2.839  0.0341  1.0716  0.2217
 7692SOL    HW234713   2.425   3.690   2.696  0.3391 -1.6703 -0.1716
 7693SOL     OW34714   3.380   3.086   4.858 -0.2773  0.6190 -0.1711
 7693SOL    HW134715   3.445   3.137   4.906  1.8037 -1.2912 -0.9811
 7693SOL    HW234716   3.333   3.166   4.833 -3.2448 -0.4110  2.0951
 7694SOL     OW34717   3.569   1.064   4.669  0.0165  0.2653  0.3549
 7694SOL    HW134718   3.644   1.043   4.614  0.2862 -0.7743  1.1370
 7694SOL    HW234719   3.611   1.085   4.752 -0.6691  2.6303  0.1283
 7695SOL     OW34720   1.839   3.701   4.574 -0.7369 -0.3213 -1.1741
 7695SOL    HW134721   1.778   3.770   4.545 -0.3042  0.3977 -0.3808
 7695SOL    HW234722   1.862   3.666   4.488 -0.5545 -0.2667 -1.1490
 7696SOL     OW34723   0.130   3.531   5.032 -0.2126 -0.0667 -0.1873
 7696SOL    HW134724   0.048   3.578   5.047  0.0647  0.1005  0.8291
 7696SOL    HW234725   0.133   3.537   4.937 -0.0214 -1.5754 -0.2759
 7697SOL     OW34726   1.320   4.424   7.032  0.6484 -0.2147 -0.0888
 7697SOL    HW134727   1.277   4.508   7.018 -1.7024 -1.3501  0.4098
 7697SOL    HW234728   1.408   4.452   7.057  0.5778  0.8928 -1.0871
 7698SOL     OW34729   3.883   4.206  14.395  0.4005  0.5344  0.4083
 7698SOL    HW134730   3.894   4.143  14.467 -2.0449 -0.4821 -0.1142
 7698SOL    HW234731   3.842   4.160  14.321  0.1165 -0.6098  1.2781
 7699SOL     OW34732   0.562   1.365  10.526 -0.3556 -0.7751 -0.4691
 7699SOL    HW134733   0.612   1.437  10.487  1.1356 -0.6746  1.6309
 7699SOL    HW234734   0.619   1.288  10.529  0.0962 -0.4317 -0.2385
 7700SOL     OW34735   2.299   0.597   4.069 -0.1669 -0.6270 -0.1346
 7700SOL    HW134736   2.358   0.641   4.007  1.1714 -1.1386  0.7631
 7700SOL    HW234737   2.347   0.517   4.089  2.0617  0.4128 -1.2509
 7701SOL     OW34738   0.679   3.420  17.090  0.0507  0.1247 -0.6004
 7701SOL    HW134739   0.656   3.342  17.040 -0.0693  0.7840 -1.5613
 7701SOL    HW234740   0.594   3.459  17.108 -0.0113 -0.6490  0.7619
 7702SOL     OW34741   0.158   3.810  15.422 -0.6454 -0.1135  0.7284
 7702SOL    HW134742   0.129   3.720  15.415 -3.3129  0.6903  1.7519
 7702SOL    HW234743   0.252   3.794  15.431 -0.5832  0.7118  1.5458
 7703SOL     OW34744   0.031   4.388  16.106  0.2456 -0.2040 -0.2318
 7703SOL    HW134745   0.113   4.372  16.152  0.2304 -0.3125 -0.2440
 7703SOL    HW234746   4.715   4.337  16.169 -2.7956  2.1277 -0.7725
 7704SOL     OW34747   2.255   1.777   3.384 -0.0143  0.3253 -0.1424
 7704SOL    HW134748   2.246   1.790   3.290  1.0071 -0.1531 -0.2955
 7704SOL    HW234749   2.335   1.725   3.387 -0.2902 -0.1299 -0.9139
 7705SOL     OW34750   1.916   0.483   7.945  0.2286  0.3524  0.6351
 7705SOL    HW134751   1.898   0.573   7.915  2.8529  0.7381  0.2039
 7705SOL    HW234752   2.006   0.465   7.916 -0.3254 -2.3253  0.6143
 7706SOL     OW34753   0.290   1.759   3.499 -0.6297 -0.1792  0.5372
 7706SOL    HW134754   0.195   1.755   3.487 -0.5763 -2.0369  0.8299
 7706SOL    HW234755   0.324   1.809   3.424 -1.9452 -0.0315  0.0371
 7707SOL     OW34756   1.042   2.345   7.539  0.2359 -0.5256 -0.0670
 7707SOL    HW134757   1.048   2.282   7.611 -0.7953 -0.8680 -0.2902
 7707SOL    HW234758   1.099   2.418   7.564  1.6861 -1.9519  0.8331
 7708SOL     OW34759   1.843   0.848   7.384 -0.2467  0.1988 -0.6937
 7708SOL    HW134760   1.910   0.916   7.383  1.6704 -1.6659  0.4998
 7708SOL    HW234761   1.759   0.894   7.385  0.2764  1.0637  2.1576
 7709SOL     OW34762   0.367   2.931   8.621 -0.4216 -0.2282 -0.5033
 7709SOL    HW134763   0.293   2.965   8.570  0.7656 -0.3646 -2.3079
 7709SOL    HW234764   0.416   2.882   8.556 -0.9103  1.6708 -2.3266
 7710SOL     OW34765   0.234   4.643  15.704  0.3966 -0.1151  0.0331
 7710SOL    HW134766   0.185   4.583  15.762 -0.6393 -0.7631 -1.5169
 7710SOL    HW234767   0.221   4.722  15.756 -1.2243 -0.0228 -0.4982
 7711SOL     OW34768   1.957   1.022   5.200  0.3681  1.0106 -0.0653
 7711SOL    HW134769   1.867   1.037   5.173  0.5334 -2.0731 -2.2192
 7711SOL    HW234770   1.964   1.074   5.281 -0.9235  2.4329 -0.8768
 7712SOL     OW34771   0.786   2.551   4.275  0.1717  0.0895 -0.1712
 7712SOL    HW134772   0.836   2.543   4.355 -1.7203  0.1400  1.0211
 7712SOL    HW234773   0.826   2.480   4.226  0.9763  1.0675 -0.9515
 7713SOL     OW34774   0.949   0.358   4.431 -0.0768  0.0790  0.4163
 7713SOL    HW134775   1.021   0.297   4.414 -1.4754 -1.2244 -0.7986
 7713SOL    HW234776   0.926   0.336   4.521  2.2304 -2.6586  0.3431
 7714SOL     OW34777   1.958   3.133   2.137  0.1401 -0.4621 -0.0419
 7714SOL    HW134778   1.895   3.061   2.138 -1.3433  0.7998 -2.2692
 7714SOL    HW234779   1.942   3.168   2.049 -0.7136 -1.5697 -0.3229
 7715SOL     OW34780   0.050   2.240   9.250  0.1481 -0.2297  0.0293
 7715SOL    HW134781   4.724   2.171   9.225  1.7395 -1.2104 -1.1974
 7715SOL    HW234782   0.122   2.184   9.282  0.2160 -0.3522 -0.3427
 7716SOL     OW34783   3.411   1.063   8.661 -0.4667  0.2754  0.0263
 7716SOL    HW134784   3.365   1.141   8.630 -0.7485 -0.8429 -2.4037
 7716SOL    HW234785   3.376   1.000   8.598  2.4564  1.3292 -2.6687
 7717SOL     OW34786   0.707   4.529   9.153  0.1758 -0.0130 -0.2435
 7717SOL    HW134787   0.692   4.434   9.150 -2.3049  0.4194 -1.5765
 7717SOL    HW234788   0.636   4.568   9.102 -0.0467  0.5167  0.4824
 7718SOL     OW34789   1.474   2.160   2.165  0.1909 -0.3744  0.2867
 7718SOL    HW134790   1.562   2.193   2.147  0.4398 -0.3026  1.6370
 7718SOL    HW234791   1.485   2.066   2.180 -1.2893 -0.1185  2.9740
 7719SOL     OW34792   2.232   1.254   3.899  0.2066 -0.2091  0.1962
 7719SOL    HW134793   2.198   1.341   3.919 -0.0374 -0.3137  0.2341
 7719SOL    HW234794   2.185   1.200   3.962 -0.6764  0.8848  0.4563
 7720SOL     OW34795   3.963   2.546   6.045 -0.1132 -0.1564  0.0302
 7720SOL    HW134796   3.966   2.463   6.093  1.5098 -1.2458 -1.9485
 7720SOL    HW234797   3.929   2.539   5.956 -0.0870  1.3323 -0.0877
 7721SOL     OW34798   3.743   0.002  16.893  0.3336  0.1968 -0.1081
 7721SOL    HW134799   3.771   4.651  16.864  1.3603  1.4027 -2.7286
 7721SOL    HW234800   3.817   0.064  16.887  0.1460  0.2715 -1.8372
 7722SOL     OW34801   2.116   2.208   4.409 -0.5398  0.1369 -0.3434
 7722SOL    HW134802   2.083   2.274   4.470  1.0787  0.2321  0.4051
 7722SOL    HW234803   2.173   2.264   4.355 -0.0528  1.5265  1.6390
 7723SOL     OW34804   1.086   4.042   7.691 -0.3621 -0.4750 -0.5435
 7723SOL    HW134805   1.113   4.018   7.603  0.3224  0.8075 -0.6876
 7723SOL    HW234806   1.039   3.963   7.716  1.3544 -0.6666  2.1204
 7724SOL     OW34807   4.456   1.293  13.635 -0.0629 -0.5202 -0.0947
 7724SOL    HW134808   4.538   1.343  13.628 -1.8443  1.9934 -3.0462
 7724SOL    HW234809   4.471   1.245  13.716  2.0280  0.6969  0.2661
 7725SOL     OW34810   1.833   2.544  10.888 -0.0663  0.2651 -0.4506
 7725SOL    HW134811   1.803   2.631  10.863  0.1966  0.0514 -1.5291
 7725SOL    HW234812   1.918   2.558  10.931 -0.1372 -0.9519  0.0841
 7726SOL     OW34813   2.184   2.939   4.684 -0.0060  0.1594  0.2044
 7726SOL    HW134814   2.116   3.000   4.656  1.1939  1.3539 -0.0790
 7726SOL    HW234815   2.212   2.887   4.608 -0.1741 -0.0036  0.2534
 7727SOL     OW34816   3.220   3.969   5.259  0.4212 -0.3193 -0.8213
 7727SOL    HW134817   3.168   3.917   5.198 -0.2422 -0.9159  0.2480
 7727SOL    HW234818   3.244   4.040   5.200 -1.2823  2.5297  1.8804
 7728SOL     OW34819   3.590   0.456   4.795  0.0663  0.2499 -0.2924
 7728SOL    HW134820   3.562   0.432   4.707 -0.4405  0.2744 -0.1342
 7728SOL    HW234821   3.599   0.551   4.788  1.0848  0.0514 -1.5632
 7729SOL     OW34822   3.249   1.597   5.372 -0.0736  0.1429 -0.0976
 7729SOL    HW134823   3.233   1.518   5.321  0.0876 -1.8817  3.0221
 7729SOL    HW234824   3.208   1.668   5.323  0.6241  0.8726  0.3803
 7730SOL     OW34825   2.701   4.254   5.391  0.7966 -0.2161  0.1280
 7730SOL    HW134826   2.751   4.244   5.472 -0.0292 -0.1685  0.6415
 7730SOL    HW234827   2.767   4.238   5.324  1.0274  0.1067  0.2740
 7731SOL     OW34828   2.765   3.989   5.896  0.0801  0.0349 -0.0486
 7731SOL    HW134829   2.849   4.023   5.867 -0.3234 -0.2842 -1.6141
 7731SOL    HW234830   2.725   3.978   5.809 -0.0465 -2.0263  0.2683
 7732SOL     OW34831   1.759   0.050  14.610 -0.0644  0.8813  0.0848
 7732SOL    HW134832   1.753   0.140  14.641 -2.4894  1.0292 -0.8416
 7732SOL    HW234833   1.694   0.050  14.541  0.8050 -4.2135 -0.7210
 7733SOL     OW34834   1.043   2.249   2.478  0.0809 -0.3580 -0.6423
 7733SOL    HW134835   1.065   2.338   2.451  0.2884 -0.0437  0.5517
 7733SOL    HW234836   1.121   2.199   2.454  1.8727  1.6606  0.9538
 7734SOL     OW34837   0.992   4.052   9.315 -0.0415 -0.2360  0.2790
 7734SOL    HW134838   1.085   4.063   9.295 -0.7494  2.4245 -1.6589
 7734SOL    HW234839   0.963   4.065   9.224 -2.5830 -1.8762  0.8566
 7735SOL     OW34840   2.559   2.740   2.709 -0.7016  0.2000 -0.0502
 7735SOL    HW134841   2.593   2.830   2.709  1.1111 -0.4892  0.4539
 7735SOL    HW234842   2.627   2.693   2.660  1.3023  1.8566  1.1595
 7736SOL     OW34843   0.881   1.938  13.316  0.3951  0.3070 -0.3665
 7736SOL    HW134844   0.855   1.870  13.254  0.2873 -0.1571  0.1949
 7736SOL    HW234845   0.969   1.911  13.340  0.4286  0.1635 -0.6518
 7737SOL     OW34846   2.440   1.795   9.343  1.1569  0.2070 -0.4919
 7737SOL    HW134847   2.398   1.784   9.428 -0.5430  0.1887 -1.3107
 7737SOL    HW234848   2.510   1.858   9.359  2.4133 -1.2318 -0.3915
 7738SOL     OW34849   4.277   0.117   6.708  0.6079 -0.1202  0.0310
 7738SOL    HW134850   4.345   0.138   6.772 -1.5150 -0.2426  2.3488
 7738SOL    HW234851   4.197   0.122   6.761 -0.5306  2.1225 -1.9075
 7739SOL     OW34852   1.502   0.050   5.078  0.0401 -0.4773  0.8194
 7739SOL    HW134853   1.579   0.062   5.023  0.7520 -0.4678  1.8311
 7739SOL    HW234854   1.436   0.021   5.014 -2.4851  3.0165  1.8066
 7740SOL     OW34855   0.882   1.889   8.440 -0.7750  0.0243  0.0972
 7740SOL    HW134856   0.950   1.926   8.496  0.2689 -2.0754  0.2006
 7740SOL    HW234857   0.933   1.869   8.362  1.4857  2.6689  0.9164
 7741SOL     OW34858   3.774   1.602   1.882  0.3587  0.6438 -0.5131
 7741SOL    HW134859   3.842   1.585   1.817  0.1504  3.8158 -1.5752
 7741SOL    HW234860   3.821   1.558   1.952  2.1209  2.5449 -0.4905
 7742SOL     OW34861   3.679   1.492   3.763 -0.6016  0.3214 -0.1320
 7742SOL    HW134862   3.675   1.466   3.671  3.4192 -1.9966  0.3744
 7742SOL    HW234863   3.770   1.478   3.789 -0.6576  1.2421  0.5680
 7743SOL     OW34864   0.108   2.517  11.981 -0.7366  0.1451  0.5128
 7743SOL    HW134865   0.155   2.518  12.064  1.0022  2.3978 -0.5033
 7743SOL    HW234866   0.036   2.455  11.995 -0.1487 -0.2899  1.5915
 7744SOL     OW34867   3.554   1.866   3.517  0.5208 -0.0985 -0.9712
 7744SOL    HW134868   3.461   1.886   3.500  0.5613  1.2649  0.4684
 7744SOL    HW234869   3.601   1.949   3.515  0.8786 -0.2903 -0.4291
 7745SOL     OW34870   2.236   2.118  13.015 -0.2175  0.2236 -0.2974
 7745SOL    HW134871   2.188   2.153  13.090 -1.0771  0.4312 -0.9480
 7745SOL    HW234872   2.325   2.129  13.049  0.0631 -0.7600 -0.7204
 7746SOL     OW34873   3.404   3.756  12.884  0.1045  0.2364  0.0937
 7746SOL    HW134874   3.440   3.844  12.901  1.3561 -0.4131  0.7768
 7746SOL    HW234875   3.324   3.779  12.836  0.2254  0.6115  0.0687
 7747SOL     OW34876   2.531   4.524  14.825 -0.0522 -0.1149 -0.3350
 7747SOL    HW134877   2.569   4.561  14.745  1.4136 -0.1507  0.3391
 7747SOL    HW234878   2.457   4.476  14.790 -0.4228  0.1522  0.0791
 7748SOL     OW34879   0.046   3.666   0.973 -0.1941 -0.0668  0.1973
 7748SOL    HW134880   4.723   3.741   0.960  2.0771  1.3757 -1.5423
 7748SOL    HW234881   0.036   3.619   0.891 -0.9509 -0.1374  0.3315
 7749SOL     OW34882   2.949   4.697  12.821  0.5890  0.0750  0.1366
 7749SOL    HW134883   2.933   4.675  12.729 -0.5461  0.4572  0.2383
 7749SOL    HW234884   2.871   0.018  12.825  0.4336 -0.4236  4.3232
 7750SOL     OW34885   1.096   1.416   2.954 -0.0754 -0.8390  0.6117
 7750SOL    HW134886   1.146   1.420   3.036  0.9256 -1.0265  0.0054
 7750SOL    HW234887   1.030   1.485   2.957  0.1631 -0.5024 -2.4534
 7751SOL     OW34888   1.099   4.529   4.614  0.5166  0.0540 -0.3926
 7751SOL    HW134889   1.018   4.478   4.606  1.7053 -2.2191  1.6482
 7751SOL    HW234890   1.063   4.613   4.641 -1.5618 -1.0346  0.2601
 7752SOL     OW34891   3.326   1.726   4.357 -0.3261  0.5454 -0.4282
 7752SOL    HW134892   3.379   1.651   4.333 -0.4471  0.3967 -0.2276
 7752SOL    HW234893   3.242   1.689   4.329  0.0900  0.3474 -1.4241
 7753SOL     OW34894   1.925   3.623   7.469 -0.0762  0.1309  0.1990
 7753SOL    HW134895   1.843   3.667   7.448 -0.9351 -2.4589 -1.8658
 7753SOL    HW234896   1.990   3.657   7.407  0.0886  0.4957  0.5677
 7754SOL     OW34897   0.075   4.046  17.594 -0.2572 -0.0667  0.0019
 7754SOL    HW134898   0.106   4.127  17.553  2.7741 -1.9366 -1.3551
 7754SOL    HW234899   0.142   3.982  17.570  2.5616  2.1329  2.0237
 7755SOL     OW34900   1.718   1.487   2.642  0.2433 -0.1375 -0.0258
 7755SOL    HW134901   1.750   1.547   2.709  2.2442 -1.3188  0.0585
 7755SOL    HW234902   1.651   1.540   2.598  1.2427  2.5877  1.6982
 7756SOL     OW34903   2.939   3.007   6.899 -0.7459  0.4056  0.1737
 7756SOL    HW134904   3.029   2.995   6.930 -0.4301  0.0271 -0.8909
 7756SOL    HW234905   2.881   2.939   6.934 -1.7526  1.9814  1.5650
 7757SOL     OW34906   0.340   2.417   5.376  0.1542  0.4009 -0.2655
 7757SOL    HW134907   0.331   2.462   5.292 -3.3919 -1.0258 -0.6494
 7757SOL    HW234908   0.293   2.334   5.368  0.1783  0.3318  0.3166
 7758SOL     OW34909   2.894   3.003  17.211 -0.3583  0.4448  0.0406
 7758SOL    HW134910   2.800   3.000  17.229 -0.2331  0.4416  0.6775
 7758SOL    HW234911   2.896   3.096  17.192 -0.5113  0.7069  1.2929
 7759SOL     OW34912   4.287   3.857   6.009 -0.1728  0.7646 -0.0044
 7759SOL    HW134913   4.364   3.876   6.063 -0.4541 -0.2474  0.7452
 7759SOL    HW234914   4.215   3.870   6.070  1.4457  1.0649  1.8129
 7760SOL     OW34915   3.185   4.423   7.191 -0.0896 -0.4452 -0.2677
 7760SOL    HW134916   3.243   4.493   7.164 -0.8891  0.4716  0.4148
 7760SOL    HW234917   3.179   4.363   7.116 -0.0304  0.5487 -1.0650
 7761SOL     OW34918   3.059   3.695   4.835  0.4622  0.2629 -0.4388
 7761SOL    HW134919   3.131   3.634   4.854  0.0566  0.4076  1.5914
 7761SOL    HW234920   2.983   3.648   4.870 -0.9993  1.4509 -2.0413
 7762SOL     OW34921   2.115   1.447  17.337  0.1992  0.5507 -0.0384
 7762SOL    HW134922   2.057   1.478  17.407 -1.2712  1.1775 -1.5344
 7762SOL    HW234923   2.075   1.488  17.260 -0.9510  0.5215  0.5490
 7763SOL     OW34924   0.219   3.064   8.432 -0.1016 -0.5885  0.8138
 7763SOL    HW134925   0.242   3.044   8.341 -2.2601  2.2448 -0.3468
 7763SOL    HW234926   0.243   3.157   8.436 -2.1082 -0.0334 -0.2652
 7764SOL     OW34927   1.135   3.751   3.666 -0.0842 -0.1061  0.1193
 7764SOL    HW134928   1.153   3.844   3.656 -0.1586 -0.7027 -5.7790
 7764SOL    HW234929   1.107   3.742   3.757  0.1641 -0.9682  0.1114
 7765SOL     OW34930   0.269   2.782  10.090 -0.0296  0.4076 -0.1923
 7765SOL    HW134931   0.313   2.818  10.167  2.5751 -1.3415 -0.8881
 7765SOL    HW234932   0.311   2.837  10.024  0.7522  0.9378  0.7561
 7766SOL     OW34933   0.165   4.382   2.310  0.0346  0.6602  0.6015
 7766SOL    HW134934   0.179   4.440   2.385  0.6831  0.8367  0.3416
 7766SOL    HW234935   0.124   4.299   2.332  0.7166  0.4496  1.0618
 7767SOL     OW34936   0.627   1.845  16.263 -0.1898 -0.0733 -0.2895
 7767SOL    HW134937   0.611   1.830  16.170 -2.3507  3.5210 -0.4606
 7767SOL    HW234938   0.559   1.787  16.299  0.2851  0.3719  1.3271
 7768SOL     OW34939   2.033   1.626   6.809  0.2115 -0.1236  0.2586
 7768SOL    HW134940   1.972   1.556   6.832  0.4175 -0.7996 -1.2154
 7768SOL    HW234941   2.094   1.578   6.752 -0.2666 -1.2758  0.7280
 7769SOL     OW34942   1.795   3.611   5.508 -0.2395  0.2556 -0.3708
 7769SOL    HW134943   1.775   3.641   5.419  2.4065  0.7560 -0.8078
 7769SOL    HW234944   1.890   3.612   5.502 -0.1897 -0.6138  0.4242
 7770SOL     OW34945   3.006   4.033   5.744 -0.2684  0.2397  0.3721
 7770SOL    HW134946   3.001   3.940   5.724  0.5426  0.5195 -1.1100
 7770SOL    HW234947   3.080   4.049   5.803 -2.1371  1.0747  2.4803
 7771SOL     OW34948   2.999   1.163   9.540 -0.6901 -0.5326 -0.4694
 7771SOL    HW134949   2.935   1.092   9.540 -0.9466 -0.3027 -0.2634
 7771SOL    HW234950   3.074   1.112   9.511  0.5718  1.1143 -0.0586
 7772SOL     OW34951   0.310   1.540   4.928  0.2901  0.0958  0.6729
 7772SOL    HW134952   0.258   1.576   4.857  2.1383 -0.8702 -1.1706
 7772SOL    HW234953   0.342   1.627   4.954 -0.9783  1.4104 -2.1980
 7773SOL     OW34954   1.741   0.275   7.846  0.1751 -0.1868 -0.5969
 7773SOL    HW134955   1.820   0.314   7.884 -1.8020  2.1971  1.0844
 7773SOL    HW234956   1.759   0.183   7.864  0.5611  0.7833  3.9751
 7774SOL     OW34957   0.919   2.850   7.959  0.3620  0.1597 -0.0527
 7774SOL    HW134958   0.950   2.931   7.920  0.9009  0.3625  0.8093
 7774SOL    HW234959   0.967   2.840   8.041 -0.7750 -0.8297  0.5026
 7775SOL     OW34960   3.349   1.686   5.621  0.2037 -0.4648 -0.1002
 7775SOL    HW134961   3.408   1.619   5.654  1.3006  1.0987  1.1618
 7775SOL    HW234962   3.352   1.657   5.530 -2.0838  0.6445 -0.5414
 7776SOL     OW34963   1.995   1.894  14.703 -0.5161  0.5116 -0.0403
 7776SOL    HW134964   2.045   1.837  14.763  1.4180  1.2081 -1.0128
 7776SOL    HW234965   1.913   1.899  14.753  0.9408  3.0186  2.1394
 7777SOL     OW34966   2.482   3.185  15.338  0.4819 -0.2082  0.3059
 7777SOL    HW134967   2.496   3.192  15.244  1.1796 -1.9679  0.2746
 7777SOL    HW234968   2.391   3.210  15.353  0.1328 -1.4003  0.1823
 7778SOL     OW34969   4.616   1.012   4.829  0.2326  0.4433 -0.1948
 7778SOL    HW134970   4.709   1.002   4.852  0.6390  1.9002 -1.1641
 7778SOL    HW234971   4.573   0.966   4.901  2.3029  0.4074  1.0217
 7779SOL     OW34972   3.296   2.552   6.445  0.4376  0.3526  0.5739
 7779SOL    HW134973   3.387   2.539   6.472  1.1120  1.4023 -1.1999
 7779SOL    HW234974   3.315   2.560   6.352 -0.2475 -1.5625  0.2778
 7780SOL     OW34975   3.739   4.143   8.369 -0.6198 -0.4246 -0.4686
 7780SOL    HW134976   3.645   4.138   8.387 -0.0729  0.6703  2.6901
 7780SOL    HW234977   3.771   4.146   8.459 -0.4942 -3.4687 -0.4195
 7781SOL     OW34978   2.174   2.130   6.156  0.8247  0.1160 -0.2437
 7781SOL    HW134979   2.099   2.189   6.160 -0.8870 -1.9618 -2.2194
 7781SOL    HW234980   2.237   2.181   6.208 -0.0011  1.9143 -1.0142
 7782SOL     OW34981   3.954   3.407   3.901 -0.0653 -0.1073  0.0498
 7782SOL    HW134982   3.906   3.377   3.824 -1.7910  1.1623  0.6202
 7782SOL    HW234983   3.960   3.333   3.961 -1.2571  1.2553  1.8549
 7783SOL     OW34984   1.526   0.312   7.547 -0.2187 -0.1052 -0.0132
 7783SOL    HW134985   1.559   0.383   7.601 -1.0764 -0.0573  0.4437
 7783SOL    HW234986   1.561   0.346   7.464 -2.0919  2.5804  0.2961
 7784SOL     OW34987   4.094   1.124   4.866 -0.0746  0.2034  0.1297
 7784SOL    HW134988   4.183   1.154   4.843 -0.1996  1.6759  1.5955
 7784SOL    HW234989   4.109   1.077   4.948 -0.5919 -0.6218 -0.2562
 7785SOL     OW34990   4.035   2.161   8.694 -0.0336 -0.7343 -0.1901
 7785SOL    HW134991   3.946   2.183   8.666 -0.3578 -2.3688 -0.4407
 7785SOL    HW234992   4.090   2.192   8.623  0.2141  0.1033  0.3756
 7786SOL     OW34993   0.022   2.987   2.070  0.4462 -0.7031 -0.4693
 7786SOL    HW134994   0.020   3.048   2.144 -0.2437  0.3009 -1.3246
 7786SOL    HW234995   0.032   2.901   2.112  1.9729 -0.3505 -0.0885
 7787SOL     OW34996   0.815   1.099   4.375 -0.2406  0.3704 -0.0366
 7787SOL    HW134997   0.793   1.048   4.298 -2.7533 -2.1047  2.3061
 7787SOL    HW234998   0.893   1.146   4.345  0.5175 -0.4507  0.6433
 7788SOL     OW34999   0.143   3.439  11.284  0.3745 -1.1408  0.8803
 7788SOL    HW135000   0.191   3.440  11.201 -0.6850 -0.4159  0.2734
 7788SOL    HW235001   0.212   3.465  11.346 -0.8513  2.3513  0.7788
 7789SOL     OW35002   1.592   2.515   9.462  0.5610  0.2862 -0.1151
 7789SOL    HW135003   1.600   2.459   9.540 -1.6877  1.4532  0.9538
 7789SOL    HW235004   1.499   2.535   9.474  0.9528 -0.3134  3.7888
 7790SOL     OW35005   2.872   2.703   6.724  0.9343  0.3998  0.2746
 7790SOL    HW135006   2.933   2.660   6.665  1.8748  1.7303  0.2938
 7790SOL    HW235007   2.833   2.628   6.768 -2.9540  0.5268 -2.9184
 7791SOL     OW35008   2.154   0.559   6.285 -0.0246  0.6348  0.4015
 7791SOL    HW135009   2.202   0.619   6.343  1.5711  2.5098 -2.8775
 7791SOL    HW235010   2.157   0.481   6.340 -1.4133  0.5071  0.2990
 7792SOL     OW35011   0.689   2.227   5.401  0.2688 -0.1134  0.5710
 7792SOL    HW135012   0.744   2.301   5.427 -0.1418 -0.2397  1.8018
 7792SOL    HW235013   0.650   2.210   5.487  0.4948 -0.2243  0.6516
 7793SOL     OW35014   4.392   1.096   5.083  1.0067  0.1329  0.4437
 7793SOL    HW135015   4.315   1.085   5.139  2.0272  2.1804  2.2345
 7793SOL    HW235016   4.442   1.017   5.105 -0.3778 -0.6633  0.7664
 7794SOL     OW35017   3.640   0.532  10.571  0.4450  0.1635  0.2378
 7794SOL    HW135018   3.629   0.607  10.512  0.2710  0.5335  0.7393
 7794SOL    HW235019   3.624   0.571  10.657  0.2531  0.9614 -0.1551
 7795SOL     OW35020   4.620   3.221   5.130  0.3495 -0.3406 -0.1638
 7795SOL    HW135021   4.674   3.263   5.197 -0.3800  2.9424 -1.6557
 7795SOL    HW235022   4.658   3.133   5.133  0.3903 -0.2961  0.7519
 7796SOL     OW35023   2.834   1.424   5.829  0.2643  0.2830  0.0150
 7796SOL    HW135024   2.847   1.417   5.735  1.2966 -0.3192  0.1903
 7796SOL    HW235025   2.921   1.431   5.870  0.5567 -0.4714 -0.4739
 7797SOL     OW35026   0.437   3.729   7.178 -0.2366 -0.9375 -0.4425
 7797SOL    HW135027   0.400   3.730   7.267  1.6238 -0.2334  0.3297
 7797SOL    HW235028   0.514   3.784   7.194 -0.2253 -0.4183 -2.2613
 7798SOL     OW35029   3.560   1.283   5.285  0.4219  0.4521 -0.3082
 7798SOL    HW135030   3.575   1.251   5.374  2.4345 -0.7833 -1.0780
 7798SOL    HW235031   3.516   1.209   5.243 -0.8960  0.9947  0.1287
 7799SOL     OW35032   2.663   1.635   5.811  0.2198 -0.0791 -0.5761
 7799SOL    HW135033   2.618   1.662   5.891 -1.1107  0.6187 -1.5641
 7799SOL    HW235034   2.696   1.550   5.839  2.5328  1.1301  0.3682
 7800SOL     OW35035   4.458   1.065   6.575  0.2695 -0.4011  0.0952
 7800SOL    HW135036   4.521   1.039   6.508 -0.6873  2.1273 -1.8016
 7800SOL    HW235037   4.382   1.094   6.524  1.2833 -1.3854 -2.0033
 7801SOL     OW35038   3.866   0.211   3.900  0.3529  0.0797 -0.3171
 7801SOL    HW135039   3.794   0.155   3.871  0.2514 -0.2572  0.6023
 7801SOL    HW235040   3.901   0.188   3.986  0.2502 -2.2918 -0.9039
 7802SOL     OW35041   4.377   4.491  13.757  0.1717 -0.0063 -0.4784
 7802SOL    HW135042   4.444   4.505  13.691  2.0509 -0.4252  1.3595
 7802SOL    HW235043   4.341   4.409  13.723  1.4657 -1.2733  1.2005
 7803SOL     OW35044   4.268   0.744   7.053 -0.4800  0.3753 -0.1512
 7803SOL    HW135045   4.249   0.676   7.119  0.9299 -0.8870 -1.0615
 7803SOL    HW235046   4.213   0.817   7.081  2.9527  3.5344 -1.7803
 7804SOL     OW35047   1.930   4.230   7.988  0.2669 -0.0495  0.0493
 7804SOL    HW135048   1.939   4.319   8.023 -1.0124  0.6926 -1.4863
 7804SOL    HW235049   1.854   4.247   7.932  0.6062 -0.6686 -0.5924
 7805SOL     OW35050   1.523   0.632   7.992  0.1400 -0.2326 -0.2759
 7805SOL    HW135051   1.525   0.569   7.920 -1.5591  0.5032 -0.9647
 7805SOL    HW235052   1.488   0.576   8.061 -1.2434  1.9188  0.7567
 7806SOL     OW35053   1.627   2.180   6.781  0.7267 -0.6622  0.5888
 7806SOL    HW135054   1.650   2.173   6.873  1.7615  2.2726  0.5216
 7806SOL    HW235055   1.597   2.089   6.780  0.4855 -0.5861  1.6774
 7807SOL     OW35056   2.040   1.842  15.639  0.7597 -0.1456 -0.2545
 7807SOL    HW135057   2.050   1.892  15.720  3.4669 -1.1460  0.0411
 7807SOL    HW235058   2.094   1.897  15.582 -1.7469  1.7264 -0.8125
 7808SOL     OW35059   3.144   4.710   7.888 -0.1306 -0.2495  0.1540
 7808SOL    HW135060   3.216   4.714   7.826  1.1932  0.2083  1.6986
 7808SOL    HW235061   3.189   4.728   7.971  0.9019  0.5077 -0.5652
 7809SOL     OW35062   0.727   1.866  12.562  0.1668  0.0274 -0.3947
 7809SOL    HW135063   0.759   1.811  12.634  0.4430 -0.7226 -1.0957
 7809SOL    HW235064   0.803   1.925  12.559  0.1233 -0.0061 -1.9096
 7810SOL     OW35065   2.369   0.162  16.805  0.0339 -0.5515 -0.0348
 7810SOL    HW135066   2.363   0.256  16.820 -1.3484 -0.5342 -0.7285
 7810SOL    HW235067   2.401   0.158  16.715 -2.5261  0.8030 -1.0090
 7811SOL     OW35068   3.940   3.062   4.375 -0.2324  0.5584  0.8554
 7811SOL    HW135069   3.970   2.974   4.396  1.4154  0.3873 -2.2190
 7811SOL    HW235070   3.864   3.057   4.316  1.1587  1.3396 -1.0069
 7812SOL     OW35071   1.423   3.450   8.683 -0.4502  0.0517 -0.2583
 7812SOL    HW135072   1.330   3.429   8.669 -0.6990  0.5428  0.6840
 7812SOL    HW235073   1.448   3.508   8.611 -1.7441 -0.2092 -0.9252
 7813SOL     OW35074   3.098   1.668  17.534  0.1338  0.3846 -0.2516
 7813SOL    HW135075   3.061   1.699  17.451 -1.5125  1.5182  0.9068
 7813SOL    HW235076   3.018   1.647  17.582 -0.0277 -0.9102 -1.0923
 7814SOL     OW35077   0.179   3.007   7.560  0.2078 -0.0357  0.0892
 7814SOL    HW135078   0.112   3.041   7.501  0.1131 -0.1449  0.1333
 7814SOL    HW235079   0.259   3.058   7.546 -0.6660  1.6679  1.3143
 7815SOL     OW35080   0.696   4.079   6.976 -0.3091 -0.2619 -0.2825
 7815SOL    HW135081   0.753   4.019   6.928 -0.2988  0.9572 -1.7901
 7815SOL    HW235082   0.686   4.033   7.059 -0.4017 -1.1466 -0.7809
 7816SOL     OW35083   1.734   1.778   2.824 -0.6627 -0.5056  0.6492
 7816SOL    HW135084   1.817   1.732   2.841  0.7300  2.1440  1.0106
 7816SOL    HW235085   1.677   1.715   2.868 -2.3977 -0.1365 -1.1161
 7817SOL     OW35086   0.104   1.674   5.363  0.0840  0.0226 -0.0933
 7817SOL    HW135087   0.031   1.732   5.341 -2.2749 -2.7447  0.3701
 7817SOL    HW235088   0.055   1.595   5.341 -0.7514  0.5803 -0.2468
 7818SOL     OW35089   3.322   0.114   4.835  0.2164 -0.0485 -0.0308
 7818SOL    HW135090   3.416   0.098   4.831  0.1629 -0.7663  1.5070
 7818SOL    HW235091   3.322   0.194   4.782  0.9245  0.1222  0.2248
 7819SOL     OW35092   1.930   0.216  13.294 -0.3666  0.5857 -0.4517
 7819SOL    HW135093   1.849   0.263  13.271 -0.2357  0.7765 -0.5288
 7819SOL    HW235094   1.960   0.201  13.205  1.5841 -0.6571  0.4170
 7820SOL     OW35095   3.877   3.214   1.928  0.2012 -0.5837 -0.4561
 7820SOL    HW135096   3.906   3.148   1.991  0.6450  0.1837  0.1468
 7820SOL    HW235097   3.933   3.200   1.852  0.6362 -1.3884  0.0134
 7821SOL     OW35098   3.496   2.186   6.850 -0.1765  0.7059  0.0434
 7821SOL    HW135099   3.478   2.220   6.938 -1.4584  0.5248 -0.1614
 7821SOL    HW235100   3.564   2.247   6.820  1.1105 -0.0680  1.3484
 7822SOL     OW35101   1.914   2.025   3.136  0.0650  0.2541  0.7341
 7822SOL    HW135102   1.924   1.961   3.206 -0.4028  0.8829  1.3764
 7822SOL    HW235103   2.005   2.040   3.108  0.2008  0.6215  1.3564
 7823SOL     OW35104   0.791   1.720   1.330  0.0125 -0.0552  0.2387
 7823SOL    HW135105   0.818   1.675   1.250 -2.0426 -1.7635  0.5101
 7823SOL    HW235106   0.863   1.782   1.336 -0.9859  1.1596 -0.2004
 7824SOL     OW35107   1.301   3.119   5.629  0.5191  0.8871 -0.1186
 7824SOL    HW135108   1.239   3.168   5.575 -0.4104 -0.0214  0.1359
 7824SOL    HW235109   1.366   3.188   5.647  0.6874  0.8120 -0.4466
 7825SOL     OW35110   1.992   2.725   2.494  0.2502  0.0130  0.1734
 7825SOL    HW135111   2.004   2.638   2.533  2.3724  0.4512  0.4941
 7825SOL    HW235112   1.976   2.784   2.567 -1.2000  1.3915 -1.2701
 7826SOL     OW35113   4.606   1.720   1.754  0.3707 -0.0628  0.2100
 7826SOL    HW135114   4.545   1.732   1.681 -0.3602  0.9180  0.9718
 7826SOL    HW235115   4.616   1.806   1.796 -2.5340  0.6425 -0.5577
 7827SOL     OW35116   2.320   3.417   6.040 -0.0826 -0.2038  0.2797
 7827SOL    HW135117   2.407   3.451   6.019 -0.3907  1.6210  1.9516
 7827SOL    HW235118   2.270   3.481   5.988  0.7914 -0.5167 -0.9408
 7828SOL     OW35119   4.607   0.468  16.921 -0.4935 -0.0988  0.2893
 7828SOL    HW135120   4.662   0.395  16.951 -1.6389 -1.3224 -0.5738
 7828SOL    HW235121   4.521   0.435  16.949 -1.5217  0.5989 -2.0270
 7829SOL     OW35122   1.229   0.660   2.222 -0.1810 -0.2353  0.2432
 7829SOL    HW135123   1.246   0.618   2.137  0.9587  0.7139 -0.0050
 7829SOL    HW235124   1.144   0.698   2.203 -0.1565 -1.1088 -1.5845
 7830SOL     OW35125   4.343   4.524   8.406 -0.8112  0.0930 -0.5203
 7830SOL    HW135126   4.396   4.445   8.403  1.6747  1.5791  4.6188
 7830SOL    HW235127   4.256   4.483   8.400 -0.2561 -1.2426  0.5680
 7831SOL     OW35128   3.735   2.468   7.860 -0.2134  0.6280  0.9778
 7831SOL    HW135129   3.816   2.419   7.845 -0.6560  0.1196  0.3073
 7831SOL    HW235130   3.750   2.550   7.812 -0.3824 -0.7863 -1.4803
 7832SOL     OW35131   4.650   2.101  15.547  0.3683  0.0513  0.6237
 7832SOL    HW135132   4.606   2.110  15.463  2.2069 -2.2053 -0.5748
 7832SOL    HW235133   4.664   2.006  15.548  0.7147  0.1093  1.5478
 7833SOL     OW35134   1.831   3.506   8.543 -0.3873  0.0931  0.4468
 7833SOL    HW135135   1.784   3.510   8.627 -2.0039  0.9134 -0.5026
 7833SOL    HW235136   1.775   3.465   8.478  0.8886 -1.8705  0.5645
 7834SOL     OW35137   1.604   2.255   5.069 -0.3135 -0.1065 -0.2082
 7834SOL    HW135138   1.586   2.190   5.137 -2.1927 -0.4358 -1.0203
 7834SOL    HW235139   1.662   2.314   5.117 -2.2007  1.6694 -0.1255
 7835SOL     OW35140   2.785   1.084   8.890  0.1279  0.3433 -0.2554
 7835SOL    HW135141   2.749   1.043   8.812  1.0908 -3.4716  1.3235
 7835SOL    HW235142   2.880   1.081   8.880  0.3728  2.6053  1.3846
 7836SOL     OW35143   0.652   2.091  11.518  0.1793  0.3927  0.0042
 7836SOL    HW135144   0.687   2.075  11.430  1.7263 -0.9463  0.8730
 7836SOL    HW235145   0.674   2.184  11.511  0.5532  0.2406 -0.8334
 7837SOL     OW35146   2.959   2.780   3.972 -0.6779 -0.2909 -0.0950
 7837SOL    HW135147   3.043   2.798   3.928 -0.8612 -0.0212 -0.3330
 7837SOL    HW235148   2.965   2.828   4.054  1.9678 -0.3605 -0.2275
 7838SOL     OW35149   4.514   4.120  10.881 -0.7218  0.0336 -0.1877
 7838SOL    HW135150   4.481   4.056  10.944 -0.8952  1.2312  0.9355
 7838SOL    HW235151   4.526   4.064  10.804 -0.3580  2.2187 -1.6996
 7839SOL     OW35152   1.179   2.445  13.736 -0.0171 -0.5883 -0.0078
 7839SOL    HW135153   1.173   2.534  13.702  0.9760 -0.6932 -0.4634
 7839SOL    HW235154   1.087   2.443  13.763  0.5301  0.5024  1.9757
 7840SOL     OW35155   2.016   2.396   8.314  0.2432 -0.5117 -1.0000
 7840SOL    HW135156   1.926   2.370   8.336  0.2631 -1.4420 -2.0535
 7840SOL    HW235157   1.989   2.452   8.242 -1.0390  0.4054  0.1868
 7841SOL     OW35158   1.791   1.969   8.281 -0.2683  0.0259  0.1718
 7841SOL    HW135159   1.849   2.008   8.214  0.1439 -1.2679 -0.2330
 7841SOL    HW235160   1.851   1.965   8.356  0.3623  2.2363 -0.1995
 7842SOL     OW35161   2.987   0.182  16.761 -0.6146 -0.3761 -0.1694
 7842SOL    HW135162   2.903   0.198  16.804 -0.6258 -1.2266  0.1196
 7842SOL    HW235163   2.961   0.162  16.671  0.0426  2.4630 -0.9734
 7843SOL     OW35164   3.598   0.352   8.669 -0.3008  0.2936  0.4592
 7843SOL    HW135165   3.580   0.259   8.688 -0.1093 -0.0195 -0.8821
 7843SOL    HW235166   3.657   0.374   8.741 -0.3996  0.6267  0.4378
 7844SOL     OW35167   4.669   1.590   4.477  0.1117 -0.1863  0.2365
 7844SOL    HW135168   4.582   1.555   4.460 -0.4814  1.3045  0.2360
 7844SOL    HW235169   4.639   1.625   4.561  1.5012 -0.5901  0.9013
 7845SOL     OW35170   4.586   4.159  13.228 -0.0738  0.2131  0.5733
 7845SOL    HW135171   4.510   4.206  13.260 -0.1796  0.8334 -0.6060
 7845SOL    HW235172   4.601   4.207  13.147  0.0183 -0.9835 -0.1164
 7846SOL     OW35173   0.121   0.537  10.680  0.1048  0.1086  0.1817
 7846SOL    HW135174   0.062   0.583  10.739  0.0478 -3.3263  2.8006
 7846SOL    HW235175   0.197   0.595  10.682  0.6762 -0.5226 -2.0437
 7847SOL     OW35176   1.207   3.446   5.932  0.4766  0.2512 -0.2890
 7847SOL    HW135177   1.299   3.439   5.959  0.5687 -2.2547 -1.2033
 7847SOL    HW235178   1.151   3.432   6.009  0.1126  1.2421 -0.3786
 7848SOL     OW35179   3.738   2.510   8.873 -0.4082 -0.1487 -0.2094
 7848SOL    HW135180   3.691   2.568   8.932  0.0576 -1.1529  1.1469
 7848SOL    HW235181   3.716   2.427   8.916 -2.6818  0.7924  0.4298
 7849SOL     OW35182   4.248   0.311  14.175 -0.3304  0.2493  0.7720
 7849SOL    HW135183   4.302   0.383  14.208  2.0778 -0.9923 -0.4720
 7849SOL    HW235184   4.165   0.351  14.149  0.0684  1.2636  1.0431
 7850SOL     OW35185   4.125   1.066  15.316  0.4172  0.4874 -0.9067
 7850SOL    HW135186   4.054   1.007  15.292  0.9725 -0.2264 -0.7893
 7850SOL    HW235187   4.205   1.022  15.288 -0.3649 -3.1158  2.4911
 7851SOL     OW35188   0.336   1.985   2.515 -0.4062 -0.0050 -0.2393
 7851SOL    HW135189   0.250   1.999   2.474 -0.0120 -1.0509 -1.4250
 7851SOL    HW235190   0.337   1.889   2.506  2.3243  0.0106 -0.0539
 7852SOL     OW35191   4.222   0.537   7.229  0.1765 -0.4628 -0.0243
 7852SOL    HW135192   4.128   0.552   7.243  0.0626 -1.2087  0.0328
 7852SOL    HW235193   4.247   0.492   7.310 -0.6261 -1.1916 -0.1760
 7853SOL     OW35194   0.769   3.933   7.534  0.3404  0.1247 -0.2583
 7853SOL    HW135195   0.754   3.984   7.614 -3.2228 -1.4072  0.0937
 7853SOL    HW235196   0.862   3.914   7.531 -0.2597 -2.8441 -0.2585
 7854SOL     OW35197   1.241   0.288  17.494  0.1666 -0.0248 -0.0026
 7854SOL    HW135198   1.239   0.355  17.563  1.3566  1.1022 -1.0541
 7854SOL    HW235199   1.335   0.272  17.500  0.3274  0.5842 -0.8971
 7855SOL     OW35200   3.364   0.419   7.439 -0.0059 -0.2791 -0.1654
 7855SOL    HW135201   3.294   0.484   7.436 -0.0164 -0.3473 -1.5307
 7855SOL    HW235202   3.359   0.358   7.513 -1.3091 -1.3630 -1.1463
 7856SOL     OW35203   2.709   0.813  12.630  0.2147  0.9194  0.1435
 7856SOL    HW135204   2.735   0.787  12.718 -2.0234 -0.0133  0.5442
 7856SOL    HW235205   2.717   0.908  12.639  3.3589  0.3784  2.7713
 7857SOL     OW35206   1.644   0.336   1.047 -0.0058  0.0637 -0.1596
 7857SOL    HW135207   1.672   0.250   1.079  0.5589 -0.2874 -1.5904
 7857SOL    HW235208   1.580   0.308   0.980  0.0127  0.3951 -0.3143
 7858SOL     OW35209   4.450   1.162   7.334 -0.4922  0.1471 -0.4515
 7858SOL    HW135210   4.357   1.181   7.334 -0.4165  0.5596  1.7102
 7858SOL    HW235211   4.442   1.070   7.310  1.3733 -0.8801  2.8172
 7859SOL     OW35212   2.254   1.455  13.976 -0.0022 -0.0213  0.2886
 7859SOL    HW135213   2.223   1.417  13.894  0.4720 -0.7699  0.4508
 7859SOL    HW235214   2.261   1.382  14.038 -2.8185 -0.9870 -0.5297
 7860SOL     OW35215   0.219   2.022  10.628 -0.2073 -0.2339  0.0194
 7860SOL    HW135216   0.309   2.050  10.610 -0.3496  0.2563  0.0693
 7860SOL    HW235217   0.198   2.078  10.703 -1.2012 -0.8716  0.2215
 7861SOL     OW35218   0.993   2.670  11.807  0.0469 -0.0096 -0.0700
 7861SOL    HW135219   1.022   2.586  11.770  0.5721 -0.2139  0.7893
 7861SOL    HW235220   0.899   2.669  11.790  0.4881  1.6285 -2.5096
 7862SOL     OW35221   0.744   3.676  12.522 -0.0420 -0.1737 -0.3244
 7862SOL    HW135222   0.713   3.764  12.542 -2.1864 -0.7050 -1.3018
 7862SOL    HW235223   0.825   3.695  12.475  0.6062 -2.1124  0.0081
 7863SOL     OW35224   1.928   3.863   2.009 -0.3723  0.0771  0.3407
 7863SOL    HW135225   1.903   3.827   2.094 -1.2940 -2.7599 -1.1678
 7863SOL    HW235226   1.948   3.780   1.967 -1.2250  0.0422  0.0156
 7864SOL     OW35227   1.980   3.035   8.359 -0.2655  0.2381 -0.5615
 7864SOL    HW135228   1.956   3.087   8.435  2.3763  3.8432 -2.2065
 7864SOL    HW235229   2.071   3.012   8.379  0.2151  0.8788 -1.9707
 7865SOL     OW35230   4.496   3.954  16.788 -0.0345  0.4695  0.1320
 7865SOL    HW135231   4.553   4.002  16.849 -0.6195  0.5499  0.6138
 7865SOL    HW235232   4.512   3.861  16.803  0.3053  0.3173 -1.2005
 7866SOL     OW35233   3.121   2.594   2.043  0.6436 -0.0457  0.5391
 7866SOL    HW135234   3.084   2.610   1.956  0.9512  3.8669  1.0950
 7866SOL    HW235235   3.095   2.504   2.058 -1.0004  0.3997  0.3600
 7867SOL     OW35236   0.050   1.340   4.721  0.2048 -0.1447 -1.0108
 7867SOL    HW135237   0.115   1.280   4.757 -1.6292 -1.5207  0.0283
 7867SOL    HW235238   0.105   1.391   4.662  0.4312 -1.4121 -1.8912
 7868SOL     OW35239   0.788   2.344  13.197 -0.2371 -0.1093 -0.0426
 7868SOL    HW135240   0.859   2.285  13.172  0.6445  1.8494 -2.1764
 7868SOL    HW235241   0.805   2.424  13.147 -0.1575  0.3403  0.7026
 7869SOL     OW35242   0.053   2.318  14.226  0.2925  0.3072 -0.4603
 7869SOL    HW135243   0.133   2.372  14.229  2.0315 -2.2559 -0.2706
 7869SOL    HW235244   0.101   2.242  14.260 -0.5295 -0.5654 -1.2968
 7870SOL     OW35245   0.831   1.439  13.657 -0.0826 -0.1201 -0.0030
 7870SOL    HW135246   0.876   1.519  13.683  1.4829 -0.0735 -2.8532
 7870SOL    HW235247   0.741   1.466  13.639  0.1718 -0.0798 -1.1862
 7871SOL     OW35248   1.474   3.097  12.578  0.5721 -0.1224 -0.1913
 7871SOL    HW135249   1.391   3.076  12.535  1.2055 -0.3395 -1.3013
 7871SOL    HW235250   1.468   3.022  12.637  1.8220 -0.5019 -0.5377
 7872SOL     OW35251   0.082   2.146   5.936  0.2334  1.1567 -0.2325
 7872SOL    HW135252   0.150   2.171   5.999  1.2876  2.0039 -1.7051
 7872SOL    HW235253   0.144   2.097   5.880  0.0616 -1.5843  1.9923
 7873SOL     OW35254   3.706   3.406   7.562  0.4523 -0.1367 -0.0391
 7873SOL    HW135255   3.614   3.416   7.589  0.9776  2.8001  0.6476
 7873SOL    HW235256   3.711   3.362   7.477 -1.6120 -0.1971 -0.1375
 7874SOL     OW35257   2.319   0.957   7.766  1.1953 -0.6600  0.3147
 7874SOL    HW135258   2.412   0.952   7.791  1.2149 -2.0107 -0.0141
 7874SOL    HW235259   2.313   1.032   7.707  1.2810 -0.1031  1.0122
 7875SOL     OW35260   4.654   2.402  10.370  0.2339  0.0983 -0.0114
 7875SOL    HW135261   4.672   2.496  10.371  2.4108 -0.3071  0.2726
 7875SOL    HW235262   4.677   2.377  10.460 -1.0543 -1.1650 -0.0308
 7876SOL     OW35263   0.404   1.394   8.738  0.1658  0.7560  0.3163
 7876SOL    HW135264   0.373   1.481   8.710  0.9419  1.7305  2.4398
 7876SOL    HW235265   0.358   1.344   8.671 -3.5135  1.4028  2.2946
 7877SOL     OW35266   0.293   1.278   4.497  0.2888 -0.2119  0.2114
 7877SOL    HW135267   0.253   1.341   4.437  1.6054  1.9849  1.6178
 7877SOL    HW235268   0.383   1.283   4.462 -0.2376 -0.4099 -1.1628
 7878SOL     OW35269   1.438   1.456   2.792  0.4024 -0.0935 -0.5372
 7878SOL    HW135270   1.471   1.488   2.708 -0.7068  0.8356 -0.6233
 7878SOL    HW235271   1.475   1.517   2.856 -2.1594 -0.6648  1.4944
 7879SOL     OW35272   3.291   2.903  13.058 -0.4106 -0.2228 -0.1341
 7879SOL    HW135273   3.299   2.998  13.066 -2.2339 -0.1341  0.6960
 7879SOL    HW235274   3.383   2.880  13.068 -0.1206  1.1840  0.4291
 7880SOL     OW35275   3.707   3.881   8.844 -0.4101  0.2283  0.4796
 7880SOL    HW135276   3.671   3.907   8.928 -1.0625 -0.2171  0.3352
 7880SOL    HW235277   3.730   3.791   8.868  0.5140  0.8205  1.7997
 7881SOL     OW35278   2.710   1.424   7.453  0.3573 -0.8013  0.6619
 7881SOL    HW135279   2.686   1.423   7.360  0.5037  0.1373  0.6181
 7881SOL    HW235280   2.748   1.510   7.466  3.7725 -2.2153  0.0793
 7882SOL     OW35281   2.907   1.895   7.445  0.1596 -0.2386  0.6865
 7882SOL    HW135282   2.858   1.967   7.486 -1.4991 -0.8361 -0.2627
 7882SOL    HW235283   2.994   1.934   7.432 -0.4513 -0.0912 -2.9280
 7883SOL     OW35284   3.390   3.105   6.093 -0.3219 -0.0947  0.3202
 7883SOL    HW135285   3.382   3.049   6.170  1.1413 -0.9949 -0.1781
 7883SOL    HW235286   3.431   3.044   6.032  1.0714  2.1002 -0.9010
 7884SOL     OW35287   3.675   4.663  12.016 -0.2905  0.2138  0.6356
 7884SOL    HW135288   3.644   4.574  12.031 -0.8066  0.3626  0.4618
 7884SOL    HW235289   3.738   4.662  12.088  0.7542 -0.6272 -0.3042
 7885SOL     OW35290   1.139   3.674  11.493 -0.0592  0.0153 -0.0462
 7885SOL    HW135291   1.056   3.631  11.472  0.7681 -2.7857  2.4714
 7885SOL    HW235292   1.184   3.598  11.530 -2.8270 -1.0232  1.2511
 7886SOL     OW35293   2.245   0.735   5.294  0.0797 -0.2176  0.3328
 7886SOL    HW135294   2.321   0.679   5.308 -1.0043 -2.4229 -2.5565
 7886SOL    HW235295   2.285   0.822   5.292  2.2798 -1.2106  1.5155
 7887SOL     OW35296   2.226   1.570   6.021 -0.2795 -0.3134  0.7151
 7887SOL    HW135297   2.297   1.635   6.021 -0.1038 -0.5054 -0.9514
 7887SOL    HW235298   2.201   1.573   6.113 -0.1629  0.9653  0.7122
 7888SOL     OW35299   2.301   1.844  14.686 -0.1420 -0.5790 -0.0218
 7888SOL    HW135300   2.235   1.836  14.617 -2.4030  0.8121  1.9653
 7888SOL    HW235301   2.259   1.799  14.759  1.5797  1.7413  2.4147
 7889SOL     OW35302   2.548   1.802   4.858  0.2718 -0.2294 -0.0168
 7889SOL    HW135303   2.487   1.807   4.932 -0.0690 -2.7905 -0.1404
 7889SOL    HW235304   2.552   1.894   4.830  0.7802 -0.8972 -2.1129
 7890SOL     OW35305   4.086   2.491  17.001 -0.6783 -0.2173  0.4773
 7890SOL    HW135306   4.023   2.550  16.959  2.4937  3.0099  0.2856
 7890SOL    HW235307   4.061   2.404  16.969 -0.3090  0.1561 -0.8271
 7891SOL     OW35308   3.707   0.851   9.202  0.0686 -0.4746  0.3207
 7891SOL    HW135309   3.766   0.788   9.242  0.0948 -0.8423 -0.2853
 7891SOL    HW235310   3.622   0.807   9.203 -1.4063  2.4592  3.4011
 7892SOL     OW35311   3.917   4.456   8.159  0.0552 -0.0959  0.4334
 7892SOL    HW135312   3.845   4.393   8.153  0.2401 -0.1036 -1.7133
 7892SOL    HW235313   3.983   4.401   8.202  1.0267  1.3828  0.8217
 7893SOL     OW35314   3.127   0.232   8.443  0.0520 -0.2206  0.3714
 7893SOL    HW135315   3.039   0.258   8.470  0.4709  1.7431 -0.1382
 7893SOL    HW235316   3.165   0.218   8.529 -1.8503  0.2299  1.2796
 7894SOL     OW35317   4.585   0.486   7.233 -0.2599  0.1425  0.0969
 7894SOL    HW135318   4.553   0.571   7.260  0.5456  0.3943  0.2727
 7894SOL    HW235319   4.518   0.459   7.171 -1.1927  0.0474  1.1565
 7895SOL     OW35320   1.616   4.290  17.628  0.1859  0.1220 -0.7433
 7895SOL    HW135321   1.621   4.239  17.547 -0.0879  0.2184 -0.8228
 7895SOL    HW235322   1.694   4.343  17.610  0.1999  0.2264 -0.3706
 7896SOL     OW35323   2.377   3.510   3.380  0.0226 -0.5027  0.2644
 7896SOL    HW135324   2.380   3.419   3.350  2.0118  0.4090 -2.1959
 7896SOL    HW235325   2.327   3.513   3.462 -0.5445 -1.2038 -0.0533
 7897SOL     OW35326   4.679   4.090   7.453  0.2767 -0.6859  0.0729
 7897SOL    HW135327   4.654   4.142   7.529  0.0187 -1.5405  0.5765
 7897SOL    HW235328   4.598   4.040   7.445  1.1156 -1.6848 -2.2383
 7898SOL     OW35329   2.269   3.999   4.285  0.4999  0.8598 -0.0067
 7898SOL    HW135330   2.332   4.057   4.327  0.9883  0.7193 -0.5459
 7898SOL    HW235331   2.203   4.001   4.353  0.0556 -1.0306 -0.3855
 7899SOL     OW35332   3.845   0.590   9.215  0.2008 -0.2133  0.3298
 7899SOL    HW135333   3.938   0.572   9.225  0.0624 -0.0391  1.9673
 7899SOL    HW235334   3.806   0.517   9.264 -1.0539  1.4912  1.8768
 7900SOL     OW35335   1.794   4.344   0.601 -0.3230 -0.4095  0.2464
 7900SOL    HW135336   1.699   4.333   0.608  0.0602 -2.3370  2.2221
 7900SOL    HW235337   1.807   4.335   0.506  1.9725 -0.4409  0.5593
 7901SOL     OW35338   2.133   1.447   5.434  0.3673  0.2932  0.4312
 7901SOL    HW135339   2.178   1.480   5.512  0.4400 -1.8835  1.3091
 7901SOL    HW235340   2.044   1.451   5.470  0.2226 -1.7464  0.3225
 7902SOL     OW35341   2.183   1.022  16.659 -0.2522 -0.4987  0.5382
 7902SOL    HW135342   2.260   0.984  16.702 -1.4569 -1.0369  2.2233
 7902SOL    HW235343   2.124   0.947  16.660 -0.5402 -0.2786 -0.5209
 7903SOL     OW35344   0.146   4.042  13.121 -0.0611 -0.0201  0.3111
 7903SOL    HW135345   0.142   3.960  13.171 -1.0204 -0.1407  0.0247
 7903SOL    HW235346   0.115   4.013  13.035 -3.0869  0.4982  1.2573
 7904SOL     OW35347   0.389   2.765   3.961  0.1126  0.1654 -0.4534
 7904SOL    HW135348   0.403   2.853   3.926  0.9594  0.3135  0.2271
 7904SOL    HW235349   0.463   2.762   4.022  0.6619 -0.8045 -1.1745
 7905SOL     OW35350   1.627   4.438  16.544  0.4512  0.1041  0.0446
 7905SOL    HW135351   1.579   4.514  16.578 -0.9208 -0.6418 -0.2170
 7905SOL    HW235352   1.711   4.441  16.589  1.8423  0.0646 -2.5318
 7906SOL     OW35353   0.182   3.769   0.617  0.6920 -0.3115 -0.8238
 7906SOL    HW135354   0.245   3.700   0.640  1.3325  0.7823  0.7320
 7906SOL    HW235355   0.177   3.818   0.699  0.0807 -2.6458  0.5504
 7907SOL     OW35356   2.312   1.589   2.104 -0.6409  0.3115 -0.0412
 7907SOL    HW135357   2.290   1.621   2.016 -0.8763  1.2569  0.3583
 7907SOL    HW235358   2.233   1.596   2.157 -0.7019  1.3081 -0.2653
 7908SOL     OW35359   0.038   1.344   8.616  0.0153 -0.1956 -0.5254
 7908SOL    HW135360   0.024   1.324   8.523 -0.3766 -0.5767 -0.3890
 7908SOL    HW235361   0.079   1.263   8.646  0.0052 -0.0476 -0.1166
 7909SOL     OW35362   4.428   3.846   0.611 -0.5070 -0.6597  0.1870
 7909SOL    HW135363   4.374   3.786   0.662 -0.7108  0.9680  1.8859
 7909SOL    HW235364   4.409   3.923   0.664  0.8363  0.0112 -0.3048
 7910SOL     OW35365   3.286   1.832   1.994 -0.2347  0.2722  0.3441
 7910SOL    HW135366   3.234   1.846   2.073  0.1147  0.3722  0.5602
 7910SOL    HW235367   3.374   1.828   2.033  0.5690 -1.2611 -1.6579
 7911SOL     OW35368   4.117   3.288   5.127 -0.1195  0.2664  0.6037
 7911SOL    HW135369   4.052   3.354   5.150  2.0876  2.5465  0.3521
 7911SOL    HW235370   4.122   3.242   5.211  1.0321 -2.1191 -0.7791
 7912SOL     OW35371   2.683   2.825   0.503 -0.1147  0.0580 -0.3777
 7912SOL    HW135372   2.708   2.849   0.414  2.2718 -0.5302  0.1544
 7912SOL    HW235373   2.718   2.897   0.556 -0.2215  1.5750 -2.3801
 7913SOL     OW35374   3.462   0.148   5.638 -0.5704  0.2896  0.1954
 7913SOL    HW135375   3.489   0.071   5.688 -0.0052  0.9124  0.8470
 7913SOL    HW235376   3.527   0.217   5.653 -1.9143  1.5531  0.1667
 7914SOL     OW35377   0.077   2.008  12.891 -0.4268  0.2261 -0.4558
 7914SOL    HW135378   0.164   1.981  12.861 -1.9696 -2.1980 -2.7814
 7914SOL    HW235379   0.049   2.067  12.821 -0.7719  1.6214  0.8610
 7915SOL     OW35380   1.441   2.384   4.192  0.0693  0.3232 -0.0296
 7915SOL    HW135381   1.452   2.478   4.175 -2.2513  0.6940  0.4572
 7915SOL    HW235382   1.532   2.357   4.202 -0.0552 -0.3668 -0.7430
 7916SOL     OW35383   1.102   0.731  10.423 -0.0430 -0.4714  0.5977
 7916SOL    HW135384   1.159   0.755  10.350 -0.3055  0.3561  0.6622
 7916SOL    HW235385   1.159   0.706  10.496 -1.0677 -3.5698  0.3161
 7917SOL     OW35386   2.789   2.669  10.745 -0.1725 -0.4751 -0.2535
 7917SOL    HW135387   2.855   2.606  10.719 -1.2341 -1.4532 -0.5749
 7917SOL    HW235388   2.757   2.700  10.661 -0.4452 -0.4700 -0.1483
 7918SOL     OW35389   4.632   3.619   9.962 -0.0975 -0.1713  0.0850
 7918SOL    HW135390   4.621   3.552   9.894 -0.5206  0.4140 -0.4226
 7918SOL    HW235391   4.711   3.661   9.926  1.3586 -1.7211  1.4600
 7919SOL     OW35392   1.786   2.815   6.722  0.4304 -0.2423 -0.5620
 7919SOL    HW135393   1.717   2.809   6.657  0.9675 -1.8765 -0.9917
 7919SOL    HW235394   1.812   2.723   6.731  1.4788  0.0059 -0.9850
 7920SOL     OW35395   2.484   4.638  12.013 -0.3581 -0.3809 -0.6649
 7920SOL    HW135396   2.555   4.687  11.971  0.6463 -0.6209  0.7536
 7920SOL    HW235397   2.498   4.644  12.107  2.2262  0.9362 -1.1269
 7921SOL     OW35398   0.929   0.450   8.092  0.5461  0.0252  0.3821
 7921SOL    HW135399   0.906   0.454   7.999  0.0272 -0.5768  0.4860
 7921SOL    HW235400   1.016   0.413   8.074  1.2647  2.2279 -0.6971
 7922SOL     OW35401   0.953   4.133   6.570  0.8045 -0.1083  0.1483
 7922SOL    HW135402   0.972   4.188   6.646  2.1582  0.8259 -0.8691
 7922SOL    HW235403   0.899   4.193   6.519  0.1771 -0.1628  0.7464
 7923SOL     OW35404   0.144   1.192   2.790 -0.0268 -0.1490 -0.0276
 7923SOL    HW135405   0.190   1.224   2.713 -1.4734 -0.8437 -1.1753
 7923SOL    HW235406   0.057   1.229   2.778  0.0196  0.0218  0.1566
 7924SOL     OW35407   1.411   4.078  14.667  0.1460 -0.2758  0.4772
 7924SOL    HW135408   1.477   4.141  14.637 -0.6338 -0.1852 -1.0658
 7924SOL    HW235409   1.394   4.030  14.586  0.1918  0.6907 -0.1121
 7925SOL     OW35410   0.528   3.094   6.438 -0.2958 -0.0618  0.2173
 7925SOL    HW135411   0.565   3.182   6.434 -0.6732  0.2036  2.6292
 7925SOL    HW235412   0.516   3.094   6.533  0.7086  0.5565  0.3490
 7926SOL     OW35413   4.110   0.456  12.497  0.1083 -0.0254  0.7985
 7926SOL    HW135414   4.067   0.372  12.488 -0.0868 -0.1708  3.1997
 7926SOL    HW235415   4.202   0.441  12.520  0.5153  0.6751 -0.3359
 7927SOL     OW35416   4.494   0.385   9.168 -0.2330 -0.1160 -0.1386
 7927SOL    HW135417   4.536   0.300   9.176 -0.4272 -0.3257 -1.3863
 7927SOL    HW235418   4.444   0.392   9.250 -0.4385  0.8021 -0.3388
 7928SOL     OW35419   4.557   3.304   1.823 -0.1230 -0.0199  0.0015
 7928SOL    HW135420   4.616   3.230   1.807 -0.8402 -0.5017 -0.3940
 7928SOL    HW235421   4.552   3.304   1.918 -2.3005 -1.6173 -0.1293
 7929SOL     OW35422   1.712   0.528   4.646 -0.3983 -0.7486 -0.1828
 7929SOL    HW135423   1.725   0.602   4.706 -2.2834  1.3074 -2.3132
 7929SOL    HW235424   1.766   0.555   4.572 -0.4919  1.0685  0.4090
 7930SOL     OW35425   0.455   4.221   4.674  0.4474  0.5465  0.2051
 7930SOL    HW135426   0.413   4.148   4.720 -0.7139  0.6761 -0.6624
 7930SOL    HW235427   0.424   4.214   4.584  2.1689  0.6630 -0.4085
 7931SOL     OW35428   4.626   3.005   2.790  0.3154 -0.1582  0.3796
 7931SOL    HW135429   4.638   3.014   2.695 -1.0384 -2.1757  0.0181
 7931SOL    HW235430   4.610   2.910   2.790 -0.4065 -0.0386  0.7209
 7932SOL     OW35431   1.790   3.281   5.198  0.2069  1.0029  0.0618
 7932SOL    HW135432   1.817   3.287   5.107 -3.0462 -0.4103 -0.9850
 7932SOL    HW235433   1.718   3.343   5.195 -0.8000 -0.0253  3.0346
 7933SOL     OW35434   3.679   4.651   6.483  0.5816 -0.0123  0.1092
 7933SOL    HW135435   3.724   4.619   6.561 -0.4499  0.6316  0.9695
 7933SOL    HW235436   3.642   4.731   6.519  2.5999  0.6453  0.7125
 7934SOL     OW35437   4.676   3.720   5.084  0.6914 -0.1796  0.2739
 7934SOL    HW135438   4.617   3.645   5.073 -0.0844  0.1312  2.4241
 7934SOL    HW235439   4.623   3.776   5.140  1.4840  0.9624 -0.1193
 7935SOL     OW35440   0.722   1.589   7.344 -0.2488 -0.2398 -0.1206
 7935SOL    HW135441   0.773   1.519   7.384  1.3914  1.7193  1.1870
 7935SOL    HW235442   0.711   1.577   7.250 -1.0305  0.9213 -0.1775
 7936SOL     OW35443   2.457   0.595   8.507 -0.2859  0.3742  0.1459
 7936SOL    HW135444   2.382   0.594   8.567 -0.3104 -1.7770  0.0745
 7936SOL    HW235445   2.411   0.619   8.427  0.7410  1.1524 -0.2102
 7937SOL     OW35446   0.221   0.290  16.069  0.4959 -0.0392 -0.7526
 7937SOL    HW135447   0.267   0.373  16.078 -1.6061  1.2769 -2.3371
 7937SOL    HW235448   0.135   0.312  16.034  1.2657  1.6369 -1.5899
 7938SOL     OW35449   3.109   0.137   6.099  0.2187  0.2544 -0.0644
 7938SOL    HW135450   3.133   0.055   6.056  0.6811 -0.4014  1.4446
 7938SOL    HW235451   3.060   0.098   6.171 -0.0777 -0.3997 -0.6093
 7939SOL     OW35452   1.093   1.196   3.456 -0.4873  0.3513  0.4887
 7939SOL    HW135453   1.131   1.274   3.497  0.1790  1.1521 -1.7124
 7939SOL    HW235454   1.102   1.220   3.365 -0.5278  1.4250  0.7725
 7940SOL     OW35455   1.869   0.566   7.451 -0.2426 -0.0963 -0.2110
 7940SOL    HW135456   1.945   0.508   7.451  0.0443  0.2895  1.7461
 7940SOL    HW235457   1.904   0.655   7.445  0.2779 -0.1617  2.1066
 7941SOL     OW35458   1.612   0.848   5.254  0.2234 -0.1091  0.0606
 7941SOL    HW135459   1.620   0.785   5.182 -1.3612 -0.4768  0.2216
 7941SOL    HW235460   1.526   0.826   5.290  1.0349 -1.0696  1.4040
 7942SOL     OW35461   3.919   3.285   5.801  0.3040 -0.5944  0.3219
 7942SOL    HW135462   3.951   3.317   5.885  0.1609 -1.5743  0.7430
 7942SOL    HW235463   4.001   3.258   5.761  0.0317  1.2372 -1.5197
 7943SOL     OW35464   4.223   0.324   5.130  0.0065  0.6432 -0.0945
 7943SOL    HW135465   4.272   0.295   5.053  1.0493 -1.5455  1.4070
 7943SOL    HW235466   4.136   0.291   5.106 -0.7896  1.6942  1.3329
 7944SOL     OW35467   1.019   4.623   8.726 -0.1333  0.2358  0.0796
 7944SOL    HW135468   0.991   4.596   8.638 -1.0061 -1.3804  0.8437
 7944SOL    HW235469   1.103   4.666   8.713  0.2060 -0.5189 -0.2130
 7945SOL     OW35470   2.120   2.910   6.018 -0.2259 -0.2453 -0.1185
 7945SOL    HW135471   2.056   2.884   5.951  1.3389  0.5677 -1.9291
 7945SOL    HW235472   2.203   2.910   5.970  0.4820 -0.3307  1.1135
 7946SOL     OW35473   3.242   3.109  12.381 -0.0891  0.3331 -0.1097
 7946SOL    HW135474   3.233   3.026  12.428  1.1132  0.3966  0.2245
 7946SOL    HW235475   3.180   3.164  12.429 -2.0064 -2.6264  0.8060
 7947SOL     OW35476   3.464   1.067   5.152  0.5514 -0.0077  0.4253
 7947SOL    HW135477   3.510   0.997   5.105  0.4969  0.9371 -1.0411
 7947SOL    HW235478   3.415   1.016   5.216  0.3308  0.8903  0.9665
 7948SOL     OW35479   3.877   2.039  11.959  0.1454  0.3819  0.2704
 7948SOL    HW135480   3.887   2.131  11.934 -1.8750  0.6424  0.4418
 7948SOL    HW235481   3.933   2.002  11.891  0.6008 -2.5052  2.2501
 7949SOL     OW35482   3.199   2.729   2.482 -0.2515 -0.1283 -0.7527
 7949SOL    HW135483   3.132   2.717   2.415  0.5124 -1.5419 -1.2575
 7949SOL    HW235484   3.245   2.805   2.446  2.0511 -0.9504  0.4418
 7950SOL     OW35485   4.100   1.036   8.273 -0.7132  0.3690 -0.0826
 7950SOL    HW135486   4.161   1.032   8.199 -1.2300 -0.0737 -0.4867
 7950SOL    HW235487   4.078   0.945   8.293 -1.9626  0.6055 -0.4015
 7951SOL     OW35488   3.826   0.174   9.086 -0.0772 -0.0328 -0.5665
 7951SOL    HW135489   3.731   0.170   9.072 -0.2310 -4.4534  1.7179
 7951SOL    HW235490   3.841   0.166   9.180  1.8268  1.8781 -0.7132
 7952SOL     OW35491   0.120   1.625   0.680  0.2043  0.0247  0.6959
 7952SOL    HW135492   0.077   1.710   0.682  1.0671  0.4611  0.4090
 7952SOL    HW235493   0.206   1.653   0.648  0.2365 -0.2285  0.5588
 7953SOL     OW35494   4.667   3.626  16.340  0.3001 -0.2850  0.4036
 7953SOL    HW135495   4.589   3.646  16.391 -0.4332 -1.9361 -0.0883
 7953SOL    HW235496   4.694   3.717  16.325 -1.1302  0.3545  1.7775
 7954SOL     OW35497   0.066   3.780  13.223  0.4850  0.4998  0.2504
 7954SOL    HW135498   0.116   3.728  13.160  1.9868  0.7131  1.2594
 7954SOL    HW235499   0.065   3.712  13.291 -0.8762 -0.9120 -1.1754
 7955SOL     OW35500   3.069   2.239   2.388 -0.0608 -0.4236  0.6380
 7955SOL    HW135501   3.053   2.272   2.477 -2.2022 -0.4368  0.2642
 7955SOL    HW235502   3.155   2.275   2.370 -0.1763 -0.6556 -0.3529
 7956SOL     OW35503   3.136   2.459   7.533  0.9479 -0.1757  0.1681
 7956SOL    HW135504   3.081   2.494   7.463  0.0757 -2.3207 -0.2219
 7956SOL    HW235505   3.202   2.523   7.559  0.4308  0.3381  0.2108
 7957SOL     OW35506   3.163   1.280  10.136  0.6952 -0.0072  0.2687
 7957SOL    HW135507   3.231   1.267  10.203  1.2655  0.8632 -0.1371
 7957SOL    HW235508   3.124   1.193  10.138  0.5608  0.0733  1.1302
 7958SOL     OW35509   0.515   2.947   5.184 -0.7713  0.0004  0.0796
 7958SOL    HW135510   0.593   2.912   5.141 -0.2127  0.6801  0.5341
 7958SOL    HW235511   0.470   2.871   5.221  2.6324 -2.8004 -1.5267
 7959SOL     OW35512   1.626   1.291   0.714  0.0146 -0.1082  0.6242
 7959SOL    HW135513   1.614   1.211   0.663  3.6504 -0.7090  0.7226
 7959SOL    HW235514   1.610   1.252   0.799  2.8350 -0.3164  1.0510
 7960SOL     OW35515   1.318   2.435   2.768  0.5107 -0.0425 -0.2828
 7960SOL    HW135516   1.370   2.356   2.780  2.5130  1.3986  0.4170
 7960SOL    HW235517   1.385   2.500   2.789 -1.2968  1.7262  0.1003
 7961SOL     OW35518   3.468   0.269   0.744  0.4404 -0.6670 -0.2910
 7961SOL    HW135519   3.542   0.283   0.802 -0.6757 -1.3937  1.3137
 7961SOL    HW235520   3.511   0.198   0.695 -1.3982 -1.0662 -1.3589
 7962SOL     OW35521   2.580   0.103  17.503 -0.3193  0.3945 -0.3253
 7962SOL    HW135522   2.577   0.057  17.587 -0.3834  2.5924  0.8816
 7962SOL    HW235523   2.530   0.045  17.446  0.2785 -0.9441  0.5205
 7963SOL     OW35524   4.316   3.155   0.376  0.0402 -0.2488 -0.1088
 7963SOL    HW135525   4.283   3.242   0.355 -1.4381 -0.9356 -0.6501
 7963SOL    HW235526   4.295   3.156   0.469  0.2809 -1.3259 -0.0384
 7964SOL     OW35527   4.045   2.931  17.023  0.5028  0.1929  0.1583
 7964SOL    HW135528   4.123   2.931  16.966 -0.4922 -2.1586 -1.2261
 7964SOL    HW235529   4.073   2.869  17.091 -2.2050 -0.4032  0.7234
 7965SOL     OW35530   1.000   3.642   4.232  0.3733  0.4327 -0.5421
 7965SOL    HW135531   0.954   3.725   4.235  0.2143  0.3343 -0.2806
 7965SOL    HW235532   0.924   3.590   4.258  0.7797  0.1794  0.1480
 7966SOL     OW35533   0.869   0.627  16.111 -0.6230  0.2657  0.4984
 7966SOL    HW135534   0.892   0.719  16.098 -0.6845 -0.0044 -1.4812
 7966SOL    HW235535   0.806   0.640  16.182  0.8303  1.3125  1.6051
 7967SOL     OW35536   3.063   1.984   9.581 -0.2491  0.3733 -0.5574
 7967SOL    HW135537   3.104   1.899   9.569  0.7391  1.1960 -3.1634
 7967SOL    HW235538   3.113   2.031   9.647 -1.6092  1.3209 -0.1777
 7968SOL     OW35539   4.631   3.023   4.515  0.2039  0.0022  0.2384
 7968SOL    HW135540   4.579   2.997   4.591  2.4525 -0.2720  1.6723
 7968SOL    HW235541   4.697   2.954   4.515  0.3856  0.1800 -0.4498
 7969SOL     OW35542   0.434   2.865   2.925  0.6496 -0.3682  0.3853
 7969SOL    HW135543   0.467   2.951   2.953 -1.1003  0.3269  0.2764
 7969SOL    HW235544   0.359   2.885   2.870 -0.3153 -0.9683  1.4913
 7970SOL     OW35545   4.559   0.686   4.282  0.3481  0.4270 -0.2004
 7970SOL    HW135546   4.556   0.700   4.188  1.5882  0.8574 -0.1724
 7970SOL    HW235547   4.519   0.599   4.287 -0.7804  1.0305  1.2481
 7971SOL     OW35548   0.529   0.067   9.606 -0.3625 -0.2830  0.5030
 7971SOL    HW135549   0.506   4.730   9.666  0.0785 -0.2709  0.6823
 7971SOL    HW235550   0.454   0.075   9.547 -0.2454 -0.3797  0.3431
 7972SOL     OW35551   2.076   1.952   1.641 -0.5670  0.5564 -0.1300
 7972SOL    HW135552   2.089   1.915   1.728 -0.7001 -0.0511 -0.3734
 7972SOL    HW235553   2.052   1.875   1.590 -3.3101  0.7694  0.8709
 7973SOL     OW35554   2.405   3.908  14.485  0.1593  0.1052  0.2172
 7973SOL    HW135555   2.336   3.889  14.422 -0.1018 -1.7250  1.0479
 7973SOL    HW235556   2.482   3.903  14.429  0.2927  0.7220  0.3419
 7974SOL     OW35557   4.139   4.475   7.442 -0.0177  0.3666 -0.2012
 7974SOL    HW135558   4.221   4.440   7.477 -1.3487 -1.4640  1.1631
 7974SOL    HW235559   4.157   4.482   7.349 -1.0364 -0.5497 -0.4724
 7975SOL     OW35560   3.752   4.275   3.579  0.4989  0.2344  0.2444
 7975SOL    HW135561   3.668   4.306   3.614 -0.1226 -3.3176  1.8421
 7975SOL    HW235562   3.804   4.293   3.657 -2.2839 -1.1018  2.4154
 7976SOL     OW35563   3.091   0.974   2.737 -0.2155  0.6718  0.4165
 7976SOL    HW135564   3.148   0.903   2.763 -2.5693 -1.1369  0.6565
 7976SOL    HW235565   3.056   0.937   2.656 -0.0536 -1.7610  1.4592
 7977SOL     OW35566   4.070   0.942   5.968  0.3636  0.1735  0.1075
 7977SOL    HW135567   4.019   0.900   5.898  0.0307 -0.6321  0.8342
 7977SOL    HW235568   4.039   1.032   5.962  0.9479  0.4825  1.6568
 7978SOL     OW35569   0.288   0.102   2.882 -0.1785  0.1148 -0.5310
 7978SOL    HW135570   0.313   0.177   2.829 -0.3702  0.2809 -0.3862
 7978SOL    HW235571   0.231   0.043   2.833  2.7656 -1.8175 -1.6674
 7979SOL     OW35572   0.398   2.633   5.125 -0.4322 -0.1535  0.6807
 7979SOL    HW135573   0.398   2.549   5.080  0.6516 -0.2288  0.8204
 7979SOL    HW235574   0.377   2.691   5.052  1.1078 -3.0022 -1.9637
 7980SOL     OW35575   0.351   3.340   6.329 -0.2826 -0.0778  0.3813
 7980SOL    HW135576   0.351   3.401   6.256  1.8277 -0.0540  0.4159
 7980SOL    HW235577   0.444   3.324   6.342 -0.3062  0.6537  1.4934
 7981SOL     OW35578   0.353   4.105  13.365 -0.1109 -0.4289 -0.1218
 7981SOL    HW135579   0.411   4.177  13.342  1.0999 -1.7455 -1.1819
 7981SOL    HW235580   0.269   4.145  13.388 -0.6067 -1.3505 -0.3071
 7982SOL     OW35581   1.779   0.967   4.571 -0.4084 -0.2657  0.6248
 7982SOL    HW135582   1.714   1.033   4.550 -1.2179 -1.5960 -1.0674
 7982SOL    HW235583   1.863   1.012   4.572 -0.0345 -0.9188 -1.8886
 7983SOL     OW35584   3.031   1.950  11.315 -0.1983  0.1697 -0.1529
 7983SOL    HW135585   3.094   2.017  11.341 -1.8501  1.6694  0.0330
 7983SOL    HW235586   3.057   1.923  11.227  1.6609  0.0166  0.4473
 7984SOL     OW35587   2.703   2.782   3.752 -0.0200 -0.1833  0.1938
 7984SOL    HW135588   2.787   2.777   3.799  0.7627 -0.5302 -1.2510
 7984SOL    HW235589   2.732   2.742   3.670 -0.8035 -1.6834  0.6290
 7985SOL     OW35590   2.084   0.230   2.164  0.3173  0.5360  0.4167
 7985SOL    HW135591   2.059   0.310   2.210 -0.2935  0.8126 -0.3970
 7985SOL    HW235592   2.167   0.216   2.209 -0.9689  0.6839  2.8418
 7986SOL     OW35593   3.738   1.974  14.099 -0.5828  0.0563 -0.0359
 7986SOL    HW135594   3.828   2.006  14.097 -0.9025  1.1649  3.1640
 7986SOL    HW235595   3.694   2.050  14.139 -0.2742  0.0154  0.3818
 7987SOL     OW35596   3.708   1.066   2.043  0.5364 -0.0851 -0.4042
 7987SOL    HW135597   3.761   1.133   2.000 -0.9062  1.7512  0.7266
 7987SOL    HW235598   3.728   0.984   1.997  0.4396  0.0959 -0.7717
 7988SOL     OW35599   1.591   2.765   2.461 -0.8083  0.4477  0.1347
 7988SOL    HW135600   1.501   2.750   2.488 -0.8565  0.3616 -0.0772
 7988SOL    HW235601   1.616   2.840   2.516  1.8022  0.5804 -1.2377
 7989SOL     OW35602   3.984   0.608   1.898  0.3315 -0.2954  0.6608
 7989SOL    HW135603   4.005   0.627   1.989 -0.2904 -4.1719  1.6180
 7989SOL    HW235604   4.068   0.579   1.863  0.0095 -0.3821 -0.0495
 7990SOL     OW35605   0.671   1.396   8.787 -0.4215  0.6899  0.2178
 7990SOL    HW135606   0.654   1.440   8.871 -3.5001  1.7219 -0.9407
 7990SOL    HW235607   0.583   1.399   8.749  1.0342  0.5379 -3.0863
 7991SOL     OW35608   1.762   3.348  16.689  0.1570 -0.6741  0.0021
 7991SOL    HW135609   1.696   3.388  16.745  0.5419 -0.1472  0.0834
 7991SOL    HW235610   1.743   3.257  16.709 -0.2612 -0.7403 -0.7098
 7992SOL     OW35611   3.845   1.405   9.595  0.9036  0.2791  0.2872
 7992SOL    HW135612   3.810   1.347   9.526  2.5392  0.3478 -0.5907
 7992SOL    HW235613   3.898   1.471   9.550 -2.1847  0.7844 -2.6179
 7993SOL     OW35614   0.489   4.122  13.056  0.1312 -0.0763 -0.3147
 7993SOL    HW135615   0.463   4.097  13.145 -1.1765  1.4109 -0.2678
 7993SOL    HW235616   0.578   4.158  13.065  0.0855  0.3785 -1.7080
 7994SOL     OW35617   1.478   4.694  10.800  0.3310 -0.3649  0.5754
 7994SOL    HW135618   1.444   4.647  10.724  0.8199 -3.7164  2.4107
 7994SOL    HW235619   1.401   0.007  10.831  1.0441  0.6673  0.7370
 7995SOL     OW35620   1.141   1.216   8.958  0.0383 -0.4923  0.2117
 7995SOL    HW135621   1.084   1.292   8.969  0.1461 -0.3823  0.0111
 7995SOL    HW235622   1.206   1.214   9.028  1.4668  1.0737 -1.0816
 7996SOL     OW35623   0.880   0.914   5.224 -0.3240  0.1182  0.4127
 7996SOL    HW135624   0.927   0.974   5.283  3.0702 -1.0152 -1.1741
 7996SOL    HW235625   0.829   0.976   5.171 -0.7233 -0.9292 -0.4341
 7997SOL     OW35626   4.422   3.191   6.490 -0.0698 -0.5396 -0.1765
 7997SOL    HW135627   4.510   3.186   6.451 -0.1030 -0.9176 -0.1979
 7997SOL    HW235628   4.407   3.098   6.503  1.0534 -0.8101 -0.7895
 7998SOL     OW35629   4.260   1.525  11.251  0.4648 -0.0456 -0.4417
 7998SOL    HW135630   4.194   1.571  11.302  0.1953 -0.1309 -0.7155
 7998SOL    HW235631   4.248   1.430  11.243  0.2557 -0.0269 -0.3523
 7999SOL     OW35632   1.379   2.732   3.891  0.7931 -0.4367  0.4172
 7999SOL    HW135633   1.425   2.677   3.828 -0.3835 -0.8384 -0.1064
 7999SOL    HW235634   1.411   2.697   3.974  2.9914  1.3603  0.3340
 8000SOL     OW35635   1.267   3.096   3.762 -0.2602  0.2088 -0.3985
 8000SOL    HW135636   1.313   3.032   3.707  0.5674 -1.5521  2.3268
 8000SOL    HW235637   1.196   3.043   3.797 -0.5356  0.9701  0.1899
 8001SOL     OW35638   1.484   0.961   8.622  0.6592 -0.4943  0.4545
 8001SOL    HW135639   1.424   0.887   8.633  1.2933 -1.1699 -0.6598
 8001SOL    HW235640   1.507   0.949   8.530 -1.0001  1.0707 -0.1524
 8002SOL     OW35641   4.356   4.237   5.665 -0.0371 -0.3811  0.3572
 8002SOL    HW135642   4.387   4.231   5.755 -0.0280  0.4235  0.4077
 8002SOL    HW235643   4.359   4.330   5.643  1.5973 -0.4174  0.4544
 8003SOL     OW35644   0.169   2.323   7.325  0.2700  0.0150  0.0558
 8003SOL    HW135645   0.169   2.351   7.233  0.7469  1.6245  0.5457
 8003SOL    HW235646   0.252   2.359   7.356  0.4912 -1.2873  0.9860
 8004SOL     OW35647   1.659   2.907   7.606  0.1887  0.0232  0.2588
 8004SOL    HW135648   1.656   2.837   7.670  0.6840  0.1819  0.4526
 8004SOL    HW235649   1.574   2.947   7.627 -0.9139 -0.8411 -2.4815
 8005SOL     OW35650   3.973   2.908   1.781  0.3906 -0.2173 -0.2481
 8005SOL    HW135651   4.043   2.962   1.745  0.9514 -0.1548  0.9146
 8005SOL    HW235652   4.003   2.819   1.765  1.5997  0.2254 -0.4667
 8006SOL     OW35653   1.866   0.369   6.487 -0.9244  0.4269 -0.0462
 8006SOL    HW135654   1.836   0.373   6.578 -1.9219 -1.9427 -0.2743
 8006SOL    HW235655   1.928   0.303   6.518 -0.2383  0.6842 -0.8996
 8007SOL     OW35656   4.399   4.246   3.824 -0.2913 -0.3043  0.0891
 8007SOL    HW135657   4.417   4.243   3.918  2.5646  0.7263 -0.4092
 8007SOL    HW235658   4.323   4.303   3.819  0.2337  0.4818  1.1214
 8008SOL     OW35659   0.334   2.356   5.633  0.1034  0.5846 -0.0317
 8008SOL    HW135660   0.361   2.407   5.556  1.1237 -0.2566 -0.2186
 8008SOL    HW235661   0.285   2.283   5.594  1.5802 -0.0479 -0.7260
 8009SOL     OW35662   0.979   1.736   3.572 -0.7866  0.2393  0.9909
 8009SOL    HW135663   1.044   1.790   3.617 -0.5034  0.8200 -0.1320
 8009SOL    HW235664   0.900   1.790   3.576 -0.1894  1.2610 -0.9096
 8010SOL     OW35665   1.787   3.738  12.318  0.4566 -0.1750 -0.4943
 8010SOL    HW135666   1.780   3.697  12.404  3.8104  0.7966  0.2268
 8010SOL    HW235667   1.783   3.830  12.344  1.1373 -0.6131  1.1451
 8011SOL     OW35668   2.561   2.666   4.223  0.3470 -0.5547  0.1232
 8011SOL    HW135669   2.545   2.737   4.285  0.6604 -0.1972 -0.2033
 8011SOL    HW235670   2.494   2.684   4.157 -0.8379 -2.8331  0.7152
 8012SOL     OW35671   1.015   1.810   8.675 -0.0786  0.7058  0.5336
 8012SOL    HW135672   0.958   1.743   8.638 -0.1112  2.2703 -2.2232
 8012SOL    HW235673   1.077   1.743   8.705 -0.8245  0.1301  0.7980
 8013SOL     OW35674   2.189   2.193   8.950 -0.1049  0.2076 -0.3489
 8013SOL    HW135675   2.173   2.104   8.919  1.6360 -0.5386  0.8982
 8013SOL    HW235676   2.099   2.222   8.940  0.0574  0.4692 -1.0557
 8014SOL     OW35677   2.193   2.145   0.875  0.1885  0.3243  0.3263
 8014SOL    HW135678   2.146   2.074   0.919 -0.0923 -0.9594 -2.0287
 8014SOL    HW235679   2.251   2.088   0.825  0.9419  0.4913  1.0127
 8015SOL     OW35680   4.479   1.829   8.738 -0.3456 -0.0267  0.5383
 8015SOL    HW135681   4.403   1.783   8.705  0.8072 -2.3526  1.1203
 8015SOL    HW235682   4.461   1.923   8.727 -1.6179 -0.7196 -3.0824
 8016SOL     OW35683   2.167   1.819  12.967 -0.5084 -0.1335 -0.5739
 8016SOL    HW135684   2.227   1.843  12.896 -0.8885  0.1766 -0.7931
 8016SOL    HW235685   2.131   1.742  12.924 -1.4285 -0.4237  0.7079
 8017SOL     OW35686   2.844   0.778  10.957  0.3471  1.0641 -0.5251
 8017SOL    HW135687   2.772   0.729  10.917 -0.9928  1.2127  1.6762
 8017SOL    HW235688   2.838   0.771  11.052  2.2976 -1.2124 -0.5663
 8018SOL     OW35689   0.505   2.532  11.714 -0.0357  0.2511 -0.5899
 8018SOL    HW135690   0.422   2.485  11.706  0.2370 -0.1755 -0.8966
 8018SOL    HW235691   0.504   2.555  11.807 -0.6790 -1.0224 -0.2854
 8019SOL     OW35692   3.288   1.838  16.367  0.6049 -0.0281  0.4678
 8019SOL    HW135693   3.382   1.829  16.350  1.0424  0.0288  2.8638
 8019SOL    HW235694   3.280   1.808  16.457 -0.6159  1.1165  0.7415
 8020SOL     OW35695   4.235   4.425   4.142  0.7041  0.1421 -0.4320
 8020SOL    HW135696   4.184   4.354   4.183  1.0225  0.5575  0.6901
 8020SOL    HW235697   4.194   4.427   4.056 -1.6683  0.3324  0.6928
 8021SOL     OW35698   3.825   4.182  12.240  0.6199 -0.2149  0.5509
 8021SOL    HW135699   3.773   4.174  12.319 -1.0126 -1.3010 -0.6326
 8021SOL    HW235700   3.804   4.268  12.205 -2.0464 -0.4105  1.6723
 8022SOL     OW35701   1.823   4.604   2.936 -0.3156  0.7881 -0.1150
 8022SOL    HW135702   1.889   4.563   2.992 -1.7666 -3.3050 -1.4175
 8022SOL    HW235703   1.867   4.686   2.911 -2.3986  2.7762  2.7909
 8023SOL     OW35704   3.517   3.684  13.344  0.1339 -0.3289  0.5122
 8023SOL    HW135705   3.560   3.625  13.406 -0.3773 -1.3626 -0.1142
 8023SOL    HW235706   3.476   3.743  13.407  1.3253  1.7117 -0.6030
 8024SOL     OW35707   3.830   1.274   1.861 -0.1080 -0.2132  0.5416
 8024SOL    HW135708   3.912   1.243   1.821  0.6448 -0.1106  2.0029
 8024SOL    HW235709   3.853   1.366   1.869  0.1602 -0.1882 -0.4932
 8025SOL     OW35710   3.326   1.869  11.819  0.3628 -0.1219 -0.6229
 8025SOL    HW135711   3.285   1.851  11.903 -0.0810 -0.5662 -0.9319
 8025SOL    HW235712   3.395   1.921  11.859  1.4148 -2.3745  0.4891
 8026SOL     OW35713   2.675   1.569   0.141 -0.2003  0.6006 -0.0718
 8026SOL    HW135714   2.617   1.629   0.094  0.9550  0.0325 -2.1793
 8026SOL    HW235715   2.610   1.532   0.202  1.0773  0.8578  1.4453
 8027SOL     OW35716   3.796   2.813   9.192 -1.1210 -0.3042  0.4028
 8027SOL    HW135717   3.841   2.765   9.122  0.0905 -0.3331  1.1915
 8027SOL    HW235718   3.842   2.792   9.273  1.6359 -1.0154 -1.3153
 8028SOL     OW35719   0.546   1.402  17.084  0.1403 -0.0633 -0.1869
 8028SOL    HW135720   0.455   1.384  17.106  1.0928 -2.5254  1.6880
 8028SOL    HW235721   0.552   1.496  17.071 -0.6098 -0.0588 -0.4988
 8029SOL     OW35722   0.569   2.828  11.219  0.1068 -0.0583  0.2089
 8029SOL    HW135723   0.653   2.796  11.250  0.2909 -0.1095 -0.3431
 8029SOL    HW235724   0.580   2.920  11.241 -1.2364  0.6300 -2.0038
 8030SOL     OW35725   1.309   3.043  14.184  0.6295 -0.2320 -0.2597
 8030SOL    HW135726   1.250   3.078  14.252  1.1213 -4.1510  2.1594
 8030SOL    HW235727   1.273   2.955  14.175  0.5017 -0.1738 -0.3242
 8031SOL     OW35728   2.602   4.661   0.268  0.1753 -0.3094  0.0079
 8031SOL    HW135729   2.697   4.670   0.277  0.0573  1.0777 -0.1454
 8031SOL    HW235730   2.577   0.017   0.281 -2.5976 -0.7765 -2.0475
 8032SOL     OW35731   3.326   2.593  10.759  0.2572 -0.3539  0.1032
 8032SOL    HW135732   3.250   2.651  10.761 -0.6378 -1.5507  1.5633
 8032SOL    HW235733   3.291   2.505  10.775 -2.0746  0.8883  1.8437
 8033SOL     OW35734   0.187   2.065   7.402  0.6259  0.8312 -1.0216
 8033SOL    HW135735   0.168   1.997   7.337  0.4369  0.3923 -0.5093
 8033SOL    HW235736   0.173   2.145   7.352  0.6387  0.0057 -2.3563
 8034SOL     OW35737   1.769   2.598   7.311  0.3971 -0.0109  0.3733
 8034SOL    HW135738   1.754   2.573   7.402 -1.3159  0.2710  0.1500
 8034SOL    HW235739   1.746   2.690   7.312 -0.1146 -0.1643  1.5418
 8035SOL     OW35740   3.029   0.484   2.119 -0.5682  0.2163 -0.0032
 8035SOL    HW135741   2.966   0.412   2.110  0.6308 -0.5212 -2.5206
 8035SOL    HW235742   3.036   0.510   2.027 -0.3081  0.1122 -0.0122
 8036SOL     OW35743   4.628   0.034   2.890  0.6725 -0.4802  0.0358
 8036SOL    HW135744   4.723   0.018   2.886  0.6306 -0.9373  0.8459
 8036SOL    HW235745   4.633   0.096   2.963  3.1110  0.0689 -0.5935
 8037SOL     OW35746   3.830   0.051  11.628 -0.0879  0.1399  0.2205
 8037SOL    HW135747   3.890   0.125  11.616 -0.1609  0.3247  0.9749
 8037SOL    HW235748   3.840   0.039  11.723 -3.2457  1.0693  0.6724
 8038SOL     OW35749   1.047   0.938   8.769 -0.5109 -0.3445  0.0209
 8038SOL    HW135750   0.964   0.983   8.789 -0.2212  0.8697 -1.4952
 8038SOL    HW235751   1.084   0.989   8.697  2.1852 -1.5718  0.5572
 8039SOL     OW35752   2.921   3.114   3.307  0.3897  0.1245  0.0467
 8039SOL    HW135753   2.947   3.085   3.394  0.8129 -1.3982 -0.5920
 8039SOL    HW235754   2.986   3.182   3.287  0.2038 -0.1615 -1.5551
 8040SOL     OW35755   4.311   0.217   3.921 -0.9446  0.5475 -0.4142
 8040SOL    HW135756   4.363   0.228   3.842  1.6582 -2.0097  0.9595
 8040SOL    HW235757   4.327   0.296   3.973 -0.3199 -0.2929  0.6485
 8041SOL     OW35758   1.133   4.673   8.416 -0.2661 -0.1351 -0.2807
 8041SOL    HW135759   1.187   4.727   8.474 -3.6197  1.2423  1.4944
 8041SOL    HW235760   1.110   4.726   8.339 -0.1406  1.9088  1.0999
 8042SOL     OW35761   2.970   3.129   7.548 -0.4925  0.1429  0.2370
 8042SOL    HW135762   2.961   3.155   7.639 -0.4243 -0.5586  0.4391
 8042SOL    HW235763   3.061   3.100   7.554 -0.9718 -1.2720  0.7217
 8043SOL     OW35764   0.966   3.023   6.846  0.5481  0.1464 -0.5169
 8043SOL    HW135765   0.983   3.116   6.857 -0.5572  0.1812  0.9743
 8043SOL    HW235766   1.006   2.996   6.929  0.7404  0.1460 -0.6096
 8044SOL     OW35767   4.612   3.873  17.675 -0.0683 -0.4605 -0.1806
 8044SOL    HW135768   4.622   3.842   0.026 -0.1161 -0.7339 -0.2677
 8044SOL    HW235769   4.700   3.909  17.663 -0.7330  1.6874  1.3859
 8045SOL     OW35770   0.672   0.102   2.113  0.2813 -0.2690 -0.5896
 8045SOL    HW135771   0.674   0.010   2.088  0.2619 -0.2776 -0.5586
 8045SOL    HW235772   0.757   0.130   2.079  0.9649 -3.2803 -1.3296
 8046SOL     OW35773   0.783   4.732   8.845  0.4437  0.1342 -0.2061
 8046SOL    HW135774   0.704   4.696   8.805 -0.3678  0.4819  1.0676
 8046SOL    HW235775   0.856   4.684   8.806  0.4437  0.3123 -0.4334
 8047SOL     OW35776   3.944   2.437   3.000  0.4020  0.1418  0.2342
 8047SOL    HW135777   4.010   2.441   2.931  1.0574  0.5371  0.8820
 8047SOL    HW235778   4.001   2.455   3.074  0.2778  1.4290  0.0200
 8048SOL     OW35779   4.607   3.232   9.448  0.0600 -0.3285  0.5787
 8048SOL    HW135780   4.600   3.327   9.436  1.0695 -0.4321 -0.8397
 8048SOL    HW235781   4.666   3.219   9.374 -0.8284  1.6089 -0.4882
 8049SOL     OW35782   1.736   3.942  13.585 -0.3527 -0.1054  0.1602
 8049SOL    HW135783   1.782   3.956  13.667 -3.4577 -0.5469  1.9681
 8049SOL    HW235784   1.646   3.962  13.611 -0.4887 -2.4535  1.4707
 8050SOL     OW35785   2.216   3.182   2.161 -0.1313  0.3118 -0.0846
 8050SOL    HW135786   2.125   3.160   2.145 -0.4349  0.0976  2.0713
 8050SOL    HW235787   2.209   3.272   2.130 -0.4231  0.1912 -0.3647
 8051SOL     OW35788   3.212   4.055   0.953 -0.1707 -0.4719 -0.1579
 8051SOL    HW135789   3.147   4.003   0.905  0.6637  0.0807 -1.8995
 8051SOL    HW235790   3.175   4.062   1.041 -0.6126 -2.1812 -0.2112
 8052SOL     OW35791   1.536   3.066   3.955  0.0558  0.0346 -0.3109
 8052SOL    HW135792   1.445   3.041   3.972  0.7249 -1.4593  1.0876
 8052SOL    HW235793   1.533   3.052   3.860 -0.5625 -0.8609 -0.1514
 8053SOL     OW35794   3.475   2.232   9.247  0.6951 -0.2547  0.1987
 8053SOL    HW135795   3.524   2.155   9.217 -2.1071 -1.5947 -0.9323
 8053SOL    HW235796   3.383   2.212   9.267  0.8673 -1.3491 -0.1072
 8054SOL     OW35797   3.495   0.786   7.756 -0.6221  0.3305  0.2320
 8054SOL    HW135798   3.431   0.730   7.799  0.0253 -2.6743 -2.7068
 8054SOL    HW235799   3.502   0.748   7.669  0.6933  0.5552  0.2352
 8055SOL     OW35800   2.412   4.485  10.338 -0.2884  0.1045 -0.2252
 8055SOL    HW135801   2.485   4.445  10.385 -0.4450  0.5312  0.3771
 8055SOL    HW235802   2.340   4.446  10.387  1.8483 -2.0181  1.2740
 8056SOL     OW35803   4.022   1.186   6.280 -0.3901  0.1734 -0.6491
 8056SOL    HW135804   4.019   1.282   6.287  0.1539  0.0313  1.4187
 8056SOL    HW235805   4.005   1.172   6.187  1.0197  0.5765 -0.9540
 8057SOL     OW35806   1.532   4.313   8.904  0.2143 -0.1836  0.1528
 8057SOL    HW135807   1.471   4.355   8.964  2.2806  2.1881  0.5982
 8057SOL    HW235808   1.613   4.341   8.947  0.8861  1.2302 -2.0314
 8058SOL     OW35809   0.131   1.890   8.983  0.4341  0.8358  0.1896
 8058SOL    HW135810   0.165   1.970   9.022 -0.0770  0.9187  0.4706
 8058SOL    HW235811   0.036   1.906   8.985  0.8518  3.3705  0.3325
 8059SOL     OW35812   3.062   0.483   8.191 -0.4175  0.6896  0.4262
 8059SOL    HW135813   3.045   0.389   8.199  2.7607 -0.0180 -1.0927
 8059SOL    HW235814   3.140   0.481   8.135  0.1162  1.5496  1.1522
 8060SOL     OW35815   2.204   0.632  17.031 -0.0689 -0.1723 -0.0880
 8060SOL    HW135816   2.287   0.680  17.041 -0.1503 -0.1653  0.5383
 8060SOL    HW235817   2.214   0.608  16.939  1.1005  1.4633 -0.4023
 8061SOL     OW35818   0.395   0.505   7.386 -0.4259  0.1996 -0.5056
 8061SOL    HW135819   0.319   0.539   7.337 -1.3026  1.3834  1.6989
 8061SOL    HW235820   0.427   0.579   7.437 -1.9478  0.6934 -0.2502
 8062SOL     OW35821   2.539   2.682   1.165 -0.0420  0.0154  0.1009
 8062SOL    HW135822   2.478   2.647   1.099 -1.2616  0.9180  0.7454
 8062SOL    HW235823   2.502   2.763   1.199 -0.7726  0.0233 -0.7168
 8063SOL     OW35824   3.914   1.503  10.000 -0.1641  0.5381  0.6861
 8063SOL    HW135825   3.922   1.591   9.962 -0.3022  0.1881 -0.1339
 8063SOL    HW235826   3.916   1.537  10.090 -0.6560 -1.2610  1.3779
 8064SOL     OW35827   3.729   4.266   8.103 -0.0938  0.0120 -0.2785
 8064SOL    HW135828   3.721   4.193   8.165  1.8811 -0.8424 -1.0208
 8064SOL    HW235829   3.672   4.229   8.036 -0.0010  1.3907 -1.1208
 8065SOL     OW35830   3.951   1.500  13.624 -0.2682 -0.0361  0.0785
 8065SOL    HW135831   4.046   1.490  13.622 -0.2572 -0.1590  1.0984
 8065SOL    HW235832   3.940   1.585  13.580  1.1012  0.5600  0.8864
 8066SOL     OW35833   0.573   4.678  16.339  0.3451  0.0991 -0.0959
 8066SOL    HW135834   0.561   4.602  16.283  0.0870 -0.8358  1.2222
 8066SOL    HW235835   0.532   4.641  16.417  1.0987  1.1014  0.7920
 8067SOL     OW35836   3.082   2.547   7.874  0.1549  0.0338  0.1543
 8067SOL    HW135837   3.056   2.455   7.878  2.4118 -0.5721  0.4253
 8067SOL    HW235838   3.012   2.592   7.923  0.4834  0.4334  0.2586
 8068SOL     OW35839   0.338   2.793   8.017  0.2586  0.1772  0.5722
 8068SOL    HW135840   0.287   2.732   7.965 -0.5872  0.3139  1.2395
 8068SOL    HW235841   0.414   2.804   7.960 -1.2313  0.4565 -1.3595
 8069SOL     OW35842   3.529   0.059   0.321  0.3283  0.2273 -0.1213
 8069SOL    HW135843   3.592   0.072   0.250  0.5835  2.9686  0.6099
 8069SOL    HW235844   3.476   0.138   0.312 -1.2700 -1.2395 -3.7500
 8070SOL     OW35845   0.016   3.858   4.025  0.7730  0.4944  0.0435
 8070SOL    HW135846   0.068   3.786   3.988  0.5016  1.2634 -1.8116
 8070SOL    HW235847   4.673   3.849   3.970 -1.6126  2.0541  3.1730
 8071SOL     OW35848   4.366   3.080   2.539 -0.4131  0.2947 -0.0021
 8071SOL    HW135849   4.302   3.016   2.569 -2.3567  0.5844 -3.5362
 8071SOL    HW235850   4.335   3.157   2.587  0.2925  0.7657 -0.2944
 8072SOL     OW35851   1.440   2.126   4.251  0.4473 -0.0072 -0.4638
 8072SOL    HW135852   1.416   2.205   4.203  0.0752 -0.5822 -1.2234
 8072SOL    HW235853   1.356   2.104   4.293 -0.4262  1.7068 -1.3432
 8073SOL     OW35854   0.748   4.265   9.035 -0.2314  0.5510 -0.6743
 8073SOL    HW135855   0.692   4.210   8.981  1.4853  1.0035 -2.8837
 8073SOL    HW235856   0.823   4.268   8.976 -0.3582 -1.1682 -0.9362
 8074SOL     OW35857   3.864   1.986   5.279 -0.0913  0.2232  0.3061
 8074SOL    HW135858   3.797   1.974   5.347 -1.8801 -0.2459 -1.5705
 8074SOL    HW235859   3.810   2.046   5.228  2.0608  1.8243 -0.1136
 8075SOL     OW35860   1.105   1.637   2.111  0.0756  0.0010  0.0176
 8075SOL    HW135861   1.130   1.727   2.130  0.6813 -0.3674  0.9193
 8075SOL    HW235862   1.100   1.635   2.016 -1.2847  3.7866  0.0127
 8076SOL     OW35863   1.273   4.287  12.274 -0.2517 -0.0349 -0.2703
 8076SOL    HW135864   1.258   4.223  12.204  0.6702 -1.7183  1.0635
 8076SOL    HW235865   1.326   4.352  12.226  1.8412 -3.6798 -2.9217
 8077SOL     OW35866   4.209   0.635   4.237 -0.0440  0.0152 -0.3116
 8077SOL    HW135867   4.263   0.714   4.237 -0.8102  0.5472  0.8424
 8077SOL    HW235868   4.143   0.661   4.302 -0.4267  0.2024 -0.7800
 8078SOL     OW35869   3.118   1.566   2.900 -0.0116 -0.3309  0.0055
 8078SOL    HW135870   3.155   1.558   2.812 -1.7232  0.1397 -0.7667
 8078SOL    HW235871   3.040   1.510   2.894 -0.9217  0.9091  0.1941
 8079SOL     OW35872   4.687   0.335   5.712  0.4588  0.3776  0.3859
 8079SOL    HW135873   4.688   0.359   5.804 -0.2864 -0.4791  0.6219
 8079SOL    HW235874   0.045   0.355   5.696  0.8442  0.4075  2.6650
 8080SOL     OW35875   1.280   2.184  14.653 -0.2369  0.6029  0.5632
 8080SOL    HW135876   1.347   2.250  14.670  2.6078 -2.3852  0.9370
 8080SOL    HW235877   1.305   2.129  14.579  1.1089  2.2713 -0.2124
 8081SOL     OW35878   4.210   2.336   6.194  0.1947 -0.1951 -0.2809
 8081SOL    HW135879   4.194   2.328   6.100  1.9808  1.6534 -0.7376
 8081SOL    HW235880   4.278   2.271   6.211  0.0288 -0.4065 -0.4372
 8082SOL     OW35881   0.213   3.759   8.819 -0.4798 -0.7755  0.0675
 8082SOL    HW135882   0.121   3.788   8.819 -0.0713  0.5440  1.5507
 8082SOL    HW235883   0.225   3.719   8.906 -2.1673  0.4985  0.8940
 8083SOL     OW35884   4.274   3.403   6.423  0.1328 -0.2136 -0.0860
 8083SOL    HW135885   4.287   3.425   6.516 -1.5756  2.1380 -0.4152
 8083SOL    HW235886   4.327   3.324   6.428 -1.6503 -1.1721  3.6056
 8084SOL     OW35887   0.729   1.099   5.070  0.1332  0.3323  0.7346
 8084SOL    HW135888   0.702   1.125   4.982 -0.7384  0.4211  1.0279
 8084SOL    HW235889   0.679   1.018   5.080  1.3440 -0.4876  0.0662
 8085SOL     OW35890   1.109   1.436  16.248  0.6287  0.3007 -0.1369
 8085SOL    HW135891   1.066   1.485  16.318  0.7441 -0.7238  0.6362
 8085SOL    HW235892   1.195   1.409  16.280  0.4288  0.1408  0.2686
 8086SOL     OW35893   2.102   0.838   9.333  0.0372  0.2329 -0.1871
 8086SOL    HW135894   2.136   0.895   9.264  2.2768 -0.3615  0.4280
 8086SOL    HW235895   2.159   0.761   9.338 -1.3904 -0.9671 -2.4015
 8087SOL     OW35896   3.363   1.901  15.258 -0.3262  0.0137  0.0431
 8087SOL    HW135897   3.434   1.962  15.236  1.4235 -2.1901 -0.3521
 8087SOL    HW235898   3.297   1.949  15.208 -1.0418 -1.3945 -0.3435
 8088SOL     OW35899   0.162   0.974   1.986  0.2166  0.3498 -0.4286
 8088SOL    HW135900   0.079   0.974   1.939 -0.0894 -0.3074  0.1058
 8088SOL    HW235901   0.125   1.000   2.070  0.8534 -0.8455  0.2354
 8089SOL     OW35902   3.691   4.131   2.298 -0.5762  0.0577 -0.3224
 8089SOL    HW135903   3.755   4.155   2.231  0.2844 -0.8118  0.2027
 8089SOL    HW235904   3.654   4.051   2.260 -0.4134 -0.8153  1.3847
 8090SOL     OW35905   2.734   2.618   4.755 -0.2356 -0.1734 -0.7134
 8090SOL    HW135906   2.707   2.546   4.813  1.9083 -0.8341 -0.5456
 8090SOL    HW235907   2.774   2.685   4.810 -0.1778 -0.1034 -0.8415
 8091SOL     OW35908   4.446   1.343   6.987 -0.1993 -0.1804  0.4971
 8091SOL    HW135909   4.467   1.260   6.946 -1.9545  0.2312 -1.2414
 8091SOL    HW235910   4.527   1.359   7.036 -1.2464 -1.4947  2.6942
 8092SOL     OW35911   0.251   1.273   4.127 -0.3766 -0.7438 -1.1310
 8092SOL    HW135912   0.239   1.180   4.146 -2.0422  0.1073  1.9425
 8092SOL    HW235913   0.185   1.316   4.182  0.5928  1.1522 -1.4612
 8093SOL     OW35914   1.077   1.500   5.626 -0.1181  0.3305  0.4860
 8093SOL    HW135915   1.126   1.515   5.545 -0.2236  0.9781  0.5433
 8093SOL    HW235916   1.123   1.566   5.679 -1.8833  2.0225 -0.1182
 8094SOL     OW35917   0.819   3.479   7.650  0.4422  0.0126 -0.5207
 8094SOL    HW135918   0.815   3.571   7.678 -0.1558  0.0672 -0.7691
 8094SOL    HW235919   0.820   3.436   7.735 -1.8704 -0.9925 -0.9804
 8095SOL     OW35920   3.749   3.540  15.635 -0.4260 -0.2379 -0.3724
 8095SOL    HW135921   3.838   3.540  15.671 -0.3776 -0.3318 -0.4926
 8095SOL    HW235922   3.728   3.447  15.633  1.7122 -0.7390  0.8581
 8096SOL     OW35923   2.646   2.278   6.113 -0.2759 -0.3315 -0.3622
 8096SOL    HW135924   2.736   2.246   6.115 -0.7063 -1.5753 -1.4932
 8096SOL    HW235925   2.645   2.302   6.021 -2.3101  0.1676 -0.2014
 8097SOL     OW35926   3.196   0.960   9.302 -0.5635  0.1497 -0.5044
 8097SOL    HW135927   3.131   0.912   9.355 -1.5361  0.5653 -1.3187
 8097SOL    HW235928   3.229   1.016   9.372 -0.3142 -0.2351 -0.3138
 8098SOL     OW35929   4.482   2.303  11.391 -0.2721 -0.4746 -0.1015
 8098SOL    HW135930   4.530   2.373  11.435  0.4241 -0.5935 -0.6837
 8098SOL    HW235931   4.399   2.303  11.440  1.1399  2.0441  2.3083
 8099SOL     OW35932   4.377   3.019   7.378  0.3809 -0.1871 -0.3645
 8099SOL    HW135933   4.443   2.956   7.407 -0.4982 -1.0926 -0.3259
 8099SOL    HW235934   4.340   3.040   7.464 -2.6319 -2.5430 -1.0930
 8100SOL     OW35935   0.872   4.495   7.099 -1.1526  0.1768 -0.0387
 8100SOL    HW135936   0.897   4.580   7.062 -2.4734 -0.2147 -1.8344
 8100SOL    HW235937   0.906   4.515   7.186 -0.4957  3.0691 -0.9404
 8101SOL     OW35938   0.702   2.025  10.978 -0.4145  0.2063  0.3674
 8101SOL    HW135939   0.627   2.054  10.926 -0.1884  3.2478  1.6876
 8101SOL    HW235940   0.764   2.076  10.925  1.0270 -1.6723  0.2411
 8102SOL     OW35941   2.583   1.492  11.522  0.0096 -0.0874  0.3762
 8102SOL    HW135942   2.664   1.533  11.491  0.8767 -1.1107  1.3172
 8102SOL    HW235943   2.608   1.414  11.571 -2.3424 -0.6161  0.7691
 8103SOL     OW35944   2.349   4.639   8.299 -0.0927 -0.3670  0.2178
 8103SOL    HW135945   2.369   4.732   8.305  3.2082 -1.1608  1.4750
 8103SOL    HW235946   2.264   4.636   8.343  0.7823  1.1815  1.9748
 8104SOL     OW35947   2.084   1.542   2.250 -0.0714 -0.3051  0.3041
 8104SOL    HW135948   2.023   1.615   2.258  0.8752  0.4189  0.9244
 8104SOL    HW235949   2.019   1.473   2.263  0.5090 -0.9570 -0.2434
 8105SOL     OW35950   2.603   1.490  14.945  0.0172 -0.3824 -0.0098
 8105SOL    HW135951   2.634   1.412  14.898  4.7535  0.7597  1.2201
 8105SOL    HW235952   2.510   1.468  14.948 -0.1823  0.4863  0.2595
 8106SOL     OW35953   2.252   3.973  14.258 -0.2257 -1.1326  0.0414
 8106SOL    HW135954   2.331   3.981  14.204 -1.4151 -0.1113 -1.5146
 8106SOL    HW235955   2.183   3.940  14.201  0.4023 -1.3361 -0.5933
 8107SOL     OW35956   0.171   2.511   5.853  0.0492 -0.2867  0.5420
 8107SOL    HW135957   0.113   2.438   5.877  1.2638 -1.6292 -0.6112
 8107SOL    HW235958   0.180   2.496   5.759 -4.7904  0.2011  0.0189
 8108SOL     OW35959   2.827   0.709   6.124 -0.0643 -0.2205  0.0820
 8108SOL    HW135960   2.866   0.676   6.043  0.1873 -1.6528  0.7955
 8108SOL    HW235961   2.736   0.718   6.096 -0.5947 -0.8350  1.5929
 8109SOL     OW35962   0.421   4.436  11.684  0.4147 -0.8714  0.2852
 8109SOL    HW135963   0.422   4.350  11.643  1.6308 -2.1520  2.9971
 8109SOL    HW235964   0.512   4.465  11.682 -0.2558  1.1202 -1.0255
 8110SOL     OW35965   2.401   3.140   3.774 -0.0161 -0.1983 -0.1167
 8110SOL    HW135966   2.456   3.090   3.713  0.1183 -1.5164  1.0681
 8110SOL    HW235967   2.328   3.156   3.715 -0.9294 -2.8123  0.2835
 8111SOL     OW35968   2.551   0.772   9.702 -0.2219 -0.1119  0.1707
 8111SOL    HW135969   2.468   0.742   9.665  2.3576 -2.8112 -3.4133
 8111SOL    HW235970   2.521   0.788   9.792  2.0219 -0.1184  0.9258
 8112SOL     OW35971   2.945   3.039   8.257  0.2921 -0.1937 -0.0278
 8112SOL    HW135972   2.853   3.064   8.247  0.5723  1.2108  0.8970
 8112SOL    HW235973   2.976   3.020   8.168  1.2329 -1.7949  0.6371
 8113SOL     OW35974   3.679   4.020  10.234 -0.4703  0.2516  0.4025
 8113SOL    HW135975   3.606   4.055  10.183 -2.0711  0.6654  3.0119
 8113SOL    HW235976   3.703   4.091  10.293  1.7352  0.6898 -1.0194
 8114SOL     OW35977   0.917   2.168   7.370  0.1274 -0.0697 -0.8699
 8114SOL    HW135978   0.976   2.230   7.413 -1.4540  1.4982 -1.0095
 8114SOL    HW235979   0.948   2.089   7.415 -0.4252 -0.1525 -0.6424
 8115SOL     OW35980   0.807   0.046   9.199  1.1916 -0.2867 -0.2734
 8115SOL    HW135981   0.881   0.021   9.254  0.9458 -0.1921  0.1009
 8115SOL    HW235982   0.773   4.696   9.174 -0.9864  0.3385  0.5361
 8116SOL     OW35983   1.693   2.805   7.869 -0.0995  0.3138  0.7348
 8116SOL    HW135984   1.691   2.788   7.963  1.8773 -1.2012  0.4922
 8116SOL    HW235985   1.600   2.788   7.853 -0.3252  1.9617  0.2725
 8117SOL     OW35986   3.488   2.582  12.711 -0.6565 -0.0811  0.4190
 8117SOL    HW135987   3.525   2.494  12.714  1.1848  0.6849 -0.0881
 8117SOL    HW235988   3.539   2.620  12.782  0.8366  1.0554 -1.2684
 8118SOL     OW35989   0.268   2.478  14.329 -0.1124 -0.1307  0.3217
 8118SOL    HW135990   0.218   2.551  14.293  0.2858  0.0913  0.2079
 8118SOL    HW235991   0.261   2.489  14.424 -1.2740 -1.7417  0.4050
 8119SOL     OW35992   2.933   3.720   7.222  0.2080 -0.2431  0.1783
 8119SOL    HW135993   2.955   3.807   7.188 -0.1739  0.3030  1.3041
 8119SOL    HW235994   2.969   3.660   7.157  0.7043 -0.3363  0.5414
 8120SOL     OW35995   4.373   0.709  13.171 -0.3957  0.4500 -0.2957
 8120SOL    HW135996   4.287   0.696  13.210 -0.0922  0.3638  0.3453
 8120SOL    HW235997   4.426   0.729  13.248 -0.3510 -1.3490  0.1338
 8121SOL     OW35998   4.581   1.065  11.667  0.0674 -0.2629  0.0464
 8121SOL    HW135999   4.670   1.077  11.702  0.3354  1.8344 -1.3708
 8121SOL    HW236000   4.520   1.088  11.737 -1.6171 -0.1227 -1.4763
 8122SOL     OW36001   1.840   0.104   2.759  0.1398  0.0903  1.1653
 8122SOL    HW136002   1.828   0.043   2.687 -2.1087  0.5135  1.2025
 8122SOL    HW236003   1.928   0.138   2.740 -0.1065 -0.0835 -0.2951
 8123SOL     OW36004   3.129   3.492   7.646  0.0413 -0.1378 -0.4316
 8123SOL    HW136005   3.143   3.579   7.610 -2.1933  0.0838 -0.7579
 8123SOL    HW236006   3.218   3.468   7.672 -0.0625  0.6283  0.6132
 8124SOL     OW36007   4.156   2.028   6.912  0.1255 -0.1514  0.1180
 8124SOL    HW136008   4.156   1.933   6.920 -1.4089 -0.3991 -2.9026
 8124SOL    HW236009   4.143   2.033   6.818 -0.4721  2.9115  0.3536
 8125SOL     OW36010   2.016   2.172   7.730  0.1714  0.1469 -0.3174
 8125SOL    HW136011   2.102   2.188   7.770 -0.3154 -0.0011  0.7883
 8125SOL    HW236012   2.033   2.088   7.688 -1.4723 -0.0818 -0.4998
 8126SOL     OW36013   0.751   1.596  11.732 -0.2236  0.3223  0.0479
 8126SOL    HW136014   0.810   1.522  11.746 -0.6932 -0.3564 -1.5723
 8126SOL    HW236015   0.808   1.669  11.756  0.8835 -0.9493  1.3177
 8127SOL     OW36016   3.401   3.046  10.729 -0.6386  0.2230  0.2732
 8127SOL    HW136017   3.357   3.061  10.813  1.1770 -0.3606  1.3335
 8127SOL    HW236018   3.334   3.096  10.683  0.8047  1.9737  0.0580
 8128SOL     OW36019   0.766   0.637  17.609 -0.1176  0.1084 -0.5318
 8128SOL    HW136020   0.671   0.624  17.611 -0.1271  0.2520 -0.0892
 8128SOL    HW236021   0.778   0.691  17.687 -1.9505  0.8259 -0.7335
 8129SOL     OW36022   2.092   1.702   7.462 -0.8931 -0.2035  0.0920
 8129SOL    HW136023   2.130   1.626   7.418  1.5906  1.6318 -0.9384
 8129SOL    HW236024   1.997   1.691   7.458 -0.9683 -0.0585  1.2593
 8130SOL     OW36025   4.644   1.064   6.108  0.6698 -0.4789  0.0839
 8130SOL    HW136026   4.679   0.998   6.049 -0.2827 -1.4036  0.5674
 8130SOL    HW236027   4.693   1.140   6.076 -0.2973  0.6789  1.3450
 8131SOL     OW36028   1.807   1.580   3.325 -0.2546 -0.1771  0.4048
 8131SOL    HW136029   1.783   1.498   3.368  2.2570 -1.2253 -0.1948
 8131SOL    HW236030   1.819   1.547   3.236  0.6313  0.1456  0.4077
 8132SOL     OW36031   1.237   1.370   6.395 -0.3048 -0.0700 -0.1794
 8132SOL    HW136032   1.167   1.416   6.442 -0.9621  0.9660 -2.2002
 8132SOL    HW236033   1.201   1.282   6.395 -2.5651  0.8653  0.2178
 8133SOL     OW36034   3.684   1.795   1.552  0.5335  0.2207 -0.2702
 8133SOL    HW136035   3.621   1.805   1.481 -1.4394 -0.9864  1.3501
 8133SOL    HW236036   3.651   1.715   1.592 -0.3596  0.6650 -0.1227
 8134SOL     OW36037   2.682   0.125   8.332 -0.4027  0.0288 -0.3751
 8134SOL    HW136038   2.744   0.054   8.350 -1.7211 -1.2619 -0.8991
 8134SOL    HW236039   2.673   0.119   8.237  0.6019 -0.4092 -0.4469
 8135SOL     OW36040   4.679   3.529  14.049 -0.0157  0.6765  0.4037
 8135SOL    HW136041   4.623   3.603  14.024  0.9464  0.0968 -3.4547
 8135SOL    HW236042   4.676   3.548  14.142  1.5471  0.4846  0.4890
 8136SOL     OW36043   1.624   3.290   2.743 -0.3720  0.0687  0.3208
 8136SOL    HW136044   1.693   3.356   2.750  1.5338 -2.1413  2.3243
 8136SOL    HW236045   1.558   3.309   2.810  0.6473  0.2361  1.2724
 8137SOL     OW36046   0.746   2.038  11.275 -0.1421  0.2839  0.0986
 8137SOL    HW136047   0.727   2.047  11.181  0.7088 -2.5250 -0.3247
 8137SOL    HW236048   0.803   1.961  11.275  0.8900  1.0413 -0.8388
 8138SOL     OW36049   1.060   2.738   1.501 -0.1347  1.1771  0.3478
 8138SOL    HW136050   1.026   2.668   1.444  0.5454  1.0559  0.0967
 8138SOL    HW236051   1.141   2.758   1.456  0.3231 -0.1148  0.5925
 8139SOL     OW36052   3.203   1.319   3.249 -0.0468  0.3395 -0.7528
 8139SOL    HW136053   3.164   1.405   3.258 -0.2601  0.5523 -3.8569
 8139SOL    HW236054   3.262   1.331   3.324 -0.8864 -1.1671  0.1583
 8140SOL     OW36055   4.649   1.096   3.058  0.4146  0.0383 -0.3624
 8140SOL    HW136056   4.632   1.002   3.066  0.4764  0.2534  2.3536
 8140SOL    HW236057   4.720   1.100   3.122  1.7335  0.8389 -1.8892
 8141SOL     OW36058   0.432   1.445   4.075 -0.5256 -0.5231 -0.1365
 8141SOL    HW136059   0.383   1.503   4.017  1.5126  2.7647  1.4311
 8141SOL    HW236060   0.373   1.373   4.096  0.4470 -1.2172  0.1950
 8142SOL     OW36061   3.051   0.473   8.757 -0.0760 -0.8286 -0.8242
 8142SOL    HW136062   3.140   0.455   8.726  0.7732  3.2816 -0.8216
 8142SOL    HW236063   3.002   0.391   8.761  1.4342 -1.7391 -0.9856
 8143SOL     OW36064   3.153   2.576   3.031 -0.5812  0.6106  0.1684
 8143SOL    HW136065   3.158   2.672   3.030 -0.2377  0.5956  0.2377
 8143SOL    HW236066   3.238   2.555   2.993 -1.0011  0.8705 -0.9165
 8144SOL     OW36067   1.704   2.991   2.648 -0.7542 -0.3250 -0.3656
 8144SOL    HW136068   1.738   3.068   2.603  0.9891 -0.1838  1.2058
 8144SOL    HW236069   1.618   3.030   2.665 -0.0202  1.2533 -0.3528
 8145SOL     OW36070   2.919   2.358   3.712 -0.6802 -0.0659 -0.0837
 8145SOL    HW136071   2.897   2.267   3.731  2.1287 -1.3378 -2.8829
 8145SOL    HW236072   2.854   2.408   3.762  1.0668  0.5684  1.5259
 8146SOL     OW36073   2.036   4.098   9.927  0.7406  0.2445 -0.7596
 8146SOL    HW136074   1.999   4.180   9.962  0.4468 -0.5803  0.8592
 8146SOL    HW236075   2.051   4.058  10.012  0.9443  0.2513 -0.7940
 8147SOL     OW36076   1.561   2.791   6.557  0.2965 -0.1354 -0.4089
 8147SOL    HW136077   1.570   2.732   6.482 -2.7088  0.2713 -1.1175
 8147SOL    HW236078   1.467   2.791   6.576  0.1543 -0.0896 -1.1060
 8148SOL     OW36079   0.361   0.160  15.340  0.6957  0.1576  0.0505
 8148SOL    HW136080   0.430   0.146  15.406  0.6219  0.2723  0.1527
 8148SOL    HW236081   0.366   0.254  15.324 -0.3299  0.4351  1.3272
 8149SOL     OW36082   2.981   0.967   8.400 -0.2576  0.1351  0.0964
 8149SOL    HW136083   3.075   0.970   8.386 -0.2374 -2.1795 -0.3531
 8149SOL    HW236084   2.957   0.929   8.315  0.2144  1.9596 -0.8449
 8150SOL     OW36085   2.866   4.427   1.287 -0.1229  0.7646 -0.6912
 8150SOL    HW136086   2.941   4.466   1.242  0.2343 -0.3245 -1.0396
 8150SOL    HW236087   2.911   4.408   1.369 -1.6001  0.3363  0.0162
 8151SOL     OW36088   2.502   2.270  10.873 -0.3352 -0.1436 -0.2617
 8151SOL    HW136089   2.562   2.344  10.884 -0.0884 -0.2927 -0.6110
 8151SOL    HW236090   2.460   2.282  10.788 -0.3576  1.0760 -0.0774
 8152SOL     OW36091   3.071   2.762   3.467 -0.4001  0.0787 -0.3802
 8152SOL    HW136092   3.125   2.826   3.420 -1.2656  0.5249 -0.7622
 8152SOL    HW236093   3.139   2.694   3.461 -0.4044  0.0467 -0.0256
 8153SOL     OW36094   4.167   1.749   7.665  0.0484 -0.1900 -0.5365
 8153SOL    HW136095   4.241   1.711   7.617  0.2344  1.8699 -1.8650
 8153SOL    HW236096   4.203   1.757   7.753  0.0434  1.0738 -0.6515
 8154SOL     OW36097   1.410   3.501  16.588  0.1760 -0.5605 -0.0439
 8154SOL    HW136098   1.388   3.416  16.550 -0.6732 -1.0593  1.5355
 8154SOL    HW236099   1.477   3.538  16.530  0.0266 -1.0709 -0.5436
 8155SOL     OW36100   0.301   2.019   5.828  0.1784 -0.8752 -0.0277
 8155SOL    HW136101   0.336   1.951   5.769  2.3417  0.6065 -0.4463
 8155SOL    HW236102   0.382   2.045   5.872  0.8835 -2.2115 -0.5245
 8156SOL     OW36103   0.742   3.530   5.586  0.2127  0.3449 -0.5914
 8156SOL    HW136104   0.718   3.580   5.509 -1.4303  1.6157  0.7471
 8156SOL    HW236105   0.779   3.450   5.548  1.2084  0.4381  0.1663
 8157SOL     OW36106   0.917   4.590   7.636 -0.4753  0.0718 -0.5370
 8157SOL    HW136107   0.959   4.581   7.722  2.5529 -0.9358 -2.1508
 8157SOL    HW236108   0.849   4.527   7.660 -0.9947  0.4552 -1.0057
 8158SOL     OW36109   4.027   4.270   4.698 -0.1431 -0.4458 -0.1417
 8158SOL    HW136110   3.961   4.253   4.765  0.5121 -1.7944  0.1630
 8158SOL    HW236111   4.061   4.182   4.677 -1.0323 -0.6815 -0.5902
 8159SOL     OW36112   3.437   2.902   0.497  0.8850  0.4864  0.4546
 8159SOL    HW136113   3.405   2.883   0.585  0.4755  1.2384  0.4698
 8159SOL    HW236114   3.417   2.817   0.457  1.2644  0.8764 -0.5798
 8160SOL     OW36115   3.822   2.273  11.494  0.2536 -0.3441 -0.3066
 8160SOL    HW136116   3.773   2.196  11.526 -0.3139 -0.9354 -2.5490
 8160SOL    HW236117   3.840   2.245  11.404  1.6236  1.3178 -0.5349
 8161SOL     OW36118   4.056   3.436  15.771  0.9855 -0.3112  0.1945
 8161SOL    HW136119   3.988   3.374  15.746 -2.8482  3.6643  0.8487
 8161SOL    HW236120   4.080   3.410  15.860 -0.2458  1.2478  0.9720
 8162SOL     OW36121   3.470   3.734   6.193 -0.0256  0.2210 -0.5708
 8162SOL    HW136122   3.395   3.748   6.135 -1.1302  1.2144  1.1130
 8162SOL    HW236123   3.435   3.753   6.280 -1.0872 -1.9677 -0.5041
 8163SOL     OW36124   2.076   2.356   6.326 -0.1673 -0.0560 -0.0785
 8163SOL    HW136125   1.982   2.352   6.312 -0.2485 -3.0592  1.1974
 8163SOL    HW236126   2.099   2.437   6.282 -1.1366 -0.0716 -0.6120
 8164SOL     OW36127   1.261   4.442   2.326 -0.3166  0.3843 -1.2098
 8164SOL    HW136128   1.172   4.465   2.353  0.1521 -0.6110  1.1529
 8164SOL    HW236129   1.229   4.412   2.241 -0.1560 -0.0486 -1.1183
 8165SOL     OW36130   1.690   0.133  12.593 -0.1831 -0.1809  0.1326
 8165SOL    HW136131   1.735   0.068  12.647 -1.6679 -1.9802 -0.8279
 8165SOL    HW236132   1.659   0.082  12.519  1.4236 -1.4927  0.3603
 8166SOL     OW36133   0.121   1.079  11.763  0.1891 -0.2201  0.3585
 8166SOL    HW136134   0.164   1.115  11.685  1.2481 -1.3755  0.4196
 8166SOL    HW236135   0.184   1.093  11.833 -0.0722  1.2483  0.3195
 8167SOL     OW36136   0.635   1.721  14.035  0.2536  0.2538  0.0898
 8167SOL    HW136137   0.649   1.693  14.125 -0.6611  1.1811  0.5047
 8167SOL    HW236138   0.555   1.772  14.045 -0.4412 -1.3393  2.5330
 8168SOL     OW36139   1.974   1.845   5.834 -0.4455  0.2541  0.1508
 8168SOL    HW136140   2.047   1.861   5.893 -0.6778  0.1628  0.4635
 8168SOL    HW236141   1.958   1.939   5.827  0.9258  0.5277  0.7635
 8169SOL     OW36142   0.236   1.875   5.186 -0.5037 -0.1344 -0.4075
 8169SOL    HW136143   0.209   1.820   5.260 -0.5863 -1.8995 -1.7463
 8169SOL    HW236144   0.270   1.812   5.123 -0.4288  0.4875 -0.9876
 8170SOL     OW36145   3.224   3.484  17.672 -0.0523  0.0709  0.2540
 8170SOL    HW136146   3.260   3.425  17.605  0.8967 -2.3041  2.8420
 8170SOL    HW236147   3.229   3.572  17.635  0.1876  0.4465  1.1866
 8171SOL     OW36148   1.334   1.972   7.177  0.3187 -0.1333 -0.1747
 8171SOL    HW136149   1.403   1.940   7.119  0.8228  1.2188 -0.3167
 8171SOL    HW236150   1.254   1.935   7.139  0.7753 -0.1199 -1.1421
 8172SOL     OW36151   4.687   3.521   4.011 -0.5842  0.4838 -0.2969
 8172SOL    HW136152   0.028   3.550   3.960  0.7200 -1.6920  0.4388
 8172SOL    HW236153   4.619   3.570   3.964 -0.1691 -0.6956 -2.1058
 8173SOL     OW36154   4.023   3.540   4.883  0.1153 -0.0459  0.3608
 8173SOL    HW136155   4.021   3.568   4.974 -1.1525 -2.1058  0.9642
 8173SOL    HW236156   4.065   3.619   4.849  2.2016 -1.3446 -0.1287
 8174SOL     OW36157   0.614   0.884   7.291 -0.1095 -0.1699 -0.3129
 8174SOL    HW136158   0.650   0.948   7.352 -1.6911 -0.9911  1.4585
 8174SOL    HW236159   0.523   0.910   7.303 -0.0535  0.0435 -0.3496
 8175SOL     OW36160   0.799   0.622   5.281 -0.7764  0.5022 -0.0858
 8175SOL    HW136161   0.756   0.612   5.366  0.6069  2.7937  0.8822
 8175SOL    HW236162   0.741   0.576   5.220  0.5533 -0.2050 -0.7984
 8176SOL     OW36163   3.667   0.782   6.851  0.7422  0.4922  0.1244
 8176SOL    HW136164   3.733   0.841   6.815  0.0149  0.8307 -0.6684
 8176SOL    HW236165   3.592   0.815   6.802  0.1562  2.1844  2.1885
 8177SOL     OW36166   1.453   2.490  16.513  0.0818 -0.4935  0.0378
 8177SOL    HW136167   1.439   2.403  16.551  0.2471 -1.3675 -1.9082
 8177SOL    HW236168   1.369   2.535  16.509 -0.3028 -1.3579 -1.7009
 8178SOL     OW36169   1.009   3.881   1.192 -0.0782  1.0549 -0.4194
 8178SOL    HW136170   1.070   3.865   1.264 -1.1343 -0.8864  0.0555
 8178SOL    HW236171   1.054   3.947   1.140  0.3087 -0.3347 -1.8497
 8179SOL     OW36172   1.077   4.710   5.225  0.1801 -0.0296  0.6308
 8179SOL    HW136173   1.077   4.618   5.254  1.4637 -0.6125 -1.2036
 8179SOL    HW236174   1.131   0.009   5.296  0.6594 -1.0280  0.7487
 8180SOL     OW36175   2.747   0.791   2.762  0.4641 -0.0368  0.0764
 8180SOL    HW136176   2.814   0.804   2.695  0.8611  0.8158  0.6399
 8180SOL    HW236177   2.698   0.718   2.724  0.4712  0.2585 -0.5083
 8181SOL     OW36178   1.457   0.517   4.742 -0.0207 -0.8185 -0.2513
 8181SOL    HW136179   1.544   0.506   4.703  0.6084  1.2722  0.5922
 8181SOL    HW236180   1.473   0.539   4.833 -0.7517  0.6643 -0.4895
 8182SOL     OW36181   0.013   1.960  15.950 -0.4863 -0.3593 -0.0401
 8182SOL    HW136182   0.103   1.973  15.922 -0.1794 -0.9696  0.6737
 8182SOL    HW236183   0.020   1.874  15.991  1.1224  1.0231  2.5504
 8183SOL     OW36184   0.712   3.004   8.814 -0.1213  0.2161 -0.0360
 8183SOL    HW136185   0.627   3.048   8.802 -0.4104  0.2638  2.1762
 8183SOL    HW236186   0.708   2.981   8.907  1.9248 -0.5549 -0.1519
 8184SOL     OW36187   4.242   2.928   3.526 -0.4562 -0.2778  0.1866
 8184SOL    HW136188   4.251   2.928   3.622 -4.1058 -0.2993  0.5374
 8184SOL    HW236189   4.234   3.022   3.512  0.4151 -0.2898 -0.4012
 8185SOL     OW36190   2.473   2.435   7.446  0.0392  0.1847 -0.6131
 8185SOL    HW136191   2.411   2.506   7.432 -1.5510 -1.0695  0.1781
 8185SOL    HW236192   2.550   2.486   7.419  0.8373 -0.0400  1.2530
 8186SOL     OW36193   3.884   3.766   3.272  0.1112  0.2716 -0.0979
 8186SOL    HW136194   3.943   3.723   3.210  2.0524  2.1915  0.4240
 8186SOL    HW236195   3.939   3.838   3.301 -1.2814  1.1954  0.2594
 8187SOL     OW36196   1.762   2.205  11.871 -0.1468  0.1509  0.3879
 8187SOL    HW136197   1.729   2.218  11.960  2.1838  0.8067  1.1467
 8187SOL    HW236198   1.799   2.118  11.883 -0.3831  0.1023  0.7545
 8188SOL     OW36199   1.207   2.893   9.793 -0.1075  1.0025  0.1483
 8188SOL    HW136200   1.202   2.988   9.792  0.8940  0.9979 -2.6864
 8188SOL    HW236201   1.114   2.873   9.806  0.7212 -0.6048  3.8610
 8189SOL     OW36202   1.378   3.914   6.642  0.0380  0.6999  0.1313
 8189SOL    HW136203   1.326   3.993   6.660 -0.6925  0.2322  0.0958
 8189SOL    HW236204   1.359   3.859   6.719  3.1356  0.3803  0.6420
 8190SOL     OW36205   4.076   1.178  15.073  1.1950 -0.1866 -0.1584
 8190SOL    HW136206   4.111   1.118  15.139 -0.8163  0.3460  1.3556
 8190SOL    HW236207   4.114   1.132  14.998  1.7219 -0.1397  0.0805
 8191SOL     OW36208   3.233   3.305   3.988 -0.2938  0.6546 -0.2987
 8191SOL    HW136209   3.306   3.253   4.021 -0.3721  0.6010 -0.2113
 8191SOL    HW236210   3.175   3.232   3.963  0.9217 -0.4979  0.2567
 8192SOL     OW36211   2.507   1.955   5.450 -0.3345  0.2690  0.2264
 8192SOL    HW136212   2.532   1.881   5.506  1.3200  0.9817  0.4238
 8192SOL    HW236213   2.421   1.938   5.411 -0.7620  2.2641  0.2853
 8193SOL     OW36214   1.658   1.867   9.994  0.0235 -0.5686 -0.1884
 8193SOL    HW136215   1.633   1.806  10.064  0.8275  1.4323  1.8545
 8193SOL    HW236216   1.569   1.893   9.971  0.2557  2.8456  2.6657
 8194SOL     OW36217   1.721   2.903   1.803 -0.3678  0.1670 -0.6498
 8194SOL    HW136218   1.736   2.811   1.783  0.2221 -0.1416  1.1716
 8194SOL    HW236219   1.734   2.911   1.897  1.2760 -0.0599 -0.8632
 8195SOL     OW36220   1.720   2.386  11.114 -0.6521 -0.2436  0.0940
 8195SOL    HW136221   1.779   2.313  11.093  0.0847  0.9718 -2.0408
 8195SOL    HW236222   1.738   2.458  11.054 -1.1615 -0.4906 -0.3551
 8196SOL     OW36223   0.023   3.981   9.233  0.1862 -0.0261 -0.4626
 8196SOL    HW136224   0.007   4.062   9.280 -0.3282  0.4142 -1.3796
 8196SOL    HW236225   0.109   4.006   9.201  1.0672 -1.0799  1.0688
 8197SOL     OW36226   0.982   0.734   3.942  0.1321  0.3845 -0.0519
 8197SOL    HW136227   0.979   0.775   3.855  0.4922  0.9653  0.2122
 8197SOL    HW236228   0.932   0.655   3.923  1.6124  0.0325 -2.5122
 8198SOL     OW36229   4.238   4.285   0.574  0.3143 -0.3673 -0.4719
 8198SOL    HW136230   4.312   4.297   0.633  0.2438 -1.0620 -0.2432
 8198SOL    HW236231   4.278   4.225   0.511  0.7319 -0.5558 -0.0288
 8199SOL     OW36232   2.827   4.026   7.479 -0.8648  0.3319 -0.2441
 8199SOL    HW136233   2.760   3.965   7.509 -2.3543  1.6614 -0.8236
 8199SOL    HW236234   2.881   4.006   7.555 -1.4250 -0.4440 -0.0497
 8200SOL     OW36235   3.603   2.545  17.012  0.5512 -0.1098  0.6934
 8200SOL    HW136236   3.598   2.472  17.074  1.1650  1.7823  3.0095
 8200SOL    HW236237   3.514   2.545  16.978  0.3987  1.8356  1.0588
 8201SOL     OW36238   1.090   3.183   5.433  0.2065 -0.0018 -0.0236
 8201SOL    HW136239   1.040   3.168   5.353  0.3007 -1.0214  0.1009
 8201SOL    HW236240   1.142   3.102   5.428  0.9970  0.6076 -1.7927
 8202SOL     OW36241   0.935   0.162   9.577  0.0809  0.4887  0.0737
 8202SOL    HW136242   0.933   0.091   9.514  0.9927  0.3925  0.1623
 8202SOL    HW236243   0.945   0.104   9.652  0.5569 -0.6761 -0.9089
 8203SOL     OW36244   1.411   0.119   3.087 -0.0220  0.2028  0.4324
 8203SOL    HW136245   1.434   0.029   3.066 -0.6372  0.2915 -0.6335
 8203SOL    HW236246   1.482   0.177   3.058 -0.1219  0.3160  0.4170
 8204SOL     OW36247   0.352   1.299   7.042 -0.2776  0.0340 -0.0402
 8204SOL    HW136248   0.360   1.389   7.074 -0.5573  0.9343 -2.5161
 8204SOL    HW236249   0.257   1.289   7.031  0.0597 -2.5281 -0.6502
 8205SOL     OW36250   2.830   4.639   4.646  0.2642  0.2470  0.0529
 8205SOL    HW136251   2.914   4.594   4.639 -1.0359 -2.1251 -0.2181
 8205SOL    HW236252   2.831   4.705   4.576  0.3413  1.1590  0.9202
 8206SOL     OW36253   4.452   2.468   5.119  0.2201 -0.5235 -0.0329
 8206SOL    HW136254   4.461   2.390   5.064  0.2560 -0.1104 -0.6122
 8206SOL    HW236255   4.522   2.520   5.078  0.1282 -0.9904 -0.7768
 8207SOL     OW36256   0.574   3.288  14.913  0.3434  0.3116 -0.2778
 8207SOL    HW136257   0.500   3.240  14.949  1.5038  0.3890  2.2632
 8207SOL    HW236258   0.585   3.349  14.986 -1.5857  2.3704 -1.7071
 8208SOL     OW36259   1.242   2.746   7.709  0.3871  0.7496  0.1535
 8208SOL    HW136260   1.290   2.828   7.721 -0.8468  1.5652 -0.4767
 8208SOL    HW236261   1.311   2.702   7.658 -1.4884 -0.6205 -1.2292
 8209SOL     OW36262   1.772   1.823  15.507  0.4391 -0.0541 -0.6431
 8209SOL    HW136263   1.715   1.792  15.578 -1.6219  2.9414 -1.0145
 8209SOL    HW236264   1.852   1.823  15.560 -0.5516 -0.7176  0.8652
 8210SOL     OW36265   0.838   4.381   1.517 -0.2053 -0.4048 -0.0377
 8210SOL    HW136266   0.760   4.326   1.524 -1.9356  2.2208  1.5204
 8210SOL    HW236267   0.836   4.392   1.422 -1.4217 -1.5029 -0.1374
 8211SOL     OW36268   1.782   2.211   8.619 -0.3210  0.2417  0.0748
 8211SOL    HW136269   1.705   2.187   8.670  0.0535  1.7836  1.3858
 8211SOL    HW236270   1.766   2.304   8.602 -1.8559 -0.0432 -0.0364
 8212SOL     OW36271   2.481   2.129   5.659 -0.4319 -0.3790  0.1402
 8212SOL    HW136272   2.490   2.057   5.596 -0.8959 -1.2327  1.0401
 8212SOL    HW236273   2.389   2.135   5.685 -0.9040  0.6570 -1.7707
 8213SOL     OW36274   4.196   0.145   9.289 -0.3299 -0.2975 -0.7874
 8213SOL    HW136275   4.281   0.175   9.322 -0.3702 -0.6717 -0.3510
 8213SOL    HW236276   4.224   0.128   9.199  0.3783  0.1061 -0.6455
 8214SOL     OW36277   0.377   0.134   5.889  0.5658  0.1497 -0.1907
 8214SOL    HW136278   0.403   0.204   5.828  2.7854 -0.6189 -0.1217
 8214SOL    HW236279   0.297   0.105   5.845 -0.6346 -2.0031  3.5012
 8215SOL     OW36280   4.663   4.253   7.664 -0.1401  0.0742  0.0367
 8215SOL    HW136281   4.698   4.326   7.613 -1.5287  0.2379 -0.6473
 8215SOL    HW236282   4.640   4.297   7.746 -0.1771 -1.0006  0.6073
 8216SOL     OW36283   0.329   1.244   8.521  0.6578  0.1630  0.2716
 8216SOL    HW136284   0.338   1.244   8.426  1.3941  0.5812  0.3362
 8216SOL    HW236285   0.278   1.164   8.526  0.4492  0.2781 -0.0261
 8217SOL     OW36286   1.647   2.960   9.685  0.4212  0.2325  0.4725
 8217SOL    HW136287   1.614   2.945   9.596 -0.3485 -3.5882  1.3967
 8217SOL    HW236288   1.707   3.034   9.682  1.4374 -0.4995  2.5613
 8218SOL     OW36289   2.806   1.977  11.505 -0.7015 -0.0183 -0.3771
 8218SOL    HW136290   2.884   1.964  11.451 -0.5626 -1.3857  0.1728
 8218SOL    HW236291   2.842   2.056  11.545  0.2463 -1.2071  1.1054
 8219SOL     OW36292   1.411   3.223  10.829  0.2531 -0.1861 -0.2098
 8219SOL    HW136293   1.425   3.300  10.775  0.1855  0.3856  0.5846
 8219SOL    HW236294   1.388   3.157  10.763 -1.1679 -0.3417  0.4384
 8220SOL     OW36295   1.072   3.652   7.933 -0.0286  0.0840  0.2823
 8220SOL    HW136296   1.051   3.565   7.967 -1.0565  0.8409  1.6048
 8220SOL    HW236297   1.004   3.704   7.976 -0.3787  0.0575 -0.2479
 8221SOL     OW36298   2.182   3.840   3.577 -0.3475 -0.0055  0.1776
 8221SOL    HW136299   2.270   3.814   3.603 -0.4180  0.4215  0.8690
 8221SOL    HW236300   2.142   3.865   3.661  0.6969  0.7233  0.4639
 8222SOL     OW36301   2.060   2.237   7.226 -0.2521 -0.1726 -0.4705
 8222SOL    HW136302   2.065   2.331   7.206  0.4269 -0.0780  0.1464
 8222SOL    HW236303   2.101   2.202   7.147 -1.3036  1.4159 -1.7340
 8223SOL     OW36304   3.154   2.050   7.368 -0.1080  0.0193  0.4709
 8223SOL    HW136305   3.149   1.983   7.300  0.8406 -1.6761  2.0800
 8223SOL    HW236306   3.178   2.127   7.316 -3.1560  1.1117  0.6997
 8224SOL     OW36307   0.168   0.669   3.098 -0.5472 -0.0807 -0.2695
 8224SOL    HW136308   0.252   0.626   3.118 -1.3344 -1.1757  0.7120
 8224SOL    HW236309   0.189   0.755   3.134 -0.9431 -0.1469  0.1184
 8225SOL     OW36310   0.614   3.351   6.441 -0.2340 -0.2508 -0.4695
 8225SOL    HW136311   0.654   3.375   6.525 -0.1197 -1.3957 -0.1946
 8225SOL    HW236312   0.681   3.386   6.382  0.1213 -0.9053 -0.4584
 8226SOL     OW36313   3.077   2.032   9.937 -0.3772  0.1410 -0.2977
 8226SOL    HW136314   2.995   2.013   9.983  1.3580  0.8378  3.0947
 8226SOL    HW236315   3.106   1.944   9.909 -0.6586 -0.1733  0.4027
 8227SOL     OW36316   0.193   1.089   5.748 -0.4256  0.0210 -0.0606
 8227SOL    HW136317   0.229   1.015   5.797 -0.3030  0.2430  0.1813
 8227SOL    HW236318   0.105   1.051   5.742 -1.3405  2.0342  0.7630
 8228SOL     OW36319   0.274   1.298   5.323 -0.0928  0.2625  0.0948
 8228SOL    HW136320   0.276   1.205   5.347 -0.6264 -0.1131 -1.2923
 8228SOL    HW236321   0.201   1.335   5.374 -2.0143 -0.7720 -1.8933
 8229SOL     OW36322   2.118   1.222  15.521  0.6508 -0.0013  0.4028
 8229SOL    HW136323   2.159   1.164  15.585  0.8821 -0.5257 -0.2219
 8229SOL    HW236324   2.091   1.294  15.578  0.0463  1.2939 -1.5297
 8230SOL     OW36325   3.325   3.161  13.109  0.0244  0.0469  0.6539
 8230SOL    HW136326   3.387   3.224  13.074  1.2315 -1.2004  0.5835
 8230SOL    HW236327   3.335   3.184  13.202 -2.3802 -2.1530  1.4629
 8231SOL     OW36328   3.631   3.788   0.374 -0.0855  0.2125  0.2354
 8231SOL    HW136329   3.561   3.797   0.309  1.2622 -1.0253 -1.4202
 8231SOL    HW236330   3.677   3.712   0.338  1.4519  1.6895 -0.9282
 8232SOL     OW36331   3.360   1.286   2.674  0.7585  0.3646 -0.4561
 8232SOL    HW136332   3.343   1.377   2.698  1.9271  0.4593  0.0017
 8232SOL    HW236333   3.445   1.272   2.717 -0.2676 -1.3334  1.0409
 8233SOL     OW36334   2.654   0.910   8.191 -0.2930  0.3874 -0.0118
 8233SOL    HW136335   2.722   0.974   8.169  1.3555 -1.0419  0.8668
 8233SOL    HW236336   2.708   0.867   8.257 -1.7617  0.0358  0.9605
 8234SOL     OW36337   1.376   1.774  10.219 -0.4558  0.8274 -0.5759
 8234SOL    HW136338   1.327   1.734  10.292 -0.7180  0.5222 -0.9192
 8234SOL    HW236339   1.315   1.847  10.206 -0.7359  0.3658 -1.8500
 8235SOL     OW36340   2.363   2.160   3.986  0.4443 -0.1049 -0.6338
 8235SOL    HW136341   2.432   2.222   4.011  0.7669 -0.9684  0.6740
 8235SOL    HW236342   2.422   2.085   3.975  0.5802 -0.1195  0.1335
 8236SOL     OW36343   1.168   4.608   7.144 -0.0773 -0.2332 -0.5176
 8236SOL    HW136344   1.104   4.664   7.100  1.1714  0.1984 -1.7787
 8236SOL    HW236345   1.148   4.619   7.237  0.1484 -1.1583 -0.3615
 8237SOL     OW36346   2.542   2.658  10.032  0.3165  0.0497 -0.2495
 8237SOL    HW136347   2.457   2.676   9.991  0.8030 -0.7418 -1.6124
 8237SOL    HW236348   2.577   2.746  10.021 -0.9892  0.6319  0.2089
 8238SOL     OW36349   1.225   0.007   6.809 -0.0812 -0.8432  0.1936
 8238SOL    HW136350   1.294   4.684   6.842  1.2383  2.1567  2.7048
 8238SOL    HW236351   1.247   0.090   6.852 -0.5838 -0.1988 -0.8005
 8239SOL     OW36352   4.163   2.276   9.749 -1.1696 -0.7237 -0.1735
 8239SOL    HW136353   4.082   2.320   9.774  0.3841  1.6333  0.8307
 8239SOL    HW236354   4.170   2.282   9.654 -0.4060 -0.2000 -0.0944
 8240SOL     OW36355   0.606   1.078   3.398 -0.0647 -0.2021  0.5514
 8240SOL    HW136356   0.601   1.151   3.336 -1.0699  1.2908  2.3719
 8240SOL    HW236357   0.602   1.003   3.339  0.3996 -0.0352  0.3106
 8241SOL     OW36358   2.139   1.139   4.703  0.3128  0.0515  0.4778
 8241SOL    HW136359   2.087   1.161   4.780 -2.0953  0.5479 -1.3093
 8241SOL    HW236360   2.122   1.215   4.647  1.3419  0.7802  1.1337
 8242SOL     OW36361   2.741   2.914  11.256 -0.1603 -0.9824  0.0723
 8242SOL    HW136362   2.822   2.866  11.239  0.2598 -0.0913 -0.4090
 8242SOL    HW236363   2.679   2.841  11.261 -1.8187  0.6296  2.7258
 8243SOL     OW36364   3.436   4.048  11.407  0.0050  0.2729  0.3792
 8243SOL    HW136365   3.385   3.991  11.465  2.8540 -1.6539  0.9760
 8243SOL    HW236366   3.424   4.017  11.317  0.6176  1.4446 -0.1059
 8244SOL     OW36367   3.237   0.256   5.397  0.2239  0.0560  0.4555
 8244SOL    HW136368   3.236   0.286   5.488  2.6973  1.3097  0.0553
 8244SOL    HW236369   3.152   0.216   5.377 -0.0847  0.9689 -0.0648
 8245SOL     OW36370   2.112   4.515  16.642  0.2299 -0.3335  0.3443
 8245SOL    HW136371   2.136   4.472  16.560 -1.6928  0.1215 -0.4404
 8245SOL    HW236372   2.152   4.601  16.630 -0.9858  0.0195 -1.0595
 8246SOL     OW36373   1.556   1.448   5.756 -0.2418  0.0786  0.7684
 8246SOL    HW136374   1.492   1.401   5.703  0.4122  0.9176 -0.7751
 8246SOL    HW236375   1.553   1.531   5.708  0.0034  0.1580  0.8896
 8247SOL     OW36376   3.444   2.926   3.789 -0.1363  0.6421 -0.0277
 8247SOL    HW136377   3.448   2.938   3.694 -0.9553 -2.6466 -0.4833
 8247SOL    HW236378   3.525   2.969   3.817 -0.5855  1.2677  0.3163
 8248SOL     OW36379   2.067   0.434  12.211 -0.1538 -0.1816 -0.0111
 8248SOL    HW136380   2.142   0.381  12.182 -0.1935  0.1036 -0.6239
 8248SOL    HW236381   2.113   0.509  12.249 -0.6952 -0.8102  1.9199
 8249SOL     OW36382   0.076   0.621   5.163 -0.1990 -0.0908 -0.1068
 8249SOL    HW136383   0.108   0.588   5.247 -0.7540 -0.3676 -0.0109
 8249SOL    HW236384   0.101   0.714   5.164 -0.8123  0.0693  0.3507
 8250SOL     OW36385   0.788   4.568   5.162 -0.0316 -0.0826  0.1980
 8250SOL    HW136386   0.860   4.612   5.116 -0.2503  0.0429 -0.0275
 8250SOL    HW236387   0.820   4.573   5.252 -0.0340 -0.0455  0.1967
 8251SOL     OW36388   3.526   1.790   8.132  0.0017  0.5803  0.3563
 8251SOL    HW136389   3.539   1.871   8.083 -0.8202 -0.9565 -2.4022
 8251SOL    HW236390   3.545   1.719   8.070  0.3519  1.4794 -0.5678
 8252SOL     OW36391   4.353   4.035   2.736  0.4103  0.3025 -0.0957
 8252SOL    HW136392   4.282   4.096   2.713  2.2922  3.2063  1.7783
 8252SOL    HW236393   4.329   4.011   2.825  0.2027 -1.4341 -0.6297
 8253SOL     OW36394   3.798   3.882   9.502  0.2931 -0.0004 -0.1157
 8253SOL    HW136395   3.781   3.930   9.583  0.4414 -0.6937  0.3321
 8253SOL    HW236396   3.709   3.860   9.474 -0.7687 -0.1645  3.4270
 8254SOL     OW36397   1.529   0.029   8.444 -0.0944 -0.1738 -0.0582
 8254SOL    HW136398   1.447   0.058   8.483  1.1275  2.3262  0.6717
 8254SOL    HW236399   1.518   0.051   8.351 -1.0483 -1.2044 -0.1811
 8255SOL     OW36400   0.716   1.438   4.273  1.1594  0.1050 -0.0603
 8255SOL    HW136401   0.798   1.388   4.266  0.0810 -1.4218 -1.8758
 8255SOL    HW236402   0.737   1.511   4.215  2.2628  0.5426  0.8717
 8256SOL     OW36403   2.883   1.442   4.163  0.1861  0.5426  0.2627
 8256SOL    HW136404   2.942   1.413   4.233 -1.5251 -1.5286  0.8491
 8256SOL    HW236405   2.862   1.531   4.190  0.1536  0.9399 -1.0740
 8257SOL     OW36406   0.795   0.477   6.019  0.4660 -0.3292  0.3101
 8257SOL    HW136407   0.743   0.454   5.942  0.7300  0.3175 -0.0618
 8257SOL    HW236408   0.763   0.404   6.072 -2.1750  1.5488  1.3007
 8258SOL     OW36409   3.787   0.980  15.465 -0.3481  0.1455  0.6372
 8258SOL    HW136410   3.818   0.972  15.375 -1.1829 -1.3344  0.4834
 8258SOL    HW236411   3.747   0.894  15.474 -0.7301  0.6552  3.7610
 8259SOL     OW36412   1.354   1.717   8.135 -0.0280 -0.3396 -0.0873
 8259SOL    HW136413   1.321   1.647   8.190  0.2284 -0.1735  0.2822
 8259SOL    HW236414   1.448   1.703   8.122  0.0538 -0.5897  0.7318
 8260SOL     OW36415   0.570   1.722   8.768  0.0166  0.0169  0.2046
 8260SOL    HW136416   0.569   1.817   8.755 -0.4747 -0.1673 -1.0637
 8260SOL    HW236417   0.497   1.702   8.710 -0.4308 -2.3098  1.5524
 8261SOL     OW36418   0.185   0.286   0.814 -0.4373  0.1152 -0.7571
 8261SOL    HW136419   0.168   0.197   0.845  0.0994  0.4903  0.6621
 8261SOL    HW236420   0.182   0.347   0.889  0.6781  1.8268 -2.1190
 8262SOL     OW36421   2.876   2.765   5.432  0.2910  0.1357 -0.1217
 8262SOL    HW136422   2.785   2.778   5.458 -0.5466 -1.3575 -2.2513
 8262SOL    HW236423   2.866   2.705   5.358 -0.2622 -0.8626  0.7644
 8263SOL     OW36424   3.118   3.952  15.783  0.0843  0.1910 -0.2464
 8263SOL    HW136425   3.179   4.024  15.802  2.0792 -1.9482  1.3986
 8263SOL    HW236426   3.067   3.984  15.708  2.0178  2.9955 -0.3995
 8264SOL     OW36427   0.663   4.520   7.867  0.1178  0.1541  0.2902
 8264SOL    HW136428   0.656   4.598   7.812 -0.3545  0.5480  0.9093
 8264SOL    HW236429   0.687   4.447   7.810  0.0929  0.0599  0.4000
 8265SOL     OW36430   0.916   4.331  11.912  0.4924  0.1493  0.1906
 8265SOL    HW136431   0.866   4.317  11.992 -0.3342  0.9919 -0.1754
 8265SOL    HW236432   0.861   4.276  11.855 -0.4111  0.7358  0.5042
 8266SOL     OW36433   4.353   0.761  16.553 -0.0971  0.7573  0.0993
 8266SOL    HW136434   4.278   0.702  16.563 -0.6993  1.2017 -1.8961
 8266SOL    HW236435   4.410   0.722  16.620 -0.8543 -0.4894  0.0219
 8267SOL     OW36436   3.722   3.414   5.326  0.2077 -0.0431 -0.1050
 8267SOL    HW136437   3.736   3.426   5.420 -0.0479  1.5319 -0.2754
 8267SOL    HW236438   3.752   3.324   5.309 -0.4088 -0.3809  0.6044
 8268SOL     OW36439   4.207   4.249   7.263 -0.2996 -0.3512  0.3218
 8268SOL    HW136440   4.296   4.267   7.294 -0.2580  0.4136 -0.2285
 8268SOL    HW236441   4.196   4.332   7.217  0.2396  0.0517  0.9161
 8269SOL     OW36442   1.660   3.529   3.747  0.1468  0.1856  0.3448
 8269SOL    HW136443   1.739   3.555   3.699  0.1428  2.5554  1.6175
 8269SOL    HW236444   1.592   3.562   3.688 -0.2404 -0.7477  0.2751
 8270SOL     OW36445   1.519   2.076  13.513  0.2613 -0.0474 -0.3219
 8270SOL    HW136446   1.449   2.100  13.573 -0.1573 -0.8992 -0.4807
 8270SOL    HW236447   1.551   2.163  13.488  0.4533  0.4571  1.6605
 8271SOL     OW36448   2.612   2.072   3.710  0.6093 -0.3301  0.4263
 8271SOL    HW136449   2.571   2.024   3.783 -0.7636 -1.4723 -1.0794
 8271SOL    HW236450   2.534   2.115   3.677  2.6842  0.5824 -3.2863
 8272SOL     OW36451   2.431   3.804   3.656  0.0162 -0.3139  0.0394
 8272SOL    HW136452   2.520   3.798   3.691 -0.9874  0.9232  2.7671
 8272SOL    HW236453   2.402   3.894   3.671  2.7839  0.4373  0.8127
 8273SOL     OW36454   0.512   4.342  12.848  0.2546  0.4988 -0.3814
 8273SOL    HW136455   0.511   4.373  12.758 -3.8974  0.1105 -0.4712
 8273SOL    HW236456   0.426   4.370  12.879  0.1474 -0.1612 -0.0681
 8274SOL     OW36457   2.486   4.285   1.845  0.7737 -0.4088 -0.7380
 8274SOL    HW136458   2.534   4.315   1.923 -0.0297 -3.3491  0.9070
 8274SOL    HW236459   2.496   4.355   1.780 -0.0560 -0.3486 -0.7926
 8275SOL     OW36460   2.938   3.715   6.442  0.4267 -0.1872 -0.1436
 8275SOL    HW136461   2.876   3.643   6.433  0.2519 -0.0240 -0.2270
 8275SOL    HW236462   2.880   3.789   6.423  1.0671  0.1937 -0.6208
 8276SOL     OW36463   4.669   2.857  10.046 -0.5769 -0.2272  0.0650
 8276SOL    HW136464   4.583   2.824  10.022  0.1312 -2.5454  0.6976
 8276SOL    HW236465   4.721   2.802   9.986  0.4891  1.0938 -0.2379
 8277SOL     OW36466   1.670   3.807   7.431  0.6780 -0.2855  0.3943
 8277SOL    HW136467   1.735   3.876   7.443 -0.1120  0.6312 -0.4997
 8277SOL    HW236468   1.606   3.830   7.499 -0.1037 -2.0985  0.2575
 8278SOL     OW36469   0.669   3.074   1.728 -0.5368 -0.4107  0.8378
 8278SOL    HW136470   0.659   3.058   1.822 -1.2330 -1.7515  0.5417
 8278SOL    HW236471   0.713   3.159   1.736 -0.3022 -0.6422  2.0556
 8279SOL     OW36472   2.440   4.719   7.904  0.1029 -0.4008 -0.3785
 8279SOL    HW136473   2.468   4.702   7.814 -0.4874  0.6287 -0.7525
 8279SOL    HW236474   2.348   0.010   7.897 -0.3498 -1.7981  0.3800
 8280SOL     OW36475   0.936   3.283   5.116 -0.0717  0.1062 -0.3157
 8280SOL    HW136476   0.896   3.197   5.113  1.1037 -0.4243 -0.7566
 8280SOL    HW236477   0.869   3.341   5.081  0.9727  1.9996  0.7520
 8281SOL     OW36478   3.925   3.100   3.898  0.2947 -0.3216  0.0116
 8281SOL    HW136479   3.903   3.143   3.981  3.2669 -1.9494  1.6668
 8281SOL    HW236480   3.852   3.135   3.847  1.5855  0.9497 -0.9602
 8282SOL     OW36481   3.490   2.902   5.958 -0.0436  0.8157 -0.0391
 8282SOL    HW136482   3.575   2.859   5.963 -0.7555 -0.5475  0.4681
 8282SOL    HW236483   3.499   2.934   5.868 -1.9987 -1.3510 -1.0415
 8283SOL     OW36484   0.855   0.110  10.955 -0.1271 -1.1333  0.0932
 8283SOL    HW136485   0.868   0.159  10.874  1.9484  0.4850  1.3823
 8283SOL    HW236486   0.947   0.094  10.978  0.5629  0.1573 -1.8143
 8284SOL     OW36487   3.771   2.421   7.317  0.2715 -0.1163  0.3625
 8284SOL    HW136488   3.704   2.453   7.378  0.0551 -1.4177  0.8010
 8284SOL    HW236489   3.776   2.333   7.355  0.5531  0.3958  1.4991
 8285SOL     OW36490   4.721   0.031   8.932  0.5976 -0.1702  0.3287
 8285SOL    HW136491   4.701   0.089   9.005  1.6886  0.7779 -0.1344
 8285SOL    HW236492   4.637   4.734   8.899  1.1294 -2.0588  0.7931
 8286SOL     OW36493   4.687   2.519   2.932 -0.2240  0.6655  0.4504
 8286SOL    HW136494   4.636   2.589   2.972 -1.9150  0.3695 -1.2340
 8286SOL    HW236495   4.693   2.471   3.015 -0.3563  0.7296  0.4976
 8287SOL     OW36496   4.481   1.728   5.105  0.7619 -0.2061  0.1868
 8287SOL    HW136497   4.556   1.735   5.164  1.3650 -0.4741 -0.5548
 8287SOL    HW236498   4.413   1.691   5.160 -0.6655 -1.6130 -2.5474
 8288SOL     OW36499   2.447   0.408   4.926 -0.9340  0.2042  0.3119
 8288SOL    HW136500   2.373   0.467   4.912 -0.1601  1.1587  0.1535
 8288SOL    HW236501   2.492   0.423   4.842 -1.3086  1.7153  0.3781
 8289SOL     OW36502   1.641   2.675   6.053  0.3826 -0.2379  0.0361
 8289SOL    HW136503   1.555   2.684   6.093  1.2148 -1.7041  2.0984
 8289SOL    HW236504   1.635   2.599   5.995  1.5788  2.0498 -3.1405
 8290SOL     OW36505   3.027   4.228   3.328 -0.0761  0.4030 -0.3934
 8290SOL    HW136506   3.101   4.178   3.361 -1.2366  0.0936  1.7197
 8290SOL    HW236507   2.953   4.177   3.362 -0.1289  0.4279 -0.4701
 8291SOL     OW36508   0.007   4.717  16.073 -0.2796 -0.1476 -0.0258
 8291SOL    HW136509   4.713   0.069  16.047  0.1396  0.2073  0.7000
 8291SOL    HW236510   0.015   4.667  15.992 -2.6108 -2.0284  0.9249
 8292SOL     OW36511   1.762   2.811   2.889  1.0334  0.6290  0.1099
 8292SOL    HW136512   1.763   2.732   2.835 -0.2332 -0.2411  1.3569
 8292SOL    HW236513   1.703   2.872   2.845 -1.8460 -0.0015  3.1131
 8293SOL     OW36514   3.330   1.570  16.140  0.1707 -1.0959 -0.2316
 8293SOL    HW136515   3.283   1.651  16.119  1.7452 -0.3463 -0.8612
 8293SOL    HW236516   3.369   1.595  16.224 -0.1656  0.9464 -0.6834
 8294SOL     OW36517   1.303   2.142   5.317  0.4612 -0.5708  0.3486
 8294SOL    HW136518   1.398   2.145   5.319  0.3851  1.0794  0.8540
 8294SOL    HW236519   1.289   2.119   5.225  0.5589 -0.6643  0.3563
 8295SOL     OW36520   4.434   0.845  11.562  0.4195 -0.1189  0.6270
 8295SOL    HW136521   4.459   0.925  11.608  0.8262  0.1564 -0.0706
 8295SOL    HW236522   4.458   0.868  11.472  1.1006  0.3558  0.9315
 8296SOL     OW36523   2.056   3.924  12.427 -0.4942  0.0499  0.3228
 8296SOL    HW136524   2.078   4.016  12.445  1.7901 -0.6816  1.2504
 8296SOL    HW236525   1.962   3.926  12.409 -0.5075  3.7417  0.7433
 8297SOL     OW36526   4.651   2.612   4.553 -0.3942 -0.2019 -0.0561
 8297SOL    HW136527   4.671   2.529   4.509  0.0970  0.6849 -1.4846
 8297SOL    HW236528   4.556   2.613   4.542 -0.5036 -0.8757  0.8491
 8298SOL     OW36529   0.803   1.648   1.064  0.4335 -0.2593  0.4268
 8298SOL    HW136530   0.789   1.554   1.049  1.5131 -0.5406  1.1812
 8298SOL    HW236531   0.866   1.672   0.997  2.6683 -0.3075  2.4823
 8299SOL     OW36532   0.344   1.295   4.839 -0.1894 -1.3142  0.0536
 8299SOL    HW136533   0.338   1.253   4.925 -0.9572  1.7249  1.4778
 8299SOL    HW236534   0.354   1.383   4.874  1.6623 -0.4457 -2.7038
 8300SOL     OW36535   2.300   2.698   4.117  0.9626  0.0463 -0.1231
 8300SOL    HW136536   2.274   2.763   4.181 -0.0917 -1.8165  1.3402
 8300SOL    HW236537   2.299   2.746   4.034 -2.1123  0.7539  0.3364
 8301SOL     OW36538   1.905   0.384   2.634  0.6514 -0.2646 -0.1454
 8301SOL    HW136539   1.885   0.344   2.550  1.1359  1.1080 -0.9129
 8301SOL    HW236540   1.989   0.427   2.620  0.3532  0.1441 -0.6929
 8302SOL     OW36541   2.165   4.517   2.266  0.6012 -0.0481  0.3981
 8302SOL    HW136542   2.079   4.509   2.307  0.3280  0.4259 -0.0936
 8302SOL    HW236543   2.135   4.588   2.210 -0.6173  0.9893  2.3600
 8303SOL     OW36544   0.745   1.753   4.180  0.1541 -0.0605 -0.2318
 8303SOL    HW136545   0.651   1.752   4.164 -0.0959  1.8847  1.1980
 8303SOL    HW236546   0.743   1.797   4.265 -0.6822  2.2937 -1.4765
 8304SOL     OW36547   3.702   2.237   3.969  0.2328  0.3145  0.4614
 8304SOL    HW136548   3.648   2.233   4.048 -1.1095  0.4714 -0.4538
 8304SOL    HW236549   3.776   2.177   3.979  0.0054 -0.2787 -1.4584
 8305SOL     OW36550   0.039   1.515  16.542  0.5366  0.1440 -0.0917
 8305SOL    HW136551   0.028   1.610  16.546 -2.7857 -0.2361  0.0040
 8305SOL    HW236552   0.012   1.493  16.631  2.5929 -0.5154  0.3794
 8306SOL     OW36553   1.431   2.622   0.473  0.1342  0.2753  0.3924
 8306SOL    HW136554   1.347   2.630   0.427 -1.7234  0.1719  3.7531
 8306SOL    HW236555   1.481   2.687   0.425 -0.2670 -0.4336 -1.0149
 8307SOL     OW36556   2.058   3.035  10.134 -0.3772 -0.4688  0.8065
 8307SOL    HW136557   2.023   3.102  10.075 -0.4508  0.4194  1.8599
 8307SOL    HW236558   2.014   3.052  10.217 -1.7961  0.6824 -0.1707
 8308SOL     OW36559   3.942   1.546   1.680  0.3190 -0.3799 -0.4026
 8308SOL    HW136560   3.911   1.476   1.621  1.6535  0.5110 -2.1663
 8308SOL    HW236561   4.033   1.523   1.696  0.2297 -1.3163 -1.2260
 8309SOL     OW36562   2.976   3.282   9.902 -0.0734 -0.0199  0.2970
 8309SOL    HW136563   2.946   3.358   9.851  0.0260  1.5227  2.5073
 8309SOL    HW236564   3.040   3.242   9.843 -1.2370 -1.1885 -0.1655
 8310SOL     OW36565   1.138   3.204   4.973 -0.2041 -0.2163  0.0917
 8310SOL    HW136566   1.062   3.246   5.013 -0.9021 -0.6894 -0.7301
 8310SOL    HW236567   1.200   3.230   5.041 -0.4891 -0.5808  0.4908
 8311SOL     OW36568   3.471   1.238   7.346  0.1569  0.3554 -0.1932
 8311SOL    HW136569   3.388   1.284   7.362 -1.2618 -1.5183 -2.1323
 8311SOL    HW236570   3.527   1.314   7.362 -0.6463  0.7693  0.6785
 8312SOL     OW36571   2.395   2.515   2.745  0.1533  0.3060 -0.1291
 8312SOL    HW136572   2.417   2.508   2.838 -1.7870 -0.6912  0.2635
 8312SOL    HW236573   2.436   2.595   2.713 -1.7890 -0.3340 -4.1474
 8313SOL     OW36574   0.670   1.644  15.751  0.5374  0.2562 -0.0002
 8313SOL    HW136575   0.679   1.550  15.770 -2.4539 -0.2472 -1.0469
 8313SOL    HW236576   0.756   1.682  15.770 -0.8734  3.2857  0.1568
 8314SOL     OW36577   2.924   3.360   8.955  0.1060  0.1577  0.2683
 8314SOL    HW136578   2.947   3.434   9.011  0.8801  0.4610 -0.4512
 8314SOL    HW236579   3.012   3.325   8.938  1.3518  2.4195  2.0731
 8315SOL     OW36580   3.621   1.765   9.980 -0.0059  0.3709 -0.1168
 8315SOL    HW136581   3.613   1.685  10.033  0.1999 -0.1893 -0.9269
 8315SOL    HW236582   3.684   1.741   9.913  2.1571  0.0799  2.0053
 8316SOL     OW36583   1.619   3.676  13.931 -0.3011  0.1321  0.2638
 8316SOL    HW136584   1.653   3.765  13.920  0.1012 -0.0606 -0.0517
 8316SOL    HW236585   1.565   3.669  13.853 -0.5976  1.5520  0.3381
 8317SOL     OW36586   3.643   3.881   1.543 -1.1427 -0.7495 -0.0833
 8317SOL    HW136587   3.592   3.830   1.480 -2.0194  0.1963 -0.1366
 8317SOL    HW236588   3.619   3.973   1.530  1.9728 -0.1703 -1.7633
 8318SOL     OW36589   0.064   4.263   5.957 -0.2754  0.7824 -0.3616
 8318SOL    HW136590   0.061   4.289   5.865 -1.8868  2.1345  0.0689
 8318SOL    HW236591   0.126   4.330   5.984  2.6384 -2.1482  0.2075
 8319SOL     OW36592   1.963   2.780   0.662  0.0095  0.0184 -0.0024
 8319SOL    HW136593   2.017   2.848   0.701  1.7504 -0.4181 -1.6437
 8319SOL    HW236594   1.950   2.724   0.738 -2.0306  0.1126 -0.2756
 8320SOL     OW36595   3.249   2.457   5.279  0.6017 -0.6642  0.0967
 8320SOL    HW136596   3.271   2.526   5.341 -3.7328  1.0367 -0.2711
 8320SOL    HW236597   3.240   2.504   5.195 -2.3111  0.7532  1.1912
 8321SOL     OW36598   1.016   3.885   4.802  0.2626  0.0773  0.0585
 8321SOL    HW136599   1.010   3.831   4.881  2.8718 -2.6403 -1.6361
 8321SOL    HW236600   1.002   3.816   4.737 -2.3950  1.2664 -0.6356
 8322SOL     OW36601   1.145   4.308   8.085 -0.0350  0.0386  0.2359
 8322SOL    HW136602   1.096   4.227   8.076 -1.0414  0.5981  0.5736
 8322SOL    HW236603   1.083   4.368   8.128  0.8405 -0.3178  2.0021
 8323SOL     OW36604   4.577   1.653   2.726  0.2389 -0.4275  0.7530
 8323SOL    HW136605   4.669   1.676   2.732 -0.1845  1.5514 -0.1857
 8323SOL    HW236606   4.577   1.597   2.648  1.4964 -0.8774  1.0831
 8324SOL     OW36607   2.332   3.771   6.433  0.7782  0.1491 -0.5669
 8324SOL    HW136608   2.394   3.835   6.398  2.5194 -1.3652 -0.2578
 8324SOL    HW236609   2.297   3.736   6.351  0.5236 -1.4385  0.2427
 8325SOL     OW36610   4.039   0.685  12.606  0.5363  0.3085  0.3831
 8325SOL    HW136611   4.063   0.605  12.560 -0.1212  0.2276  0.1796
 8325SOL    HW236612   4.087   0.675  12.688  1.2460 -1.1824 -0.2111
 8326SOL     OW36613   3.912   0.001   8.100  0.3447  0.4549  0.9317
 8326SOL    HW136614   3.966   0.067   8.145  1.9606 -0.8976  0.9988
 8326SOL    HW236615   3.956   4.657   8.133  0.2233 -0.6832 -1.6646
 8327SOL     OW36616   0.964   1.584   3.899 -0.2934  0.2844  0.0251
 8327SOL    HW136617   0.879   1.556   3.866 -0.6041  1.4446 -0.1487
 8327SOL    HW236618   1.026   1.542   3.839 -0.6054 -1.8117  1.1722
 8328SOL     OW36619   4.026   0.236   3.650  0.4917  0.2566  0.2879
 8328SOL    HW136620   3.939   0.247   3.689  1.4423 -0.0982  2.4990
 8328SOL    HW236621   4.064   0.177   3.715  0.4635 -1.1752 -0.9971
 8329SOL     OW36622   4.622   1.497   3.447  0.0939 -0.8686 -0.6354
 8329SOL    HW136623   4.573   1.437   3.390  1.2068 -4.1249  1.8488
 8329SOL    HW236624   4.631   1.448   3.529  0.1041 -0.5153 -0.4281
 8330SOL     OW36625   4.554   4.310   2.923 -0.0217  0.1696  0.4039
 8330SOL    HW136626   4.464   4.333   2.946  0.2437  1.5141  0.1478
 8330SOL    HW236627   4.556   4.232   2.977 -0.1544  1.5912  2.4612
 8331SOL     OW36628   2.106   1.513   4.258 -0.2523  0.4839 -0.0566
 8331SOL    HW136629   2.164   1.557   4.320 -2.2398  1.1663  1.2932
 8331SOL    HW236630   2.075   1.437   4.307  2.9303 -0.2511  0.8558
 8332SOL     OW36631   1.711   2.006   8.015  0.0991 -0.7425  0.2508
 8332SOL    HW136632   1.684   1.989   8.106 -0.2726 -0.7191  0.1461
 8332SOL    HW236633   1.805   2.008   8.033  0.0838  0.6323  0.2154
 8333SOL     OW36634   2.680   1.081   0.701  0.5163 -0.4960 -0.1787
 8333SOL    HW136635   2.716   1.160   0.742  1.7354 -0.1788 -1.9156
 8333SOL    HW236636   2.593   1.116   0.679  1.1480  1.0452 -0.2284
 8334SOL     OW36637   1.466   3.661   8.474 -0.1024  0.4936  0.2396
 8334SOL    HW136638   1.490   3.611   8.396  0.3476  1.0551  0.0087
 8334SOL    HW236639   1.430   3.747   8.450  0.1602  1.2142  2.3749
 8335SOL     OW36640   3.068   4.529  17.087 -0.1972 -0.3320 -0.2530
 8335SOL    HW136641   2.998   4.523  17.022 -2.8253 -3.5591  2.8545
 8335SOL    HW236642   3.043   4.602  17.143 -1.5048 -2.0108  1.3451
 8336SOL     OW36643   4.490   0.012   5.023  0.2930  0.0793  0.4188
 8336SOL    HW136644   4.580   0.003   4.989  0.1146 -1.2509  0.2891
 8336SOL    HW236645   4.461   0.071   4.954  2.4916  1.2177  0.4552
 8337SOL     OW36646   3.343   2.005   7.540 -0.2839  0.2810 -0.4453
 8337SOL    HW136647   3.404   2.069   7.503 -0.6967  2.3125  2.3645
 8337SOL    HW236648   3.265   2.028   7.490  0.3104 -2.5507 -2.7169
 8338SOL     OW36649   3.748   3.874  15.233 -0.0954  0.2067 -0.2464
 8338SOL    HW136650   3.741   3.836  15.321 -2.4371  1.8237  0.2659
 8338SOL    HW236651   3.844   3.879  15.233 -0.0954  0.2119 -0.8204
 8339SOL     OW36652   2.893   1.498   3.591 -0.7263 -0.4750 -0.3201
 8339SOL    HW136653   2.820   1.529   3.537 -1.8163 -3.1500 -0.3368
 8339SOL    HW236654   2.855   1.474   3.675 -0.8279 -0.3500 -0.3289
 8340SOL     OW36655   0.926   3.693   5.686  0.3624 -0.0021 -0.6599
 8340SOL    HW136656   0.869   3.621   5.658 -0.4601  1.4051 -2.6048
 8340SOL    HW236657   0.910   3.763   5.623  0.1894  1.4043  0.9429
 8341SOL     OW36658   3.851   1.160  16.872 -0.2164 -0.4870 -0.4593
 8341SOL    HW136659   3.844   1.249  16.907 -0.9357 -2.1542  3.6750
 8341SOL    HW236660   3.862   1.180  16.779  0.8364  0.8583 -0.0511
 8342SOL     OW36661   1.620   0.687  10.580 -0.5471  0.0422  0.4387
 8342SOL    HW136662   1.610   0.593  10.597 -0.7711 -0.4165 -2.1654
 8342SOL    HW236663   1.672   0.719  10.654 -2.7673  1.8766  1.2178
 8343SOL     OW36664   3.275   3.379   7.375  0.1148  0.1477  0.2753
 8343SOL    HW136665   3.311   3.315   7.437  1.6705 -2.1020 -2.9657
 8343SOL    HW236666   3.234   3.437   7.439 -2.2360 -0.8715 -0.3168
 8344SOL     OW36667   0.801   3.505   4.390 -0.4153 -0.3907  0.1202
 8344SOL    HW136668   0.764   3.498   4.478 -3.3083  2.3878 -0.8785
 8344SOL    HW236669   0.794   3.417   4.353 -1.4764 -0.4037  0.3545
 8345SOL     OW36670   3.160   1.764   9.921 -0.7190 -0.1830 -0.0787
 8345SOL    HW136671   3.133   1.701   9.855 -1.9067  0.3453 -0.1008
 8345SOL    HW236672   3.209   1.703   9.976 -0.6867 -1.0025 -1.0356
 8346SOL     OW36673   4.196   3.728   4.369 -0.0970 -0.1959  0.1650
 8346SOL    HW136674   4.265   3.690   4.423 -1.5935  0.3717  2.4389
 8346SOL    HW236675   4.120   3.684   4.407  1.5515 -2.1225  1.2882
 8347SOL     OW36676   2.350   0.507  12.696  0.1998 -0.0301 -0.3202
 8347SOL    HW136677   2.259   0.532  12.682 -0.0533  0.5111  2.1598
 8347SOL    HW236678   2.344   0.415  12.720  1.7634  0.6592  2.8671
 8348SOL     OW36679   0.830   2.092   7.112  0.2523  0.0906  0.1703
 8348SOL    HW136680   0.906   2.112   7.058 -0.2006  0.4836 -0.3137
 8348SOL    HW236681   0.874   2.110   7.195  1.5487  1.5825 -0.8575
 8349SOL     OW36682   3.364   0.859   8.429 -0.1318  0.0721  0.5447
 8349SOL    HW136683   3.437   0.817   8.384 -0.3223 -1.4627  1.6690
 8349SOL    HW236684   3.319   0.783   8.466 -1.5951  0.2477 -0.8680
 8350SOL     OW36685   2.287   2.088   8.601 -0.0521 -0.1693 -0.2757
 8350SOL    HW136686   2.227   2.066   8.672  0.6254  4.2360  1.6483
 8350SOL    HW236687   2.252   2.173   8.577 -0.9582 -0.2452  0.7431
 8351SOL     OW36688   2.123   2.103  14.818  0.1861  0.0267 -0.2932
 8351SOL    HW136689   2.192   2.058  14.866 -0.8447 -0.7437  0.4542
 8351SOL    HW236690   2.085   2.035  14.762  1.8223 -0.3925 -0.8953
 8352SOL     OW36691   0.732   0.360  15.560  0.0420 -0.4051  0.0587
 8352SOL    HW136692   0.693   0.447  15.554  2.6313  0.6515 -1.0567
 8352SOL    HW236693   0.823   0.363  15.587 -0.0186  1.9478  0.0029
 8353SOL     OW36694   3.775   2.232  13.503 -0.2430 -0.2684 -0.6182
 8353SOL    HW136695   3.697   2.286  13.492 -0.4160 -0.0568  1.7267
 8353SOL    HW236696   3.836   2.293  13.543  1.8945 -1.2717 -2.3616
 8354SOL     OW36697   2.213   3.530   2.534 -0.5336  0.2309 -0.2395
 8354SOL    HW136698   2.200   3.501   2.624  1.3089  0.7440  0.1974
 8354SOL    HW236699   2.201   3.452   2.481 -2.9919  2.0326 -2.3478
 8355SOL     OW36700   3.604   2.676   5.485 -0.2926 -0.2286  0.3749
 8355SOL    HW136701   3.606   2.758   5.436 -0.1239 -0.5503 -0.1533
 8355SOL    HW236702   3.683   2.695   5.537 -0.8945  1.6621  0.5806
 8356SOL     OW36703   1.320   4.399  16.473  1.0743  0.4322 -0.3503
 8356SOL    HW136704   1.361   4.485  16.484 -1.2181  1.5092 -0.4296
 8356SOL    HW236705   1.388   4.349  16.427  0.4250  0.2263 -1.0905
 8357SOL     OW36706   3.911   0.222  14.892  0.1073  0.1977 -0.2335
 8357SOL    HW136707   3.948   0.173  14.818 -0.7739  0.7385 -1.0379
 8357SOL    HW236708   3.982   0.222  14.956  0.5898 -0.1865 -0.7654
 8358SOL     OW36709   0.519   2.635  11.966 -0.1765  0.3695 -0.1616
 8358SOL    HW136710   0.605   2.671  11.988  0.3254  0.4169 -2.1751
 8358SOL    HW236711   0.463   2.706  11.996 -0.5799  0.1620 -0.4296
 8359SOL     OW36712   1.825   3.010   3.810 -0.5942  0.0076  0.6146
 8359SOL    HW136713   1.804   2.921   3.779 -0.5860  0.6081 -1.1178
 8359SOL    HW236714   1.822   3.063   3.730  3.4018  2.0962  1.8854
 8360SOL     OW36715   4.413   3.621   5.541 -0.3558  1.1039  0.3431
 8360SOL    HW136716   4.427   3.607   5.634  0.7227 -2.0461 -0.2790
 8360SOL    HW236717   4.331   3.671   5.540 -0.6658  0.6068  0.4003
 8361SOL     OW36718   3.130   4.154   8.424  0.3712 -0.0801 -0.5234
 8361SOL    HW136719   3.150   4.108   8.343 -0.0774  0.3278 -0.8668
 8361SOL    HW236720   3.059   4.215   8.403  1.5421  1.0278 -1.2480
 8362SOL     OW36721   1.928   2.718   1.329 -0.1814  0.1499 -0.3834
 8362SOL    HW136722   1.985   2.794   1.341 -0.3710  0.7827 -3.6722
 8362SOL    HW236723   1.879   2.705   1.411 -1.9643  0.6418 -1.3806
 8363SOL     OW36724   1.515   2.232  11.766 -0.1974 -0.1790 -0.1656
 8363SOL    HW136725   1.490   2.151  11.721 -1.3581  0.1421 -0.0835
 8363SOL    HW236726   1.604   2.214  11.796 -1.6493 -3.1698  2.4096
 8364SOL     OW36727   0.327   1.314   2.993 -0.1061  0.3506  0.2244
 8364SOL    HW136728   0.281   1.242   2.951 -1.0934 -0.1837  2.2283
 8364SOL    HW236729   0.298   1.386   2.937  0.4675  0.1270 -0.3598
 8365SOL     OW36730   2.417   1.456   0.189  0.4099  0.5097  0.4745
 8365SOL    HW136731   2.322   1.444   0.196  0.1135  1.6054 -1.6679
 8365SOL    HW236732   2.417   1.493   0.101  0.6548  2.7358  1.4208
 8366SOL     OW36733   1.791   0.423   2.338 -0.0102 -0.3958 -0.2443
 8366SOL    HW136734   1.791   0.333   2.370 -1.0493  0.2253  1.5482
 8366SOL    HW236735   1.881   0.434   2.308 -0.5962  1.6074 -1.3069
 8367SOL     OW36736   1.697   0.589  11.044  0.6656  0.5065 -0.0121
 8367SOL    HW136737   1.735   0.618  10.961  0.2484 -0.9018 -0.7015
 8367SOL    HW236738   1.734   0.651  11.106 -1.0029  0.5306  0.9767
 8368SOL     OW36739   2.278   1.075   1.979  0.2028 -0.2790 -0.1242
 8368SOL    HW136740   2.315   1.136   2.043  1.8888 -1.9170  0.4433
 8368SOL    HW236741   2.225   1.021   2.037  0.0120 -0.8010 -0.7908
 8369SOL     OW36742   1.351   1.638   3.159 -0.0741  0.3116 -0.4543
 8369SOL    HW136743   1.258   1.619   3.173 -1.2034  4.1547 -2.7986
 8369SOL    HW236744   1.377   1.671   3.245 -2.0584 -0.8752  0.6168
 8370SOL     OW36745   4.289   2.297  16.290  0.2205  0.3210  0.1788
 8370SOL    HW136746   4.273   2.274  16.382  2.5945 -1.3971  0.1633
 8370SOL    HW236747   4.201   2.311  16.256  0.0511  0.1141  0.5293
 8371SOL     OW36748   0.253   2.555   2.404 -0.0823  0.1176 -0.5436
 8371SOL    HW136749   0.253   2.459   2.394 -0.7946  0.1201 -0.5308
 8371SOL    HW236750   0.295   2.575   2.320  1.8708  1.5760  0.7842
 8372SOL     OW36751   1.032   1.422   5.179  0.1278 -0.2642  0.2383
 8372SOL    HW136752   0.961   1.409   5.116  0.5294  0.7497 -0.4111
 8372SOL    HW236753   1.035   1.336   5.222 -2.5846 -1.3548 -1.7165
 8373SOL     OW36754   0.328   0.633   9.355 -0.1558 -0.2355 -0.3510
 8373SOL    HW136755   0.417   0.602   9.342 -0.6678 -1.8921  0.1235
 8373SOL    HW236756   0.298   0.659   9.267  3.4549 -0.6818 -1.7125
 8374SOL     OW36757   1.882   2.760   5.974  0.4187  0.6099 -0.8352
 8374SOL    HW136758   1.889   2.797   6.061  1.1442 -2.3155  0.3440
 8374SOL    HW236759   1.789   2.740   5.983 -0.0833  4.1126  1.5519
 8375SOL     OW36760   2.322   4.548   5.113  0.5080 -0.1476  0.0389
 8375SOL    HW136761   2.274   4.493   5.051  0.5999 -0.9049  0.6298
 8375SOL    HW236762   2.305   4.629   5.065  0.5052  0.0182  0.3197
 8376SOL     OW36763   2.611   2.171   2.010  0.5875  0.2565 -0.6186
 8376SOL    HW136764   2.529   2.195   1.968 -0.2111 -1.0221  0.2097
 8376SOL    HW236765   2.581   2.091   2.053  1.4691  1.1023  1.5870
 8377SOL     OW36766   3.184   0.013   6.719  0.1533 -0.3888  0.1155
 8377SOL    HW136767   3.274   4.717   6.728  0.6320  0.1487 -2.8492
 8377SOL    HW236768   3.176   0.000   6.624 -3.3164  1.0680  0.1998
 8378SOL     OW36769   4.256   0.131   1.256  0.0362  0.0930  0.1412
 8378SOL    HW136770   4.236   0.161   1.167  0.6053 -2.1364 -0.7544
 8378SOL    HW236771   4.281   0.039   1.248 -1.1342 -0.3498  1.6388
 8379SOL     OW36772   1.135   0.894   1.122  0.0193 -0.1595  0.5302
 8379SOL    HW136773   1.222   0.857   1.103 -0.9940 -1.5766 -1.3496
 8379SOL    HW236774   1.112   0.924   1.034 -3.0342  0.1717  1.4614
 8380SOL     OW36775   2.951   0.171   8.083 -0.3495  0.1543  0.0363
 8380SOL    HW136776   2.967   0.121   8.163  0.9428  2.9017  1.4890
 8380SOL    HW236777   2.997   0.118   8.017 -1.9736 -1.2016  0.0089
 8381SOL     OW36778   3.262   4.048   3.771 -0.2168 -0.2009 -0.4165
 8381SOL    HW136779   3.269   3.960   3.734  0.5020 -0.3715  0.1175
 8381SOL    HW236780   3.193   4.038   3.837 -0.2690  0.2835 -0.3993
 8382SOL     OW36781   1.346   0.679   6.983 -0.1715  0.3107 -0.8284
 8382SOL    HW136782   1.329   0.759   6.934  1.3135  1.4111  0.4576
 8382SOL    HW236783   1.362   0.615   6.914  0.6078  2.8843 -3.0002
 8383SOL     OW36784   0.094   2.211  15.717 -0.1795  0.0094 -0.5901
 8383SOL    HW136785   0.178   2.220  15.673 -0.1780 -0.9259 -0.7821
 8383SOL    HW236786   0.045   2.166  15.649  0.5999 -1.3564 -0.2361
 8384SOL     OW36787   4.419   0.074   0.239 -0.0791 -0.2755 -0.1102
 8384SOL    HW136788   4.448   0.000   0.293 -0.6360  0.8405  1.7013
 8384SOL    HW236789   4.435   0.038   0.152  0.9591  0.6228 -0.2777
 8385SOL     OW36790   1.228   2.408   0.820  0.3023  0.1114  0.0646
 8385SOL    HW136791   1.202   2.470   0.752  0.1470  0.2937  0.2925
 8385SOL    HW236792   1.317   2.384   0.793  0.2885 -0.0284  0.1462
 8386SOL     OW36793   0.709   4.168   9.311 -0.1631  0.0599  0.0390
 8386SOL    HW136794   0.795   4.200   9.338 -0.1376 -0.2339  0.3102
 8386SOL    HW236795   0.728   4.162   9.217  0.0277  0.6113  0.0444
 8387SOL     OW36796   0.990   0.044   3.324  0.3544  0.3475  0.3369
 8387SOL    HW136797   1.003   0.138   3.330  1.4275  0.1264  1.5210
 8387SOL    HW236798   0.926   0.031   3.394  1.3835  2.0822  1.5895
 8388SOL     OW36799   2.987   0.984  12.538 -0.4256  0.7809  0.6253
 8388SOL    HW136800   3.050   0.935  12.486 -1.8747 -0.2170 -0.1980
 8388SOL    HW236801   2.964   0.915  12.600 -2.4739  1.4521  0.6132
 8389SOL     OW36802   3.855   2.001  10.108 -0.1539  0.6959 -0.3755
 8389SOL    HW136803   3.800   1.994  10.030 -1.3944 -1.1051  0.6554
 8389SOL    HW236804   3.797   2.043  10.172 -1.4063 -0.6955 -0.5994
 8390SOL     OW36805   1.673   0.354  13.247  0.0552 -0.2331  0.1146
 8390SOL    HW136806   1.666   0.326  13.339  0.1497  0.3026  0.2858
 8390SOL    HW236807   1.592   0.318  13.210 -0.8440  0.2934  1.5390
 8391SOL     OW36808   4.650   2.126  12.691 -0.1084 -0.1173  0.4564
 8391SOL    HW136809   4.612   2.211  12.671  0.9579 -0.3422 -2.4382
 8391SOL    HW236810   4.573   2.073  12.715 -0.6717 -0.0844 -1.3126
 8392SOL     OW36811   4.403   4.635   2.940  0.0362 -0.3741  0.5106
 8392SOL    HW136812   4.349   4.711   2.958 -0.3653 -0.2949 -1.0462
 8392SOL    HW236813   4.489   4.677   2.939  0.1193 -0.5430 -0.0566
 8393SOL     OW36814   3.738   0.984   3.262 -0.4203  0.3043 -0.3116
 8393SOL    HW136815   3.819   0.948   3.297 -1.0937  0.9199  1.9133
 8393SOL    HW236816   3.769   1.064   3.220  0.8189 -0.7123 -1.3071
 8394SOL     OW36817   2.240   1.752   3.917 -0.7203 -0.4720  0.1965
 8394SOL    HW136818   2.310   1.793   3.967  0.1802 -1.2742 -0.4008
 8394SOL    HW236819   2.272   1.747   3.827 -0.2442  0.6583  0.3028
 8395SOL     OW36820   1.352   3.678   7.690  0.4887  0.3968 -0.2744
 8395SOL    HW136821   1.389   3.667   7.778  0.5911  0.2531 -0.3359
 8395SOL    HW236822   1.338   3.588   7.661  1.8970  0.3294 -0.7656
 8396SOL     OW36823   1.619   2.285   0.810  0.2257  0.1163 -0.4366
 8396SOL    HW136824   1.678   2.350   0.850 -0.0655 -0.0017  0.1784
 8396SOL    HW236825   1.574   2.348   0.753  2.2170  1.8622 -0.1169
 8397SOL     OW36826   4.496   1.161  11.432 -0.2253  0.1556 -0.4665
 8397SOL    HW136827   4.535   1.083  11.392  3.0424  1.5855 -0.0416
 8397SOL    HW236828   4.534   1.160  11.520  2.1686  3.3066 -1.4237
 8398SOL     OW36829   2.848   2.193   2.168 -0.2120  0.1756  0.0801
 8398SOL    HW136830   2.793   2.115   2.167 -0.9829  0.7112  1.6120
 8398SOL    HW236831   2.899   2.174   2.246 -0.0233 -0.0608 -0.1006
 8399SOL     OW36832   3.953   2.833   7.834  0.0251 -0.2882 -0.4153
 8399SOL    HW136833   3.956   2.903   7.768 -0.5444 -1.3947 -1.6203
 8399SOL    HW236834   4.043   2.820   7.864 -0.5780 -1.9979  0.6831
 8400SOL     OW36835   0.156   1.388  12.080  0.5816  0.1464 -0.4757
 8400SOL    HW136836   0.233   1.334  12.067 -1.1895 -1.9137 -2.2623
 8400SOL    HW236837   0.172   1.462  12.021  1.1850 -0.9636 -1.6917
 8401SOL     OW36838   0.948   0.404  17.614 -0.4027 -0.1979  0.0671
 8401SOL    HW136839   1.021   0.459  17.641 -1.9729  1.1529  1.6198
 8401SOL    HW236840   0.879   0.470  17.616 -0.1094  0.1052  0.1279
 8402SOL     OW36841   3.366   0.859   2.412 -0.0406  0.0446  0.3630
 8402SOL    HW136842   3.273   0.877   2.420  0.0233  0.4506  0.1790
 8402SOL    HW236843   3.400   0.946   2.434 -0.4122  0.3586 -0.3156
 8403SOL     OW36844   2.112   2.329   4.119 -0.7426 -0.1124 -0.7494
 8403SOL    HW136845   2.172   2.378   4.062 -0.0289 -0.1932 -0.0663
 8403SOL    HW236846   2.111   2.242   4.079 -0.3672 -1.1514  1.5444
 8404SOL     OW36847   3.757   3.675   8.127  0.2238  0.5338 -0.7480
 8404SOL    HW136848   3.706   3.707   8.201  3.0744  0.6612  1.1686
 8404SOL    HW236849   3.715   3.592   8.106  1.5140 -0.4956  0.7497
 8405SOL     OW36850   2.258   1.280   9.074  0.2347  0.0948  0.2533
 8405SOL    HW136851   2.341   1.269   9.119  0.2109 -1.1713 -0.0214
 8405SOL    HW236852   2.221   1.356   9.120 -1.3494 -0.8724  0.5868
 8406SOL     OW36853   0.639   4.304   8.026  0.0930  0.3327 -0.6140
 8406SOL    HW136854   0.607   4.374   7.969 -2.7532  1.2836  2.1314
 8406SOL    HW236855   0.566   4.242   8.025  0.5440 -0.2004 -0.5801
 8407SOL     OW36856   0.950   2.671   2.571 -0.6069  0.1357 -0.0021
 8407SOL    HW136857   0.968   2.754   2.527  1.3425 -0.9716 -1.2847
 8407SOL    HW236858   0.883   2.621   2.523  0.9581  0.9347 -3.0184
 8408SOL     OW36859   2.830   1.217  15.537  0.3738 -0.3155 -0.1519
 8408SOL    HW136860   2.854   1.128  15.511 -0.2007  0.0426 -1.8778
 8408SOL    HW236861   2.914   1.256  15.516 -0.6649  0.7309 -2.3114
 8409SOL     OW36862   2.137   2.557  16.651 -0.0798  0.5757 -0.1123
 8409SOL    HW136863   2.190   2.564  16.572  1.3961  0.3310  0.8321
 8409SOL    HW236864   2.046   2.574  16.627 -0.0896 -1.3503 -1.4211
 8410SOL     OW36865   1.305   4.451   6.702 -0.6425  0.5175 -0.6221
 8410SOL    HW136866   1.364   4.496   6.762  0.8225  0.1689 -1.8200
 8410SOL    HW236867   1.351   4.459   6.618 -0.8235  3.9917 -0.3937
 8411SOL     OW36868   0.216   0.038   6.203 -0.1784  0.7218 -0.1119
 8411SOL    HW136869   0.204   0.082   6.119 -0.8603 -0.0177 -0.3926
 8411SOL    HW236870   0.308   0.048   6.228  0.3394 -0.8164 -1.3661
 8412SOL     OW36871   1.177   1.960  10.274  0.0174 -0.4518  0.0283
 8412SOL    HW136872   1.125   2.034  10.303  0.9519  0.8686 -1.6947
 8412SOL    HW236873   1.106   1.903  10.244  0.1295 -0.4910 -0.1647
 8413SOL     OW36874   1.629   0.215   2.931 -0.0888 -0.2910 -0.1628
 8413SOL    HW136875   1.613   0.308   2.911  1.2196 -0.4931 -2.1242
 8413SOL    HW236876   1.699   0.198   2.868 -2.2376  0.9221 -2.8416
 8414SOL     OW36877   2.463   0.258   3.837 -0.0868 -0.3249  0.3565
 8414SOL    HW136878   2.543   0.207   3.832  1.3221  1.7431  1.5961
 8414SOL    HW236879   2.470   0.300   3.752  0.9955 -0.3697  0.4210
 8415SOL     OW36880   1.624   0.829   1.654 -0.2308  0.3538 -0.0093
 8415SOL    HW136881   1.632   0.740   1.690 -0.5178 -1.5326 -4.5234
 8415SOL    HW236882   1.700   0.867   1.696 -0.1213  1.2459 -1.0052
 8416SOL     OW36883   1.591   1.967   0.083 -0.4862 -0.0300  0.6714
 8416SOL    HW136884   1.651   1.900   0.115 -1.7444 -2.8248 -2.8252
 8416SOL    HW236885   1.648   2.034   0.044 -1.9369 -0.5146 -2.3239
 8417SOL     OW36886   3.516   4.261  10.897  0.2793  0.5088  0.1247
 8417SOL    HW136887   3.447   4.235  10.836 -0.9171 -1.4874  2.3775
 8417SOL    HW236888   3.585   4.302  10.844  0.0062 -2.5885 -2.6676
 8418SOL     OW36889   3.978   2.233  11.788 -0.1061  0.3648 -0.1456
 8418SOL    HW136890   4.057   2.185  11.812  0.2870  0.9410 -0.2802
 8418SOL    HW236891   3.987   2.223  11.693  1.0340  0.6903 -0.0687
 8419SOL     OW36892   1.742   3.149  14.504  0.2171 -0.2935  0.3336
 8419SOL    HW136893   1.711   3.059  14.510 -0.0396 -0.2311 -0.0904
 8419SOL    HW236894   1.835   3.127  14.513 -0.4579 -2.8193  1.0500
 8420SOL     OW36895   0.591   0.962   5.523  0.3693  0.2319 -0.5164
 8420SOL    HW136896   0.679   0.942   5.554  0.6363  0.8602 -0.8762
 8420SOL    HW236897   0.546   0.902   5.582  0.0431  0.1330 -0.8671
 8421SOL     OW36898   1.919   1.396   0.002 -0.0024 -0.0422 -0.6478
 8421SOL    HW136899   1.910   1.304   0.029  0.1944  0.4249  1.0154
 8421SOL    HW236900   1.832   1.418  17.708  0.6377  1.5748 -1.2453
 8422SOL     OW36901   2.138   1.939  16.508 -0.5825  0.0326 -0.6340
 8422SOL    HW136902   2.223   1.913  16.544 -0.1101 -0.8956 -2.4029
 8422SOL    HW236903   2.126   2.027  16.544 -2.1275 -0.4746  0.1219
 8423SOL     OW36904   4.478   0.555   6.192  0.5442  0.8546 -0.1278
 8423SOL    HW136905   4.511   0.642   6.172  1.2100  0.3995 -1.0412
 8423SOL    HW236906   4.563   0.515   6.213  0.3426 -0.6396 -2.1300
 8424SOL     OW36907   0.961   4.512  16.072  0.0715  0.1238 -0.0287
 8424SOL    HW136908   1.023   4.459  16.021 -0.1848 -0.7768  0.5918
 8424SOL    HW236909   1.000   4.505  16.159  1.7039  1.5467 -0.6634
 8425SOL     OW36910   2.399   0.196   8.342 -0.2086 -1.0002 -0.1294
 8425SOL    HW136911   2.414   0.291   8.345  2.2053 -1.3912  0.3865
 8425SOL    HW236912   2.487   0.159   8.342  0.1612 -0.1196  3.7945
 8426SOL     OW36913   4.380   2.618  12.722  0.3970  0.1183  0.1397
 8426SOL    HW136914   4.395   2.568  12.802  0.7067 -0.5539 -0.3447
 8426SOL    HW236915   4.412   2.569  12.647  4.8273 -0.6294  2.5329
 8427SOL     OW36916   2.336   2.608   6.819 -0.1349  0.2486 -0.2633
 8427SOL    HW136917   2.332   2.605   6.914 -0.7913  1.5363 -0.2494
 8427SOL    HW236918   2.243   2.617   6.800 -0.1133 -3.5578 -2.1477
 8428SOL     OW36919   2.950   2.934  12.993 -0.0526  0.0267  0.3875
 8428SOL    HW136920   2.869   2.943  12.944  2.1125 -2.1218 -3.4994
 8428SOL    HW236921   2.910   2.907  13.076 -1.4008  0.4094 -0.1371
 8429SOL     OW36922   4.631   3.960   9.747  0.3823 -0.0922 -0.7428
 8429SOL    HW136923   4.696   3.954   9.817  1.6248  1.1063 -1.7772
 8429SOL    HW236924   4.545   3.949   9.787  0.2661  0.2614 -0.8939
 8430SOL     OW36925   2.969   4.259   2.109 -0.3888  0.0501 -0.1052
 8430SOL    HW136926   2.987   4.188   2.171 -0.6226  0.5061  0.4874
 8430SOL    HW236927   3.034   4.228   2.047 -0.8661 -0.8131 -0.1641
 8431SOL     OW36928   0.682   0.036   7.741  0.5258 -0.1893  0.5322
 8431SOL    HW136929   0.588   0.055   7.737  0.2790 -1.0019  2.3488
 8431SOL    HW236930   0.717   0.054   7.654  1.5322 -1.4773  0.6637
 8432SOL     OW36931   4.363   4.093   0.435 -0.4746  0.3157  0.2423
 8432SOL    HW136932   4.277   4.051   0.430 -0.4858  0.3482  0.1626
 8432SOL    HW236933   4.406   4.026   0.488 -1.7909 -0.3885  0.4180
 8433SOL     OW36934   3.582   1.860  12.993  0.0106  0.1330 -0.8775
 8433SOL    HW136935   3.518   1.848  13.063  1.1162 -1.2567 -0.1118
 8433SOL    HW236936   3.586   1.954  12.974 -1.0015 -0.0216 -1.8636
 8434SOL     OW36937   3.792   1.589   8.331  0.4051 -0.4970  0.1137
 8434SOL    HW136938   3.770   1.667   8.383  1.4937  0.1905 -0.4610
 8434SOL    HW236939   3.802   1.529   8.405 -0.4941  0.2520  0.8511
 8435SOL     OW36940   2.128   0.785   7.854 -0.0808  0.0583 -0.1361
 8435SOL    HW136941   2.129   0.731   7.775 -0.6757 -1.6438  1.0282
 8435SOL    HW236942   2.200   0.842   7.828 -0.1684 -0.9702 -2.5795
 8436SOL     OW36943   1.697   2.922  11.108  0.4093 -0.2630  0.7276
 8436SOL    HW136944   1.623   2.865  11.130  0.5129 -0.8757 -0.5481
 8436SOL    HW236945   1.649   3.004  11.093 -2.1686 -1.8704  0.1395
 8437SOL     OW36946   1.111   4.008   3.745 -0.3600 -0.8292 -0.2366
 8437SOL    HW136947   1.075   4.061   3.675 -2.0148 -1.1107  0.4082
 8437SOL    HW236948   1.053   4.022   3.820 -0.3213  2.8734 -0.9010
 8438SOL     OW36949   0.501   1.168  15.480 -0.5166 -0.2524 -0.4208
 8438SOL    HW136950   0.477   1.100  15.543  0.1164  1.3355  1.5308
 8438SOL    HW236951   0.449   1.130  15.408 -0.5274  1.5684 -1.3782
 8439SOL     OW36952   4.292   4.521   3.690 -0.1857  0.0831  0.0763
 8439SOL    HW136953   4.386   4.540   3.683 -0.1194  0.4889  1.9743
 8439SOL    HW236954   4.252   4.522   3.603 -1.7866 -2.6229  0.8053
 8440SOL     OW36955   1.687   0.077   3.400 -0.9354  0.0516 -0.0384
 8440SOL    HW136956   1.724   0.092   3.313  0.7055 -3.0337  0.1113
 8440SOL    HW236957   1.594   0.060   3.381 -0.3838 -0.9917 -1.7770
 8441SOL     OW36958   1.852   2.534  14.450 -0.1116  0.0825 -0.2672
 8441SOL    HW136959   1.833   2.470  14.519 -2.0991 -0.3420 -1.1994
 8441SOL    HW236960   1.859   2.480  14.371 -0.9404 -2.2679  1.2514
 8442SOL     OW36961   0.128   0.552   0.491 -0.0982 -0.4690  0.0974
 8442SOL    HW136962   0.100   0.639   0.519  1.5758 -0.3394  1.2974
 8442SOL    HW236963   0.142   0.554   0.396 -0.6174  0.9727  0.0505
 8443SOL     OW36964   3.108   1.009   7.297  0.5600  0.0880 -0.5447
 8443SOL    HW136965   3.017   1.035   7.307  0.7834  0.5991  0.1820
 8443SOL    HW236966   3.127   1.010   7.203 -0.6155 -0.2918 -0.7894
 8444SOL     OW36967   2.763   2.065   4.922  0.6284  0.4347 -0.4788
 8444SOL    HW136968   2.746   2.142   4.976  3.9334  1.3310 -0.7376
 8444SOL    HW236969   2.698   2.001   4.953  0.0654  1.0037 -0.4890
 8445SOL     OW36970   4.562   0.627   5.247 -0.0133 -1.0554 -0.5800
 8445SOL    HW136971   4.539   0.538   5.222 -2.7302 -0.4040 -0.4122
 8445SOL    HW236972   4.653   0.630   5.219  0.1191 -1.4801 -0.1824
 8446SOL     OW36973   2.692   0.322   5.653 -0.6608 -0.3879 -0.3225
 8446SOL    HW136974   2.606   0.365   5.655  0.6452  2.1324  1.5971
 8446SOL    HW236975   2.733   0.385   5.594 -0.9584  0.4129  0.3205
 8447SOL     OW36976   0.667   3.914   5.192  0.2745  0.0933  0.4142
 8447SOL    HW136977   0.737   3.883   5.134 -0.8708 -0.8657 -0.4748
 8447SOL    HW236978   0.597   3.887   5.132  1.3475  1.4119 -1.4592
 8448SOL     OW36979   1.433   4.633   9.282 -0.4932  0.0343 -0.2925
 8448SOL    HW136980   1.503   4.694   9.307  0.3835 -0.1038 -2.4154
 8448SOL    HW236981   1.409   4.604   9.370 -2.0038  0.8002 -0.4510
 8449SOL     OW36982   1.270   4.477   4.417 -0.0119 -0.0399  0.5277
 8449SOL    HW136983   1.343   4.537   4.433  1.4101 -1.7400  0.3673
 8449SOL    HW236984   1.214   4.487   4.494 -0.3206 -0.2686  0.3323
 8450SOL     OW36985   3.353   1.181   6.199 -0.2683 -0.6111  0.0604
 8450SOL    HW136986   3.385   1.168   6.288 -0.3747 -1.6146 -0.0426
 8450SOL    HW236987   3.372   1.272   6.179 -0.3544 -0.9385 -1.4992
 8451SOL     OW36988   3.460   2.273  12.649  0.4113 -0.2534  0.5210
 8451SOL    HW136989   3.542   2.315  12.624  1.1476 -0.8796  1.9238
 8451SOL    HW236990   3.502   2.217  12.714 -0.0661 -2.1669 -0.7991
 8452SOL     OW36991   0.558   3.493   7.919 -0.0649  0.0629 -0.9190
 8452SOL    HW136992   0.470   3.532   7.915  0.2609  0.8961  0.0961
 8452SOL    HW236993   0.529   3.425   7.858 -1.0611  0.2640 -0.6728
 8453SOL     OW36994   3.109   2.706  13.078 -0.2892 -0.6892  0.2516
 8453SOL    HW136995   3.035   2.760  13.052  0.3878  0.7323  1.2975
 8453SOL    HW236996   3.172   2.776  13.094 -1.7312  1.0248 -1.5654
 8454SOL     OW36997   4.293   1.539   3.332  0.0057 -0.4767  0.3096
 8454SOL    HW136998   4.299   1.632   3.352  1.6271 -0.2925 -1.0229
 8454SOL    HW236999   4.309   1.491   3.413  3.0837 -2.1385 -1.2781
 8455SOL     OW37000   1.995   3.242   8.698 -0.4188  0.5939 -0.1707
 8455SOL    HW137001   2.017   3.312   8.636  0.0735  0.4885 -0.1084
 8455SOL    HW237002   2.058   3.174   8.675 -1.1504  0.4267 -1.7209
 8456SOL     OW37003   0.628   1.744   4.844  0.2682  0.5763  0.1989
 8456SOL    HW137004   0.627   1.726   4.750  1.6315 -1.6210  0.6076
 8456SOL    HW237005   0.711   1.791   4.847  1.2604 -1.1492 -0.3232
 8457SOL     OW37006   1.083   1.016   2.347  0.1523 -0.1143  0.1156
 8457SOL    HW137007   1.123   1.102   2.359  0.9904 -0.6749  1.2954
 8457SOL    HW237008   1.013   1.029   2.411  0.3847  0.0817  0.3295
 8458SOL     OW37009   0.326   3.779  12.346  0.0290  0.5635 -0.0561
 8458SOL    HW137010   0.237   3.754  12.370 -0.1864  1.6021  0.2281
 8458SOL    HW237011   0.302   3.780  12.253 -2.0021  1.0785  0.4556
 8459SOL     OW37012   0.891   3.804   7.081  0.3681  0.4149 -0.1704
 8459SOL    HW137013   0.842   3.722   7.077 -0.1905  0.8156 -1.8331
 8459SOL    HW237014   0.968   3.778   7.031  0.5943 -1.8831  1.4233
 8460SOL     OW37015   3.669   3.229   2.092  0.1593  0.7122  0.7153
 8460SOL    HW137016   3.743   3.215   2.033 -0.2591 -2.8254  1.0085
 8460SOL    HW237017   3.616   3.151   2.076 -2.4078  3.0345 -2.1481
 8461SOL     OW37018   4.308   3.684   2.914  0.1507  0.1695  0.1598
 8461SOL    HW137019   4.397   3.682   2.949  0.3578 -0.8051 -0.4267
 8461SOL    HW237020   4.276   3.770   2.940 -0.4375 -0.3314  1.0664
 8462SOL     OW37021   4.085   2.940  12.504 -0.0843 -0.0578 -0.0678
 8462SOL    HW137022   4.153   2.876  12.481 -0.6103  0.1516 -2.1931
 8462SOL    HW237023   4.088   2.946  12.599 -1.2557 -0.0860 -0.0378
 8463SOL     OW37024   1.759   2.202   2.102 -0.1539  0.1170 -0.1919
 8463SOL    HW137025   1.812   2.276   2.074 -0.3192 -0.1452 -1.1924
 8463SOL    HW237026   1.796   2.179   2.187  2.4294 -3.8323 -2.4162
 8464SOL     OW37027   3.242   0.386   9.946 -0.4950 -0.5230  0.0958
 8464SOL    HW137028   3.201   0.340  10.019 -2.6200  2.2428  0.6528
 8464SOL    HW237029   3.166   0.414   9.895 -0.7202 -2.2246 -0.4970
 8465SOL     OW37030   3.701   3.206   7.327  0.2684  0.2102  0.1424
 8465SOL    HW137031   3.795   3.219   7.310  0.6992 -0.4244  1.9721
 8465SOL    HW237032   3.694   3.111   7.340 -0.7202  0.4603  1.3838
 8466SOL     OW37033   1.879   1.145   3.685  0.4124  0.7805 -0.3423
 8466SOL    HW137034   1.852   1.111   3.771  0.3832  1.0831 -0.2322
 8466SOL    HW237035   1.932   1.069   3.661  0.0442  1.0706 -2.0410
 8467SOL     OW37036   1.337   0.566   8.881  0.6013 -0.0270 -0.2561
 8467SOL    HW137037   1.287   0.493   8.845 -1.3192  0.2433  1.8850
 8467SOL    HW237038   1.268   0.632   8.890  1.9768  1.4811 -0.6775
 8468SOL     OW37039   2.965   0.094   6.365  0.3961 -0.4973 -0.0556
 8468SOL    HW137040   3.019   0.165   6.400  0.1916 -1.0912  1.4161
 8468SOL    HW237041   3.017   0.020   6.396  1.6008  0.3897  0.0562
 8469SOL     OW37042   0.720   1.787  14.306 -0.4798 -0.3719  0.6179
 8469SOL    HW137043   0.807   1.808  14.340  0.5674 -2.6794 -0.6802
 8469SOL    HW237044   0.664   1.850  14.353 -2.5979 -1.6998 -0.1333
 8470SOL     OW37045   3.727   1.344   6.045  0.1784 -0.5709  0.3821
 8470SOL    HW137046   3.673   1.269   6.017 -0.8914  0.9825 -1.7181
 8470SOL    HW237047   3.744   1.314   6.135 -0.6699  0.9805  1.0513
 8471SOL     OW37048   1.412   1.054   7.152  0.2830  0.0441 -0.1333
 8471SOL    HW137049   1.357   1.097   7.217 -0.7990 -0.8338 -0.4700
 8471SOL    HW237050   1.458   0.986   7.201 -3.8543 -0.4506  3.0614
 8472SOL     OW37051   1.111   2.876   8.179  0.0459  0.4328 -0.3241
 8472SOL    HW137052   1.191   2.928   8.183  1.2610 -1.4220 -0.9099
 8472SOL    HW237053   1.131   2.801   8.234 -2.5598  0.9981  1.3902
 8473SOL     OW37054   1.002   0.992   9.098  0.2570 -0.2160 -0.2202
 8473SOL    HW137055   1.042   0.966   9.181  0.2099 -0.1264 -0.1703
 8473SOL    HW237056   1.072   1.012   9.035  0.5440  0.9997  0.4925
 8474SOL     OW37057   0.263   4.646   7.684  0.0641 -0.1049  0.3843
 8474SOL    HW137058   0.296   4.734   7.703  0.1675  0.0393 -0.4605
 8474SOL    HW237059   0.320   4.618   7.612 -0.0463 -1.6372  0.8951
 8475SOL     OW37060   3.458   2.930   3.503  0.1285 -0.2484  0.4357
 8475SOL    HW137061   3.521   2.997   3.475 -0.7685  0.3477 -0.1587
 8475SOL    HW237062   3.375   2.957   3.465  0.7920  1.6347  0.3127
 8476SOL     OW37063   2.778   1.668   7.484 -0.2268  0.5260 -0.4622
 8476SOL    HW137064   2.701   1.688   7.538 -1.1836  0.1718 -1.6891
 8476SOL    HW237065   2.819   1.753   7.469  2.5052 -0.6422  0.3705
 8477SOL     OW37066   4.598   1.843  16.783 -0.3364  0.4956  0.2860
 8477SOL    HW137067   4.553   1.794  16.714  2.9572 -1.1324 -0.7039
 8477SOL    HW237068   4.648   1.910  16.737  1.6814  0.3608  2.2723
 8478SOL     OW37069   3.064   3.340   3.259  0.5713  0.2897 -0.0314
 8478SOL    HW137070   3.082   3.426   3.296  0.0708  0.6534 -0.6189
 8478SOL    HW237071   3.079   3.367   3.168 -1.2608 -3.3904 -1.4247
 8479SOL     OW37072   1.956   2.200  14.439  0.1735  0.0850  0.4529
 8479SOL    HW137073   1.881   2.147  14.412  2.0398 -2.3119  0.0004
 8479SOL    HW237074   1.969   2.258  14.364  0.4670  1.5775  1.6511
 8480SOL     OW37075   1.681   0.048   7.489 -0.5790  0.0076 -0.4663
 8480SOL    HW137076   1.774   0.067   7.504 -1.0100  1.2925  0.5350
 8480SOL    HW237077   1.638   0.116   7.540  0.2787  0.1447  0.0714
 8481SOL     OW37078   0.256   3.403   0.939  0.4042 -0.1315  0.1143
 8481SOL    HW137079   0.302   3.486   0.952  0.4948 -0.1398 -0.1588
 8481SOL    HW237080   0.319   3.341   0.976 -0.7220  0.1859  2.6257
 8482SOL     OW37081   2.183   2.893   8.071 -0.3575  0.2547  0.8128
 8482SOL    HW137082   2.222   2.947   8.139  1.3837 -0.1307  0.1116
 8482SOL    HW237083   2.175   2.962   8.005  2.0862  0.2704  0.5320
 8483SOL     OW37084   0.904   2.517   0.846 -0.1838 -0.5741  0.5652
 8483SOL    HW137085   0.929   2.590   0.903  1.7384 -0.6789 -0.1693
 8483SOL    HW237086   0.969   2.450   0.867 -0.3034 -0.8888 -0.0814
 8484SOL     OW37087   0.596   1.988   8.718  0.2696  0.1102 -0.1112
 8484SOL    HW137088   0.605   1.944   8.633  1.2249 -1.0657  0.6080
 8484SOL    HW237089   0.614   2.080   8.701  0.8094 -0.2022 -1.2703
 8485SOL     OW37090   4.298   2.411  14.376  0.0201 -0.0519 -0.5705
 8485SOL    HW137091   4.306   2.413  14.471 -1.2766  0.1990 -0.4626
 8485SOL    HW237092   4.391   2.411  14.353  0.3489 -0.4135  0.7613
 8486SOL     OW37093   4.611   1.156   3.406 -0.1789  0.3071  0.2648
 8486SOL    HW137094   4.694   1.199   3.428  0.5950 -0.2438 -1.6208
 8486SOL    HW237095   4.590   1.204   3.326 -2.1887  0.9275  1.1698
 8487SOL     OW37096   1.327   1.568  17.543  0.4814  0.0764 -0.0213
 8487SOL    HW137097   1.235   1.581  17.519  0.3960  1.5057  1.0631
 8487SOL    HW237098   1.331   1.477  17.512  3.3484 -0.2524  1.3112
 8488SOL     OW37099   4.602   4.079   5.485 -0.2454  0.0418 -0.5863
 8488SOL    HW137100   4.562   4.164   5.504 -0.9477 -0.2999 -0.5560
 8488SOL    HW237101   4.567   4.030   5.559 -3.3668  0.2841 -1.8674
 8489SOL     OW37102   2.403   1.200   3.395 -0.3703  0.0354  0.3738
 8489SOL    HW137103   2.357   1.228   3.315  0.8359 -1.8703 -0.9790
 8489SOL    HW237104   2.338   1.227   3.460 -1.0890 -0.5542 -0.0998
 8490SOL     OW37105   0.585   2.247   4.106 -0.1353 -0.0751  0.5695
 8490SOL    HW137106   0.675   2.274   4.126 -0.0705 -0.1443  0.3711
 8490SOL    HW237107   0.593   2.202   4.022 -1.5332  1.5406 -0.4344
 8491SOL     OW37108   1.937   4.093   6.522 -0.1994 -0.5743 -0.2156
 8491SOL    HW137109   1.858   4.143   6.540 -0.2520 -1.0427  0.8584
 8491SOL    HW237110   1.894   4.013   6.493 -0.6191  0.9887 -3.8768
 8492SOL     OW37111   4.443   3.911  10.688 -0.2423  0.4979  0.2004
 8492SOL    HW137112   4.386   3.919  10.764 -2.0829 -1.4216 -0.9549
 8492SOL    HW237113   4.389   3.889  10.611 -0.8501 -0.3021  0.8604
 8493SOL     OW37114   3.436   4.586   7.097 -0.3279  0.2942 -0.3729
 8493SOL    HW137115   3.481   4.569   7.015 -0.4883  0.7801 -0.5575
 8493SOL    HW237116   3.405   4.676   7.096  2.1403  1.1081 -2.5548
 8494SOL     OW37117   3.173   2.251  13.705 -0.3845 -0.0787  0.9075
 8494SOL    HW137118   3.244   2.316  13.698 -1.5650  0.8847 -1.9061
 8494SOL    HW237119   3.115   2.292  13.769  0.2608  1.7286  0.3399
 8495SOL     OW37120   4.684   2.502   4.805 -0.2202  0.0865  0.4987
 8495SOL    HW137121   4.662   2.554   4.728 -3.4169 -2.4499 -0.2655
 8495SOL    HW237122   4.718   2.420   4.772  0.9843  0.6979  0.2268
 8496SOL     OW37123   2.604   4.475   9.943  0.0912  0.6800  0.7330
 8496SOL    HW137124   2.545   4.479   9.868 -0.6339 -2.2683  1.1422
 8496SOL    HW237125   2.685   4.519   9.917 -0.4942  0.3712 -1.6507
 8497SOL     OW37126   4.528   4.361  14.739  0.2841  0.5726  0.2961
 8497SOL    HW137127   4.569   4.444  14.764  0.4188  0.5203  0.2476
 8497SOL    HW237128   4.475   4.384  14.662  3.3747  1.4425 -1.5838
 8498SOL     OW37129   4.106   0.478   3.236 -0.2615 -0.1850 -0.1584
 8498SOL    HW137130   4.181   0.432   3.200 -0.6724 -0.6593 -0.4026
 8498SOL    HW237131   4.033   0.419   3.217 -0.7515  0.5295 -0.4927
 8499SOL     OW37132   2.416   2.949   6.768  0.1325 -0.1656 -0.1462
 8499SOL    HW137133   2.500   2.917   6.735  1.6987  2.7033  1.0387
 8499SOL    HW237134   2.430   3.044   6.777 -0.6087  0.0913 -1.7032
 8500SOL     OW37135   0.145   4.346   7.038 -0.0567 -0.3885  0.0222
 8500SOL    HW137136   0.140   4.424   6.984  1.8450  1.4834  2.5548
 8500SOL    HW237137   0.219   4.301   6.996 -0.6246 -0.3531 -1.0090
 8501SOL     OW37138   2.799   2.212   8.623  0.3683 -0.0627  0.3018
 8501SOL    HW137139   2.722   2.201   8.567 -0.0626  1.5387  0.5654
 8501SOL    HW237140   2.856   2.139   8.600  0.6848 -0.1701  1.4130
 8502SOL     OW37141   2.079   4.159   2.268  0.1865  0.3108  0.4652
 8502SOL    HW137142   2.103   4.069   2.246  2.1232  1.0190 -0.2953
 8502SOL    HW237143   2.170   4.187   2.280  0.0659  0.8379  0.1545
 8503SOL     OW37144   4.391   3.856   4.711  0.5439 -0.2901 -0.1675
 8503SOL    HW137145   4.320   3.847   4.648  0.1878 -0.5959  0.2774
 8503SOL    HW237146   4.427   3.768   4.716  0.1946 -0.5057 -1.5849
 8504SOL     OW37147   1.369   0.760   4.079  0.7239 -0.0947  0.0505
 8504SOL    HW137148   1.401   0.679   4.038 -0.4836 -0.5961  0.0985
 8504SOL    HW237149   1.337   0.802   3.999  0.5424 -0.9403 -0.3233
 8505SOL     OW37150   2.025   3.497   5.376  0.3856 -0.1139  0.4462
 8505SOL    HW137151   2.072   3.497   5.460  0.0539 -2.1909  0.6232
 8505SOL    HW237152   1.987   3.409   5.371 -1.4729  0.6288  1.6385
 8506SOL     OW37153   2.779   2.722  16.928 -0.3629  0.1625  0.6159
 8506SOL    HW137154   2.849   2.736  16.992 -1.4691  0.5896  1.7241
 8506SOL    HW237155   2.819   2.764  16.851  2.0871 -1.0783  1.2145
 8507SOL     OW37156   2.550   3.836   6.676 -0.2483  0.2074 -0.9708
 8507SOL    HW137157   2.468   3.811   6.719  0.5112  1.2956  1.1161
 8507SOL    HW237158   2.518   3.912   6.629  0.6206  1.7676  0.9457
 8508SOL     OW37159   4.414   4.473   5.080 -0.3896  0.2821  0.0364
 8508SOL    HW137160   4.438   4.562   5.053  3.5585 -0.5753  0.7074
 8508SOL    HW237161   4.400   4.491   5.173  0.3938 -1.2802  0.4575
 8509SOL     OW37162   1.857   0.183   6.032  0.0082  0.2564 -0.2227
 8509SOL    HW137163   1.861   0.109   5.971  0.3661 -1.2591  1.6343
 8509SOL    HW237164   1.791   0.244   5.999 -1.2161 -0.6792  0.4784
 8510SOL     OW37165   1.505   3.527   6.395  0.2667  0.2328  0.0819
 8510SOL    HW137166   1.492   3.606   6.447  0.9217  1.3853 -1.5084
 8510SOL    HW237167   1.600   3.527   6.385  0.1178  3.2532 -1.2155
 8511SOL     OW37168   0.213   3.981   1.951 -0.0706 -0.5017  0.1124
 8511SOL    HW137169   0.262   3.977   2.033  3.2823  0.3069 -1.8537
 8511SOL    HW237170   0.188   3.890   1.936  0.5412 -0.3750 -1.6639
 8512SOL     OW37171   1.320   3.316   0.033 -0.0302 -1.1236  0.2272
 8512SOL    HW137172   1.368   3.386  17.727 -1.1662 -0.9141 -0.6596
 8512SOL    HW237173   1.399   3.280   0.073  0.4876 -0.5321 -0.2715
 8513SOL     OW37174   2.052   1.032   4.054  0.4169  0.1640  0.0904
 8513SOL    HW137175   2.104   0.953   4.037  1.9554  0.8271  1.7758
 8513SOL    HW237176   1.975   1.018   3.998 -0.0061 -0.8387  0.9118
 8514SOL     OW37177   4.237   3.906   5.756  0.3074  0.1695 -0.0357
 8514SOL    HW137178   4.216   3.999   5.769 -0.0502 -0.2347  2.1598
 8514SOL    HW237179   4.249   3.887   5.849 -0.4542  3.1006  0.6795
 8515SOL     OW37180   1.634   0.282  13.492 -0.0404  0.1108  0.3374
 8515SOL    HW137181   1.629   0.325  13.577  1.8833  0.5114  0.2507
 8515SOL    HW237182   1.627   0.192  13.523  1.8179 -0.8579 -2.0105
 8516SOL     OW37183   0.698   2.189   3.491  0.0227 -0.3613 -0.0519
 8516SOL    HW137184   0.705   2.155   3.402 -1.4049  0.3774 -0.4569
 8516SOL    HW237185   0.710   2.283   3.478  2.7317 -0.6346  0.4303
 8517SOL     OW37186   2.549   2.338   4.084 -0.0122  0.4459  0.5889
 8517SOL    HW137187   2.599   2.416   4.109  2.0068 -0.8258  0.5158
 8517SOL    HW237188   2.518   2.308   4.169  0.0059  2.8385  1.4494
 8518SOL     OW37189   3.418   0.954   8.933  0.2117 -0.2427  0.2108
 8518SOL    HW137190   3.394   1.004   8.855 -0.5012 -2.2580 -0.8466
 8518SOL    HW237191   3.513   0.946   8.917  0.4811  1.4674  0.9597
 8519SOL     OW37192   1.371   4.706   6.560  0.2566  0.0841 -0.2939
 8519SOL    HW137193   1.466   4.717   6.568 -0.0816  2.2073  0.9178
 8519SOL    HW237194   1.334   4.690   6.646  0.2748  1.8257  0.0373
 8520SOL     OW37195   0.197   2.666   7.800 -0.0314  0.0074 -0.7028
 8520SOL    HW137196   0.266   2.657   7.734 -0.6425 -0.3070 -1.3056
 8520SOL    HW237197   0.195   2.586   7.853  0.3725 -0.8016 -1.8951
 8521SOL     OW37198   1.957   3.398   8.264 -0.4519 -0.1057 -0.6272
 8521SOL    HW137199   1.867   3.374   8.287  0.2827 -1.9583  0.3443
 8521SOL    HW237200   1.970   3.338   8.191 -1.8797  1.0147 -1.7931
 8522SOL     OW37201   0.980   1.917   2.795  0.1125 -0.0416 -0.4082
 8522SOL    HW137202   0.952   1.839   2.747 -0.4993 -1.0101  1.5456
 8522SOL    HW237203   1.045   1.884   2.856  0.9917  1.1742 -0.6759
 8523SOL     OW37204   0.711   3.020   5.380 -0.2698  0.0937  0.4478
 8523SOL    HW137205   0.632   3.002   5.329 -0.4683  0.8790  0.4643
 8523SOL    HW237206   0.690   3.018   5.473 -0.9350 -0.3902  0.2814
 8524SOL     OW37207   3.407   1.354   2.323  0.3265  0.3944 -0.0050
 8524SOL    HW137208   3.412   1.378   2.230 -0.4629  0.9691  0.1077
 8524SOL    HW237209   3.397   1.442   2.359  0.9822 -0.7405  2.9680
 8525SOL     OW37210   1.918   4.397  11.648 -0.1224  0.7504  0.7656
 8525SOL    HW137211   2.005   4.385  11.610 -1.1710 -1.4061 -0.9489
 8525SOL    HW237212   1.935   4.381  11.742  0.9088  1.1399  0.6468
 8526SOL     OW37213   0.885   4.532  16.605  0.2738 -0.3500 -0.1596
 8526SOL    HW137214   0.851   4.597  16.543 -0.5024  1.7557  2.4588
 8526SOL    HW237215   0.972   4.569  16.621 -0.0539 -0.3022  1.5267
 8527SOL     OW37216   3.769   4.706   6.966 -0.0012  0.4909  0.2376
 8527SOL    HW137217   3.844   4.658   7.002  1.3946  0.0786 -3.2016
 8527SOL    HW237218   3.801   0.023   6.892  0.3979 -1.4615 -0.9595
 8528SOL     OW37219   0.968   3.061   4.017  0.6461 -0.4786  0.1252
 8528SOL    HW137220   1.036   3.011   3.973  0.2478 -0.8013 -0.1230
 8528SOL    HW237221   0.926   3.103   3.942  0.2397 -2.6062 -0.8429
 8529SOL     OW37222   1.204   3.035   2.298  0.4106  0.4293 -0.0532
 8529SOL    HW137223   1.204   2.995   2.212 -2.1664  1.6351 -0.6211
 8529SOL    HW237224   1.270   3.103   2.285  1.3657 -0.5107 -0.1183
 8530SOL     OW37225   2.180   0.114   1.827  0.1588 -0.3566  0.3098
 8530SOL    HW137226   2.188   0.062   1.746 -1.2900 -0.4630  0.2504
 8530SOL    HW237227   2.266   0.095   1.866  0.0190 -1.9147 -0.1251
 8531SOL     OW37228   1.548   4.578   2.343 -0.2957  0.0003 -0.0041
 8531SOL    HW137229   1.531   4.526   2.421 -0.3391  1.4610  0.9530
 8531SOL    HW237230   1.456   4.598   2.327  0.7963  5.1465  0.3277
 8532SOL     OW37231   2.681   1.962   7.124 -0.2193 -0.4720 -0.5422
 8532SOL    HW137232   2.695   2.046   7.167  0.6238  0.6986 -3.1268
 8532SOL    HW237233   2.586   1.971   7.114 -0.1786  0.7446  0.1915
 8533SOL     OW37234   3.886   2.474  13.738 -0.3984 -0.3999 -0.3933
 8533SOL    HW137235   3.904   2.503  13.827  0.1382 -0.4372 -0.4895
 8533SOL    HW237236   3.848   2.556  13.704  0.3655 -1.0581 -2.8819
 8534SOL     OW37237   2.090   4.380   2.655 -0.1916 -0.2050  0.3822
 8534SOL    HW137238   1.997   4.397   2.665 -0.1965 -0.4506  0.7379
 8534SOL    HW237239   2.119   4.382   2.746  3.0330  2.4120 -0.6895
 8535SOL     OW37240   2.133   4.091   0.984 -0.1418 -0.5843 -0.1793
 8535SOL    HW137241   2.152   4.053   1.070  3.2448  1.4551 -0.0042
 8535SOL    HW237242   2.184   4.038   0.923  2.4345  1.5065  0.1348
 8536SOL     OW37243   3.632   3.454  13.497 -0.0410  0.3288  0.3106
 8536SOL    HW137244   3.537   3.457  13.495 -0.0787 -0.7662  0.4917
 8536SOL    HW237245   3.639   3.408  13.581  0.8284  0.7273  0.4555
 8537SOL     OW37246   1.362   0.597  14.179  0.0072  0.9870 -0.2767
 8537SOL    HW137247   1.428   0.655  14.142 -0.2343  1.6537  0.3393
 8537SOL    HW237248   1.340   0.551  14.098 -0.9858 -1.3650  1.3120
 8538SOL     OW37249   1.740   1.804  13.801 -0.9483  0.3081 -0.4594
 8538SOL    HW137250   1.714   1.812  13.709 -1.0545 -1.2146 -0.5545
 8538SOL    HW237251   1.808   1.739  13.781 -1.3720  0.5997 -2.8177
 8539SOL     OW37252   3.338   2.649   8.032  0.0097  0.6108  0.0240
 8539SOL    HW137253   3.329   2.601   8.114 -0.8844 -0.0997 -0.4928
 8539SOL    HW237254   3.263   2.625   7.978  2.3746 -3.1000 -1.5792
 8540SOL     OW37255   1.243   4.132  11.648 -0.0902 -0.3874  0.3921
 8540SOL    HW137256   1.292   4.178  11.579  1.4423 -1.6287  0.6511
 8540SOL    HW237257   1.236   4.187  11.726 -0.1374  0.6720 -0.3661
 8541SOL     OW37258   2.703   3.809   7.608 -0.0372 -0.5025 -0.2066
 8541SOL    HW137259   2.747   3.739   7.561 -0.3800 -0.6756 -0.2750
 8541SOL    HW237260   2.611   3.787   7.595 -0.4657  1.2308 -0.1698
 8542SOL     OW37261   4.462   3.721   1.547 -0.0891  0.2616  0.3509
 8542SOL    HW137262   4.518   3.645   1.563 -1.3331 -0.9052 -0.8140
 8542SOL    HW237263   4.503   3.741   1.463  0.7413  0.1001  0.7196
 8543SOL     OW37264   0.101   1.144   1.391 -0.0118  0.0412 -0.0099
 8543SOL    HW137265   0.162   1.072   1.408  0.6527  0.9380  1.3590
 8543SOL    HW237266   0.024   1.115   1.341 -0.4694  2.5817 -0.7493
 8544SOL     OW37267   4.530   0.412   4.998  0.2827  0.3925 -0.0623
 8544SOL    HW137268   4.556   0.350   4.931  0.1804  0.7384 -0.4200
 8544SOL    HW237269   4.531   0.367   5.083  1.4129 -0.8694 -0.7472
 8545SOL     OW37270   3.978   3.039   5.959  0.0691 -0.5731 -0.3561
 8545SOL    HW137271   3.944   3.108   6.016  0.7044  0.1570 -0.8536
 8545SOL    HW237272   4.048   3.011   6.018  0.1120 -1.4886 -0.8452
 8546SOL     OW37273   4.279   0.643   2.117 -0.0353  0.2125 -0.4399
 8546SOL    HW137274   4.332   0.718   2.142 -1.1832  1.0031 -0.3501
 8546SOL    HW237275   4.187   0.660   2.137  0.2582 -1.1250  1.9721
 8547SOL     OW37276   0.181   0.034   9.441  0.1679  0.3057  0.6794
 8547SOL    HW137277   0.250   4.727   9.492 -1.0582  0.4201  2.4421
 8547SOL    HW237278   0.220   0.054   9.356 -2.0675  0.5300 -0.3063
 8548SOL     OW37279   1.168   3.103   4.616 -0.5026 -0.0186 -1.3428
 8548SOL    HW137280   1.259   3.131   4.631 -0.9495  0.8973 -0.2462
 8548SOL    HW237281   1.141   3.062   4.699 -0.2728  1.4951 -0.5109
 8549SOL     OW37282   0.896   3.614   2.784  0.8647 -0.3377 -0.2695
 8549SOL    HW137283   0.802   3.593   2.786  0.8466 -0.3467 -1.1694
 8549SOL    HW237284   0.888   3.708   2.771  0.2071  0.0173  2.7579
 8550SOL     OW37285   4.472   2.791   0.302  0.0858 -0.2186  0.0771
 8550SOL    HW137286   4.463   2.729   0.230 -1.0003  1.5838 -1.3557
 8550SOL    HW237287   4.442   2.876   0.269  1.4106  0.3704  0.4114
 8551SOL     OW37288   4.124   3.952  12.576 -0.5494 -0.3649 -0.5251
 8551SOL    HW137289   4.160   3.895  12.644 -1.6436 -1.6061 -0.9976
 8551SOL    HW237290   4.055   4.002  12.620  0.2836  1.6973 -1.5395
 8552SOL     OW37291   1.254   3.882   2.664  0.0857 -0.1919  0.1295
 8552SOL    HW137292   1.210   3.922   2.589  1.8958  1.7531  0.1019
 8552SOL    HW237293   1.256   3.788   2.646  0.8789  0.0292 -0.9942
 8553SOL     OW37294   1.960   3.638   1.859  0.6039  0.1505  0.1522
 8553SOL    HW137295   1.940   3.574   1.928 -0.6493  0.1924 -0.1836
 8553SOL    HW237296   1.894   3.617   1.793 -0.5117 -2.2435  2.0252
 8554SOL     OW37297   0.564   0.716   6.277 -0.0990  0.7203 -0.3391
 8554SOL    HW137298   0.640   0.673   6.316  0.1766 -0.3232 -2.0165
 8554SOL    HW237299   0.573   0.810   6.296  0.5448  0.1232  2.2956
 8555SOL     OW37300   4.193   3.098   9.041 -0.5625 -0.2533 -0.5080
 8555SOL    HW137301   4.153   3.070   8.958 -1.0226 -1.4468  0.1181
 8555SOL    HW237302   4.209   3.016   9.088 -1.8233 -0.4680 -0.4559
 8556SOL     OW37303   4.604   0.112   9.183  0.1764  0.4009 -0.1667
 8556SOL    HW137304   4.596   0.017   9.180 -0.1893  0.5187 -2.6542
 8556SOL    HW237305   4.618   0.111   9.278  0.6769  0.0365 -0.2456
 8557SOL     OW37306   4.702   1.426   1.051 -0.0773 -0.1823 -0.2046
 8557SOL    HW137307   4.678   1.376   1.129  0.7939 -2.4923 -1.4120
 8557SOL    HW237308   4.654   1.509   1.059 -0.4330 -0.6644  2.7968
 8558SOL     OW37309   3.297   1.047  10.815  0.6029 -0.6344 -0.1646
 8558SOL    HW137310   3.264   1.098  10.890  3.1106  1.3263 -0.4115
 8558SOL    HW237311   3.228   0.980  10.817  0.7547 -0.7797  0.4274
 8559SOL     OW37312   1.090   2.888   7.189  0.1626 -0.3939  0.3805
 8559SOL    HW137313   1.172   2.879   7.140  0.2818 -1.2705  0.7352
 8559SOL    HW237314   1.112   2.831   7.263  0.8725 -2.7956 -1.6660
 8560SOL     OW37315   0.499   2.597   3.008  0.0871  0.3546 -0.3821
 8560SOL    HW137316   0.550   2.570   2.931  1.8380 -0.3883  1.0343
 8560SOL    HW237317   0.461   2.681   2.983 -0.0471 -0.0427 -1.5020
 8561SOL     OW37318   3.464   3.260  12.759 -0.5947 -0.2452 -0.6188
 8561SOL    HW137319   3.557   3.255  12.740 -0.2974  0.9570  0.5836
 8561SOL    HW237320   3.469   3.306  12.842 -0.8843 -3.8287  1.3979
 8562SOL     OW37321   4.238   3.654   8.988  0.0072  0.1894 -0.2925
 8562SOL    HW137322   4.275   3.690   9.069 -1.2181 -1.3359  0.9425
 8562SOL    HW237323   4.250   3.728   8.928  1.7437  1.6215  1.8237
 8563SOL     OW37324   1.022   2.078   3.202  0.1788 -0.1293  0.1089
 8563SOL    HW137325   1.042   2.168   3.177 -2.3991  0.1106 -1.0941
 8563SOL    HW237326   1.096   2.055   3.257  1.1080  0.7203 -0.7836
 8564SOL     OW37327   2.750   1.773   6.265 -0.1925  0.0906 -0.7856
 8564SOL    HW137328   2.837   1.735   6.258 -0.2447  0.0816 -1.3873
 8564SOL    HW237329   2.718   1.736   6.347 -1.0360  1.0950 -0.6557
 8565SOL     OW37330   3.812   3.622   0.252 -0.1519 -0.1518 -1.0143
 8565SOL    HW137331   3.797   3.530   0.275  0.1384  0.1139  0.2034
 8565SOL    HW237332   3.833   3.617   0.159  0.1357  1.7444 -1.0426
 8566SOL     OW37333   4.172   4.480   0.369  0.8769  0.5489  0.1391
 8566SOL    HW137334   4.191   4.422   0.442  0.9717 -1.1412 -1.2143
 8566SOL    HW237335   4.247   4.539   0.372 -0.1801  1.9637 -1.0674
 8567SOL     OW37336   2.266   3.032   3.242 -0.0124  0.0701  0.5613
 8567SOL    HW137337   2.295   2.943   3.263  1.4957  0.6807  1.0635
 8567SOL    HW237338   2.173   3.010   3.230  0.8750 -3.3356 -0.2564
 8568SOL     OW37339   2.019   1.619   8.253 -0.3304 -0.1841  0.0502
 8568SOL    HW137340   2.085   1.675   8.293 -1.1921  0.6136  0.3492
 8568SOL    HW237341   1.953   1.681   8.221 -0.9967 -0.0666  1.6667
 8569SOL     OW37342   1.854   4.368   5.839 -0.0692 -0.3576  0.7730
 8569SOL    HW137343   1.829   4.417   5.761  1.2132 -0.1681  0.4891
 8569SOL    HW237344   1.865   4.281   5.801  1.0351  0.7203 -1.3525
 8570SOL     OW37345   0.186   0.759   8.449 -0.0176 -0.2757  0.1588
 8570SOL    HW137346   0.242   0.779   8.374 -1.1146 -1.7721 -1.0521
 8570SOL    HW237347   0.235   0.721   8.522 -0.2944  0.3238  0.6548
 8571SOL     OW37348   1.571   3.295   2.499 -0.2566  0.0148  0.8334
 8571SOL    HW137349   1.655   3.280   2.455  1.3011  2.5627  2.9055
 8571SOL    HW237350   1.588   3.302   2.593 -0.6049  1.2201  0.7968
 8572SOL     OW37351   4.017   4.005   2.229  0.0561 -0.0943 -0.1923
 8572SOL    HW137352   3.950   4.065   2.196 -0.0258  0.4889  1.0357
 8572SOL    HW237353   4.088   4.022   2.167  1.1231  2.1166  1.6226
 8573SOL     OW37354   2.176   1.469   0.072  0.2729 -0.0665  0.2726
 8573SOL    HW137355   2.094   1.428   0.044 -1.0750  1.4536  1.9303
 8573SOL    HW237356   2.140   1.543   0.120  2.0067 -0.9796  2.9412
 8574SOL     OW37357   4.646   4.593   1.584  0.2192  0.3747  0.4174
 8574SOL    HW137358   4.561   4.636   1.593  0.6654  0.7801  2.5746
 8574SOL    HW237359   4.656   4.582   1.489 -0.1516  2.9457  0.0714
 8575SOL     OW37360   3.442   3.873   7.750 -0.0666  0.1578  0.5895
 8575SOL    HW137361   3.347   3.864   7.740  0.4442 -1.6583 -2.7035
 8575SOL    HW237362   3.463   3.948   7.694  0.8998  1.6423  2.9619
 8576SOL     OW37363   4.147   0.040   3.787  0.1893 -0.1553  0.3876
 8576SOL    HW137364   4.197   4.720   3.728 -1.7108 -0.2706 -1.1306
 8576SOL    HW237365   4.217   0.055   3.850  1.5768 -0.3838 -1.1167
 8577SOL     OW37366   0.159   3.144   6.433  0.1656  0.3849  0.4034
 8577SOL    HW137367   0.234   3.189   6.395 -0.6616  0.6355 -0.9610
 8577SOL    HW237368   0.193   3.056   6.444 -3.4033 -0.7769  2.1902
 8578SOL     OW37369   3.250   4.325  11.479 -0.0497  0.0187  0.5902
 8578SOL    HW137370   3.326   4.368  11.518  0.6360 -1.1666  0.5471
 8578SOL    HW237371   3.294   4.259  11.425 -0.7200  0.3528 -0.3538
 8579SOL     OW37372   2.731   4.528   6.029  0.2209 -0.0677 -0.1773
 8579SOL    HW137373   2.659   4.499   5.973 -1.7212  2.2726  1.1457
 8579SOL    HW237374   2.795   4.463   6.000 -0.1091 -0.2618 -0.4704
 8580SOL     OW37375   1.150   4.111   4.742 -0.9643  0.2748  0.1203
 8580SOL    HW137376   1.095   4.152   4.810 -0.7941  0.1503  0.3323
 8580SOL    HW237377   1.129   4.018   4.743  0.1141  0.0406  0.5680
 8581SOL     OW37378   1.721   0.695   7.151  0.6684  0.1002  0.2061
 8581SOL    HW137379   1.793   0.726   7.206  0.7811 -0.7324  0.5362
 8581SOL    HW237380   1.653   0.758   7.173 -0.1574 -0.5014 -0.6232
 8582SOL     OW37381   3.778   2.847   3.571  0.4987 -0.6321 -0.3864
 8582SOL    HW137382   3.719   2.772   3.557  0.3466 -0.4779 -0.5610
 8582SOL    HW237383   3.840   2.828   3.501 -0.2770  4.4571 -2.4330
 8583SOL     OW37384   1.924   2.438   4.680  0.2675  0.2457 -0.1265
 8583SOL    HW137385   2.010   2.480   4.673  0.5195  0.2840  2.9776
 8583SOL    HW237386   1.851   2.498   4.664 -0.8200 -0.8547  0.6459
 8584SOL     OW37387   4.537   1.052   4.555  0.3131  0.1239 -0.0407
 8584SOL    HW137388   4.558   1.031   4.646  1.3599  1.3905  0.0197
 8584SOL    HW237389   4.617   1.100   4.533  0.7445  0.7920  2.9440
 8585SOL     OW37390   2.290   0.712  13.443 -0.1923  0.5112 -0.3510
 8585SOL    HW137391   2.237   0.786  13.473  0.2101 -0.2684  2.3534
 8585SOL    HW237392   2.220   0.664  13.399 -0.4672  0.8991 -0.3408
 8586SOL     OW37393   0.094   1.763   7.481  0.4580  0.1106  0.6962
 8586SOL    HW137394   0.101   1.670   7.461 -0.4766  0.1656  0.1228
 8586SOL    HW237395   0.098   1.791   7.390 -1.1132  0.5123  0.7486
 8587SOL     OW37396   0.581   1.652   0.709  0.1458 -0.2085  0.4492
 8587SOL    HW137397   0.624   1.712   0.770  1.7851 -0.4117 -0.5166
 8587SOL    HW237398   0.503   1.702   0.685 -1.9747 -2.0432  3.5496
 8588SOL     OW37399   0.168   3.392   6.686 -0.0884 -0.7927 -0.0457
 8588SOL    HW137400   0.110   3.316   6.682 -1.7262  0.4350  0.3437
 8588SOL    HW237401   0.126   3.432   6.762 -0.1884  0.7335 -0.9057
 8589SOL     OW37402   0.452   3.956  10.974  0.3614  0.0727 -0.2286
 8589SOL    HW137403   0.392   4.028  10.995 -1.2812 -1.0724 -1.0031
 8589SOL    HW237404   0.532   4.008  10.985  0.6891 -0.5037  0.1071
 8590SOL     OW37405   0.829   1.817  17.029 -0.0029 -0.0931 -0.1630
 8590SOL    HW137406   0.900   1.807  17.094  0.7397  0.2546 -0.9170
 8590SOL    HW237407   0.876   1.849  16.953  0.5487  0.6500  0.4899
 8591SOL     OW37408   0.499   1.039   6.013  0.4033 -0.2730 -0.3075
 8591SOL    HW137409   0.523   1.086   6.093 -2.0010 -1.1179  0.9144
 8591SOL    HW237410   0.586   1.005   5.994 -0.7555 -2.2925 -1.9921
 8592SOL     OW37411   3.395   0.845   0.111 -0.0679  0.4496 -0.5329
 8592SOL    HW137412   3.341   0.766   0.112  0.3662  0.1825  2.1743
 8592SOL    HW237413   3.472   0.808   0.154 -1.3477 -2.2747 -0.5866
 8593SOL     OW37414   0.929   0.645   5.709  0.1011  0.4154  0.7044
 8593SOL    HW137415   0.983   0.654   5.630  0.0394  1.1018  0.7329
 8593SOL    HW237416   0.922   0.551   5.721 -0.8658  0.3718 -0.1986
 8594SOL     OW37417   2.104   3.145  14.863 -0.0436 -0.1521  0.1134
 8594SOL    HW137418   2.141   3.230  14.841  1.1970 -1.6521 -3.6036
 8594SOL    HW237419   2.065   3.126  14.778 -1.7645 -0.8921  1.0637
 8595SOL     OW37420   3.597   0.473   4.209 -0.0076 -0.2785  0.3527
 8595SOL    HW137421   3.645   0.469   4.127  2.1089  0.5484  1.5435
 8595SOL    HW237422   3.627   0.390   4.247  1.1866 -1.3546 -2.9764
 8596SOL     OW37423   1.380   4.184   4.573 -0.4719 -0.3022  0.1335
 8596SOL    HW137424   1.355   4.172   4.482 -0.7761 -0.2300  0.2087
 8596SOL    HW237425   1.306   4.152   4.625 -0.2556 -0.4074  0.3780
 8597SOL     OW37426   0.246   1.045   1.660  0.0377 -0.0459 -0.3445
 8597SOL    HW137427   0.224   1.018   1.750  1.6683 -0.3551 -0.0454
 8597SOL    HW237428   0.199   1.128   1.657  0.1491  0.1340  2.3226
 8598SOL     OW37429   3.097   3.645   2.686 -0.0773  0.1398  0.0519
 8598SOL    HW137430   3.027   3.639   2.751 -0.9850  0.1462 -0.9243
 8598SOL    HW237431   3.054   3.635   2.602 -0.6611  0.7819  0.2754
 8599SOL     OW37432   2.487   3.616  13.289 -0.7452  0.2922  0.1688
 8599SOL    HW137433   2.572   3.655  13.269 -0.1124 -0.8464  0.6386
 8599SOL    HW237434   2.436   3.686  13.329  1.8616  2.0003  0.4675
 8600SOL     OW37435   0.678   2.290   7.465 -0.3879  0.0413  0.6584
 8600SOL    HW137436   0.762   2.258   7.433  0.4136  2.9269 -0.1375
 8600SOL    HW237437   0.708   2.330   7.547  0.9922 -1.7443  1.0225
 8601SOL     OW37438   1.986   1.672   5.647  0.2541  0.4517  0.1114
 8601SOL    HW137439   2.076   1.694   5.671  0.5801 -1.7641  0.8724
 8601SOL    HW237440   1.943   1.729   5.711  0.1127 -1.0769  1.3581
 8602SOL     OW37441   1.649   3.659  13.599 -0.5095 -0.0365  0.3808
 8602SOL    HW137442   1.561   3.649  13.633 -0.6721 -0.5932 -0.2122
 8602SOL    HW237443   1.653   3.748  13.563 -0.8265 -0.9330 -1.8820
 8603SOL     OW37444   2.502   2.310   1.540 -0.4777  0.4983  0.5128
 8603SOL    HW137445   2.429   2.273   1.491  0.2073  1.9685 -1.6183
 8603SOL    HW237446   2.523   2.390   1.492  2.5181 -0.9645 -0.6279
 8604SOL     OW37447   1.343   3.924   6.994 -0.2843  0.2934 -0.3177
 8604SOL    HW137448   1.432   3.959   6.997 -0.0492 -0.1023 -2.7260
 8604SOL    HW237449   1.283   3.999   6.986 -2.3113 -1.4692 -1.6531
 8605SOL     OW37450   1.473   4.256   8.652  1.0599  0.6987  0.3215
 8605SOL    HW137451   1.495   4.346   8.626 -2.4638  2.0329  2.0303
 8605SOL    HW237452   1.480   4.275   8.745  0.4495  0.5189  0.4027
 8606SOL     OW37453   3.406   0.467  14.906  0.2807 -0.1205  0.3746
 8606SOL    HW137454   3.444   0.475  14.819 -2.7605 -1.8014 -1.0949
 8606SOL    HW237455   3.474   0.414  14.949  0.7209  0.4059  0.3327
 8607SOL     OW37456   0.739   3.906   9.003  0.0516  0.7416 -0.0025
 8607SOL    HW137457   0.822   3.948   9.023  0.2623  1.6730 -2.7695
 8607SOL    HW237458   0.686   3.980   8.973 -0.3619  0.3377 -0.2842
 8608SOL     OW37459   2.547   2.001   1.745  0.1832  0.0150 -0.0468
 8608SOL    HW137460   2.629   2.035   1.782  0.5062  0.0075 -0.7713
 8608SOL    HW237461   2.492   2.079   1.747  0.3220  0.1294 -1.0576
 8609SOL     OW37462   1.591   2.684  15.296  0.2490 -0.4950 -0.1180
 8609SOL    HW137463   1.510   2.732  15.277  1.2137  0.4753 -1.7527
 8609SOL    HW237464   1.624   2.731  15.373  1.1053  0.7618 -1.2590
 8610SOL     OW37465   1.513   3.073  17.640  0.1752 -0.6713 -0.0882
 8610SOL    HW137466   1.457   3.084  17.562  1.6708  1.8215 -0.8054
 8610SOL    HW237467   1.444   3.068  17.706  0.3580 -1.3285  0.0493
 8611SOL     OW37468   3.814   0.812  11.905  0.4182  0.5222  0.0467
 8611SOL    HW137469   3.778   0.750  11.842  3.3184 -0.3862 -0.7128
 8611SOL    HW237470   3.904   0.783  11.917  0.5484  0.7248 -0.4397
 8612SOL     OW37471   3.143   3.310   4.519  0.1246  0.1625  0.0967
 8612SOL    HW137472   3.068   3.273   4.472  2.0771 -0.2811 -2.6996
 8612SOL    HW237473   3.191   3.343   4.443  1.3478  0.0708  0.8373
 8613SOL     OW37474   2.746   1.711   9.699 -0.2844 -0.3184  0.7269
 8613SOL    HW137475   2.763   1.693   9.791 -0.2551 -0.8961  0.6128
 8613SOL    HW237476   2.766   1.625   9.660 -0.8173 -0.9251  1.7899
 8614SOL     OW37477   0.520   1.786   5.314  0.1780 -0.3511 -0.2339
 8614SOL    HW137478   0.425   1.784   5.322  0.4521  0.9226  3.5852
 8614SOL    HW237479   0.531   1.854   5.247 -0.7642 -1.7520 -1.7963
 8615SOL     OW37480   1.768   2.824  14.223  0.1794  0.7963  0.2953
 8615SOL    HW137481   1.731   2.907  14.193  0.0954  1.0491  1.1030
 8615SOL    HW237482   1.793   2.795  14.135 -1.2673 -0.5620  0.3341
 8616SOL     OW37483   2.041   3.154   4.553 -0.9164  0.1887  0.0771
 8616SOL    HW137484   2.082   3.178   4.470 -0.5291  1.2770  0.5787
 8616SOL    HW237485   2.077   3.236   4.586 -0.2271  0.3120 -0.9757
 8617SOL     OW37486   4.702   1.071   7.178  1.0712 -0.7580 -0.7411
 8617SOL    HW137487   4.717   1.048   7.270  0.5770  4.1988  0.5488
 8617SOL    HW237488   4.611   1.041   7.170  0.9559 -0.8268  0.7110
 8618SOL     OW37489   2.378   3.600  15.123 -0.2895 -0.1307  0.0763
 8618SOL    HW137490   2.324   3.657  15.068 -1.3705 -1.5021 -0.2848
 8618SOL    HW237491   2.359   3.514  15.087 -2.3882  0.5627 -0.4855
 8619SOL     OW37492   4.268   2.373  12.264  0.2362  0.0119  0.3444
 8619SOL    HW137493   4.322   2.297  12.242  1.9296  0.7069  2.0492
 8619SOL    HW237494   4.245   2.355  12.355 -0.2251  1.4139  0.4924
 8620SOL     OW37495   1.126   2.330   2.118  0.1864  0.1091 -0.2340
 8620SOL    HW137496   1.203   2.330   2.062 -0.4692 -1.6977 -1.1299
 8620SOL    HW237497   1.155   2.391   2.187 -0.8615 -3.1288  3.1047
 8621SOL     OW37498   1.052   2.905   2.496 -0.3611 -0.4977 -0.3147
 8621SOL    HW137499   1.032   2.964   2.567  1.9195 -1.4095  1.0966
 8621SOL    HW237500   1.093   2.962   2.430 -0.0504 -2.3362 -1.7278
 8622SOL     OW37501   0.471   1.250   3.857  0.6395  0.7151 -0.2887
 8622SOL    HW137502   0.462   1.300   3.938  2.3329 -0.5199  0.6580
 8622SOL    HW237503   0.491   1.317   3.791  0.8027 -0.6865 -1.6643
 8623SOL     OW37504   2.251   3.175   3.547  0.4662  0.6442 -0.4006
 8623SOL    HW137505   2.329   3.193   3.494  1.6480  0.3219  1.2526
 8623SOL    HW237506   2.189   3.218   3.488  1.3055  1.7689 -0.4622
 8624SOL     OW37507   0.804   1.701   5.948 -0.3455  0.3433 -0.0965
 8624SOL    HW137508   0.883   1.657   5.979 -0.8100 -1.0728 -0.9105
 8624SOL    HW237509   0.831   1.765   5.881  1.7629  0.6057  1.0025
 8625SOL     OW37510   1.821   2.546  15.610 -0.1954  0.3798  0.2607
 8625SOL    HW137511   1.903   2.546  15.659 -0.3008  1.0437  0.4320
 8625SOL    HW237512   1.781   2.622  15.651 -0.7312  0.3322 -0.1668
 8626SOL     OW37513   2.446   1.926   2.969  0.4050 -0.2206  0.5557
 8626SOL    HW137514   2.476   1.838   2.946 -1.3984 -0.3571 -1.2230
 8626SOL    HW237515   2.474   1.937   3.060 -2.7287 -0.9768  1.6015
 8627SOL     OW37516   2.879   3.717   3.450  0.9905 -0.3179 -0.2912
 8627SOL    HW137517   2.856   3.631   3.413 -3.0559  0.5592  0.2431
 8627SOL    HW237518   2.874   3.776   3.375  1.0814  0.0405 -0.0145
 8628SOL     OW37519   2.922   2.105   4.702  0.0308 -0.4345  0.0001
 8628SOL    HW137520   2.862   2.115   4.776  0.5851  1.9078  0.1356
 8628SOL    HW237521   2.920   2.010   4.695  1.1088 -0.5397  1.1059
 8629SOL     OW37522   2.190   3.866   4.736 -0.2500 -0.0724 -0.5940
 8629SOL    HW137523   2.203   3.775   4.711  1.3877  0.6925 -2.5340
 8629SOL    HW237524   2.096   3.858   4.753 -0.8528 -0.3857 -4.1482
 8630SOL     OW37525   1.064   2.160  10.436 -0.1109 -0.1792 -0.3296
 8630SOL    HW137526   1.069   2.255  10.437  2.1229 -0.2803 -1.5936
 8630SOL    HW237527   1.069   2.141  10.530 -0.5660 -0.2746 -0.3219
 8631SOL     OW37528   4.179   3.546   5.370  0.0876 -0.2820 -0.1967
 8631SOL    HW137529   4.140   3.617   5.420 -2.2099  1.0201 -3.8472
 8631SOL    HW237530   4.266   3.545   5.409  1.4658  0.0029 -3.2952
 8632SOL     OW37531   1.328   3.940  12.998 -0.4519  0.3407  0.2294
 8632SOL    HW137532   1.256   3.948  13.059 -1.4433 -0.1060 -0.8813
 8632SOL    HW237533   1.350   4.030  12.972 -1.1803  0.7464  1.0149
 8633SOL     OW37534   0.827   0.478   2.084  0.8677  0.3967 -0.7882
 8633SOL    HW137535   0.793   0.410   2.026 -2.0160 -0.4106  1.8475
 8633SOL    HW237536   0.896   0.430   2.131  1.9788  2.4305 -0.3407
 8634SOL     OW37537   3.677   3.156   5.824 -0.9657  0.2560  0.8249
 8634SOL    HW137538   3.660   3.174   5.917  0.3900  0.3496  1.0541
 8634SOL    HW237539   3.757   3.203   5.800 -1.6087  0.0688 -1.6688
 8635SOL     OW37540   1.307   1.406   7.878 -0.3131 -0.0339  0.0635
 8635SOL    HW137541   1.275   1.321   7.910  0.5340 -0.2813  0.2635
 8635SOL    HW237542   1.398   1.392   7.903 -0.4235  1.8154  1.5123
 8636SOL     OW37543   1.088   1.813   7.254 -0.5630  0.0174  0.0617
 8636SOL    HW137544   1.001   1.836   7.284 -1.2749 -0.5806 -1.5507
 8636SOL    HW237545   1.072   1.722   7.229  1.2987  0.1465 -1.6785
 8637SOL     OW37546   1.217   2.923   5.416 -0.0099 -0.3301 -0.1398
 8637SOL    HW137547   1.298   2.873   5.414 -0.6350 -1.4294  1.6520
 8637SOL    HW237548   1.199   2.916   5.510  0.6371  2.5711  0.1826
 8638SOL     OW37549   1.865   0.460   8.205  0.6731  0.4346 -0.0387
 8638SOL    HW137550   1.824   0.546   8.209  1.3152  0.7630 -0.3909
 8638SOL    HW237551   1.881   0.464   8.110  0.1406 -1.2850 -0.1964
 8639SOL     OW37552   3.468   4.101   7.591  0.3706  0.1389  0.8036
 8639SOL    HW137553   3.401   4.163   7.618  1.6169  2.1659 -0.7392
 8639SOL    HW237554   3.543   4.160   7.601 -0.4326  1.5410 -1.5293
 8640SOL     OW37555   0.708   4.713   4.157  0.4100  0.0498 -0.3988
 8640SOL    HW137556   0.692   0.041   4.228  3.0282 -0.0189  0.2563
 8640SOL    HW237557   0.719   0.038   4.084  0.6741  0.2603 -0.1856
 8641SOL     OW37558   1.472   2.222   3.187  0.3295  0.3310  0.0623
 8641SOL    HW137559   1.507   2.136   3.166  0.5304  0.5770 -0.6228
 8641SOL    HW237560   1.454   2.208   3.280  3.9587 -0.0133  0.7252
 8642SOL     OW37561   3.154   0.684   0.044 -0.4929  0.2019  0.0192
 8642SOL    HW137562   3.136   0.765  17.734 -0.8787  1.0168  1.5404
 8642SOL    HW237563   3.086   0.624   0.013  1.2262 -1.9097  0.3349
 8643SOL     OW37564   3.783   1.899   1.230 -0.1104  0.0626  0.2725
 8643SOL    HW137565   3.784   1.962   1.302 -0.3364 -1.3095  1.4829
 8643SOL    HW237566   3.772   1.966   1.162 -3.2175  1.1237  1.7934
 8644SOL     OW37567   3.380   1.957   9.114  0.4152  0.6403  0.2086
 8644SOL    HW137568   3.319   2.026   9.088 -1.6206 -1.4782 -0.5862
 8644SOL    HW237569   3.329   1.883   9.080  1.5856 -1.3172  2.7146
 8645SOL     OW37570   3.857   3.660   2.886  0.3371 -0.2215  0.4162
 8645SOL    HW137571   3.850   3.608   2.966 -1.0140 -0.8056 -0.0798
 8645SOL    HW237572   3.939   3.621   2.858 -0.8907 -3.1700  0.9598
 8646SOL     OW37573   0.772   1.972   8.929  0.4868 -0.4475  0.6707
 8646SOL    HW137574   0.704   1.990   8.993 -1.7258 -3.0549 -0.9149
 8646SOL    HW237575   0.715   1.942   8.858  1.3931  0.7866 -0.5741
 8647SOL     OW37576   1.652   3.354   3.362 -0.2012  0.1680  0.2205
 8647SOL    HW137577   1.604   3.355   3.445  0.1022  2.0777  0.3672
 8647SOL    HW237578   1.597   3.411   3.309  0.5275  0.5183 -0.1517
 8648SOL     OW37579   3.034   4.062   4.262 -0.7229 -0.3870  0.4842
 8648SOL    HW137580   2.945   4.033   4.279 -0.7706  0.7681  2.2522
 8648SOL    HW237581   3.033   4.149   4.302 -0.9107  0.4174 -1.2444
 8649SOL     OW37582   2.994   1.315   4.850  0.0282  0.1316  0.1366
 8649SOL    HW137583   2.935   1.253   4.893  1.5057 -0.2940  1.5570
 8649SOL    HW237584   2.995   1.276   4.762  0.9218  0.1592  0.1297
 8650SOL     OW37585   0.060   4.499  15.862 -0.5017  0.0969  0.4489
 8650SOL    HW137586   0.083   4.470  15.951 -0.8418  1.6139  1.0228
 8650SOL    HW237587   4.720   4.441  15.848 -1.8203  1.7586  0.6971
 8651SOL     OW37588   0.936   2.675   5.280  0.2014  0.2118  0.6834
 8651SOL    HW137589   0.963   2.764   5.259  0.9383 -0.1899 -0.0805
 8651SOL    HW237590   0.846   2.682   5.250  0.4183 -0.3629 -0.0989
 8652SOL     OW37591   3.843   0.152   8.724  0.1816 -0.0985  0.3489
 8652SOL    HW137592   3.885   0.120   8.803  1.0615 -0.6228 -0.3253
 8652SOL    HW237593   3.757   0.111   8.733  1.1065 -2.2467 -0.5115
 8653SOL     OW37594   0.872   1.992   8.162 -0.4829  0.5645  0.2316
 8653SOL    HW137595   0.840   1.948   8.240 -1.5789 -1.5043 -1.3996
 8653SOL    HW237596   0.862   1.917   8.104 -0.0486 -0.0567  0.9655
 8654SOL     OW37597   4.416   3.672   1.999 -0.0676  0.4381  0.3726
 8654SOL    HW137598   4.328   3.643   2.025 -0.0862 -1.0219 -1.3344
 8654SOL    HW237599   4.397   3.733   1.928  2.7696 -0.8994 -1.4884
 8655SOL     OW37600   3.414   0.685   4.421  0.1923 -0.3828 -0.3261
 8655SOL    HW137601   3.398   0.775   4.394  1.1650  0.2879  1.3678
 8655SOL    HW237602   3.326   0.666   4.454 -0.0674 -0.0064 -0.8032
 8656SOL     OW37603   0.414   4.048   7.438 -0.4045  0.0511 -0.2019
 8656SOL    HW137604   0.336   4.090   7.475 -0.6901  1.4916 -2.3756
 8656SOL    HW237605   0.434   4.109   7.367 -0.8074 -1.3033 -1.4899
 8657SOL     OW37606   3.273   2.421   8.259 -0.1028 -0.0263 -0.2144
 8657SOL    HW137607   3.356   2.387   8.226 -1.1082 -0.5925 -2.1892
 8657SOL    HW237608   3.297   2.469   8.338  0.1354  0.3803 -0.5328
 8658SOL     OW37609   3.978   4.368   3.399 -0.2769 -0.0462  0.4401
 8658SOL    HW137610   3.886   4.358   3.421 -0.9918  0.6538 -2.2744
 8658SOL    HW237611   4.016   4.305   3.460 -1.1276 -1.8940 -0.9508
 8659SOL     OW37612   3.761   0.955   6.170  0.1248 -0.6829  0.1876
 8659SOL    HW137613   3.841   0.906   6.189 -0.0701 -1.3538 -0.7510
 8659SOL    HW237614   3.698   0.884   6.181  0.8781 -1.2811  0.6451
 8660SOL     OW37615   3.242   0.152   8.673  0.2266 -0.1227 -0.0256
 8660SOL    HW137616   3.166   0.095   8.685  0.1416  0.0202  0.1031
 8660SOL    HW237617   3.306   0.089   8.639  1.1027 -0.8861  3.0960
 8661SOL     OW37618   2.332   3.052  15.026  0.0118 -0.0991 -0.0365
 8661SOL    HW137619   2.344   2.993  14.952 -1.4457  0.7497 -0.9520
 8661SOL    HW237620   2.236   3.057  15.025  0.0745  1.2957  1.3077
 8662SOL     OW37621   2.439   3.815   1.850  0.2886 -0.6227 -0.3056
 8662SOL    HW137622   2.355   3.857   1.834 -0.5152 -1.5106  1.4883
 8662SOL    HW237623   2.398   3.754   1.912  0.2351 -2.0788 -1.7720
 8663SOL     OW37624   3.706   3.083   3.683 -0.7534  0.1521 -1.0755
 8663SOL    HW137625   3.652   3.092   3.605  0.9858 -0.2606 -2.3404
 8663SOL    HW237626   3.728   2.990   3.675  2.7708  0.8284  0.4239
 8664SOL     OW37627   3.299   3.353  14.841  0.1950  0.1409  0.2564
 8664SOL    HW137628   3.208   3.349  14.812 -0.3067  0.4763  1.8235
 8664SOL    HW237629   3.300   3.275  14.897 -0.4301 -0.1172 -0.0839
 8665SOL     OW37630   1.602   3.103  16.148  0.3102  0.1099  0.8028
 8665SOL    HW137631   1.565   3.151  16.223  0.3074  2.3527 -0.6333
 8665SOL    HW237632   1.677   3.159  16.128 -0.6149  1.1267  0.1923
 8666SOL     OW37633   2.061   0.105  14.861 -0.6562  0.3192 -0.4478
 8666SOL    HW137634   2.073   0.034  14.797 -0.9457  0.5090 -0.7071
 8666SOL    HW237635   2.151   0.107  14.896 -0.7741 -0.0297 -0.1246
 8667SOL     OW37636   3.171   0.398   6.819 -0.1509 -0.0047  0.0214
 8667SOL    HW137637   3.151   0.317   6.867  0.7403 -0.4532 -0.3732
 8667SOL    HW237638   3.126   0.464   6.873 -0.4314  0.9297 -1.3643
 8668SOL     OW37639   0.252   4.181   1.767 -0.0909  0.2836  0.5476
 8668SOL    HW137640   0.230   4.124   1.840 -0.4913 -2.2499 -1.5247
 8668SOL    HW237641   0.229   4.267   1.800 -1.2293  0.5521 -0.9125
 8669SOL     OW37642   2.092   3.265  14.488 -0.2982  0.2881 -0.0683
 8669SOL    HW137643   2.049   3.278  14.404  0.9606  1.7289 -0.4825
 8669SOL    HW237644   2.049   3.183  14.513 -1.2062  0.3626 -1.3849
 8670SOL     OW37645   0.502   1.156   0.383  0.2554  0.3291  0.3482
 8670SOL    HW137646   0.430   1.174   0.322 -0.4542  0.6290  1.2880
 8670SOL    HW237647   0.555   1.088   0.340  1.2456  1.4400 -0.1880
 8671SOL     OW37648   2.429   4.458   9.748 -0.2163 -0.5201  0.4252
 8671SOL    HW137649   2.346   4.444   9.793 -0.6050  0.6079  0.0445
 8671SOL    HW237650   2.441   4.369   9.714 -0.4646  0.9740 -3.5475
 8672SOL     OW37651   3.744   0.038   0.158  0.5141  0.2610 -0.0621
 8672SOL    HW137652   3.792   0.019   0.238 -1.9551  0.2142  1.4013
 8672SOL    HW237653   3.796   0.110   0.121 -2.3875  0.7439 -3.2791
 8673SOL     OW37654   0.104   0.005   8.189 -0.3000 -0.4073  0.1903
 8673SOL    HW137655   0.073   0.046   8.269 -0.8379  1.1533 -0.8275
 8673SOL    HW237656   0.146   0.078   8.143  1.1176 -0.1785  1.8739
 8674SOL     OW37657   1.035   3.564  13.867  0.0415 -0.2704 -0.0238
 8674SOL    HW137658   0.955   3.524  13.833  0.9267 -2.2998  0.2831
 8674SOL    HW237659   1.011   3.656  13.853  1.1958  0.1820  1.0423
 8675SOL     OW37660   2.689   4.380   8.760 -0.2117  0.2120  0.2541
 8675SOL    HW137661   2.612   4.324   8.751  0.1667 -0.2018 -0.4750
 8675SOL    HW237662   2.675   4.408   8.850  1.9780  0.6946  0.4512
 8676SOL     OW37663   3.181   1.734  13.498  0.4095  0.1535 -0.5062
 8676SOL    HW137664   3.143   1.687  13.572  1.8915 -0.2555  0.0060
 8676SOL    HW237665   3.197   1.824  13.528  0.8824  0.2115 -0.9343
 8677SOL     OW37666   3.370   1.651   9.747  0.7476 -0.4358  0.0126
 8677SOL    HW137667   3.353   1.593   9.822  1.2160 -0.5778  0.0056
 8677SOL    HW237668   3.464   1.637   9.741  0.6097  0.3828 -4.0079
 8678SOL     OW37669   3.964   2.364   7.767  0.4527  0.0094 -0.3239
 8678SOL    HW137670   4.001   2.429   7.707  2.9578  0.5946  1.8685
 8678SOL    HW237671   4.032   2.355   7.833 -1.9081  0.2357  2.1429
 8679SOL     OW37672   2.869   0.244  13.564 -0.0012  0.1589  0.5040
 8679SOL    HW137673   2.843   0.172  13.623  0.6258 -0.5888 -0.1391
 8679SOL    HW237674   2.816   0.321  13.586  1.1016  0.4235  2.2994
 8680SOL     OW37675   2.275   2.773   3.341  0.2562 -0.2886 -1.0911
 8680SOL    HW137676   2.364   2.760   3.373 -1.2340  0.7055  3.6182
 8680SOL    HW237677   2.230   2.724   3.411 -1.6888  2.2631 -0.5363
 8681SOL     OW37678   3.350   2.462  16.093 -0.1123  0.2149 -0.8215
 8681SOL    HW137679   3.288   2.390  16.102  1.0507 -0.8560 -1.4244
 8681SOL    HW237680   3.324   2.507  16.013 -0.3596  2.0944  0.3097
 8682SOL     OW37681   4.066   1.587   7.058 -0.8279  0.4942  0.2607
 8682SOL    HW137682   4.135   1.621   7.001  1.7275 -1.7827  1.9739
 8682SOL    HW237683   4.109   1.511   7.098  0.6973  1.2392  0.0409
 8683SOL     OW37684   1.342   0.938   9.355 -0.5814 -0.0038 -0.5120
 8683SOL    HW137685   1.434   0.941   9.382 -0.8567  0.8939  0.3460
 8683SOL    HW237686   1.337   1.008   9.290 -0.9449 -0.5681 -1.0953
 8684SOL     OW37687   3.001   1.959   1.101 -0.0563 -0.3603  0.2252
 8684SOL    HW137688   2.991   1.864   1.106  0.5424 -0.3037  2.5678
 8684SOL    HW237689   3.081   1.973   1.153 -0.9662  1.8216  1.0676
 8685SOL     OW37690   2.347   3.343   0.706  0.1234 -0.5827  0.2212
 8685SOL    HW137691   2.422   3.352   0.765 -0.0180  0.0774  0.2957
 8685SOL    HW237692   2.385   3.276   0.649  0.1453 -0.6125  0.2701
 8686SOL     OW37693   1.642   0.329   4.985  0.7372 -0.3422 -0.1393
 8686SOL    HW137694   1.579   0.399   5.004  0.5405 -0.7311  0.6302
 8686SOL    HW237695   1.690   0.321   5.067  1.2729  1.2807 -0.2983
 8687SOL     OW37696   0.339   0.958   8.863 -0.1547 -0.6354 -0.0468
 8687SOL    HW137697   0.296   1.016   8.800 -1.2391 -1.2256  0.1611
 8687SOL    HW237698   0.392   1.022   8.911  0.9848 -1.2943 -0.4239
 8688SOL     OW37699   3.903   0.406   6.947  0.3172  0.5491  0.2504
 8688SOL    HW137700   3.937   0.490   6.915 -0.4755  1.2237  1.1672
 8688SOL    HW237701   3.899   0.423   7.041 -1.4633 -1.4458  0.5279
 8689SOL     OW37702   4.648   3.166   3.194  0.1256 -0.3244  0.1454
 8689SOL    HW137703   4.685   3.153   3.281 -3.2495 -1.8966  1.3722
 8689SOL    HW237704   4.650   3.079   3.153 -2.0207  0.0835 -0.8213
 8690SOL     OW37705   2.669   3.778   2.458 -0.1144  0.5488 -0.0492
 8690SOL    HW137706   2.584   3.812   2.430 -0.4158  0.3323  0.6117
 8690SOL    HW237707   2.719   3.855   2.485  0.1710  0.5675 -0.6274
 8691SOL     OW37708   2.987   4.528   2.689 -0.0096 -0.4622 -0.5272
 8691SOL    HW137709   2.993   4.516   2.594 -2.5930 -1.3553 -0.5749
 8691SOL    HW237710   2.962   4.620   2.699  2.4730  0.1062  0.5175
 8692SOL     OW37711   4.454   4.119   4.647 -0.1463  0.1522  0.1480
 8692SOL    HW137712   4.439   4.119   4.552  1.5179 -0.4592 -0.1239
 8692SOL    HW237713   4.414   4.040   4.683  0.8319 -0.1337  0.6141
 8693SOL     OW37714   1.610   0.357  12.459 -0.4113 -0.7862 -0.3570
 8693SOL    HW137715   1.603   0.330  12.367  1.2738 -3.3200  0.2693
 8693SOL    HW237716   1.610   0.270  12.499  1.4699 -1.2016 -1.2479
 8694SOL     OW37717   0.103   3.573   6.212  0.2658 -0.4020  0.0413
 8694SOL    HW137718   0.075   3.504   6.273  0.1014 -0.1863  0.2119
 8694SOL    HW237719   0.058   3.651   6.243 -0.8358 -1.9451  2.3410
 8695SOL     OW37720   1.122   4.677   4.116  0.4698 -1.0293  0.3398
 8695SOL    HW137721   1.057   4.648   4.180 -0.6125 -0.3132 -0.4391
 8695SOL    HW237722   1.108   0.037   4.117  3.0545 -0.6018 -3.3386
 8696SOL     OW37723   2.012   0.184   9.127  0.0907  0.2806 -0.3985
 8696SOL    HW137724   2.038   0.248   9.193  1.7319 -0.1859 -0.5737
 8696SOL    HW237725   1.924   0.161   9.157  0.6681 -0.2194  0.8961
 8697SOL     OW37726   2.359   4.297  17.009 -0.2392 -0.3646  0.2801
 8697SOL    HW137727   2.279   4.332  16.970 -0.9944 -1.4631  0.8502
 8697SOL    HW237728   2.316   4.230  17.063  0.5937  0.3799  1.8865
 8698SOL     OW37729   1.045   4.278   2.956 -0.2220  0.1338 -0.2590
 8698SOL    HW137730   1.044   4.348   3.023 -1.4965  1.3658 -1.5761
 8698SOL    HW237731   0.954   4.261   2.935  0.1639 -1.8672 -0.3272
 8699SOL     OW37732   0.637   2.722   3.834 -0.3679 -0.1503 -0.3620
 8699SOL    HW137733   0.669   2.803   3.794  2.6001 -1.2861 -0.2589
 8699SOL    HW237734   0.613   2.768   3.915 -2.2244 -0.7496 -0.5670
 8700SOL     OW37735   0.502   4.531  15.921 -0.6737 -0.2299  0.2937
 8700SOL    HW137736   0.419   4.549  15.967  1.4362  1.4675  3.4092
 8700SOL    HW237737   0.562   4.508  15.992 -0.9879  0.7614  0.8752
 8701SOL     OW37738   1.518   4.475  16.852  0.3896 -0.1683  0.7577
 8701SOL    HW137739   1.531   4.540  16.783  2.7861 -1.3664  0.0817
 8701SOL    HW237740   1.604   4.433  16.858  0.1249 -0.9728 -0.8839
 8702SOL     OW37741   2.955   2.280   3.088  0.1908  0.0194 -0.2302
 8702SOL    HW137742   2.871   2.296   3.043  0.0385 -0.9294 -0.2823
 8702SOL    HW237743   2.960   2.360   3.142  0.0895 -0.8103  1.0001
 8703SOL     OW37744   3.663   2.446  12.890 -0.4661  0.1712 -0.4300
 8703SOL    HW137745   3.745   2.401  12.867 -0.5087 -0.4697  0.6300
 8703SOL    HW237746   3.703   2.526  12.924 -0.1160  0.2189 -0.9655
 8704SOL     OW37747   4.474   2.979  12.677 -0.0996 -0.3262 -0.1265
 8704SOL    HW137748   4.479   3.034  12.599 -0.9350 -2.9447 -2.0062
 8704SOL    HW237749   4.568   2.976  12.695  0.2198 -0.9965 -1.9688
 8705SOL     OW37750   3.559   2.039   2.679  0.4242 -0.0710 -0.1655
 8705SOL    HW137751   3.485   2.088   2.714 -0.0584 -0.2847 -0.8837
 8705SOL    HW237752   3.617   2.034   2.755  0.0104  2.1176  0.2882
 8706SOL     OW37753   3.134   1.612   2.409 -0.0776  0.5363 -0.2491
 8706SOL    HW137754   3.195   1.672   2.366  1.8912 -1.4519 -0.2247
 8706SOL    HW237755   3.122   1.547   2.339  0.0715  0.2777 -0.0343
 8707SOL     OW37756   0.395   1.895   3.735  0.2638 -0.2472  0.7459
 8707SOL    HW137757   0.393   1.981   3.694 -1.5318 -1.2947 -1.3718
 8707SOL    HW237758   0.363   1.838   3.664  1.2395  0.3469 -0.1835
 8708SOL     OW37759   1.828   2.226   7.406 -0.1468 -0.4552  0.6041
 8708SOL    HW137760   1.910   2.269   7.430  0.6840 -0.6240 -1.9683
 8708SOL    HW237761   1.855   2.176   7.329  0.2709  2.9736 -1.4557
 8709SOL     OW37762   0.476   4.640  12.055  0.0348  0.3018  0.5374
 8709SOL    HW137763   0.398   4.618  12.004 -0.7546  3.9349  0.1792
 8709SOL    HW237764   0.453   4.608  12.142 -0.7887 -0.5965 -0.0118
 8710SOL     OW37765   1.606   2.049   1.886 -0.0909  0.0895 -0.4100
 8710SOL    HW137766   1.652   2.110   1.944  0.0557  0.5098 -0.9681
 8710SOL    HW237767   1.630   1.966   1.926 -1.1173  0.4454  0.9368
 8711SOL     OW37768   1.498   3.415   4.053  0.4614  0.0691  0.1437
 8711SOL    HW137769   1.467   3.399   3.965 -0.1103 -1.6166  0.6609
 8711SOL    HW237770   1.440   3.360   4.106 -1.3887 -0.0675 -2.0367
 8712SOL     OW37771   0.844   1.744   1.784  0.2398  0.3182 -0.3291
 8712SOL    HW137772   0.810   1.713   1.700 -0.1989  0.3458 -0.1639
 8712SOL    HW237773   0.804   1.681   1.845  0.5061  0.2975 -0.1780
 8713SOL     OW37774   3.021   2.393   8.204 -0.1963 -0.6011 -0.0329
 8713SOL    HW137775   3.116   2.397   8.207 -0.2897  2.0063 -1.0188
 8713SOL    HW237776   3.004   2.333   8.132 -1.4186 -2.1519  1.5140
 8714SOL     OW37777   0.010   4.385   5.699 -0.4654 -0.3299  0.5380
 8714SOL    HW137778   4.700   4.450   5.753  1.1863  0.5248  0.8852
 8714SOL    HW237779   4.682   4.383   5.627 -0.4907 -1.5777  0.5987
 8715SOL     OW37780   0.651   3.653  11.625  0.1437  0.2950 -0.5470
 8715SOL    HW137781   0.648   3.747  11.606 -0.3407  0.4066  0.0583
 8715SOL    HW237782   0.695   3.617  11.548 -2.0369  1.7933 -2.4932
 8716SOL     OW37783   3.232   4.074  12.714 -0.0538  0.1691 -0.1388
 8716SOL    HW137784   3.160   4.010  12.720  1.5234 -1.5904 -0.0097
 8716SOL    HW237785   3.273   4.046  12.632  1.1091  1.6691 -0.0602
 8717SOL     OW37786   0.028   4.282   1.566 -0.5664 -0.2495  0.1706
 8717SOL    HW137787   4.691   4.325   1.520 -1.0466 -1.6490 -0.3519
 8717SOL    HW237788   0.020   4.326   1.651  0.6084 -1.5405  0.9491
 8718SOL     OW37789   4.078   3.511   7.442  0.2866  0.4030 -0.0220
 8718SOL    HW137790   4.173   3.505   7.451  0.4539  0.0748 -2.1218
 8718SOL    HW237791   4.061   3.586   7.386 -2.1508  1.3240  1.9398
 8719SOL     OW37792   1.408   3.472   6.981  0.2626 -0.1615 -0.2026
 8719SOL    HW137793   1.480   3.420   7.016  1.4710  1.2441 -0.5789
 8719SOL    HW237794   1.354   3.501   7.055 -0.9675 -3.4276  0.1613
 8720SOL     OW37795   3.857   0.324   2.592 -0.0662 -0.1341 -0.7859
 8720SOL    HW137796   3.902   0.352   2.513 -0.0505  2.1924  0.0486
 8720SOL    HW237797   3.767   0.317   2.561 -1.3214  3.5260  1.9187
 8721SOL     OW37798   2.914   4.550   2.146  0.5800  0.5374 -0.1181
 8721SOL    HW137799   2.927   4.456   2.158  2.8681  0.8003 -0.5360
 8721SOL    HW237800   2.981   4.564   2.079 -0.7068  2.3322 -1.0409
 8722SOL     OW37801   2.534   2.725   3.446 -0.1997  0.3126  0.4139
 8722SOL    HW137802   2.567   2.667   3.515  1.2479 -1.3657 -1.7102
 8722SOL    HW237803   2.575   2.699   3.364  0.1246 -1.5116  1.1587
 8723SOL     OW37804   2.708   1.513  15.820 -0.2777  0.3008 -0.8983
 8723SOL    HW137805   2.619   1.493  15.849  0.3477 -0.9085  0.2168
 8723SOL    HW237806   2.710   1.476  15.731 -0.8472 -0.7017 -0.4922
 8724SOL     OW37807   4.576   2.441   5.894 -0.2136  0.0592  0.1541
 8724SOL    HW137808   4.485   2.470   5.903  0.0399  0.3486  1.8337
 8724SOL    HW237809   4.594   2.452   5.801  1.1495  0.0136  0.4200
 8725SOL     OW37810   0.726   3.171   3.424  0.2858  0.2427 -0.1328
 8725SOL    HW137811   0.755   3.103   3.363  1.0697  0.8476 -0.4230
 8725SOL    HW237812   0.646   3.202   3.382 -0.5040 -2.1481 -0.4241
 8726SOL     OW37813   0.855   4.669   6.350  0.4360 -0.3423  0.1340
 8726SOL    HW137814   0.908   4.707   6.280  0.8129  0.3753  0.7929
 8726SOL    HW237815   0.771   4.715   6.351  0.7148  0.2103 -2.7335
 8727SOL     OW37816   2.631   0.354  11.037 -0.4865 -0.2177 -0.0359
 8727SOL    HW137817   2.657   0.281  11.093 -1.2663 -0.2382  0.3001
 8727SOL    HW237818   2.719   0.378  11.008 -0.2890  0.3471  1.0273
 8728SOL     OW37819   2.155   4.410   6.940 -0.5339 -0.2522  0.0196
 8728SOL    HW137820   2.079   4.453   6.902  0.6361  2.7111  1.0082
 8728SOL    HW237821   2.115   4.337   6.987  1.5676 -1.3937  0.0455
 8729SOL     OW37822   1.364   3.301   7.297 -0.8769 -0.3693 -0.5328
 8729SOL    HW137823   1.318   3.350   7.229 -2.8532 -1.2395  0.1869
 8729SOL    HW237824   1.342   3.215   7.261 -0.2878  0.5554 -3.1566
 8730SOL     OW37825   0.825   0.995   6.046 -0.4317  0.3239 -0.3379
 8730SOL    HW137826   0.852   1.032   5.963  0.3311 -0.7748 -0.5714
 8730SOL    HW237827   0.820   0.903   6.020  0.2664  0.1497  0.1393
 8731SOL     OW37828   3.543   2.109   8.084  0.1502 -0.2956 -0.2752
 8731SOL    HW137829   3.503   2.193   8.062  0.8537  0.1509  0.1528
 8731SOL    HW237830   3.608   2.100   8.014  0.0416  0.4028 -0.4646
 8732SOL     OW37831   1.403   3.036  11.439  1.0306 -0.0151 -0.2918
 8732SOL    HW137832   1.462   3.111  11.446  0.3685  0.6350 -1.5795
 8732SOL    HW237833   1.461   2.983  11.493  0.0665 -0.0693  0.6807
 8733SOL     OW37834   0.262   2.502  12.212  0.0804 -0.4208 -0.1566
 8733SOL    HW137835   0.230   2.437  12.275  1.0468 -0.5667  0.1758
 8733SOL    HW237836   0.347   2.462  12.191  0.2407  0.8805 -1.9850
 8734SOL     OW37837   0.249   4.472   6.114  0.2352 -0.7059  0.3888
 8734SOL    HW137838   0.273   4.489   6.023 -1.2507  2.2708  0.5422
 8734SOL    HW237839   0.237   4.562   6.143  0.7462 -0.9544  1.3782
 8735SOL     OW37840   4.127   2.878   5.008  0.0976 -0.1391  0.5910
 8735SOL    HW137841   4.066   2.804   5.006 -2.0100  1.5951  0.6637
 8735SOL    HW237842   4.100   2.919   4.926 -0.1294  0.0798  0.7778
 8736SOL     OW37843   0.027   0.111   5.511 -0.0177 -0.1124  0.3379
 8736SOL    HW137844   4.680   0.079   5.549  0.4186 -1.8203 -0.1555
 8736SOL    HW237845   0.014   0.084   5.420  0.8742 -0.0329  0.1887
 8737SOL     OW37846   3.591   2.666   0.810 -0.1193  0.2826 -0.2270
 8737SOL    HW137847   3.584   2.736   0.875  1.0810  1.2222 -1.1015
 8737SOL    HW237848   3.513   2.615   0.829  1.5478 -1.5223  1.8657
 8738SOL     OW37849   0.019   4.428   2.771 -0.2270  0.2184  0.5407
 8738SOL    HW137850   4.694   4.373   2.822  0.6860 -0.7643  0.5496
 8738SOL    HW237851   4.690   4.495   2.746 -0.4549 -0.8107 -1.6513
 8739SOL     OW37852   2.922   1.064   1.667 -0.4216 -0.4908 -0.0900
 8739SOL    HW137853   2.905   1.153   1.636  1.9058  0.5952  1.7392
 8739SOL    HW237854   2.927   1.012   1.587 -0.3394 -0.0070 -0.4031
 8740SOL     OW37855   3.860   2.500  16.536  0.3255  0.4609  0.3536
 8740SOL    HW137856   3.804   2.536  16.606 -0.7129  1.0550 -0.7862
 8740SOL    HW237857   3.837   2.551  16.459 -0.8027  1.2631  1.2105
 8741SOL     OW37858   2.226   3.330   7.403 -0.2999  0.0838 -0.4421
 8741SOL    HW137859   2.215   3.355   7.311 -0.4889 -1.4643 -0.8512
 8741SOL    HW237860   2.137   3.342   7.437 -0.4056 -0.3637 -0.5495
 8742SOL     OW37861   3.586   2.409  13.258 -0.3344 -0.0148  0.4346
 8742SOL    HW137862   3.604   2.453  13.175 -0.7849  1.1267  0.9372
 8742SOL    HW237863   3.628   2.473  13.317  2.9585 -0.9147 -0.9013
 8743SOL     OW37864   2.198   1.264   7.881 -0.6050 -0.4226  0.5128
 8743SOL    HW137865   2.156   1.323   7.818 -0.0278 -1.4937 -0.8746
 8743SOL    HW237866   2.146   1.184   7.869 -1.0272 -0.4490  2.5147
 8744SOL     OW37867   1.840   3.170   3.598  0.1311 -0.0425  0.5114
 8744SOL    HW137868   1.756   3.200   3.563  0.2772  1.8108  1.7250
 8744SOL    HW237869   1.882   3.139   3.518 -0.9446 -0.2055  0.0111
 8745SOL     OW37870   1.387   2.372   1.321  0.1287  0.0578  0.5292
 8745SOL    HW137871   1.422   2.357   1.233  0.8316  1.0000  0.6516
 8745SOL    HW237872   1.343   2.289   1.340 -1.6868  0.6194 -1.2328
 8746SOL     OW37873   3.947   2.060   2.545  0.5475  0.0443 -0.2225
 8746SOL    HW137874   3.936   1.982   2.491  2.1863 -0.8470  0.7227
 8746SOL    HW237875   3.900   2.127   2.496 -0.0862 -0.8627 -0.8412
 8747SOL     OW37876   3.786   3.100   7.599 -0.2522 -0.0090  0.2787
 8747SOL    HW137877   3.805   3.099   7.505 -0.8208 -0.2363  0.1663
 8747SOL    HW237878   3.875   3.088   7.634  0.2352 -1.2485 -1.3502
 8748SOL     OW37879   0.253   0.035   6.950  0.2736 -0.0736 -0.3704
 8748SOL    HW137880   0.211   0.119   6.931 -1.9133 -1.2475 -0.7504
 8748SOL    HW237881   0.260   4.721   6.868 -0.2666  1.1269 -1.1345
 8749SOL     OW37882   0.273   4.070   0.614 -0.4622  0.0833 -0.1193
 8749SOL    HW137883   0.353   4.019   0.602  0.7390  1.7517  0.6052
 8749SOL    HW237884   0.244   4.023   0.692 -1.4152 -2.4893 -2.0407
 8750SOL     OW37885   3.856   4.316   6.794  0.0014  0.4771 -0.5354
 8750SOL    HW137886   3.827   4.324   6.885 -1.0135 -0.9306 -0.7358
 8750SOL    HW237887   3.813   4.234   6.769 -2.2096  2.4797 -3.3523
 8751SOL     OW37888   2.986   2.982   8.906  0.5254 -0.6404 -0.0134
 8751SOL    HW137889   2.997   2.994   9.000  0.0701  2.1367 -0.3171
 8751SOL    HW237890   2.931   2.904   8.896 -0.3295  0.2943 -2.7102
 8752SOL     OW37891   3.634   3.438  12.366 -0.4016 -0.3212  0.4687
 8752SOL    HW137892   3.590   3.375  12.424 -0.3276 -0.0282  0.8442
 8752SOL    HW237893   3.725   3.412  12.381  0.6796  1.8602 -2.4070
 8753SOL     OW37894   4.050   3.060   6.958 -0.0281 -0.3845  0.2394
 8753SOL    HW137895   4.036   3.043   6.865  2.3534  2.8485 -0.7041
 8753SOL    HW237896   4.097   2.980   6.980  1.3362  0.4173  0.1983
 8754SOL     OW37897   4.528   0.648   4.883  0.2322  0.8101  0.6998
 8754SOL    HW137898   4.511   0.608   4.797  1.5338  1.2500  0.2291
 8754SOL    HW237899   4.515   0.569   4.934  0.6894 -0.5072 -1.2039
 8755SOL     OW37900   1.035   3.984   0.837 -0.2804 -0.1728  0.1022
 8755SOL    HW137901   1.083   3.992   0.919 -1.8934 -0.3451  1.0601
 8755SOL    HW237902   1.045   3.891   0.816  0.9103 -0.0718  0.2428
 8756SOL     OW37903   1.465   3.635  17.066 -0.8390 -0.2228 -0.1404
 8756SOL    HW137904   1.384   3.656  17.112 -0.6284 -1.2686  0.7272
 8756SOL    HW237905   1.521   3.712  17.076  1.2133 -1.4716 -2.0171
 8757SOL     OW37906   2.628   2.290   5.852 -0.5331  0.7319  0.7047
 8757SOL    HW137907   2.618   2.373   5.806  2.2008 -0.2465 -1.6815
 8757SOL    HW237908   2.573   2.236   5.794  1.4656 -0.0371 -0.4750
 8758SOL     OW37909   3.450   2.301   5.397  0.3042 -0.5527  0.0983
 8758SOL    HW137910   3.412   2.215   5.415 -2.1910  0.0086 -2.4447
 8758SOL    HW237911   3.370   2.344   5.367  1.2990  1.2125 -0.0560
 8759SOL     OW37912   1.443   1.643  14.411  0.2081 -0.3612  0.1660
 8759SOL    HW137913   1.431   1.548  14.402  2.4309 -0.8255  1.9016
 8759SOL    HW237914   1.480   1.666  14.326 -0.8158  0.8487  0.0676
 8760SOL     OW37915   2.936   2.587   7.392 -0.2818 -0.0123 -0.1798
 8760SOL    HW137916   2.923   2.682   7.383  0.6510 -0.0754 -2.1149
 8760SOL    HW237917   2.849   2.550   7.402  0.0938 -1.3594 -1.8297
 8761SOL     OW37918   2.679   1.552  16.468 -0.1311  0.7444  0.1881
 8761SOL    HW137919   2.672   1.490  16.541  1.1736 -0.5510 -0.7791
 8761SOL    HW237920   2.766   1.591  16.474  0.1476  0.3171 -1.1637
 8762SOL     OW37921   3.450   3.098   8.268  0.2702  0.2179 -0.2509
 8762SOL    HW137922   3.492   3.181   8.247  1.1663  0.1256  1.2152
 8762SOL    HW237923   3.394   3.082   8.192  0.8709 -1.9350 -0.2488
 8763SOL     OW37924   1.244   2.060   5.894  0.3457  0.8910 -0.0647
 8763SOL    HW137925   1.218   2.052   5.802 -2.1493  0.3651  0.6984
 8763SOL    HW237926   1.330   2.019   5.901  0.9333  1.8686 -1.5635
 8764SOL     OW37927   3.988   1.228   7.515 -0.7425 -0.2222 -0.4502
 8764SOL    HW137928   3.943   1.308   7.540 -1.7154 -1.2399  1.0949
 8764SOL    HW237929   3.912   1.170   7.520  0.6742 -1.8884  1.8022
 8765SOL     OW37930   2.926   1.190   6.435 -0.9295 -0.6566 -0.2672
 8765SOL    HW137931   2.963   1.121   6.380 -1.0842 -0.9779  0.0285
 8765SOL    HW237932   3.011   1.233   6.439 -1.7041  0.6416  1.8212
 8766SOL     OW37933   3.826   4.638  16.316 -0.5342 -0.5758 -0.2346
 8766SOL    HW137934   3.861   4.708  16.261  1.0426 -0.7441  0.5694
 8766SOL    HW237935   3.831   4.679  16.402 -2.9905 -1.8682  0.5314
 8767SOL     OW37936   1.864   3.189   8.007  0.0138  0.2234  0.1968
 8767SOL    HW137937   1.951   3.195   7.967 -0.8685  2.5445 -1.3845
 8767SOL    HW237938   1.819   3.162   7.927  1.0944 -1.8258  0.2731
 8768SOL     OW37939   1.115   0.037   9.966  0.2238  0.1186  0.0059
 8768SOL    HW137940   1.105   0.129   9.992 -2.3932  0.5986 -2.6973
 8768SOL    HW237941   1.081   0.001  10.047 -0.2277 -0.5973 -0.5079
 8769SOL     OW37942   2.987   3.555   5.191  0.6219  0.1590 -0.5135
 8769SOL    HW137943   2.892   3.560   5.194  0.8925  3.1495  2.7466
 8769SOL    HW237944   3.000   3.461   5.199  0.6543  0.1083 -1.1175
 8770SOL     OW37945   0.124   0.583   7.345 -0.6067  0.2205 -0.1266
 8770SOL    HW137946   0.072   0.630   7.279 -0.2388 -0.2618 -0.7576
 8770SOL    HW237947   0.082   0.599   7.429 -1.4744 -2.3618 -0.0809
 8771SOL     OW37948   0.492   2.104  10.563 -0.0823 -0.4224 -0.6581
 8771SOL    HW137949   0.520   2.137  10.477  1.0737 -1.2536 -0.6061
 8771SOL    HW237950   0.551   2.029  10.571  1.2179  0.7264  0.3795
 8772SOL     OW37951   4.470   3.393   7.420 -0.3291 -0.1114  0.0884
 8772SOL    HW137952   4.479   3.325   7.486 -2.4380  1.1201  1.6474
 8772SOL    HW237953   4.531   3.459   7.454 -1.3585  0.9198 -0.0937
 8773SOL     OW37954   2.792   3.341   4.779  1.1464 -0.3193 -0.4098
 8773SOL    HW137955   2.811   3.250   4.759 -0.0759 -0.2627 -1.7992
 8773SOL    HW237956   2.705   3.356   4.742  0.9908 -1.3596 -0.4616
 8774SOL     OW37957   0.388   1.861  17.027  0.6886 -0.2973  0.0716
 8774SOL    HW137958   0.342   1.916  16.964 -0.7249 -4.4248 -2.5028
 8774SOL    HW237959   0.429   1.935  17.073 -0.8812  1.3281 -1.1673
 8775SOL     OW37960   4.589   4.508  13.048 -0.6977 -0.2154  0.1690
 8775SOL    HW137961   4.504   4.464  13.048 -0.0695 -1.4189  2.5297
 8775SOL    HW237962   4.575   4.592  13.005  0.4844  1.1616  2.5165
 8776SOL     OW37963   2.038   1.358  12.060  0.3816  0.2966 -0.8640
 8776SOL    HW137964   2.034   1.393  12.149 -1.5269  2.9843 -2.0350
 8776SOL    HW237965   2.025   1.264  12.074  1.9796  0.5703  2.3416
 8777SOL     OW37966   4.163   4.257   6.283  0.6603 -0.2739 -0.1606
 8777SOL    HW137967   4.084   4.258   6.338  0.4823 -0.6196 -0.4068
 8777SOL    HW237968   4.224   4.299   6.344 -1.3897  2.0884  0.2494
 8778SOL     OW37969   2.150   3.722  12.587 -0.1528  0.5019 -0.1924
 8778SOL    HW137970   2.109   3.795  12.539 -1.3179  0.7325  1.1216
 8778SOL    HW237971   2.088   3.654  12.562  0.1813  0.1903 -0.1613
 8779SOL     OW37972   1.771   2.917   0.553 -0.5403  0.1599  0.1544
 8779SOL    HW137973   1.711   2.905   0.627  0.5553  0.3413  1.0713
 8779SOL    HW237974   1.821   2.836   0.562 -2.2792 -0.8837  0.3794
 8780SOL     OW37975   4.730   0.661  11.409  0.0801  0.1776 -0.2754
 8780SOL    HW137976   0.047   0.720  11.463 -0.1586 -0.5428  0.7507
 8780SOL    HW237977   0.003   0.707  11.325 -1.8562 -2.2846 -1.8184
 8781SOL     OW37978   1.359   1.824  16.375 -0.7988 -0.2277  0.0315
 8781SOL    HW137979   1.438   1.770  16.377  1.3776  2.9017 -0.8032
 8781SOL    HW237980   1.388   1.899  16.428  0.8802 -1.2654  0.5857
 8782SOL     OW37981   0.663   3.161   6.069 -0.0447  0.3285  0.1683
 8782SOL    HW137982   0.715   3.222   6.122 -0.6967  1.9917 -1.1282
 8782SOL    HW237983   0.625   3.221   6.006  1.6987  0.9701 -0.2873
 8783SOL     OW37984   3.637   1.033   5.936  0.0899  0.8460  0.2494
 8783SOL    HW137985   3.682   1.009   6.017 -0.5092  1.7429  0.8449
 8783SOL    HW237986   3.548   1.048   5.967  0.5692 -0.4561  2.2841
 8784SOL     OW37987   4.141   2.663   0.928 -0.5851 -0.2434 -0.5438
 8784SOL    HW137988   4.104   2.685   1.013  0.6016  0.4795 -0.2237
 8784SOL    HW237989   4.223   2.711   0.921 -0.4154 -0.0434  2.9504
 8785SOL     OW37990   2.502   4.016   6.403  0.2049  0.0439  0.5776
 8785SOL    HW137991   2.508   4.077   6.477  0.2839 -0.5427  1.0609
 8785SOL    HW237992   2.475   4.075   6.333 -1.6579  1.9233  2.8666
 8786SOL     OW37993   0.475   2.825   8.389 -0.0913  0.2471  0.3396
 8786SOL    HW137994   0.509   2.743   8.351  0.6905  0.2757  0.9605
 8786SOL    HW237995   0.383   2.804   8.378  0.2566 -1.3382  0.4466
 8787SOL     OW37996   1.054   2.046  17.651 -0.4078  0.3944 -0.4933
 8787SOL    HW137997   1.135   2.017  17.694 -2.5544  0.3201  3.4477
 8787SOL    HW237998   1.042   1.978  17.586 -0.2910 -0.3230  0.2408
 8788SOL     OW37999   0.671   3.455   0.860  0.7080  0.0403  0.3950
 8788SOL    HW138000   0.629   3.380   0.817  1.6471 -0.8791  1.0763
 8788SOL    HW238001   0.630   3.448   0.946  0.3392 -0.1611  0.2067
 8789SOL     OW38002   4.128   1.890   9.355 -0.6070 -0.1615  0.4431
 8789SOL    HW138003   4.119   1.979   9.389  0.9430  0.1413  0.0654
 8789SOL    HW238004   4.040   1.869   9.325 -1.3815  1.8043  1.3471
 8790SOL     OW38005   4.580   3.486   1.606  0.2352 -0.4451  0.2708
 8790SOL    HW138006   4.569   3.415   1.670 -0.3198 -1.4746 -0.9626
 8790SOL    HW238007   4.668   3.461   1.575  0.2279  0.3251 -0.3879
 8791SOL     OW38008   0.407   0.134   1.160  0.0231  0.2902  0.8024
 8791SOL    HW138009   0.406   0.142   1.064  2.3452 -0.8343  0.6727
 8791SOL    HW238010   0.373   0.045   1.162 -1.0240  0.7020  1.0224
 8792SOL     OW38011   3.608   2.463  11.473  0.6623 -0.2906 -0.3462
 8792SOL    HW138012   3.619   2.475  11.378 -0.3438  1.3306 -0.2453
 8792SOL    HW238013   3.692   2.417  11.482  0.5186 -1.0833 -3.0222
 8793SOL     OW38014   1.902   0.376   4.362  0.4552 -0.2927 -0.4766
 8793SOL    HW138015   1.970   0.417   4.416  1.4773 -1.8496 -0.5771
 8793SOL    HW238016   1.930   0.396   4.273  1.6458 -0.6221 -0.1821
 8794SOL     OW38017   4.033   3.773   1.774  0.2786  0.5057  0.2009
 8794SOL    HW138018   4.121   3.784   1.738 -0.4545  1.7000 -1.2188
 8794SOL    HW238019   4.039   3.692   1.825 -2.0192 -0.0030 -0.2870
 8795SOL     OW38020   4.576   2.497   6.783  0.3901 -0.5221 -0.3785
 8795SOL    HW138021   4.623   2.513   6.701 -0.4515 -2.0660 -1.1655
 8795SOL    HW238022   4.637   2.528   6.849  0.1350  1.8392 -1.2516
 8796SOL     OW38023   4.718   3.405   8.687 -0.3356 -0.0564  0.5355
 8796SOL    HW138024   4.720   3.499   8.669  1.4899 -0.1370  0.3329
 8796SOL    HW238025   4.633   3.371   8.659 -0.0282  1.1722 -1.8610
 8797SOL     OW38026   0.667   0.448   6.509 -0.2110 -0.0836  0.2300
 8797SOL    HW138027   0.708   0.512   6.451 -1.4892 -0.4439 -1.0778
 8797SOL    HW238028   0.684   0.487   6.595  0.7202 -0.0481  0.0221
 8798SOL     OW38029   4.594   2.994   3.984  0.4278  0.1283 -0.1095
 8798SOL    HW138030   4.618   3.071   4.035  0.2724  0.8226 -1.0878
 8798SOL    HW238031   4.650   2.925   4.020  2.1789  1.0923 -1.0320
 8799SOL     OW38032   3.904   2.172   7.256  0.0386 -0.8088  0.3043
 8799SOL    HW138033   3.980   2.192   7.202 -0.6452  2.9204  0.6673
 8799SOL    HW238034   3.932   2.092   7.300  0.8007 -0.4398  0.4777
 8800SOL     OW38035   1.120   2.416   7.272  0.0550 -0.3759 -0.0901
 8800SOL    HW138036   1.092   2.478   7.339 -2.1182  1.0300 -2.2821
 8800SOL    HW238037   1.150   2.340   7.323 -1.1866 -0.9184 -0.1622
 8801SOL     OW38038   0.153   4.346   5.217 -0.4474 -0.5890  0.5344
 8801SOL    HW138039   0.064   4.324   5.247 -0.7277 -0.6733 -0.3566
 8801SOL    HW238040   0.211   4.287   5.265  2.0111 -0.2263 -2.0355
 8802SOL     OW38041   3.521   2.958   0.231 -0.1774 -0.0766 -0.1327
 8802SOL    HW138042   3.481   2.935   0.315 -1.0847  1.3920 -0.1690
 8802SOL    HW238043   3.461   3.026   0.202  1.4806  0.4506 -2.3225
 8803SOL     OW38044   1.802   4.613   5.429  0.2441 -0.2067 -0.3390
 8803SOL    HW138045   1.816   4.704   5.402 -1.5940  0.5735  1.4167
 8803SOL    HW238046   1.795   4.569   5.344  0.4850  0.2301 -0.5838
 8804SOL     OW38047   4.072   4.669   5.201 -0.0829 -0.0222  0.5861
 8804SOL    HW138048   4.154   4.714   5.223  0.5714 -0.4864 -0.9498
 8804SOL    HW238049   4.047   0.001   5.138  0.4331  1.0665  1.5320
 8805SOL     OW38050   2.553   0.477   0.707 -0.5691  0.0229 -0.0470
 8805SOL    HW138051   2.501   0.558   0.704 -3.6138 -1.9119 -0.0718
 8805SOL    HW238052   2.636   0.517   0.731 -0.8451  0.6953 -0.2133
 8806SOL     OW38053   4.485   3.390   1.232 -0.7105  0.1952  0.3173
 8806SOL    HW138054   4.444   3.369   1.148  1.4559 -2.1485 -0.1676
 8806SOL    HW238055   4.416   3.415   1.293 -0.4337  0.4990  0.5041
 8807SOL     OW38056   2.507   1.112   8.433 -0.0960 -0.4237 -0.0235
 8807SOL    HW138057   2.598   1.135   8.414  0.3488 -0.9217  1.5097
 8807SOL    HW238058   2.482   1.047   8.367  0.6436  1.3920 -2.1039
 8808SOL     OW38059   0.368   2.125   8.560 -0.5158 -0.1593  0.1779
 8808SOL    HW138060   0.318   2.064   8.614 -1.1703  0.4308  0.2309
 8808SOL    HW238061   0.442   2.072   8.530  0.0152 -0.0668  1.3318
 8809SOL     OW38062   4.158   3.203   7.893 -0.3709 -0.1788 -0.0361
 8809SOL    HW138063   4.228   3.261   7.923 -0.8237  0.3719 -0.0565
 8809SOL    HW238064   4.085   3.228   7.949  0.2787  2.2896 -0.3162
 8810SOL     OW38065   3.566   1.632   4.191  0.1588 -0.2445 -0.1007
 8810SOL    HW138066   3.537   1.694   4.125  1.4785 -0.2362 -0.6717
 8810SOL    HW238067   3.648   1.600   4.152 -0.1839 -0.4469 -0.6502
 8811SOL     OW38068   2.295   1.977   0.655 -0.1536 -0.7860 -0.2241
 8811SOL    HW138069   2.379   1.937   0.677 -0.1534 -0.7142 -0.0904
 8811SOL    HW238070   2.325   2.041   0.591  1.0423 -0.9094  0.2122
 8812SOL     OW38071   0.260   0.562   3.705 -0.4549  0.1977  0.1122
 8812SOL    HW138072   0.256   0.559   3.800 -2.1630 -1.0150  0.0162
 8812SOL    HW238073   0.352   0.547   3.684 -0.7414  3.3390 -3.3631
 8813SOL     OW38074   4.659   4.367   3.702  0.2786  0.3872  0.4490
 8813SOL    HW138075   4.602   4.444   3.707 -1.8377 -1.1200 -0.9173
 8813SOL    HW238076   4.642   4.334   3.790 -1.6453  0.3377  0.0414
 8814SOL     OW38077   4.395   1.989  14.927 -0.4468 -0.1424  0.0768
 8814SOL    HW138078   4.308   1.975  14.966  0.1015  0.9621  1.7035
 8814SOL    HW238079   4.412   1.896  14.909 -2.2636 -0.2906 -0.9451
 8815SOL     OW38080   4.437   1.377  17.482 -0.0650 -0.0001  0.6714
 8815SOL    HW138081   4.409   1.299  17.530  3.6749 -0.6171  1.8564
 8815SOL    HW238082   4.370   1.444  17.497 -0.2678 -0.0132 -0.2211
 8816SOL     OW38083   4.276   1.850  15.576 -0.1792  0.4459  0.2885
 8816SOL    HW138084   4.273   1.934  15.621 -0.3509  0.4330  0.3012
 8816SOL    HW238085   4.202   1.874  15.520  0.1019  1.2897  0.2919
 8817SOL     OW38086   0.252   0.090   8.903  0.2500  0.0469 -0.0422
 8817SOL    HW138087   0.161   0.089   8.931 -0.0298 -0.5508 -0.9703
 8817SOL    HW238088   0.276   4.733   8.888  0.6354  0.2102 -0.4348
 8818SOL     OW38089   3.915   4.057   8.172 -0.4428 -0.1803  0.0084
 8818SOL    HW138090   3.864   4.074   8.251 -0.2529  1.7927 -0.2947
 8818SOL    HW238091   4.002   4.077   8.207 -0.9274  0.2182  0.9864
 8819SOL     OW38092   0.476   1.926   7.529  0.1815 -0.4588 -0.1634
 8819SOL    HW138093   0.396   1.978   7.532  0.8886  0.5891  0.6654
 8819SOL    HW238094   0.531   1.978   7.471  1.4564  1.1662  2.4766
 8820SOL     OW38095   0.165   1.042   8.551  0.2204 -0.6621 -0.4182
 8820SOL    HW138096   0.096   1.026   8.615  0.8329  1.7255  0.8043
 8820SOL    HW238097   0.149   0.965   8.495  1.6573 -0.3235 -1.2983
 8821SOL     OW38098   0.103   2.730   6.004 -0.6387 -0.0074 -0.0551
 8821SOL    HW138099   0.157   2.754   6.079 -0.5989  0.1470 -0.1353
 8821SOL    HW238100   0.147   2.659   5.959 -0.2931 -0.4900  1.0340
 8822SOL     OW38101   4.387   3.138   2.942  0.0512  0.3690  0.2110
 8822SOL    HW138102   4.440   3.072   2.897 -1.1869 -1.1438  0.9290
 8822SOL    HW238103   4.372   3.099   3.029 -3.1112 -1.2769 -1.0411
 8823SOL     OW38104   3.292   4.695  10.954 -0.1933  0.5648  0.0263
 8823SOL    HW138105   3.377   4.718  10.992  0.5063 -0.9193 -0.6698
 8823SOL    HW238106   3.256   0.044  10.925  1.5076  0.4138 -2.5596
 8824SOL     OW38107   3.220   1.223  11.033  0.4633  0.2573  0.2189
 8824SOL    HW138108   3.152   1.276  10.992 -1.1140 -0.9216  1.3207
 8824SOL    HW238109   3.266   1.288  11.086 -0.4130  0.8733  0.2133
 8825SOL     OW38110   2.518   1.287   6.733 -0.6742  0.6651  0.6881
 8825SOL    HW138111   2.530   1.198   6.700 -4.1279 -0.0413  1.2578
 8825SOL    HW238112   2.463   1.329   6.666  0.0050  0.0933 -0.2311
 8826SOL     OW38113   1.958   1.241   3.036 -0.4745 -0.3847 -0.2289
 8826SOL    HW138114   1.979   1.163   3.087 -0.2903  0.4092  0.8858
 8826SOL    HW238115   1.949   1.205   2.947 -0.1966 -0.3576 -0.2684
 8827SOL     OW38116   3.757   0.204   6.824 -0.0221 -0.1856  0.3142
 8827SOL    HW138117   3.675   0.223   6.870 -0.8420  0.2265 -1.3067
 8827SOL    HW238118   3.808   0.277   6.858 -1.4522  1.8232 -1.8312
 8828SOL     OW38119   1.483   3.983  15.802  0.2947 -0.0022 -0.2530
 8828SOL    HW138120   1.500   3.982  15.708 -2.2233  1.0381 -0.7300
 8828SOL    HW238121   1.574   3.967  15.827  0.7839  0.5479 -1.7082
 8829SOL     OW38122   1.752   3.394   7.269  0.5074 -0.3258 -0.6039
 8829SOL    HW138123   1.706   3.350   7.197 -0.5764  1.1780 -0.8233
 8829SOL    HW238124   1.790   3.469   7.223 -1.3516  0.9860  0.0206
 8830SOL     OW38125   2.489   0.350   4.582 -0.2962 -0.1879 -1.0306
 8830SOL    HW138126   2.574   0.324   4.617 -0.6776  0.1771  0.1912
 8830SOL    HW238127   2.500   0.440   4.550  0.2067 -0.3260 -1.2330
 8831SOL     OW38128   0.156   0.021   5.745  0.4398  0.3617  0.1152
 8831SOL    HW138129   0.085   0.060   5.694 -0.8192 -1.0337  0.7782
 8831SOL    HW238130   0.111   4.681   5.784  1.0532  1.3721  2.8365
 8832SOL     OW38131   0.046   2.251  11.868 -0.8105 -0.2471  0.0778
 8832SOL    HW138132   4.699   2.208  11.895 -0.1875 -0.6139  1.3687
 8832SOL    HW238133   0.031   2.267  11.775  0.8091  1.6355  0.1441
 8833SOL     OW38134   1.688   1.580   4.284 -0.2925 -0.5162 -0.4500
 8833SOL    HW138135   1.768   1.620   4.318 -0.7751  0.0877 -0.0081
 8833SOL    HW238136   1.696   1.611   4.194  1.8714 -0.8184 -0.3550
 8834SOL     OW38137   4.158   3.657   2.097 -0.1628 -0.1456 -0.5611
 8834SOL    HW138138   4.143   3.690   2.185  0.3227 -2.0053  0.2305
 8834SOL    HW238139   4.074   3.643   2.052 -0.9694 -0.5439  1.0671
 8835SOL     OW38140   3.990   1.745  16.131 -0.0496 -0.1355  0.3210
 8835SOL    HW138141   3.902   1.745  16.094  0.5985  0.1714 -1.2124
 8835SOL    HW238142   4.031   1.826  16.099  0.3733  0.2649  1.8720
 8836SOL     OW38143   0.909   2.422  14.547  0.1795  0.0187 -0.2901
 8836SOL    HW138144   0.891   2.427  14.640 -0.6622 -0.8963 -0.3951
 8836SOL    HW238145   0.902   2.328  14.532  0.3500  0.2667 -1.9282
 8837SOL     OW38146   3.924   1.478   5.067 -0.0689 -0.6323 -0.3937
 8837SOL    HW138147   3.896   1.388   5.082 -1.9337 -0.0592 -0.3682
 8837SOL    HW238148   3.844   1.525   5.092  1.5115  1.4854  0.6469
 8838SOL     OW38149   4.289   1.919  11.203  0.3989  0.1593  0.4744
 8838SOL    HW138150   4.256   1.877  11.283 -0.4535 -0.3302 -0.1411
 8838SOL    HW238151   4.230   1.992  11.189  0.2196 -0.4777 -2.0433
 8839SOL     OW38152   2.991   0.663   7.502 -0.3065  0.0583 -0.0227
 8839SOL    HW138153   2.956   0.575   7.503 -0.7773  0.2167 -2.7198
 8839SOL    HW238154   3.058   0.651   7.434  0.2200 -1.3587  0.7548
 8840SOL     OW38155   1.265   1.437   9.147  0.3709 -0.4901  0.2057
 8840SOL    HW138156   1.178   1.409   9.174  0.5483 -0.7462  0.5081
 8840SOL    HW238157   1.272   1.520   9.195  0.6260 -0.4303  0.0677
 8841SOL     OW38158   3.448   0.474  12.923 -0.3006 -0.2081 -0.4980
 8841SOL    HW138159   3.446   0.553  12.977 -2.1323  0.0638 -0.9674
 8841SOL    HW238160   3.356   0.454  12.910 -0.1965 -2.2968  1.9690
 8842SOL     OW38161   4.322   3.705   8.303 -0.1861 -0.4598  0.2837
 8842SOL    HW138162   4.237   3.661   8.310 -0.2164 -0.4389  0.0301
 8842SOL    HW238163   4.354   3.698   8.393  0.9305  0.4890 -0.0356
 8843SOL     OW38164   4.214   2.541  16.096  1.0683  0.7200 -0.1651
 8843SOL    HW138165   4.255   2.606  16.153  4.4897 -3.0074  1.5993
 8843SOL    HW238166   4.282   2.473  16.096  1.5409  1.1834 -0.1651
 8844SOL     OW38167   1.944   2.808  11.248  0.1136  0.2026  0.1902
 8844SOL    HW138168   1.865   2.840  11.204  0.4942 -0.6893 -1.1576
 8844SOL    HW238169   1.909   2.800  11.337 -0.5868 -0.5501 -0.1519
 8845SOL     OW38170   0.038   2.259  15.991  0.1563 -0.5467 -0.2908
 8845SOL    HW138171   0.067   2.347  16.014  0.8674 -1.3756  1.9408
 8845SOL    HW238172   0.078   2.245  15.905 -1.6568  0.5960 -1.3456
 8846SOL     OW38173   0.255   3.743  17.094 -0.9482 -0.7836 -0.0085
 8846SOL    HW138174   0.174   3.745  17.145  0.0729 -0.6472  1.6463
 8846SOL    HW238175   0.222   3.761  17.007  1.2410 -0.2465 -0.7386
 8847SOL     OW38176   3.178   2.989  17.163  0.0579  0.5392  0.1011
 8847SOL    HW138177   3.084   2.972  17.155 -0.0593  0.9834  0.5409
 8847SOL    HW238178   3.215   2.918  17.215 -0.1682  0.6559  0.4224
 8848SOL     OW38179   2.891   1.022  16.249 -0.1318  0.1657 -0.0113
 8848SOL    HW138180   2.797   1.031  16.264 -0.3205 -1.1359 -0.3926
 8848SOL    HW238181   2.916   1.114  16.256 -0.8458  0.2691  1.1886
 8849SOL     OW38182   1.334   3.015   8.858  0.3816 -0.1965  0.2078
 8849SOL    HW138183   1.255   2.979   8.817  1.0741 -0.6795 -0.6917
 8849SOL    HW238184   1.336   2.970   8.942  2.1885 -0.3145  0.0909
 8850SOL     OW38185   1.689   3.289  14.072 -0.8868  0.8160  0.5100
 8850SOL    HW138186   1.594   3.280  14.072 -0.8533  0.4146 -0.9002
 8850SOL    HW238187   1.697   3.344  13.993  1.7547 -2.1379 -1.2847
 8851SOL     OW38188   4.007   3.395   6.439  0.4845 -0.6604 -0.1139
 8851SOL    HW138189   4.028   3.366   6.528  1.7199 -0.2241 -0.2588
 8851SOL    HW238190   4.094   3.396   6.398 -0.2811  1.7767 -1.6619
 8852SOL     OW38191   2.717   4.349   9.042  0.1280  0.8761  0.3230
 8852SOL    HW138192   2.736   4.256   9.025 -1.8533  0.5553 -0.1648
 8852SOL    HW238193   2.691   4.345   9.134  1.6293  2.2916  0.7979
 8853SOL     OW38194   3.008   3.083   0.705  0.0811  0.0787  0.4755
 8853SOL    HW138195   3.096   3.107   0.675 -1.0263  2.4091 -0.8396
 8853SOL    HW238196   3.004   3.001   0.655 -1.8150  0.6370 -0.2797
 8854SOL     OW38197   2.694   3.676   4.634 -1.0365 -0.2869 -0.3239
 8854SOL    HW138198   2.682   3.690   4.728  1.1057 -0.1236 -0.0832
 8854SOL    HW238199   2.785   3.702   4.623 -0.7888 -0.1091  2.1177
 8855SOL     OW38200   3.521   3.310  11.929  0.1804 -0.0027 -0.3537
 8855SOL    HW138201   3.502   3.252  12.003  2.5572  1.0922  1.1230
 8855SOL    HW238202   3.608   3.344  11.950  1.0003 -0.7280 -2.6181
 8856SOL     OW38203   1.517   1.366   6.498 -0.2106 -0.3507  0.5588
 8856SOL    HW138204   1.425   1.363   6.470  0.3066 -0.2994 -1.1308
 8856SOL    HW238205   1.551   1.447   6.461  0.8753 -1.0635 -0.0200
 8857SOL     OW38206   2.553   0.722  13.491 -0.5249  0.0934 -0.0036
 8857SOL    HW138207   2.566   0.749  13.582 -1.8097  0.1635  0.1587
 8857SOL    HW238208   2.461   0.699  13.487 -0.6566  0.8733 -1.5404
 8858SOL     OW38209   3.082   4.555   1.940  0.1152  0.3465  0.1088
 8858SOL    HW138210   3.151   4.512   1.990 -0.9269  1.2920  2.3726
 8858SOL    HW238211   3.085   4.486   1.874 -0.5995  1.1731 -0.7841
 8859SOL     OW38212   3.561   2.615   4.268 -0.5805 -0.0950 -0.8883
 8859SOL    HW138213   3.552   2.519   4.273  0.3198  0.0222  2.9389
 8859SOL    HW238214   3.478   2.635   4.311 -1.3603 -1.5516 -1.7211
 8860SOL     OW38215   0.508   3.295   1.053 -0.1119  0.0559 -0.1794
 8860SOL    HW138216   0.576   3.302   1.120  1.9032 -0.4096 -2.1383
 8860SOL    HW238217   0.476   3.205   1.051 -0.5749  0.2284 -0.7491
 8861SOL     OW38218   0.509   0.120   2.538 -0.1676  0.9145 -0.1577
 8861SOL    HW138219   0.501   0.203   2.586  0.4797  0.6862  0.3584
 8861SOL    HW238220   0.588   0.122   2.484 -0.6665 -0.2237 -0.9172
 8862SOL     OW38221   0.755   1.337   5.319 -0.3425 -0.7110 -0.0600
 8862SOL    HW138222   0.690   1.299   5.261  0.9219 -0.5837 -1.5761
 8862SOL    HW238223   0.715   1.422   5.337  2.7726  0.6405  0.4914
 8863SOL     OW38224   2.839   3.930   8.313 -1.1825  0.3562 -0.4837
 8863SOL    HW138225   2.825   3.837   8.326  0.0363  0.1515 -0.5777
 8863SOL    HW238226   2.900   3.936   8.239 -1.7244  2.1897 -0.7871
 8864SOL     OW38227   0.127   2.740   3.835 -0.2338 -0.0081 -0.0857
 8864SOL    HW138228   0.220   2.718   3.843 -0.4189 -0.8499 -0.2183
 8864SOL    HW238229   0.113   2.731   3.740 -0.7817  0.5846 -0.0593
 8865SOL     OW38230   3.193   2.360   1.747  0.3529  0.2743  0.9158
 8865SOL    HW138231   3.110   2.377   1.791 -0.9078 -1.6852 -0.6785
 8865SOL    HW238232   3.165   2.324   1.663  0.8238 -0.9172  1.2743
 8866SOL     OW38233   2.487   0.443   6.405  0.0361 -0.1354  0.1345
 8866SOL    HW138234   2.414   0.401   6.450  0.1172 -0.6406 -0.2014
 8866SOL    HW238235   2.476   0.410   6.316 -1.0885 -2.1724  1.0215
 8867SOL     OW38236   2.327   3.465   2.813 -0.3138 -0.0679  0.1850
 8867SOL    HW138237   2.399   3.454   2.874  1.5969  3.0646 -1.4612
 8867SOL    HW238238   2.325   3.377   2.777  1.3653  0.2513 -0.7160
 8868SOL     OW38239   4.629   3.632   3.402 -0.6105  0.5009 -0.1372
 8868SOL    HW138240   4.598   3.640   3.312  0.9391  2.3203 -0.5012
 8868SOL    HW238241   4.562   3.670   3.458  0.0915 -0.4924  1.3880
 8869SOL     OW38242   2.039   1.040   3.214  0.1275  0.3233  0.1659
 8869SOL    HW138243   1.999   0.954   3.224  0.8192 -0.3111 -2.6486
 8869SOL    HW238244   2.115   1.016   3.161  1.0114  0.5897  1.3122
 8870SOL     OW38245   4.659   2.778   5.780 -0.1692 -0.1137  0.0525
 8870SOL    HW138246   0.007   2.780   5.828 -0.7441  1.1139  0.9905
 8870SOL    HW238247   4.649   2.686   5.756  1.4686 -0.4736  0.7473
 8871SOL     OW38248   4.572   2.301   3.941 -0.2602 -0.1000 -0.3533
 8871SOL    HW138249   4.652   2.347   3.918  0.3680 -1.5750 -1.0683
 8871SOL    HW238250   4.607   2.256   4.018 -0.3988  1.7978  0.8218
 8872SOL     OW38251   3.489   3.257   3.090 -1.3094  0.0809 -0.0361
 8872SOL    HW138252   3.577   3.230   3.114 -0.4580  1.1195 -2.0219
 8872SOL    HW238253   3.448   3.237   3.174  0.7366 -0.6461  0.7839
 8873SOL     OW38254   4.062   3.291  14.199  0.6212  0.0392 -0.4666
 8873SOL    HW138255   4.109   3.374  14.209 -3.4175  2.2628  0.3127
 8873SOL    HW238256   4.137   3.237  14.177  0.5125 -0.0640 -0.5824
 8874SOL     OW38257   2.750   0.944  14.838  0.3904  0.3455  0.5757
 8874SOL    HW138258   2.794   0.871  14.794 -2.8339 -1.0582 -0.3405
 8874SOL    HW238259   2.663   0.915  14.812  0.2697  0.9143  0.3372
 8875SOL     OW38260   2.985   3.745  10.586 -0.0669  0.5297 -0.8631
 8875SOL    HW138261   3.031   3.698  10.656 -1.9502  1.1439  0.7949
 8875SOL    HW238262   2.996   3.671  10.525 -0.4059  0.1875 -0.5083
 8876SOL     OW38263   0.012   4.459   8.619  0.1521 -0.0827  0.2963
 8876SOL    HW138264   4.653   4.454   8.638  0.0357 -0.3792 -0.3399
 8876SOL    HW238265   0.025   4.529   8.555  1.1041  0.1563  0.7595
 8877SOL     OW38266   4.646   0.349   4.762  0.1767  0.1721  0.0283
 8877SOL    HW138267   4.654   0.420   4.698 -0.3693  0.4659  0.2892
 8877SOL    HW238268   4.600   0.276   4.718 -0.7697  1.1428 -0.5959
 8878SOL     OW38269   2.478   2.018   2.458 -0.4738 -0.2874 -0.1136
 8878SOL    HW138270   2.507   1.990   2.544 -0.4943 -2.4355 -0.7855
 8878SOL    HW238271   2.556   2.005   2.404 -1.0305  1.5096 -1.3199
 8879SOL     OW38272   0.665   0.855   3.663  0.2146  0.0933 -0.4403
 8879SOL    HW138273   0.590   0.839   3.607  1.4921 -0.3132 -2.0167
 8879SOL    HW238274   0.636   0.902   3.742  0.9026 -0.4161  0.1224
 8880SOL     OW38275   1.049   0.461   0.962  0.0699 -0.3736 -0.7882
 8880SOL    HW138276   1.000   0.524   1.015  2.1867 -0.3451  1.1753
 8880SOL    HW238277   1.141   0.465   0.989 -0.2677  2.9589 -0.1187
 8881SOL     OW38278   1.475   1.459   2.255  0.6401  0.0178 -0.1587
 8881SOL    HW138279   1.404   1.402   2.226  0.8385  0.1484 -0.9041
 8881SOL    HW238280   1.491   1.415   2.339  0.9654  1.9803  0.8179
 8882SOL     OW38281   0.913   4.525   1.735  0.5201 -0.4256  0.2950
 8882SOL    HW138282   0.835   4.499   1.784 -0.0470 -0.7729 -0.8104
 8882SOL    HW238283   0.891   4.476   1.656 -1.5532 -0.4517  0.8809
 8883SOL     OW38284   3.400   4.252  11.164 -0.3888  0.3379  0.0366
 8883SOL    HW138285   3.434   4.272  11.076 -1.0034 -2.6455 -0.8856
 8883SOL    HW238286   3.378   4.161  11.144  1.1394  0.5751 -2.7677
 8884SOL     OW38287   2.178   2.749  14.622 -0.5094 -0.7041 -0.4761
 8884SOL    HW138288   2.136   2.763  14.538  1.3238  0.5311 -1.1963
 8884SOL    HW238289   2.097   2.741  14.674  0.2739 -2.1982  0.5230
 8885SOL     OW38290   2.157   1.362   4.502 -0.4336 -0.1283 -0.6032
 8885SOL    HW138291   2.242   1.339   4.464 -0.1142 -0.3275  0.2347
 8885SOL    HW238292   2.174   1.446   4.544  0.2596 -0.1312 -0.8822
 8886SOL     OW38293   0.072   4.002   1.522  0.0944 -0.4444  0.6377
 8886SOL    HW138294   0.097   4.078   1.576 -2.9140 -0.1183  1.5691
 8886SOL    HW238295   0.048   4.039   1.437  0.5181  0.3331  0.8495
 8887SOL     OW38296   1.986   1.930   2.113 -0.1817 -0.5844 -0.1643
 8887SOL    HW138297   1.927   1.912   2.187 -2.2206 -1.3863 -1.9645
 8887SOL    HW238298   2.055   1.971   2.164 -0.2343  0.0414 -0.6070
 8888SOL     OW38299   1.343   4.435   6.269  0.3172 -0.4088  0.4111
 8888SOL    HW138300   1.260   4.466   6.306 -0.2647 -1.5447  0.0722
 8888SOL    HW238301   1.339   4.446   6.174  0.8743  1.0167  0.5545
 8889SOL     OW38302   2.560   3.614   0.966 -0.1959  0.2066 -0.0182
 8889SOL    HW138303   2.506   3.676   1.016 -0.7627 -0.9847  0.8505
 8889SOL    HW238304   2.628   3.599   1.032  1.3506  3.4954 -0.8139
 8890SOL     OW38305   3.654   0.640   8.251 -0.3052  0.3736 -0.2379
 8890SOL    HW138306   3.644   0.607   8.341 -0.6745  0.1727 -0.3519
 8890SOL    HW238307   3.710   0.570   8.217 -2.9875 -0.7793 -2.2188
 8891SOL     OW38308   3.398   4.342   2.830 -0.2269 -0.4243  0.0959
 8891SOL    HW138309   3.342   4.416   2.804 -1.7140 -1.8214 -0.6374
 8891SOL    HW238310   3.331   4.274   2.825  0.8817 -1.5119  0.0888
 8892SOL     OW38311   0.208   0.041   1.392  0.2278  0.1471  0.6776
 8892SOL    HW138312   0.216   0.129   1.426  1.6493  0.4503 -0.4498
 8892SOL    HW238313   0.297   0.010   1.376  0.8993  1.5904  1.6489
 8893SOL     OW38314   2.711   1.788   8.568 -0.1497  0.0288 -0.1411
 8893SOL    HW138315   2.621   1.815   8.551  0.6926  4.3601  2.3264
 8893SOL    HW238316   2.708   1.818   8.659 -0.7828  0.0080 -0.1560
 8894SOL     OW38317   0.970   2.086   6.665  0.2530 -0.2225 -0.0669
 8894SOL    HW138318   1.019   2.024   6.611 -0.0326  0.8673 -1.5972
 8894SOL    HW238319   0.882   2.054   6.643 -0.0095  0.5388 -0.1164
 8895SOL     OW38320   0.923   0.495   4.175 -0.0264 -0.3929 -0.0487
 8895SOL    HW138321   0.998   0.554   4.167 -1.8925  2.0414  0.2638
 8895SOL    HW238322   0.954   0.450   4.253  1.8702 -0.3402 -0.7594
 8896SOL     OW38323   4.268   2.547   3.585 -0.1096 -0.0515 -0.5696
 8896SOL    HW138324   4.323   2.509   3.653 -0.0849 -0.3633 -0.7658
 8896SOL    HW238325   4.206   2.601   3.633  0.7123 -0.0465  0.4762
 8897SOL     OW38326   3.442   1.607   1.437 -0.3974 -0.0020 -0.2835
 8897SOL    HW138327   3.471   1.668   1.370  2.4058 -0.2319  0.7243
 8897SOL    HW238328   3.402   1.667   1.500 -0.6807 -2.2705  1.7402
 8898SOL     OW38329   0.580   4.726  15.760  0.1690  0.4367 -0.1808
 8898SOL    HW138330   0.601   0.062  15.821 -3.2454  0.9955  0.3313
 8898SOL    HW238331   0.536   4.662  15.817  0.5257 -1.5256 -2.1273
 8899SOL     OW38332   1.975   3.302   7.725  0.1649 -0.6390 -0.4807
 8899SOL    HW138333   1.900   3.245   7.741 -0.7402  0.2174 -1.6479
 8899SOL    HW238334   1.975   3.303   7.629  1.0133  1.5021 -0.4639
 8900SOL     OW38335   4.705   1.724   2.111 -0.0037 -0.0670  0.4443
 8900SOL    HW138336   4.665   1.644   2.078  1.6569 -0.1226 -1.4346
 8900SOL    HW238337   4.640   1.792   2.090  0.4745  0.5508  0.9468
 8901SOL     OW38338   2.751   4.064   7.222  0.1552 -0.0897 -0.0792
 8901SOL    HW138339   2.778   4.057   7.313  0.7929 -3.7363 -0.5588
 8901SOL    HW238340   2.710   3.979   7.205  0.9461 -0.7714  1.4486
 8902SOL     OW38341   0.792   2.360   8.118  0.1941  0.0636 -0.3178
 8902SOL    HW138342   0.857   2.291   8.103 -0.4047 -0.2931 -1.3155
 8902SOL    HW238343   0.850   2.428   8.151 -1.7367  0.8211  1.4565
 8903SOL     OW38344   2.096   1.655   6.292 -0.6625  0.3342 -0.4261
 8903SOL    HW138345   2.094   1.746   6.322  1.0701 -0.3033  1.6540
 8903SOL    HW238346   2.097   1.608   6.376 -0.1399  1.9815  0.4867
 8904SOL     OW38347   1.707   1.881   4.295  0.0390 -0.1160 -0.2350
 8904SOL    HW138348   1.770   1.808   4.302 -1.5457 -1.3899  0.7155
 8904SOL    HW238349   1.764   1.957   4.283  0.5986 -0.4014  0.5952
 8905SOL     OW38350   3.501   3.595  12.149 -0.7418 -0.0195  0.2005
 8905SOL    HW138351   3.563   3.565  12.215  0.2578 -1.7941 -1.5553
 8905SOL    HW238352   3.433   3.528  12.162 -0.8856  0.3131  1.1860
 8906SOL     OW38353   4.041   2.067   3.091  0.3572  0.6512  0.7442
 8906SOL    HW138354   3.989   2.133   3.137  0.3546 -0.6861  2.6266
 8906SOL    HW238355   4.127   2.109   3.100  0.1045  1.0614  1.2455
 8907SOL     OW38356   1.739   3.171  10.721 -0.2410 -0.2363  0.4373
 8907SOL    HW138357   1.823   3.208  10.693 -0.1041 -1.0281 -0.1938
 8907SOL    HW238358   1.676   3.202  10.655  0.9572 -1.4489 -1.2671
 8908SOL     OW38359   4.404   4.330  13.289 -0.5996 -0.1873 -0.2084
 8908SOL    HW138360   4.448   4.394  13.345 -0.3363 -0.4438 -0.1246
 8908SOL    HW238361   4.316   4.341  13.324 -1.4214 -3.0132 -1.3504
 8909SOL     OW38362   0.398   0.435   6.516  0.3834  0.2616  0.0454
 8909SOL    HW138363   0.494   0.442   6.511  0.6005  0.1663  4.2054
 8909SOL    HW238364   0.387   0.372   6.445  0.9848 -0.2509  0.4076
 8910SOL     OW38365   0.560   0.613   3.931  0.6743 -0.2245  0.4711
 8910SOL    HW138366   0.483   0.565   3.961  1.2757  0.2065  2.6449
 8910SOL    HW238367   0.555   0.693   3.984 -0.5199 -0.4727  0.7394
 8911SOL     OW38368   3.217   4.321  13.538 -0.7997 -0.6935  0.0183
 8911SOL    HW138369   3.161   4.353  13.609 -1.6408 -2.1169  0.0011
 8911SOL    HW238370   3.158   4.350  13.469 -0.0040  0.5250 -0.1334
 8912SOL     OW38371   4.071   0.398   4.196  0.3208  0.4087 -0.2607
 8912SOL    HW138372   4.050   0.432   4.283  1.4941  0.5147 -0.0195
 8912SOL    HW238373   4.139   0.461   4.172 -0.1255  0.5794 -1.0729
 8913SOL     OW38374   2.306   2.273   5.424 -0.2431 -0.3697 -0.6990
 8913SOL    HW138375   2.283   2.213   5.495 -2.1185  1.5286  0.2955
 8913SOL    HW238376   2.321   2.358   5.465 -0.0696 -0.0899 -1.3337
 8914SOL     OW38377   4.368   1.174   3.049 -0.2296  0.1780  0.1333
 8914SOL    HW138378   4.366   1.084   3.018 -1.1625  0.4193 -0.5048
 8914SOL    HW238379   4.461   1.195   3.056  0.0288 -0.5085 -1.3091
 8915SOL     OW38380   3.839   2.230  12.773 -1.0656  0.4434  0.2932
 8915SOL    HW138381   3.836   2.320  12.740 -0.7017  0.1143 -0.6596
 8915SOL    HW238382   3.926   2.201  12.744 -1.5986 -0.9693  0.1042
 8916SOL     OW38383   4.700   3.574   7.524  0.4904 -0.2725  0.7564
 8916SOL    HW138384   0.020   3.606   7.453  0.9813 -1.9105  0.3763
 8916SOL    HW238385   4.681   3.660   7.561  0.2820 -0.8812  2.0782
 8917SOL     OW38386   0.740   0.626   8.670 -0.2651 -0.3030  0.2614
 8917SOL    HW138387   0.713   0.716   8.688  1.4732  0.4381 -0.8350
 8917SOL    HW238388   0.706   0.588   8.751  1.9587  0.1696  1.4229
 8918SOL     OW38389   0.079   2.443   8.898 -0.4377  0.3168  0.4130
 8918SOL    HW138390   0.040   2.526   8.868  1.0811  0.9664  0.2613
 8918SOL    HW238391   0.172   2.462   8.896 -0.4755  0.5317  0.7095
 8919SOL     OW38392   3.678   2.615   3.236  0.4419 -0.0684 -0.1137
 8919SOL    HW138393   3.714   2.531   3.266  0.6630 -0.1597 -0.6388
 8919SOL    HW238394   3.611   2.618   3.304 -0.7798  0.6459 -1.3630
 8920SOL     OW38395   3.693   2.933   7.861 -0.1642  0.0333  0.2259
 8920SOL    HW138396   3.782   2.905   7.884 -2.1445 -3.5152  3.6442
 8920SOL    HW238397   3.634   2.883   7.916 -1.2906  1.5990  0.4341
 8921SOL     OW38398   2.085   3.289   0.732  0.2024 -0.3048  0.1944
 8921SOL    HW138399   2.106   3.246   0.814  2.2452 -0.1489 -0.2389
 8921SOL    HW238400   2.169   3.327   0.705  0.2966 -0.9163 -0.3706
 8922SOL     OW38401   1.217   0.943   4.560  0.4081  0.1142  0.1475
 8922SOL    HW138402   1.282   0.884   4.599  1.5180  0.2905 -1.4199
 8922SOL    HW238403   1.267   0.960   4.480  0.7712 -0.8532  0.1638
 8923SOL     OW38404   3.343   2.183  16.796 -0.2580  0.3081  0.3204
 8923SOL    HW138405   3.393   2.114  16.751 -0.6997  0.8597 -1.0087
 8923SOL    HW238406   3.417   2.240  16.815 -0.7714  0.9081  0.5047
 8924SOL     OW38407   2.360   0.616   1.076 -0.1399  0.5092  0.1519
 8924SOL    HW138408   2.289   0.649   1.132  0.3425  0.4594  0.7944
 8924SOL    HW238409   2.385   0.529   1.108  3.0384  1.6646  0.7888
 8925SOL     OW38410   2.667   0.440  13.552  0.9202  0.1535 -0.2560
 8925SOL    HW138411   2.665   0.508  13.620  0.0266  0.1733 -0.2926
 8925SOL    HW238412   2.597   0.466  13.491 -1.0238  1.0510  2.3419
 8926SOL     OW38413   0.756   1.916   9.679 -0.5093  0.1168 -0.0098
 8926SOL    HW138414   0.729   1.980   9.745  0.9162 -0.6474  1.3080
 8926SOL    HW238415   0.691   1.849   9.699 -1.9392  1.4878 -0.0469
 8927SOL     OW38416   0.153   4.240   9.605  0.0442 -0.1081 -0.1853
 8927SOL    HW138417   0.133   4.334   9.597 -0.2590 -0.1961 -0.5016
 8927SOL    HW238418   0.063   4.208   9.613  0.0085  0.1496  0.4575
 8928SOL     OW38419   0.066   2.290   5.356  0.2247  0.1810  0.2271
 8928SOL    HW138420   0.001   2.225   5.328  0.5944 -0.3255  0.5455
 8928SOL    HW238421   0.109   2.235   5.421  1.1987  0.7541  0.0666
 8929SOL     OW38422   3.132   2.342   3.376 -0.3804 -0.0966 -0.1980
 8929SOL    HW138423   3.209   2.395   3.395  1.9619 -2.3764 -3.4441
 8929SOL    HW238424   3.137   2.272   3.441  0.7807 -0.9331 -1.2001
 8930SOL     OW38425   3.152   1.373   7.054  0.0871 -0.6809 -0.0244
 8930SOL    HW138426   3.172   1.406   6.967  1.1918 -2.1316 -0.3173
 8930SOL    HW238427   3.072   1.320   7.041 -1.0403  1.8480 -3.3852
 8931SOL     OW38428   3.214   0.056   1.146  0.4761 -0.6727 -0.0917
 8931SOL    HW138429   3.265   0.123   1.102  0.3668 -2.2027 -2.5636
 8931SOL    HW238430   3.271   4.718   1.120  0.7915  0.5482 -2.7754
 8932SOL     OW38431   2.565   1.854   4.447  0.1196 -0.3363  0.0998
 8932SOL    HW138432   2.629   1.924   4.460  0.1874 -0.6341  1.3475
 8932SOL    HW238433   2.623   1.779   4.433 -1.8979 -1.1953 -3.6818
 8933SOL     OW38434   1.870   0.130   5.366  0.8855 -0.0529 -0.1733
 8933SOL    HW138435   1.944   0.147   5.424  0.4310  0.3309  0.2923
 8933SOL    HW238436   1.907   0.158   5.282 -1.2882  0.6276 -0.9027
 8934SOL     OW38437   4.553   1.982  15.283 -0.4147 -0.1671  0.1223
 8934SOL    HW138438   4.614   1.938  15.342  0.9498  0.4887 -0.7907
 8934SOL    HW238439   4.497   1.906  15.266  0.9227 -1.3481  0.9841
 8935SOL     OW38440   4.212   0.418   2.282 -0.2329  0.0369  0.4929
 8935SOL    HW138441   4.274   0.349   2.260  1.5341  1.3799  1.2407
 8935SOL    HW238442   4.259   0.501   2.269 -1.6851  0.4472 -2.1336
 8936SOL     OW38443   2.816   2.060   5.311 -0.5155 -0.0649 -0.1668
 8936SOL    HW138444   2.787   2.132   5.367  1.5750 -0.4307  1.4000
 8936SOL    HW238445   2.764   1.986   5.344 -0.1070 -1.1945 -2.0771
 8937SOL     OW38446   4.002   2.568   8.779  0.1184  0.1622  0.5529
 8937SOL    HW138447   3.913   2.535   8.795  0.2486  0.3646  1.7097
 8937SOL    HW238448   4.016   2.558   8.685  0.4001 -2.6106  0.8759
 8938SOL     OW38449   1.632   3.037  14.097 -0.2191 -0.2329  0.0510
 8938SOL    HW138450   1.540   3.062  14.104 -0.5554 -1.4306 -0.0760
 8938SOL    HW238451   1.665   3.123  14.072 -1.8637  0.3700 -0.0014
 8939SOL     OW38452   4.026   2.797   6.130  0.0648 -0.1583  1.0004
 8939SOL    HW138453   3.989   2.711   6.107  0.4550  0.3004 -1.3211
 8939SOL    HW238454   4.116   2.771   6.110 -1.1109 -1.0896 -3.1353
 8940SOL     OW38455   0.722   0.099  10.206 -0.7813  0.4860  0.4257
 8940SOL    HW138456   0.771   0.123  10.128 -0.5440  0.8386  0.6839
 8940SOL    HW238457   0.651   0.164  10.207  0.2062  1.5941 -3.1440
 8941SOL     OW38458   2.428   0.904   4.775 -0.2743 -0.1570 -0.4338
 8941SOL    HW138459   2.430   0.998   4.757 -2.6289  0.1835  1.1196
 8941SOL    HW238460   2.337   0.891   4.802  0.2385  0.6573  1.6347
 8942SOL     OW38461   2.260   0.691  15.355  0.3911  0.6599 -0.1120
 8942SOL    HW138462   2.330   0.755  15.371  2.7571 -1.3420 -2.5094
 8942SOL    HW238463   2.200   0.701  15.428  1.0717 -0.0745  0.5495
 8943SOL     OW38464   4.384   3.964   8.206 -0.7072  0.2762 -0.1946
 8943SOL    HW138465   4.380   3.943   8.113 -1.5811 -2.4968  0.4900
 8943SOL    HW238466   4.371   3.879   8.247  0.7657 -0.8005 -1.9413
 8944SOL     OW38467   2.876   4.080   3.130 -0.0886 -0.3019 -0.0198
 8944SOL    HW138468   2.815   4.145   3.165  0.4382 -0.3458  0.9745
 8944SOL    HW238469   2.943   4.134   3.088 -1.0897  1.7359  1.0536
 8945SOL     OW38470   1.228   2.565   2.266  0.7203 -0.1534 -0.3735
 8945SOL    HW138471   1.210   2.563   2.360  0.0607  0.1746 -0.4987
 8945SOL    HW238472   1.323   2.557   2.258  0.6352 -1.1535 -0.3899
 8946SOL     OW38473   3.112   2.464   5.595  0.1995 -0.1900 -0.0167
 8946SOL    HW138474   3.082   2.429   5.679 -0.0870  0.8519  0.3120
 8946SOL    HW238475   3.160   2.538   5.632  0.8289 -1.0937  0.9460
 8947SOL     OW38476   2.354   2.533   8.957  0.4241 -0.0705  0.1166
 8947SOL    HW138477   2.300   2.588   9.014 -1.2650 -2.2732  0.5935
 8947SOL    HW238478   2.442   2.573   8.960  0.2452  0.1285  2.5291
 8948SOL     OW38479   1.894   3.955  12.740 -0.4118 -0.0386 -0.2534
 8948SOL    HW138480   1.886   4.036  12.689  0.9801  0.6662  0.6569
 8948SOL    HW238481   1.985   3.933  12.720  0.4920  1.8152  1.8765
 8949SOL     OW38482   1.678   1.811  17.049 -0.6018  0.5494 -0.2622
 8949SOL    HW138483   1.757   1.801  17.102 -0.9279 -0.1615  0.0900
 8949SOL    HW238484   1.712   1.805  16.960 -0.6451  0.0803 -0.2477
 8950SOL     OW38485   3.418   3.841   3.006  0.0495  0.5761  0.0279
 8950SOL    HW138486   3.364   3.907   3.049 -0.6363  0.0857 -0.0806
 8950SOL    HW238487   3.380   3.832   2.919  1.2440 -2.8176 -0.1474
 8951SOL     OW38488   2.300   4.073  12.460 -0.2355  0.3287 -0.1880
 8951SOL    HW138489   2.325   4.059  12.551 -2.7368 -0.1544  0.4222
 8951SOL    HW238490   2.373   4.045  12.405  0.8562 -0.4269  1.6615
 8952SOL     OW38491   0.074   0.279   6.882  0.2900  0.2321  0.3250
 8952SOL    HW138492   0.077   0.312   6.972  1.2570 -0.0345  0.3891
 8952SOL    HW238493   0.144   0.330   6.840 -1.7518  1.6114 -1.3883
 8953SOL     OW38494   1.628   4.207   6.785  0.2569  0.5605  0.2887
 8953SOL    HW138495   1.699   4.251   6.737  0.4317  0.2686  0.2771
 8953SOL    HW238496   1.627   4.124   6.737 -0.2499 -0.0261  1.3239
 8954SOL     OW38497   3.329   4.687   3.893 -0.1864  0.1752 -0.6136
 8954SOL    HW138498   3.313   0.046   3.880  2.4538  0.9340  1.8218
 8954SOL    HW238499   3.296   4.655   3.808 -0.8567  0.2359 -0.3768
 8955SOL     OW38500   3.815   3.887   7.507 -0.2642  0.2420  0.1605
 8955SOL    HW138501   3.827   3.829   7.432  0.6166  1.8443 -0.9461
 8955SOL    HW238502   3.873   3.954   7.471  1.3385 -1.8796 -1.1744
 8956SOL     OW38503   3.533   0.192  10.996  0.2366 -0.0649  0.8309
 8956SOL    HW138504   3.455   0.247  10.985 -0.2310 -0.6993  0.9586
 8956SOL    HW238505   3.551   0.203  11.089  1.5990  0.2133  0.5322
 8957SOL     OW38506   1.793   2.320   3.967 -0.3245  0.3797  0.2361
 8957SOL    HW138507   1.772   2.393   4.024 -2.7923  1.0491 -1.5274
 8957SOL    HW238508   1.823   2.359   3.885  0.3157  0.0468  0.3108
 8958SOL     OW38509   2.061   0.618   6.748  0.1763 -0.5334  0.9013
 8958SOL    HW138510   2.073   0.707   6.716  1.8499 -0.4520  1.7593
 8958SOL    HW238511   2.035   0.641   6.837  0.6183 -1.1877  1.1989
 8959SOL     OW38512   3.214   1.350   4.562  0.0835 -0.0572 -0.4685
 8959SOL    HW138513   3.292   1.315   4.520  0.2633 -2.0482  1.5311
 8959SOL    HW238514   3.251   1.356   4.649  0.4045 -0.7133 -0.5635
 8960SOL     OW38515   2.389   4.007   0.349 -0.1682  0.0994  0.4834
 8960SOL    HW138516   2.426   4.091   0.321 -1.6864  0.4315 -0.5475
 8960SOL    HW238517   2.323   4.048   0.405 -0.5200  0.4112 -0.1572
 8961SOL     OW38518   3.842   2.711  16.212 -0.1561  0.7216  0.2535
 8961SOL    HW138519   3.790   2.765  16.152 -0.1472  1.5971  1.0236
 8961SOL    HW238520   3.861   2.787  16.266 -0.6543  0.7476  0.3931
 8962SOL     OW38521   1.678   4.636  14.846  0.6546  0.7631 -0.1592
 8962SOL    HW138522   1.752   4.654  14.788  0.0509  0.8261 -0.9016
 8962SOL    HW238523   1.615   4.608  14.780  0.6251 -0.7595  0.5154
 8963SOL     OW38524   2.132   3.349   7.163  0.3776  0.1596 -0.3485
 8963SOL    HW138525   2.145   3.323   7.072 -0.7264  1.3543 -0.8547
 8963SOL    HW238526   2.101   3.439   7.151 -0.8205 -0.4326 -1.7629
 8964SOL     OW38527   0.587   2.177   3.738  0.1947  0.0101  0.2826
 8964SOL    HW138528   0.532   2.255   3.731  1.1850  0.6993  0.1633
 8964SOL    HW238529   0.610   2.168   3.646  1.4192 -2.5896  0.8451
 8965SOL     OW38530   2.502   4.222   6.172  0.0791  0.0602  0.0382
 8965SOL    HW138531   2.421   4.224   6.120 -0.6420  1.1556  1.1841
 8965SOL    HW238532   2.486   4.300   6.225 -1.5002  1.2316 -2.1106
 8966SOL     OW38533   1.648   3.846  17.124 -0.3903  0.1685  0.3673
 8966SOL    HW138534   1.690   3.850  17.038 -1.7544 -0.5327 -0.3177
 8966SOL    HW238535   1.719   3.856  17.188  0.2094 -0.9099 -0.1262
 8967SOL     OW38536   0.947   1.229  15.697  0.1659  0.1499  0.3243
 8967SOL    HW138537   1.006   1.298  15.667  0.0615 -0.4295 -1.1905
 8967SOL    HW238538   0.960   1.169  15.624 -1.4428 -0.3446  0.4510
 8968SOL     OW38539   2.438   0.226   6.778 -0.3369  0.4142 -0.2946
 8968SOL    HW138540   2.370   0.293   6.778  0.2089  0.9673 -0.9424
 8968SOL    HW238541   2.519   0.275   6.792  0.2375 -1.1980  2.1114
 8969SOL     OW38542   1.169   3.852   2.220  0.3750 -0.4034  0.1504
 8969SOL    HW138543   1.159   3.757   2.215 -2.5717 -0.0023 -1.4367
 8969SOL    HW238544   1.242   3.855   2.282 -0.1864 -0.5748  0.8264
 8970SOL     OW38545   2.984   2.107   6.832 -0.3706  0.4272  0.3633
 8970SOL    HW138546   2.927   2.165   6.882 -1.5321  1.4998 -2.1749
 8970SOL    HW238547   3.050   2.167   6.798  1.0276 -0.9997  0.5600
 8971SOL     OW38548   2.595   3.151   7.791  0.2443 -0.4176  0.8216
 8971SOL    HW138549   2.572   3.236   7.753 -0.2860 -1.7724 -1.8742
 8971SOL    HW238550   2.527   3.145   7.858 -1.4582  0.0955 -0.8659
 8972SOL     OW38551   1.240   3.300   2.781  0.8133 -0.2025 -0.0493
 8972SOL    HW138552   1.236   3.286   2.687  0.7268 -0.3920 -0.0187
 8972SOL    HW238553   1.186   3.225   2.807 -0.1706 -0.0512 -1.6895
 8973SOL     OW38554   0.685   3.428   5.069 -0.1458 -0.0810 -0.5784
 8973SOL    HW138555   0.650   3.506   5.026  2.4752  0.6147 -1.4150
 8973SOL    HW238556   0.609   3.370   5.082 -0.6755  0.7507  0.0686
 8974SOL     OW38557   2.872   3.933   5.265 -0.3446  0.5335  0.4553
 8974SOL    HW138558   2.897   4.024   5.255 -0.5622  0.5063 -0.3289
 8974SOL    HW238559   2.936   3.893   5.206 -0.5993  0.6370  0.1092
 8975SOL     OW38560   1.015   2.839  11.549 -0.3849  0.5475 -0.2993
 8975SOL    HW138561   1.100   2.849  11.593  0.0304 -0.2889 -0.8910
 8975SOL    HW238562   0.958   2.798  11.614  0.7273  0.0949  0.4007
 8976SOL     OW38563   4.652   4.490   4.475 -0.2593 -0.9453  0.8262
 8976SOL    HW138564   4.683   4.459   4.560  1.0380  1.0852  1.0965
 8976SOL    HW238565   4.562   4.519   4.492 -0.6444 -1.2077 -0.7491
 8977SOL     OW38566   2.166   3.069   5.686 -0.2449 -0.0668 -0.0151
 8977SOL    HW138567   2.125   3.153   5.705 -1.7618 -0.2030 -2.6723
 8977SOL    HW238568   2.093   3.007   5.680  0.8703 -1.4217  0.3250
 8978SOL     OW38569   1.378   1.283   2.992  0.4339 -0.0360 -0.0372
 8978SOL    HW138570   1.304   1.240   2.950 -1.1005  0.3625  2.2513
 8978SOL    HW238571   1.412   1.336   2.921 -0.7200  1.6135  0.6387
 8979SOL     OW38572   3.982   1.456   4.343 -0.5202  0.5703 -0.1863
 8979SOL    HW138573   3.968   1.372   4.386  2.4469 -0.3127 -0.9799
 8979SOL    HW238574   3.909   1.512   4.372 -1.5537 -0.7271 -0.2686
 8980SOL     OW38575   1.564   3.543   3.172 -0.1669  0.5701 -0.1565
 8980SOL    HW138576   1.623   3.607   3.133  1.8444 -1.1970 -0.0313
 8980SOL    HW238577   1.504   3.602   3.218 -1.3450  0.0251 -1.0078
 8981SOL     OW38578   1.553   3.512   4.512  0.2213  0.2019  0.5232
 8981SOL    HW138579   1.532   3.527   4.605  0.4019  1.0634  0.4257
 8981SOL    HW238580   1.486   3.566   4.470  0.9668  1.3697  0.8472
 8982SOL     OW38581   2.217   1.911  10.915 -0.4814  0.4842  0.3867
 8982SOL    HW138582   2.247   1.825  10.884 -1.0762  0.3838  0.1009
 8982SOL    HW238583   2.304   1.950  10.902 -1.1826  0.8157 -3.2553
 8983SOL     OW38584   2.318   0.914   4.164 -0.3939  0.7125 -0.1348
 8983SOL    HW138585   2.289   0.840   4.218  2.3094 -0.0848  0.2485
 8983SOL    HW238586   2.281   0.986   4.214  0.2656  0.0816  1.2799
 8984SOL     OW38587   0.986   2.891   3.174 -0.2420 -0.6588  0.0269
 8984SOL    HW138588   0.990   2.981   3.141 -1.7358 -1.2570 -1.7628
 8984SOL    HW238589   1.044   2.839   3.119 -1.3644 -0.1843 -1.6138
 8985SOL     OW38590   1.597   1.868   6.735  0.3462  0.0171 -0.4831
 8985SOL    HW138591   1.558   1.785   6.708 -1.6271  0.4297  1.0050
 8985SOL    HW238592   1.686   1.857   6.704  0.4744 -0.4153  0.0322
 8986SOL     OW38593   4.211   4.253   0.901  1.1911 -0.7833  0.5486
 8986SOL    HW138594   4.142   4.261   0.968  1.9296  2.6685  0.9008
 8986SOL    HW238595   4.175   4.252   0.813  1.2591  4.4183  0.4561
 8987SOL     OW38596   1.580   3.165  10.500 -0.1670 -0.2375  0.6603
 8987SOL    HW138597   1.581   3.178  10.405 -0.9709 -0.5835  0.6049
 8987SOL    HW238598   1.511   3.100  10.508  0.5894 -1.0261  0.7931
 8988SOL     OW38599   4.311   1.701  11.050 -0.2089 -0.2231 -0.5763
 8988SOL    HW138600   4.304   1.628  11.111 -2.7972  1.3031  0.9244
 8988SOL    HW238601   4.332   1.769  11.114  0.2859 -0.6170 -0.3274
 8989SOL     OW38602   2.666   0.463   8.645 -0.8216  0.6479 -0.6312
 8989SOL    HW138603   2.630   0.400   8.707 -2.8526  0.7565 -1.7176
 8989SOL    HW238604   2.593   0.502   8.598 -0.3561  4.2908  1.6510
 8990SOL     OW38605   1.339   1.325   7.553  0.3713 -0.5851 -0.1764
 8990SOL    HW138606   1.413   1.308   7.611  0.0379 -2.5620 -0.3071
 8990SOL    HW238607   1.377   1.396   7.502 -2.3026  0.2761 -0.9811
 8991SOL     OW38608   1.765   1.857   2.561  0.2314  0.3262  0.7601
 8991SOL    HW138609   1.736   1.838   2.650 -1.0790  0.3105  0.3349
 8991SOL    HW238610   1.682   1.878   2.518  0.9555  2.2072  0.2652
 8992SOL     OW38611   1.690   4.108   7.816  0.3239 -0.6075  0.5671
 8992SOL    HW138612   1.748   4.153   7.754 -1.4150 -0.0586 -0.6386
 8992SOL    HW238613   1.625   4.168   7.853 -0.5004 -0.4274 -1.1806
 8993SOL     OW38614   4.593   0.291   7.525  0.0463  0.2026 -0.0997
 8993SOL    HW138615   4.530   0.229   7.562 -0.7315  1.6004  0.9007
 8993SOL    HW238616   4.637   0.319   7.605  0.4628 -1.3811  0.2353
 8994SOL     OW38617   4.644   1.292  12.123 -0.5339 -0.6692  0.0724
 8994SOL    HW138618   4.601   1.354  12.064 -0.6456 -0.9233 -0.1104
 8994SOL    HW238619   4.733   1.322  12.105 -1.2629  1.2853 -0.3048
 8995SOL     OW38620   0.326   4.009   6.588 -0.2805 -0.6721 -0.6202
 8995SOL    HW138621   0.256   3.947   6.608  0.7109 -1.4594  0.3925
 8995SOL    HW238622   0.404   3.955   6.603 -0.8597 -1.3704 -0.1396
 8996SOL     OW38623   0.545   0.583   5.781 -0.2893  0.2106  0.2060
 8996SOL    HW138624   0.499   0.657   5.741 -2.7680 -0.2669  2.1995
 8996SOL    HW238625   0.557   0.613   5.871  1.8433  1.5701 -0.5256
 8997SOL     OW38626   4.403   2.567   8.784 -0.0854 -0.0565  0.1538
 8997SOL    HW138627   4.396   2.472   8.777 -1.3341  0.2163 -2.2005
 8997SOL    HW238628   4.387   2.592   8.693  1.2974  1.7401  0.4148
 8998SOL     OW38629   4.054   2.099   7.571 -0.3424 -0.4169  0.2678
 8998SOL    HW138630   4.145   2.128   7.573 -0.7325  0.7045  1.5598
 8998SOL    HW238631   4.041   2.056   7.486  1.2130 -2.1690  0.9040
 8999SOL     OW38632   0.358   3.444   7.589  0.6051  0.1035  0.0202
 8999SOL    HW138633   0.333   3.377   7.524  0.2130  0.0494  0.2300
 8999SOL    HW238634   0.439   3.406   7.622 -0.4656 -2.3020 -0.1080
 9000SOL     OW38635   4.347   2.131   8.036  0.0210 -0.2608 -0.2996
 9000SOL    HW138636   4.358   2.059   7.974 -1.2132  0.0593 -0.8902
 9000SOL    HW238637   4.354   2.206   7.977  0.5814  0.8839  1.2100
 9001SOL     OW38638   1.692   1.107   5.086 -0.3188  0.0737  0.1854
 9001SOL    HW138639   1.631   1.175   5.116  1.1522  1.3217  0.3196
 9001SOL    HW238640   1.635   1.030   5.089  0.4389 -0.5763 -1.7261
 9002SOL     OW38641   1.141   2.978   8.628 -0.2839 -0.1452 -0.2409
 9002SOL    HW138642   1.090   3.017   8.699 -2.0351 -2.4506 -0.2258
 9002SOL    HW238643   1.154   3.051   8.568 -0.0444 -0.2960 -0.3705
 9003SOL     OW38644   1.986   1.582  17.535 -0.3680 -0.2034 -0.0777
 9003SOL    HW138645   1.907   1.629  17.507 -0.0376 -0.1793 -0.9680
 9003SOL    HW238646   1.947   1.519  17.595 -0.5340 -0.6250 -0.6329
 9004SOL     OW38647   1.048   0.705   5.162 -0.5883 -0.3228  0.1338
 9004SOL    HW138648   0.986   0.656   5.216 -1.5463 -0.4486 -1.0855
 9004SOL    HW238649   1.026   0.797   5.181 -2.9848 -1.1489  1.3476
 9005SOL     OW38650   0.186   1.553  16.192 -0.5003 -0.2505 -0.0369
 9005SOL    HW138651   0.262   1.569  16.248  0.8401 -0.6088 -1.7582
 9005SOL    HW238652   0.150   1.475  16.235 -2.9033  1.2654  0.6628
 9006SOL     OW38653   3.451   1.115   2.456  0.3124  0.2166  0.1021
 9006SOL    HW138654   3.441   1.176   2.383  2.5465  0.5050  0.0544
 9006SOL    HW238655   3.416   1.169   2.527 -1.2339  0.2368 -0.6626
 9007SOL     OW38656   4.569   1.204   8.040  0.3286  0.3187 -0.5352
 9007SOL    HW138657   4.591   1.275   7.980  0.9235 -0.2275 -0.9638
 9007SOL    HW238658   4.602   1.233   8.125 -0.6582  2.3185 -0.8387
 9008SOL     OW38659   2.282   4.090   7.933  0.4676 -0.1783 -0.0591
 9008SOL    HW138660   2.255   4.178   7.957 -1.0266  0.3001 -3.5004
 9008SOL    HW238661   2.197   4.046   7.942  0.1125  0.2086 -1.4185
 9009SOL     OW38662   2.183   0.496   7.826  0.0186  0.6755 -0.1251
 9009SOL    HW138663   2.245   0.503   7.754 -0.0056 -0.2323 -0.2315
 9009SOL    HW238664   2.244   0.496   7.900  0.2586 -1.5471 -0.3134
 9010SOL     OW38665   1.803   4.190  17.147 -0.2251 -0.7003 -0.5707
 9010SOL    HW138666   1.778   4.226  17.061 -1.8211  3.0312  1.4614
 9010SOL    HW238667   1.870   4.126  17.123  0.6029 -0.2436  0.5146
 9011SOL     OW38668   0.321   4.348   4.173  0.1546 -0.1286 -0.2765
 9011SOL    HW138669   0.365   4.424   4.135  1.8569 -1.6179 -1.2633
 9011SOL    HW238670   0.240   4.388   4.203  0.5072  1.2206 -1.1240
 9012SOL     OW38671   2.163   4.302   3.231  0.1296  0.1530  0.1809
 9012SOL    HW138672   2.243   4.354   3.220  0.5755 -0.3357  1.2113
 9012SOL    HW238673   2.174   4.239   3.302  4.2927  0.7410  0.0513
 9013SOL     OW38674   0.582   2.086  15.234 -0.2267 -0.2554 -0.8692
 9013SOL    HW138675   0.592   2.001  15.277  0.7543 -0.9614 -2.4920
 9013SOL    HW238676   0.625   2.073  15.149 -1.3016 -0.7823 -1.3305
 9014SOL     OW38677   0.996   2.635   9.107 -0.3991  0.0308 -0.1282
 9014SOL    HW138678   1.005   2.542   9.084 -0.1539 -0.4350  1.8674
 9014SOL    HW238679   0.905   2.646   9.081 -0.1804  0.9177 -0.5080
 9015SOL     OW38680   3.327   0.663  14.704 -0.0059  0.0463 -0.3182
 9015SOL    HW138681   3.393   0.595  14.717 -1.2654 -1.2532 -0.6735
 9015SOL    HW238682   3.380   0.733  14.666 -0.9914  1.4768  0.9068
 9016SOL     OW38683   2.893   3.051  12.476  0.0194 -0.2690  0.0734
 9016SOL    HW138684   2.894   3.082  12.386  0.7612 -1.5670 -0.3687
 9016SOL    HW238685   2.894   2.956  12.466 -0.5042  0.2136 -4.4028
 9017SOL     OW38686   0.341   2.094   9.078  0.7574  0.3491 -0.3188
 9017SOL    HW138687   0.338   2.104   8.983 -0.9287  0.0010 -0.2998
 9017SOL    HW238688   0.328   2.184   9.107  0.6993  0.7416 -1.5634
 9018SOL     OW38689   0.882   3.135   3.728  0.3133 -0.2560 -0.0465
 9018SOL    HW138690   0.913   3.104   3.643 -1.3955 -1.1814 -0.3400
 9018SOL    HW238691   0.837   3.215   3.703  0.0349 -0.7064 -0.9767
 9019SOL     OW38692   4.259   3.947   2.993  0.0801 -0.1684  0.3781
 9019SOL    HW138693   4.178   3.980   2.956 -0.5978 -2.2447  0.0337
 9019SOL    HW238694   4.222   3.897   3.065  3.1651 -1.3354  1.1846
 9020SOL     OW38695   0.069   1.990   7.655 -0.8294 -0.5048  0.5688
 9020SOL    HW138696   0.107   2.024   7.574 -1.2750  1.0388  1.0124
 9020SOL    HW238697   0.033   1.905   7.627 -3.0388 -0.2886  2.8153
 9021SOL     OW38698   2.678   1.223  14.795  0.5247  0.0613 -0.0332
 9021SOL    HW138699   2.738   1.157  14.831  0.7739  0.3019 -0.0119
 9021SOL    HW238700   2.707   1.209  14.705  0.3601 -0.2272 -0.0426
 9022SOL     OW38701   2.314   0.089  16.301 -0.0350 -0.4986  0.2113
 9022SOL    HW138702   2.255   0.127  16.237 -0.2001 -2.0989 -0.5865
 9022SOL    HW238703   2.384   0.154  16.307 -1.7421  1.3579 -0.0349
 9023SOL     OW38704   4.573   3.029   7.775 -0.5395 -0.4513 -0.2482
 9023SOL    HW138705   4.648   2.979   7.744 -1.3959 -1.2040 -1.1293
 9023SOL    HW238706   4.570   3.028   7.871  1.6099 -0.8165 -0.1926
 9024SOL     OW38707   3.591   2.498   4.745  0.6807 -0.0009 -0.1695
 9024SOL    HW138708   3.557   2.419   4.787 -1.5634  1.1656  0.2219
 9024SOL    HW238709   3.680   2.488   4.780  0.5731  1.2294  0.4567
 9025SOL     OW38710   0.138   3.297   3.913 -0.2517 -0.5802 -0.0447
 9025SOL    HW138711   0.108   3.346   3.990  0.9099 -1.2041  0.8155
 9025SOL    HW238712   0.131   3.209   3.951  2.1818 -0.5560  0.4933
 9026SOL     OW38713   1.786   2.594   1.762 -0.2749 -0.1413 -0.3799
 9026SOL    HW138714   1.878   2.588   1.789  0.1182 -0.4379 -1.8238
 9026SOL    HW238715   1.738   2.565   1.840 -1.9068  1.5824 -0.7503
 9027SOL     OW38716   0.142   4.009  16.039 -0.3823  0.5291  0.1053
 9027SOL    HW138717   0.196   3.955  15.981 -0.4834 -0.8953  1.3326
 9027SOL    HW238718   0.200   4.083  16.057  0.6640 -0.8706  2.4773
 9028SOL     OW38719   4.637   3.286   2.840  0.2516  0.6389  0.1898
 9028SOL    HW138720   4.613   3.199   2.873 -0.8351  0.8630  0.0112
 9028SOL    HW238721   4.726   3.267   2.812 -0.0315  0.5508 -0.6709
 9029SOL     OW38722   2.934   3.501  10.428  0.3501  0.1903  0.0824
 9029SOL    HW138723   2.944   3.540  10.341  3.0088  2.3427  1.3172
 9029SOL    HW238724   2.988   3.422  10.425  1.4404  0.9856 -1.4614
 9030SOL     OW38725   1.000   0.004   0.176 -0.1943  0.0867 -0.1249
 9030SOL    HW138726   1.048   4.662   0.147  0.3900  0.1980  0.5508
 9030SOL    HW238727   1.020   0.062   0.102 -0.6722  0.5973  0.1481
 9031SOL     OW38728   1.427   1.938   1.701 -0.1590 -0.0912 -0.0478
 9031SOL    HW138729   1.470   1.957   1.618  0.8797 -3.3291 -0.2651
 9031SOL    HW238730   1.497   1.958   1.764 -1.0525  2.1650  0.2193
 9032SOL     OW38731   3.153   4.139   6.004 -0.2002 -0.0381 -0.3423
 9032SOL    HW138732   3.133   4.231   6.025  1.8147  0.3231 -0.0147
 9032SOL    HW238733   3.244   4.149   5.978 -0.1358  2.4370  0.7695
 9033SOL     OW38734   3.235   2.155   5.657  0.2140 -0.5181 -0.3081
 9033SOL    HW138735   3.162   2.192   5.607  0.7021  0.5759 -0.2148
 9033SOL    HW238736   3.258   2.075   5.609 -1.3126 -0.6150 -0.8742
 9034SOL     OW38737   4.563   1.669   4.721  0.0806  0.2218  0.1279
 9034SOL    HW138738   4.481   1.657   4.673  0.7092 -0.0979 -0.8665
 9034SOL    HW238739   4.541   1.750   4.767 -1.9273 -0.0266 -0.3733
 9035SOL     OW38740   0.802   3.134  17.185  0.6650  0.3689  0.0605
 9035SOL    HW138741   0.755   3.187  17.249 -0.3985 -1.8574  1.0969
 9035SOL    HW238742   0.845   3.065  17.236  1.4144  0.7629 -0.0261
 9036SOL     OW38743   1.856   1.832   6.693  0.1726  0.3753  0.2570
 9036SOL    HW138744   1.914   1.758   6.710  1.1598  0.7269 -1.6016
 9036SOL    HW238745   1.865   1.889   6.769 -1.6962  0.8446  0.1342
 9037SOL     OW38746   3.174   2.854   3.012  0.4497 -0.3911 -0.4612
 9037SOL    HW138747   3.083   2.884   3.016  1.0001  1.1782  0.3660
 9037SOL    HW238748   3.207   2.908   2.941 -0.0561 -1.5228 -1.5529
 9038SOL     OW38749   3.924   4.231   0.533 -0.2276  0.1022  0.3185
 9038SOL    HW138750   3.911   4.277   0.616  1.1166 -0.3478  0.7855
 9038SOL    HW238751   4.016   4.248   0.516 -0.7961  2.1358 -0.7651
 9039SOL     OW38752   0.657   3.871   7.220 -0.0416  0.2195 -0.0020
 9039SOL    HW138753   0.675   3.929   7.294  4.6620 -1.1109 -0.1079
 9039SOL    HW238754   0.750   3.853   7.207  0.1124  1.4231 -0.5894
 9040SOL     OW38755   0.789   2.050  17.713 -0.1244 -0.0611 -0.4195
 9040SOL    HW138756   0.741   2.132  17.725 -1.0449 -0.6507 -0.0937
 9040SOL    HW238757   0.877   2.083  17.694 -0.9128  0.5166 -3.1340
 9041SOL     OW38758   2.491   0.933  12.054  0.4643 -0.1519 -0.4175
 9041SOL    HW138759   2.489   0.862  12.118 -0.4174  0.9452  0.7675
 9041SOL    HW238760   2.513   1.010  12.106 -0.9743  0.2255 -0.3690
 9042SOL     OW38761   2.552   2.952   1.781 -0.0274 -0.9891  0.1855
 9042SOL    HW138762   2.512   3.038   1.796  2.5373 -0.1842  2.2954
 9042SOL    HW238763   2.628   2.957   1.839 -0.4290  1.6981  0.5218
 9043SOL     OW38764   1.519   3.207   5.366 -0.4367  0.3198  0.0479
 9043SOL    HW138765   1.572   3.167   5.435  1.5701  1.0234 -1.0729
 9043SOL    HW238766   1.568   3.191   5.285 -0.3796  0.1730  0.1120
 9044SOL     OW38767   4.341   0.890  15.219 -0.2150 -0.2172  0.7442
 9044SOL    HW138768   4.403   0.962  15.203  0.2223 -0.6556  0.4653
 9044SOL    HW238769   4.393   0.809  15.215 -0.3115 -0.1221 -3.0760
 9045SOL     OW38770   2.832   0.051   3.018 -0.4915  1.1567  0.3931
 9045SOL    HW138771   2.855   0.022   2.930 -1.3511  0.8549  0.2739
 9045SOL    HW238772   2.752   0.095   2.991 -2.2267 -0.4183  3.0392
 9046SOL     OW38773   1.687   2.868   7.340 -0.2492 -0.3105 -0.4548
 9046SOL    HW138774   1.672   2.948   7.288 -0.2154  0.9235  1.4179
 9046SOL    HW238775   1.656   2.895   7.427 -0.5619 -1.2339 -0.2797
 9047SOL     OW38776   4.040   3.636   8.316 -0.0558 -0.5505  0.2012
 9047SOL    HW138777   4.008   3.686   8.390  2.7749  0.1885  0.9470
 9047SOL    HW238778   3.969   3.643   8.252  0.6845 -1.5213 -0.7564
 9048SOL     OW38779   2.168   0.171   8.495 -0.1253 -0.0927 -0.7541
 9048SOL    HW138780   2.255   0.209   8.484  0.5030 -1.9265 -2.0342
 9048SOL    HW238781   2.114   0.246   8.518  0.8544  0.8071 -1.4229
 9049SOL     OW38782   1.691   1.392   5.198 -0.2106 -0.5644 -0.4686
 9049SOL    HW138783   1.629   1.453   5.158  0.5772 -0.4411 -1.5406
 9049SOL    HW238784   1.776   1.434   5.180  0.1902  0.3596  3.6534
 9050SOL     OW38785   2.829   1.878   6.719 -0.3939  0.5234 -1.1686
 9050SOL    HW138786   2.887   1.954   6.728  1.4848 -0.9610 -0.6270
 9050SOL    HW238787   2.745   1.913   6.691 -1.9084 -1.0614  1.4278
 9051SOL     OW38788   1.904   2.856  13.666  0.0154 -0.1199  0.2986
 9051SOL    HW138789   1.857   2.936  13.645 -0.7170 -0.2119  1.6239
 9051SOL    HW238790   1.977   2.882  13.722  1.2867  2.7558 -2.6855
 9052SOL     OW38791   0.292   2.641  16.845  0.4505 -0.2668  0.0344
 9052SOL    HW138792   0.325   2.731  16.840 -1.0342  0.2288 -0.6618
 9052SOL    HW238793   0.218   2.649  16.785  0.0147 -0.2010  0.5877
 9053SOL     OW38794   1.031   1.008   4.070 -0.7361  0.3312  0.3062
 9053SOL    HW138795   1.029   0.925   4.023  0.7226 -0.2782  1.3206
 9053SOL    HW238796   0.976   1.065   4.016 -1.1845 -0.1859  0.2233
 9054SOL     OW38797   0.393   3.469   0.218  0.2373  0.6042 -0.4098
 9054SOL    HW138798   0.362   3.542   0.270  2.5056  0.7850  0.6869
 9054SOL    HW238799   0.484   3.472   0.249 -0.1832  1.0407  0.7458
 9055SOL     OW38800   2.736   0.392   5.059  0.1552 -0.3945  0.0220
 9055SOL    HW138801   2.665   0.330   5.077 -1.1128  0.6730 -1.2517
 9055SOL    HW238802   2.690   0.457   5.006  1.0539  1.9499  2.1041
 9056SOL     OW38803   0.442   3.550   3.830 -0.7065 -0.1254 -0.0689
 9056SOL    HW138804   0.457   3.627   3.886 -2.1841  2.7047 -3.5912
 9056SOL    HW238805   0.478   3.582   3.747  1.2152  0.4535  0.9712
 9057SOL     OW38806   3.526   1.615  11.220 -0.2719 -0.5771 -0.2291
 9057SOL    HW138807   3.498   1.657  11.139  0.0380 -1.7264 -0.9213
 9057SOL    HW238808   3.618   1.595  11.205  0.3277  0.8286  1.4849
 9058SOL     OW38809   3.369   2.550  11.552  0.2474  0.0139 -0.1299
 9058SOL    HW138810   3.462   2.530  11.540 -0.0451 -1.0106 -0.6639
 9058SOL    HW238811   3.378   2.638  11.517 -2.4947 -0.0862 -1.0359
 9059SOL     OW38812   3.484   0.194   6.836 -0.1426 -0.0370  0.2275
 9059SOL    HW138813   3.502   0.127   6.770  0.5368  1.0513 -0.6934
 9059SOL    HW238814   3.448   0.144   6.909 -0.8440  0.0099 -0.0819
 9060SOL     OW38815   1.098   1.108   6.502  0.1117 -0.2333 -0.3447
 9060SOL    HW138816   1.169   1.055   6.468 -0.9325 -0.6595 -1.8374
 9060SOL    HW238817   1.039   1.099   6.427  0.0288 -0.4493 -0.2524
 9061SOL     OW38818   0.289   3.842   7.825  0.3188  0.9750  0.9324
 9061SOL    HW138819   0.299   3.748   7.808 -2.1260  0.9573 -0.4372
 9061SOL    HW238820   0.214   3.864   7.770 -0.4100 -0.6593  1.2768
 9062SOL     OW38821   2.754   4.623   8.669 -0.4558  0.2119 -0.4144
 9062SOL    HW138822   2.682   4.600   8.610 -0.7512  0.6134 -0.2143
 9062SOL    HW238823   2.767   4.536   8.706 -0.7380  0.8025  1.0959
 9063SOL     OW38824   1.436   3.080   4.833  0.2979  0.3523  0.6528
 9063SOL    HW138825   1.448   3.146   4.765  0.7243 -1.1214 -0.7011
 9063SOL    HW238826   1.489   3.006   4.802 -1.3369 -0.0000 -1.2643
 9064SOL     OW38827   1.903   2.972   0.135 -0.6330 -0.2435  0.1358
 9064SOL    HW138828   1.929   2.920   0.059 -0.2800  0.2963 -0.1174
 9064SOL    HW238829   1.832   3.021   0.091  0.4736  1.2406 -0.0180
 9065SOL     OW38830   2.510   2.290   6.712  0.2298  0.4023  0.2086
 9065SOL    HW138831   2.454   2.328   6.644  1.7341  1.0931 -0.6536
 9065SOL    HW238832   2.563   2.368   6.731  0.0270  1.0821 -2.0483
 9066SOL     OW38833   1.288   1.178   8.017  0.3785  0.0511  0.1050
 9066SOL    HW138834   1.282   1.189   8.112  2.6479 -2.6533  0.5651
 9066SOL    HW238835   1.293   1.082   8.009  0.6723 -0.0963  1.9539
 9067SOL     OW38836   0.914   1.814   5.739 -0.6248  0.1441  0.3951
 9067SOL    HW138837   0.983   1.807   5.673  1.6178 -0.2062  2.7365
 9067SOL    HW238838   0.838   1.848   5.693 -0.1540  1.2306  0.4279
 9068SOL     OW38839   0.399   2.074  12.295  0.6535  0.3069 -0.0319
 9068SOL    HW138840   0.341   2.118  12.232 -1.7910 -1.4889  0.9384
 9068SOL    HW238841   0.411   2.145  12.357  0.2899 -0.7334  1.2207
 9069SOL     OW38842   2.714   0.698  10.173 -0.1135  0.8488 -0.9497
 9069SOL    HW138843   2.747   0.613  10.146 -1.0416 -0.6572  2.7374
 9069SOL    HW238844   2.628   0.666  10.200 -1.2609  2.1908 -3.0097
 9070SOL     OW38845   0.850   1.937   4.823  0.1063  0.3000  0.0395
 9070SOL    HW138846   0.910   1.866   4.843 -0.2196  0.1188  0.3806
 9070SOL    HW238847   0.920   1.990   4.785 -2.1954  1.2860 -2.8315
 9071SOL     OW38848   3.776   2.830   5.958  0.4356 -0.0761  0.8517
 9071SOL    HW138849   3.790   2.744   5.917 -1.3761 -0.5597  1.2372
 9071SOL    HW238850   3.860   2.873   5.942 -0.9704  2.9239  1.6150
 9072SOL     OW38851   0.869   2.601   8.198  0.0254 -0.1280  0.1777
 9072SOL    HW138852   0.898   2.680   8.243  2.3317 -0.8120 -0.1118
 9072SOL    HW238853   0.774   2.608   8.205  0.1927  0.9352  1.4879
 9073SOL     OW38854   3.146   2.664   8.625  0.0239  0.2328  0.1553
 9073SOL    HW138855   3.118   2.706   8.545 -1.1963 -1.3494 -0.2512
 9073SOL    HW238856   3.070   2.609   8.644  0.2240  0.3139  1.2336
 9074SOL     OW38857   4.369   2.953   5.600  0.1167 -0.0406 -0.5504
 9074SOL    HW138858   4.286   2.992   5.626 -1.1820 -2.9537 -0.2993
 9074SOL    HW238859   4.377   2.993   5.513 -1.3161 -1.4102 -1.3137
 9075SOL     OW38860   3.039   2.093   5.169  0.4648  0.2311 -0.0841
 9075SOL    HW138861   3.004   2.140   5.093  0.6475 -0.9181 -0.8900
 9075SOL    HW238862   2.958   2.084   5.219  1.6873 -1.3818  1.6261
 9076SOL     OW38863   4.278   0.697  14.010 -0.3074 -0.0898 -0.2969
 9076SOL    HW138864   4.258   0.747  14.089  0.9055  1.1288 -0.7662
 9076SOL    HW238865   4.239   0.614  14.038  1.4739 -0.7644  0.1785
 9077SOL     OW38866   1.504   2.356   4.629 -0.4997 -0.2186 -0.6261
 9077SOL    HW138867   1.474   2.374   4.718  1.4278 -0.6349  0.1039
 9077SOL    HW238868   1.420   2.349   4.584 -1.2615 -0.2647  0.8197
 9078SOL     OW38869   0.118   3.973   5.052 -0.3355  0.0618  0.1722
 9078SOL    HW138870   0.094   3.888   5.090 -0.9897  0.1268 -0.0836
 9078SOL    HW238871   0.059   4.041   5.085  0.5800  0.4059  1.0860
 9079SOL     OW38872   2.973   3.869   3.849 -0.0120  0.4336 -0.2489
 9079SOL    HW138873   2.928   3.847   3.930  2.0510 -0.6757  0.5960
 9079SOL    HW238874   2.970   3.785   3.803  0.0780  0.4696 -0.3212
 9080SOL     OW38875   3.571   0.849  10.678 -0.0057  0.2797  0.0693
 9080SOL    HW138876   3.639   0.850  10.611  0.4426  0.7529  0.5352
 9080SOL    HW238877   3.610   0.898  10.749 -0.0003  0.1921  0.1268
 9081SOL     OW38878   4.517   2.975   8.034 -0.1205 -0.2418 -0.2788
 9081SOL    HW138879   4.523   2.881   8.053  0.8911 -0.4385 -1.5480
 9081SOL    HW238880   4.482   3.020   8.111  2.2850 -0.6031  1.0472
 9082SOL     OW38881   2.436   3.587   2.274  0.4543  0.6182  0.4886
 9082SOL    HW138882   2.373   3.643   2.319  0.1965 -0.7612  1.8457
 9082SOL    HW238883   2.453   3.522   2.343  1.0366 -0.8484 -1.0310
 9083SOL     OW38884   2.731   0.639   5.836 -0.1216  0.3447  0.4094
 9083SOL    HW138885   2.659   0.589   5.797 -0.9053  1.8311 -0.0523
 9083SOL    HW238886   2.780   0.671   5.760 -0.7458 -0.2545 -0.2527
 9084SOL     OW38887   0.670   0.326   5.821 -0.1915 -0.7595  0.0148
 9084SOL    HW138888   0.595   0.384   5.811 -0.4248 -0.9469  0.7134
 9084SOL    HW238889   0.670   0.286   5.734  2.3612 -1.9227  0.5428
 9085SOL     OW38890   1.125   1.916   6.988 -0.1901  0.3718 -0.0755
 9085SOL    HW138891   1.124   2.007   7.018 -0.8703 -0.0473  1.1641
 9085SOL    HW238892   1.078   1.867   7.056  0.3323  0.0540  0.0554
 9086SOL     OW38893   1.093   4.489   6.374 -0.0572 -0.4999  0.1587
 9086SOL    HW138894   1.108   4.486   6.468 -0.0521 -0.4671  0.1589
 9086SOL    HW238895   1.019   4.549   6.370 -0.7549 -1.4671 -1.6339
 9087SOL     OW38896   3.422   4.430   4.526  0.0813  0.0408  0.2536
 9087SOL    HW138897   3.472   4.377   4.463 -0.6083 -2.4332  1.7969
 9087SOL    HW238898   3.413   4.372   4.602  2.2191 -3.2893 -2.0563
 9088SOL     OW38899   2.910   3.647   2.462  0.4924 -0.4405 -0.1390
 9088SOL    HW138900   2.823   3.687   2.458  1.2494  0.9792 -2.2629
 9088SOL    HW238901   2.918   3.616   2.372 -0.4890  3.5797 -1.5895
 9089SOL     OW38902   3.187   1.485   2.167  0.2135 -0.3040  0.0357
 9089SOL    HW138903   3.119   1.424   2.138  0.7224 -0.3312 -1.1005
 9089SOL    HW238904   3.236   1.509   2.088 -1.1151 -2.3529 -1.4017
 9090SOL     OW38905   0.424   4.005   1.657  0.1990  0.4359  0.3372
 9090SOL    HW138906   0.463   3.997   1.744  1.4376  1.6757 -0.1042
 9090SOL    HW238907   0.346   4.052   1.687  0.1343  0.5107  0.0469
 9091SOL     OW38908   2.919   4.413   6.912 -0.0810 -0.0989  0.0656
 9091SOL    HW138909   2.968   4.466   6.849 -0.4056  0.4740  0.2969
 9091SOL    HW238910   2.946   4.327   6.880  0.6058 -0.5192  1.7263
 9092SOL     OW38911   1.438   0.287   5.646 -0.0567  0.1055 -0.8315
 9092SOL    HW138912   1.425   0.342   5.724  0.1112 -2.1060  0.7511
 9092SOL    HW238913   1.394   0.346   5.584  1.4164 -1.0331 -2.9568
 9093SOL     OW38914   3.488   0.048  17.239  0.0422 -0.6872  0.1998
 9093SOL    HW138915   3.553   4.721  17.206  0.7833  1.4629 -2.3953
 9093SOL    HW238916   3.407   4.734  17.248  0.2844 -0.9836  0.7453
 9094SOL     OW38917   2.972   1.202  10.880  0.7871  0.3137  0.2036
 9094SOL    HW138918   2.933   1.199  10.967  0.8640  1.8526  0.2787
 9094SOL    HW238919   2.937   1.285  10.847  0.0621 -0.9684 -2.2684
 9095SOL     OW38920   4.491   3.836   3.547  0.2904 -0.1884  0.2171
 9095SOL    HW138921   4.482   3.931   3.543  0.8633 -0.1522 -0.2418
 9095SOL    HW238922   4.407   3.793   3.530 -0.2313  1.1369 -0.5073
 9096SOL     OW38923   0.618   0.908   3.188  0.3942 -0.7512 -0.1955
 9096SOL    HW138924   0.618   0.825   3.140  1.9503 -1.0074  0.2553
 9096SOL    HW238925   0.712   0.924   3.180  0.5036 -0.6497  1.2152
 9097SOL     OW38926   3.866   4.719   6.056 -0.1246  0.1859  0.0463
 9097SOL    HW138927   3.888   4.670   5.977 -0.6124  0.3167 -0.1675
 9097SOL    HW238928   3.799   4.662   6.093 -0.6966  0.4044 -0.6555
 9098SOL     OW38929   1.154   1.271   4.828  0.3104  0.4856 -0.2687
 9098SOL    HW138930   1.073   1.323   4.830  0.4547  0.6570  1.3601
 9098SOL    HW238931   1.163   1.248   4.921  1.6997 -1.4785 -0.9024
 9099SOL     OW38932   0.786   4.699  17.132  0.8593 -0.1664  0.1189
 9099SOL    HW138933   0.774   4.606  17.151 -0.1905 -0.1580 -0.5068
 9099SOL    HW238934   0.793   4.685  17.037  0.8087 -0.5850  0.1799
 9100SOL     OW38935   2.884   4.101   1.846  0.4548  0.1432  0.4325
 9100SOL    HW138936   2.921   4.019   1.879  1.6046  0.4064 -0.2200
 9100SOL    HW238937   2.793   4.090   1.874  0.4253 -0.5860  0.0553
 9101SOL     OW38938   2.634   2.499  10.900  0.5236 -0.1245 -0.2278
 9101SOL    HW138939   2.683   2.564  10.850  0.3873  0.0460 -0.1367
 9101SOL    HW238940   2.591   2.547  10.970  0.6168  0.2471 -0.4232
 9102SOL     OW38941   3.094   4.465   2.450  0.2782 -0.0606 -0.2699
 9102SOL    HW138942   3.133   4.461   2.363 -2.1403 -0.2377 -1.3341
 9102SOL    HW238943   3.174   4.470   2.503 -0.1258  1.2416  0.1913
 9103SOL     OW38944   3.862   1.108   5.348 -0.2653  0.0118 -0.6160
 9103SOL    HW138945   3.828   1.021   5.368  1.0514 -1.1185 -3.3213
 9103SOL    HW238946   3.912   1.142   5.423  1.0380 -1.7403 -0.6960
 9104SOL     OW38947   1.882   4.094   2.676 -0.3594  0.4176  0.2004
 9104SOL    HW138948   1.850   4.106   2.765 -0.7091 -0.3768  0.1768
 9104SOL    HW238949   1.972   4.064   2.686 -0.4185 -0.3997 -1.7557
 9105SOL     OW38950   1.693   0.682   8.303 -0.6182 -0.4612  0.3910
 9105SOL    HW138951   1.646   0.759   8.336  0.3542  0.0487  0.5768
 9105SOL    HW238952   1.641   0.608   8.332 -0.4433 -1.2553 -1.3493
 9106SOL     OW38953   2.538   0.743   7.033 -0.4598 -0.6124  0.9236
 9106SOL    HW138954   2.557   0.836   7.020  0.4206 -1.0031 -0.6028
 9106SOL    HW238955   2.534   0.700   6.947 -0.8908 -0.6076  0.9459
 9107SOL     OW38956   0.048   3.885   8.515 -0.1435  0.1888  0.1979
 9107SOL    HW138957   0.089   3.966   8.545  0.7895 -0.6791  1.2594
 9107SOL    HW238958   0.069   3.888   8.421 -2.7706 -1.9400 -0.4550
 9108SOL     OW38959   0.097   3.501  11.989 -0.1871 -0.3894 -0.5207
 9108SOL    HW138960   0.166   3.500  11.922 -0.4175 -2.5891 -0.7181
 9108SOL    HW238961   0.039   3.574  11.969 -0.2446  0.1653  1.6461
 9109SOL     OW38962   2.333   1.931  15.530 -0.2855 -0.0522 -0.2094
 9109SOL    HW138963   2.301   1.980  15.454 -0.4321  0.2203  0.0307
 9109SOL    HW238964   2.425   1.914  15.509  0.2064  1.0914  0.9756
 9110SOL     OW38965   2.004   2.691  13.196 -0.8311  0.6089 -0.4581
 9110SOL    HW138966   1.927   2.718  13.245 -0.0111  0.4027  0.9334
 9110SOL    HW238967   1.975   2.601  13.189 -0.3688  0.5406 -1.4916
 9111SOL     OW38968   0.938   3.064   1.112  0.0438  0.0703  0.0641
 9111SOL    HW138969   0.859   3.118   1.108  0.3271  0.3594 -1.4717
 9111SOL    HW238970   0.889   2.983   1.125 -1.4872  0.4621 -3.3764
 9112SOL     OW38971   0.807   2.846   2.155 -0.2521  0.4096  0.2335
 9112SOL    HW138972   0.748   2.817   2.224  1.4895  0.8601  1.9102
 9112SOL    HW238973   0.844   2.763   2.125  0.9563  0.5391  1.3453
 9113SOL     OW38974   2.113   2.699   3.556 -0.0358 -0.3651  0.0744
 9113SOL    HW138975   2.154   2.657   3.632  1.2608  0.9410  0.0973
 9113SOL    HW238976   2.034   2.651   3.530  0.6032 -1.3111 -0.1367
 9114SOL     OW38977   0.116   1.357   2.586 -0.0952  0.0653 -0.2743
 9114SOL    HW138978   0.147   1.309   2.510 -0.3200 -0.0623 -0.2847
 9114SOL    HW238979   0.056   1.415   2.538 -0.1000 -0.7309 -1.2226
 9115SOL     OW38980   1.603   2.964   9.947  0.3935 -0.5324 -0.1850
 9115SOL    HW138981   1.609   2.953   9.852  0.5628 -0.0178 -0.2301
 9115SOL    HW238982   1.659   2.894   9.982  2.3199  0.0077 -2.1827
 9116SOL     OW38983   3.664   4.594  16.072 -0.1373 -0.4772  0.4591
 9116SOL    HW138984   3.729   4.557  16.012  0.2257 -0.7175  1.0012
 9116SOL    HW238985   3.724   4.621  16.141  0.5909  0.3356 -0.4924
 9117SOL     OW38986   1.763   0.666   5.068 -0.0723  0.2604  0.1705
 9117SOL    HW138987   1.846   0.704   5.095  0.0694 -0.8028  1.2071
 9117SOL    HW238988   1.787   0.634   4.981  1.7751 -0.4373  0.9336
 9118SOL     OW38989   1.120   1.222   1.071  0.2110  0.3714 -0.0217
 9118SOL    HW138990   1.164   1.278   1.008  0.6371  1.0421  0.8788
 9118SOL    HW238991   1.178   1.146   1.064 -0.4034  0.0384 -1.4811
 9119SOL     OW38992   4.646   3.298  12.683 -0.1874 -0.6872  0.2607
 9119SOL    HW138993   4.662   3.210  12.650 -0.9724 -2.1808  3.9204
 9119SOL    HW238994   4.688   3.356  12.619 -2.4498  0.8051  0.1329
 9120SOL     OW38995   2.478   2.746   9.274  0.3092 -0.3136  0.5497
 9120SOL    HW138996   2.504   2.660   9.240 -0.7829 -0.2900 -0.3400
 9120SOL    HW238997   2.525   2.760   9.356 -0.9445  0.5686  1.1221
 9121SOL     OW38998   4.217   0.491   1.746  0.3889 -0.4874  0.0331
 9121SOL    HW138999   4.308   0.500   1.776 -0.1776  1.1361  1.2298
 9121SOL    HW239000   4.208   0.401   1.715  1.3635  0.0058 -1.7145
 9122SOL     OW39001   0.095   1.697   2.770 -0.1979  0.0949 -0.0027
 9122SOL    HW139002   0.143   1.615   2.782  1.6377  1.1673 -0.0165
 9122SOL    HW239003   0.168   1.759   2.781 -3.2379  3.5869  0.5000
 9123SOL     OW39004   0.571   3.144   3.056 -0.0023  0.1688 -0.4121
 9123SOL    HW139005   0.663   3.136   3.032  0.4048  0.7290  1.0006
 9123SOL    HW239006   0.574   3.168   3.148  1.9340 -2.4260  0.2131
 9124SOL     OW39007   2.354   1.967   2.034  0.5305  0.0970  0.2764
 9124SOL    HW139008   2.287   2.019   1.989  0.1629  0.1264  0.8677
 9124SOL    HW239009   2.340   1.888   1.983 -0.2793  0.2290  0.2972
 9125SOL     OW39010   1.543   2.397  16.259  0.0875 -0.0982  0.0183
 9125SOL    HW139011   1.482   2.332  16.292 -0.5782  0.2543 -0.5376
 9125SOL    HW239012   1.560   2.447  16.339  2.0240  1.1828 -1.1831
 9126SOL     OW39013   4.133   1.144   9.574 -0.2325 -0.3002  0.6057
 9126SOL    HW139014   4.063   1.160   9.637 -1.2111 -1.1849 -0.2550
 9126SOL    HW239015   4.197   1.213   9.590 -1.2628  0.7903  0.0491
 9127SOL     OW39016   0.011   2.249   4.649  0.1625 -0.3508 -0.1611
 9127SOL    HW139017   0.033   2.291   4.566 -0.4013 -1.1380 -0.6953
 9127SOL    HW239018   4.653   2.236   4.635  0.1248  1.5873 -1.7760
 9128SOL     OW39019   3.795   1.727   2.142 -0.6697  0.1631  0.5699
 9128SOL    HW139020   3.866   1.663   2.143 -2.1495 -1.4991  0.3941
 9128SOL    HW239021   3.828   1.797   2.087 -0.0108 -0.0027  0.7539
 9129SOL     OW39022   2.294   1.637  10.053 -0.2638 -0.1172  0.1423
 9129SOL    HW139023   2.283   1.590   9.970  0.3356 -0.3091  0.1758
 9129SOL    HW239024   2.389   1.642  10.052 -0.2851  0.6497  1.3416
 9130SOL     OW39025   1.084   4.423  16.292 -0.2282  0.4648  0.0815
 9130SOL    HW139026   1.048   4.339  16.319 -0.3385  0.1743 -1.0062
 9130SOL    HW239027   1.140   4.440  16.368 -1.5151 -0.0035  1.1311
 9131SOL     OW39028   1.199   2.326   6.504 -0.6757 -0.0359 -0.3265
 9131SOL    HW139029   1.236   2.353   6.588 -0.3059  1.6730 -1.0202
 9131SOL    HW239030   1.201   2.231   6.507 -1.4113 -0.0805 -1.4181
 9132SOL     OW39031   1.089   2.540   6.402  0.2231 -0.1063  0.6502
 9132SOL    HW139032   1.070   2.596   6.478  0.5888 -0.5541  1.0719
 9132SOL    HW239033   1.121   2.461   6.445  0.1848 -0.4069  0.1232
 9133SOL     OW39034   2.410   1.113   0.589 -0.0116  0.0155  0.2703
 9133SOL    HW139035   2.400   1.052   0.516 -1.1477  2.2871 -1.4776
 9133SOL    HW239036   2.377   1.051   0.655  1.6476 -0.1917  0.9015
 9134SOL     OW39037   0.483   2.096  10.833  0.5127 -0.2046  0.0594
 9134SOL    HW139038   0.493   2.123  10.741 -0.1234  3.9424  1.1960
 9134SOL    HW239039   0.388   2.096  10.846  0.4334  0.1180 -0.4806
 9135SOL     OW39040   2.102   0.739   5.505  0.1774 -0.3309  0.1104
 9135SOL    HW139041   2.158   0.730   5.428 -0.5701  2.0712 -0.7203
 9135SOL    HW239042   2.123   0.825   5.543  1.1327 -0.7325  0.4708
 9136SOL     OW39043   2.072   2.480   1.543 -0.2864  0.2602 -0.3174
 9136SOL    HW139044   2.119   2.423   1.483 -1.3690  1.5354 -2.3839
 9136SOL    HW239045   2.013   2.418   1.586 -0.2285 -0.9783 -2.0390
 9137SOL     OW39046   0.469   1.024   2.066  0.2826 -0.4993 -0.8198
 9137SOL    HW139047   0.539   1.074   2.024 -0.2894  0.0664 -1.0842
 9137SOL    HW239048   0.403   1.007   1.999  2.3403  0.5373 -3.0869
 9138SOL     OW39049   2.789   1.348   4.557  0.1976  0.1071  0.3532
 9138SOL    HW139050   2.785   1.274   4.617  2.7069  1.9758  2.8478
 9138SOL    HW239051   2.799   1.299   4.475  0.5921  1.0233 -0.1511
 9139SOL     OW39052   3.022   2.237   7.967 -0.2739  0.4333 -0.5518
 9139SOL    HW139053   3.097   2.178   7.975  0.3785  1.4583  0.8401
 9139SOL    HW239054   2.959   2.181   7.923  0.3237 -1.0191  0.4194
 9140SOL     OW39055   1.624   1.076   2.133 -0.1733  0.8272 -0.1262
 9140SOL    HW139056   1.607   0.987   2.100  0.1172  0.6894  0.1006
 9140SOL    HW239057   1.537   1.115   2.139  0.3726  2.0404 -0.1807
 9141SOL     OW39058   4.474   4.445   8.737 -0.1612 -0.4306  0.4743
 9141SOL    HW139059   4.380   4.437   8.751 -0.4591  1.1122 -0.5457
 9141SOL    HW239060   4.483   4.374   8.673 -1.1993 -0.1539  0.0217
 9142SOL     OW39061   3.802   2.138   6.923  0.4758 -0.1866  0.1983
 9142SOL    HW139062   3.849   2.104   6.999  1.5519 -0.7703 -0.7352
 9142SOL    HW239063   3.723   2.084   6.918  1.2286 -1.1584 -1.4193
 9143SOL     OW39064   1.629   2.915  14.528 -0.1391 -0.5495 -0.2034
 9143SOL    HW139065   1.686   2.840  14.508  0.6581  0.9631 -3.5005
 9143SOL    HW239066   1.543   2.880  14.501  0.4708 -1.9901 -0.2791
 9144SOL     OW39067   2.791   4.333  12.838  0.7413  0.0131 -0.1672
 9144SOL    HW139068   2.798   4.357  12.746 -1.6131 -1.2851 -0.6678
 9144SOL    HW239069   2.720   4.392  12.860 -0.3485 -1.2510 -0.3060
 9145SOL     OW39070   4.557   4.702   5.641  0.1587  0.0325 -0.1558
 9145SOL    HW139071   4.588   4.658   5.720  0.3581  1.3524  0.5081
 9145SOL    HW239072   4.506   0.039   5.680  1.4608 -1.2727  4.0287
 9146SOL     OW39073   4.245   1.042  14.906  0.5870  0.0305 -0.0086
 9146SOL    HW139074   4.315   1.105  14.925 -1.0214  1.5395  0.9032
 9146SOL    HW239075   4.204   1.066  14.824  0.8965  1.8196  0.3481
 9147SOL     OW39076   3.753   1.697  15.257  0.0213 -0.0465 -0.3891
 9147SOL    HW139077   3.710   1.704  15.342 -1.0837  1.4057 -1.0789
 9147SOL    HW239078   3.763   1.785  15.222  0.3190 -1.3525 -3.5835
 9148SOL     OW39079   3.251   1.982   7.931 -0.1281 -0.0356  0.4617
 9148SOL    HW139080   3.226   2.015   8.017 -1.9184  0.3311 -0.2012
 9148SOL    HW239081   3.296   1.900   7.949  0.2886 -0.0203 -0.5102
 9149SOL     OW39082   1.990   4.681  12.968  0.1882 -0.4501 -0.0670
 9149SOL    HW139083   2.038   0.026  12.988 -1.2214  0.7288 -1.4070
 9149SOL    HW239084   2.034   4.603  13.001 -0.6458 -1.2158 -0.7385
 9150SOL     OW39085   2.006   0.655   2.870 -0.0590  0.1771 -0.3864
 9150SOL    HW139086   2.065   0.663   2.945 -1.0288  1.1597  0.2814
 9150SOL    HW239087   1.954   0.579   2.897  0.1526  0.3259  0.4645
 9151SOL     OW39088   2.014   2.211   2.598  0.0324  0.5980  0.2725
 9151SOL    HW139089   2.077   2.158   2.646  1.0210  0.2803 -1.3864
 9151SOL    HW239090   2.062   2.283   2.558  0.0228 -0.6270 -1.9712
 9152SOL     OW39091   0.161   0.466  14.787  0.2607 -0.4018 -0.2167
 9152SOL    HW139092   0.146   0.439  14.696  1.8208  0.8034 -0.8351
 9152SOL    HW239093   0.254   0.457  14.810  0.3408  1.2665  0.0847
 9153SOL     OW39094   0.506   1.066  14.371  0.0010  0.1503  0.3741
 9153SOL    HW139095   0.489   1.084  14.279  1.2883 -0.6215 -0.0127
 9153SOL    HW239096   0.594   1.102  14.378  0.3239 -0.4735 -0.6004
 9154SOL     OW39097   3.907   3.229   1.226  0.1364 -0.1357  0.2126
 9154SOL    HW139098   3.849   3.157   1.202 -0.9406 -0.0666  2.6029
 9154SOL    HW239099   3.882   3.235   1.318 -0.1144  0.8835  0.0834
 9155SOL     OW39100   4.466   1.902   3.311  0.2948 -0.8282 -0.1838
 9155SOL    HW139101   4.471   1.994   3.287  1.3270 -1.6964 -3.3507
 9155SOL    HW239102   4.418   1.855   3.243 -1.0820  1.0014 -0.4763
 9156SOL     OW39103   4.352   0.508  11.269  0.5890  0.3360 -0.1872
 9156SOL    HW139104   4.304   0.519  11.187  0.6802  1.3505 -0.1059
 9156SOL    HW239105   4.435   0.554  11.255  1.0941 -0.8823 -1.1617
 9157SOL     OW39106   2.331   2.341   2.131  0.3802  0.1107  0.9489
 9157SOL    HW139107   2.315   2.322   2.223  0.0288 -2.5980  0.3468
 9157SOL    HW239108   2.422   2.369   2.138  0.6762 -0.5083 -0.3208
 9158SOL     OW39109   0.329   0.064  15.947 -0.1529 -0.1900 -0.4632
 9158SOL    HW139110   0.312   0.157  15.935  1.1590  0.4732  2.8019
 9158SOL    HW239111   0.411   0.071  15.996 -1.3861 -0.0317  1.5642
 9159SOL     OW39112   0.376   0.283   3.124  0.1381  0.1410 -0.2210
 9159SOL    HW139113   0.416   0.271   3.038  0.2766  1.3344 -0.3229
 9159SOL    HW239114   0.432   0.229   3.180  1.0166 -0.7401 -1.9195
 9160SOL     OW39115   0.338   4.562   8.184 -0.4657  0.0637  0.1758
 9160SOL    HW139116   0.366   4.619   8.256 -0.9184 -0.6746  0.9302
 9160SOL    HW239117   0.247   4.592   8.175 -0.9741 -1.0008  1.9175
 9161SOL     OW39118   1.248   1.397   2.044 -0.2616  0.9041  0.5516
 9161SOL    HW139119   1.189   1.460   2.084  0.3985  1.3569  0.8160
 9161SOL    HW239120   1.189   1.322   2.034 -0.7635  1.4785 -0.7537
 9162SOL     OW39121   1.470   4.036  11.215  0.5235  0.0424 -0.0486
 9162SOL    HW139122   1.443   4.042  11.124 -0.9799  3.5989  0.6219
 9162SOL    HW239123   1.415   3.969  11.254 -3.6135  3.7654  0.5836
 9163SOL     OW39124   3.088   1.780   5.264 -0.0191  0.0109  0.4257
 9163SOL    HW139125   3.042   1.828   5.195 -0.3366 -1.5007 -0.4153
 9163SOL    HW239126   3.105   1.853   5.324 -0.3669 -0.3167  0.9251
 9164SOL     OW39127   0.462   1.679  15.589  0.2356 -0.3965  0.1318
 9164SOL    HW139128   0.425   1.590  15.591  0.4333 -0.5516 -3.1328
 9164SOL    HW239129   0.530   1.667  15.655  0.2932 -0.6233  0.0331
 9165SOL     OW39130   2.627   4.048   3.718  0.0686 -0.0467 -0.1504
 9165SOL    HW139131   2.693   4.104   3.758  0.4129  0.0769 -0.8966
 9165SOL    HW239132   2.643   3.962   3.758 -0.4783 -0.7189 -1.3686
 9166SOL     OW39133   0.108   4.510   3.352  0.1389 -0.1160  0.0246
 9166SOL    HW139134   0.177   4.463   3.306  0.2790 -0.5137  0.6410
 9166SOL    HW239135   0.027   4.490   3.303 -0.2691  1.4024  0.0854
 9167SOL     OW39136   3.564   4.560   5.533  0.2436 -0.2495  0.0317
 9167SOL    HW139137   3.517   4.488   5.575 -0.6588 -0.1608 -0.8139
 9167SOL    HW239138   3.584   4.616   5.608  0.3969 -0.1739 -0.0659
 9168SOL     OW39139   0.277   1.591   5.745  0.1509  0.0329  0.1390
 9168SOL    HW139140   0.273   1.503   5.707 -1.3646 -0.6647  1.9138
 9168SOL    HW239141   0.365   1.581   5.780 -0.0238  0.8854  0.8405
 9169SOL     OW39142   0.872   1.580  15.999  0.2468 -0.0959  0.6890
 9169SOL    HW139143   0.963   1.610  16.000  0.6204 -1.2123 -0.6156
 9169SOL    HW239144   0.844   1.585  16.091  0.6385  0.5336  0.7740
 9170SOL     OW39145   0.815   3.939   6.776  0.2714  0.8326 -0.2840
 9170SOL    HW139146   0.894   3.887   6.791 -0.6244 -0.2893  0.5877
 9170SOL    HW239147   0.845   3.994   6.704 -1.9516  1.5878 -0.6604
 9171SOL     OW39148   3.028   3.852   8.569  0.3206 -0.5048  0.4566
 9171SOL    HW139149   3.013   3.896   8.652  0.8039  3.6996 -1.7079
 9171SOL    HW239150   3.003   3.919   8.506 -2.0308 -3.4249 -1.6637
 9172SOL     OW39151   0.091   1.877  14.188 -0.4262  0.4307 -0.5073
 9172SOL    HW139152   4.733   1.878  14.167 -0.3664 -2.2313 -0.9063
 9172SOL    HW239153   0.131   1.815  14.126 -0.9008  0.7017 -1.0779
 9173SOL     OW39154   0.906   2.144   9.249 -0.3230  0.2458  0.1650
 9173SOL    HW139155   0.970   2.202   9.211  0.5362 -1.0995 -0.4439
 9173SOL    HW239156   0.941   2.121   9.336 -1.1994  0.0407  0.4655
 9174SOL     OW39157   4.422   0.771   0.441 -0.3070  0.3158  0.0049
 9174SOL    HW139158   4.401   0.806   0.528 -0.6073  1.6148 -0.5836
 9174SOL    HW239159   4.330   0.775   0.415 -0.0412  3.2721 -0.4838
 9175SOL     OW39160   3.993   0.734   2.837 -0.3177 -0.5682  0.2159
 9175SOL    HW139161   3.975   0.646   2.803  1.1251 -0.7987  0.0467
 9175SOL    HW239162   4.048   0.707   2.911 -0.4816  1.0002  0.8999
 9176SOL     OW39163   1.803   2.674   9.483  0.4779 -0.1223 -0.1459
 9176SOL    HW139164   1.877   2.614   9.481  0.3472 -0.2288 -1.3749
 9176SOL    HW239165   1.727   2.617   9.466  0.8072 -0.0571 -1.8108
 9177SOL     OW39166   2.430   2.764  16.667  0.1993  0.5259  0.0349
 9177SOL    HW139167   2.505   2.800  16.619  1.7251 -1.6204  0.8152
 9177SOL    HW239168   2.467   2.722  16.745 -0.6491 -1.7862 -0.7865
 9178SOL     OW39169   2.398   2.929  16.351 -0.0068  0.2905 -0.1925
 9178SOL    HW139170   2.445   3.008  16.377 -1.3653  1.2722 -0.7568
 9178SOL    HW239171   2.452   2.895  16.279  3.9392  2.9133  1.5405
 9179SOL     OW39172   2.351   0.662   9.283 -0.8580  0.1421  0.1599
 9179SOL    HW139173   2.441   0.630   9.276 -0.7827  0.1169  1.2018
 9179SOL    HW239174   2.305   0.586   9.246  2.4235 -1.1055 -1.3575
 9180SOL     OW39175   4.016   1.465  11.453 -0.6275 -0.0849 -0.9941
 9180SOL    HW139176   3.944   1.438  11.509 -1.0848  0.8658 -1.1246
 9180SOL    HW239177   4.095   1.449  11.505  0.6439  0.0850 -2.8560
 9181SOL     OW39178   1.859   3.792   9.966  0.7900  0.0713 -0.1149
 9181SOL    HW139179   1.810   3.725  10.014 -3.4851  1.6867 -2.1707
 9181SOL    HW239180   1.887   3.855  10.032  1.2949  1.3738 -1.5735
 9182SOL     OW39181   0.577   0.554   1.836  0.5957 -0.6268  0.2568
 9182SOL    HW139182   0.576   0.468   1.876 -0.7280 -1.3741 -1.3568
 9182SOL    HW239183   0.660   0.548   1.789  0.0365 -1.4301 -0.6306
 9183SOL     OW39184   2.615   1.797  16.337 -0.2776 -0.1012 -0.3988
 9183SOL    HW139185   2.652   1.711  16.357  1.1463  0.2211 -1.6181
 9183SOL    HW239186   2.663   1.845  16.403 -0.3245  1.1617 -1.2767
 9184SOL     OW39187   2.532   1.280   8.922  0.0214 -0.1427 -0.3687
 9184SOL    HW139188   2.577   1.289   9.006 -0.1807  0.3691 -0.3220
 9184SOL    HW239189   2.585   1.208   8.887  1.1709  0.8157 -0.6097
 9185SOL     OW39190   2.015   0.861  15.568 -0.1604 -0.2646 -0.3339
 9185SOL    HW139191   2.059   0.929  15.620  1.3718 -0.4157 -1.4164
 9185SOL    HW239192   2.047   0.782  15.612  4.1143  1.2741 -0.6160
 9186SOL     OW39193   0.500   1.578   7.906  0.7975 -0.5501 -0.5462
 9186SOL    HW139194   0.572   1.522   7.933 -0.0607 -1.8074 -0.8900
 9186SOL    HW239195   0.537   1.657   7.945 -1.5950 -0.0922  0.7366
 9187SOL     OW39196   1.975   0.905   7.103 -0.1788 -0.3777 -0.3460
 9187SOL    HW139197   2.054   0.907   7.049 -2.2478 -0.4447 -3.3228
 9187SOL    HW239198   2.006   0.939   7.188  2.1539  0.0205 -1.3592
 9188SOL     OW39199   0.994   1.604   4.276 -0.0420  0.3261  0.6717
 9188SOL    HW139200   0.942   1.671   4.232 -0.2715  0.1395  0.6542
 9188SOL    HW239201   1.072   1.603   4.221 -1.5378 -0.8617 -1.4573
 9189SOL     OW39202   0.186   0.952   0.234 -0.1556  0.3104  0.1792
 9189SOL    HW139203   0.112   0.977   0.289  0.1581  3.0967 -0.6585
 9189SOL    HW239204   0.229   1.036   0.219 -0.2952 -0.0067 -1.9780
 9190SOL     OW39205   4.405   2.138   5.880  0.2755  0.0443 -0.0170
 9190SOL    HW139206   4.490   2.129   5.837  0.3886  1.8919 -0.1852
 9190SOL    HW239207   4.433   2.113   5.968 -1.2853 -0.8301  0.2336
 9191SOL     OW39208   3.254   2.148   4.859  0.3019  0.4906 -0.2998
 9191SOL    HW139209   3.174   2.117   4.815  0.4613 -1.9792  1.1743
 9191SOL    HW239210   3.245   2.242   4.873  0.7299  0.6347 -0.9706
 9192SOL     OW39211   1.649   4.208  17.384  0.7603 -0.3300 -0.1381
 9192SOL    HW139212   1.705   4.216  17.307 -1.0101 -3.3594 -1.7318
 9192SOL    HW239213   1.594   4.135  17.357 -0.4125 -0.5249  2.7596
 9193SOL     OW39214   4.663   3.527   1.994 -0.3443 -0.3118  0.9339
 9193SOL    HW139215   4.600   3.457   2.013 -1.3262  0.0353 -1.0947
 9193SOL    HW239216   4.602   3.572   1.936  0.1949  1.7639  1.9739
 9194SOL     OW39217   2.662   0.644  13.259 -0.1544 -0.7580 -0.3336
 9194SOL    HW139218   2.753   0.627  13.285 -0.4332 -0.8869  0.5441
 9194SOL    HW239219   2.623   0.692  13.332 -1.4185 -2.5758  0.1716
 9195SOL     OW39220   0.018   3.095   9.227  0.0310  0.1357  0.4519
 9195SOL    HW139221   0.054   3.027   9.170 -0.0341 -0.6854  1.3913
 9195SOL    HW239222   4.701   3.145   9.164  0.3347  0.1737  0.2349
 9196SOL     OW39223   2.375   3.698   3.040  0.4041  0.3916 -0.5274
 9196SOL    HW139224   2.281   3.686   3.052  0.4274  0.9401  0.1975
 9196SOL    HW239225   2.391   3.755   3.114  1.6021 -0.7458  0.0866
 9197SOL     OW39226   4.567   1.432   8.265 -0.4962 -0.1645 -0.1530
 9197SOL    HW139227   4.648   1.381   8.271  1.7133  3.3971 -0.0808
 9197SOL    HW239228   4.576   1.483   8.346 -2.5874  1.5170 -0.9885
 9198SOL     OW39229   4.517   4.215   2.122 -0.3469 -0.4977  0.2744
 9198SOL    HW139230   4.594   4.268   2.140 -1.3596  1.0618 -0.0115
 9198SOL    HW239231   4.556   4.161   2.053 -0.2548  0.9097 -0.7849
 9199SOL     OW39232   3.418   4.093   4.950 -0.3014  0.1009  0.7376
 9199SOL    HW139233   3.453   4.015   4.993  1.9728  1.5568  1.5592
 9199SOL    HW239234   3.493   4.097   4.890 -2.1874  0.5157 -1.6215
 9200SOL     OW39235   0.724   3.409   2.737  0.3775 -0.1741  0.3444
 9200SOL    HW139236   0.765   3.353   2.671  2.1483  1.6474 -0.1230
 9200SOL    HW239237   0.655   3.450   2.684  1.5398  0.2989 -0.8078
 9201SOL     OW39238   2.998   2.227   9.464  0.4538 -0.6288  0.1305
 9201SOL    HW139239   2.942   2.205   9.390 -2.4602  1.5460  1.7110
 9201SOL    HW239240   3.005   2.143   9.510 -0.3439 -0.0596  1.2871
 9202SOL     OW39241   3.934   2.625  12.124 -0.4553 -0.0492  0.6290
 9202SOL    HW139242   4.028   2.624  12.105 -0.5060  1.5140  0.2691
 9202SOL    HW239243   3.890   2.610  12.040  1.4192 -0.8781 -0.1993
 9203SOL     OW39244   1.129   4.683   1.731  0.2800 -0.6312 -0.2876
 9203SOL    HW139245   1.050   4.629   1.724 -1.2325  1.6143 -0.6022
 9203SOL    HW239246   1.131   4.705   1.637  2.4783 -1.9793 -0.5446
 9204SOL     OW39247   3.323   4.360   5.510  0.2002  0.1418  0.5505
 9204SOL    HW139248   3.245   4.307   5.498  1.1680 -1.4364  1.1505
 9204SOL    HW239249   3.305   4.429   5.447  1.1558 -0.9788 -0.9489
 9205SOL     OW39250   3.160   3.436  13.714  0.6110 -0.7456 -0.4515
 9205SOL    HW139251   3.123   3.524  13.707 -0.8767 -1.3081  0.2269
 9205SOL    HW239252   3.182   3.443  13.807  1.6328  1.4458 -0.8709
 9206SOL     OW39253   0.626   3.844   5.463 -0.1648 -0.6621  0.1843
 9206SOL    HW139254   0.611   3.888   5.379  0.7696 -0.9063 -0.1093
 9206SOL    HW239255   0.711   3.885   5.481 -0.0216 -0.8897  0.0252
 9207SOL     OW39256   4.222   3.578   2.557  0.4072  0.5549  1.1534
 9207SOL    HW139257   4.190   3.571   2.467  2.8671  0.9563  0.2483
 9207SOL    HW239258   4.311   3.607   2.537  0.9837 -1.7429  0.4162
 9208SOL     OW39259   3.790   2.804   8.438 -0.5825 -0.4217  0.2248
 9208SOL    HW139260   3.784   2.810   8.343  0.7450 -0.3165  0.1457
 9208SOL    HW239261   3.698   2.819   8.460 -0.6433 -0.4653  0.0041
 9209SOL     OW39262   0.102   3.077  10.072 -0.8842  0.1039  0.1573
 9209SOL    HW139263   0.029   3.014  10.069  0.7546 -1.9525  2.7022
 9209SOL    HW239264   0.115   3.091   9.979 -2.0622  0.9333  0.1176
 9210SOL     OW39265   2.596   0.117   4.238 -0.5672 -0.0194  0.3131
 9210SOL    HW139266   2.545   0.119   4.319 -1.9968 -2.1341 -0.5286
 9210SOL    HW239267   2.664   0.183   4.249 -0.5671 -0.4756  3.0814
 9211SOL     OW39268   1.923   1.983   5.414  0.4969 -0.1849  0.0694
 9211SOL    HW139269   1.888   2.034   5.488  0.2455 -1.2227  0.6660
 9211SOL    HW239270   1.940   2.058   5.358 -1.0670 -0.1841 -0.4132
 9212SOL     OW39271   0.730   1.442   0.553  0.4453 -0.4378 -0.2374
 9212SOL    HW139272   0.742   1.471   0.463  1.0984  1.9043  0.6123
 9212SOL    HW239273   0.708   1.522   0.601  0.0129  0.0701 -1.2784
 9213SOL     OW39274   1.271   2.118   1.341  0.5138 -0.2248  0.5585
 9213SOL    HW139275   1.182   2.123   1.374  0.9465 -2.1278  2.0158
 9213SOL    HW239276   1.278   2.053   1.271  0.8239 -0.0650  0.4407
 9214SOL     OW39277   2.595   0.487  12.555  0.5760 -0.4237  0.0329
 9214SOL    HW139278   2.606   0.395  12.580  0.5029 -0.4911 -0.1819
 9214SOL    HW239279   2.514   0.516  12.596 -0.2432 -0.0945 -1.8524
 9215SOL     OW39280   0.789   4.688   2.597 -1.1452  0.0966  0.0447
 9215SOL    HW139281   0.757   4.707   2.685 -0.2369  2.6151 -0.1642
 9215SOL    HW239282   0.786   0.042   2.561 -1.1223 -0.1445 -0.5595
 9216SOL     OW39283   4.049   0.432   3.839  0.0972  0.3210  0.7454
 9216SOL    HW139284   4.065   0.343   3.871  0.3664  0.1426  0.1140
 9216SOL    HW239285   4.123   0.448   3.780  0.2212  1.0270  1.0879
 9217SOL     OW39286   1.078   0.636   5.451 -0.5258  0.1865 -0.5806
 9217SOL    HW139287   1.020   0.564   5.430 -0.4485  0.0044 -0.1752
 9217SOL    HW239288   1.161   0.589   5.451  0.3714  1.7758 -1.2973
 9218SOL     OW39289   2.657   4.568   3.332  0.1931 -0.7836  0.4382
 9218SOL    HW139290   2.642   4.662   3.339  2.6286 -0.4549  1.2583
 9218SOL    HW239291   2.599   4.528   3.397 -1.5190  0.8144 -0.1013
 9219SOL     OW39292   3.066   2.955   8.636 -0.5867  0.0663 -0.0660
 9219SOL    HW139293   2.991   2.901   8.613 -1.2522  0.8544  0.2463
 9219SOL    HW239294   3.051   2.986   8.726 -1.0763  0.4432 -0.2787
 9220SOL     OW39295   1.387   1.127   6.634  0.4344  0.3282  0.8845
 9220SOL    HW139296   1.369   1.117   6.541  4.9070  1.5863 -0.1542
 9220SOL    HW239297   1.353   1.045   6.669  1.5488 -0.9145 -1.0044
 9221SOL     OW39298   2.403   1.728  11.067 -0.9973 -0.5383 -0.4513
 9221SOL    HW139299   2.390   1.809  11.115 -0.1287  0.1025 -1.2882
 9221SOL    HW239300   2.451   1.682  11.136  0.5452 -0.8478 -1.7087
 9222SOL     OW39301   3.546   0.035   0.602 -0.1692 -0.6818 -0.4139
 9222SOL    HW139302   3.551   0.041   0.507  0.7730  2.3766 -0.1748
 9222SOL    HW239303   3.495   4.691   0.620 -0.4911 -0.2516  0.5706
 9223SOL     OW39304   4.200   2.761  12.006 -0.7207  0.0280  0.2052
 9223SOL    HW139305   4.238   2.849  12.017  2.0355 -1.0150 -0.9105
 9223SOL    HW239306   4.232   2.716  12.084 -1.0215 -0.9710 -0.2438
 9224SOL     OW39307   2.997   0.143   7.544 -0.2823  0.3289 -0.2961
 9224SOL    HW139308   2.941   0.067   7.560 -0.6495  1.5428  4.2265
 9224SOL    HW239309   3.053   0.110   7.474  0.1796  0.4925  0.0004
 9225SOL     OW39310   0.532   3.134   8.020  0.5418 -0.2876 -1.0718
 9225SOL    HW139311   0.595   3.064   8.001 -1.0943 -1.2846 -2.7868
 9225SOL    HW239312   0.597   3.190   8.063  0.1491 -0.7015  0.0574
 9226SOL     OW39313   0.207   3.557   5.391 -0.1023  0.0088 -0.2802
 9226SOL    HW139314   0.151   3.635   5.393 -0.5024 -0.2769 -0.2299
 9226SOL    HW239315   0.274   3.582   5.327  0.0079  0.4807  0.0172
 9227SOL     OW39316   0.476   1.819   4.178  0.5503  0.1850 -1.1447
 9227SOL    HW139317   0.424   1.837   4.099 -0.2502 -1.4816 -0.9991
 9227SOL    HW239318   0.458   1.900   4.225 -0.8472  0.7572 -2.6454
 9228SOL     OW39319   0.039   3.439   5.788 -0.0735  0.3864  0.0241
 9228SOL    HW139320   0.120   3.440   5.737 -0.3184 -0.5376 -0.3878
 9228SOL    HW239321   0.056   3.524   5.828 -0.2645  0.6597 -0.4761
 9229SOL     OW39322   2.862   2.131   9.225 -0.6597  0.4040 -0.1782
 9229SOL    HW139323   2.875   2.094   9.137  0.4032  0.1107  0.1011
 9229SOL    HW239324   2.767   2.138   9.227 -0.6682 -0.3725  1.7103
 9230SOL     OW39325   3.500   4.637  11.655 -0.3519  0.0010 -0.4508
 9230SOL    HW139326   3.405   4.647  11.648 -0.2704  0.4038 -1.0094
 9230SOL    HW239327   3.513   4.672  11.743 -0.0293 -0.3512 -0.3592
 9231SOL     OW39328   2.867   2.314   3.446 -0.3568  0.3307  0.1793
 9231SOL    HW139329   2.920   2.300   3.525 -0.0176  0.0879 -0.0916
 9231SOL    HW239330   2.933   2.348   3.385  1.7036 -0.3747  1.9963
 9232SOL     OW39331   1.232   0.058   6.354 -0.3810  0.1862  0.2399
 9232SOL    HW139332   1.326   0.065   6.339 -0.5517 -0.2130 -1.0267
 9232SOL    HW239333   1.230   0.012   6.438 -0.8245 -1.0724 -0.4518
 9233SOL     OW39334   4.430   3.127  11.638  0.2883 -0.2900  0.1040
 9233SOL    HW139335   4.455   3.035  11.636 -0.9216 -0.6170 -0.2533
 9233SOL    HW239336   4.360   3.126  11.704  0.0429 -2.3193 -0.1921
 9234SOL     OW39337   0.575   2.484   8.698 -0.3208  0.3390 -0.2614
 9234SOL    HW139338   0.623   2.560   8.733  1.0671  0.1274 -1.6866
 9234SOL    HW239339   0.540   2.520   8.617 -0.8635 -0.3969 -0.3470
 9235SOL     OW39340   3.909   1.996  16.937  0.2584  0.1600 -0.1279
 9235SOL    HW139341   3.846   1.949  16.992 -0.6733  1.9505  0.3299
 9235SOL    HW239342   3.966   1.922  16.917  2.0114  1.3654  0.4349
 9236SOL     OW39343   3.986   0.451   2.823 -0.2335 -0.3574 -0.5175
 9236SOL    HW139344   3.935   0.396   2.763 -0.7226  0.5468 -0.9364
 9236SOL    HW239345   4.071   0.429   2.785  1.3597  1.5064  1.9987
 9237SOL     OW39346   2.039   1.058  13.090 -0.2158  0.4666  0.0529
 9237SOL    HW139347   1.944   1.045  13.086 -0.2842  0.6654  1.2200
 9237SOL    HW239348   2.047   1.153  13.084 -1.6156  0.5943  0.2416
 9238SOL     OW39349   1.828   2.391  15.937  0.5340 -0.0606 -0.2428
 9238SOL    HW139350   1.841   2.299  15.915  1.4791 -0.0094  0.1036
 9238SOL    HW239351   1.906   2.423  15.892  1.2433  1.3197  1.9331
 9239SOL     OW39352   0.282   3.861   6.990  0.2669 -0.0874 -0.3235
 9239SOL    HW139353   0.303   3.824   6.904 -0.4048 -1.8779  0.2730
 9239SOL    HW239354   0.321   3.800   7.052  1.2362  2.4116  1.5356
 9240SOL     OW39355   1.216   3.681  17.154  0.2218  0.0483 -0.1899
 9240SOL    HW139356   1.126   3.715  17.153  0.6632  1.1956 -0.4836
 9240SOL    HW239357   1.241   3.717  17.239  0.2881  0.1121 -0.2360
 9241SOL     OW39358   3.435   2.363   9.513  0.1790  0.2487 -0.1402
 9241SOL    HW139359   3.367   2.430   9.516 -0.2216 -0.2028  0.8804
 9241SOL    HW239360   3.416   2.299   9.444  0.2474 -0.4057  0.4460
 9242SOL     OW39361   1.887   0.409  16.731  0.5036 -0.3433  0.1782
 9242SOL    HW139362   1.838   0.483  16.767  0.8697  0.7192 -1.4815
 9242SOL    HW239363   1.934   0.393  16.813  0.2900 -1.3170  0.1088
 9243SOL     OW39364   3.797   3.752  15.478 -0.2549 -0.1146 -0.3630
 9243SOL    HW139365   3.768   3.668  15.514 -1.1404  1.1085  1.7891
 9243SOL    HW239366   3.802   3.789  15.566  2.0845  0.8414 -0.9103
 9244SOL     OW39367   2.535   4.240   3.143 -0.4642 -0.1078 -0.0396
 9244SOL    HW139368   2.557   4.211   3.232 -0.7107  0.3562  0.1719
 9244SOL    HW239369   2.526   4.152   3.105 -0.6466 -0.9015  1.8309
 9245SOL     OW39370   1.765   2.284   2.666  0.1344 -0.5708 -0.1118
 9245SOL    HW139371   1.795   2.227   2.736  0.0633 -0.4680  0.0037
 9245SOL    HW239372   1.851   2.298   2.625  0.8688 -0.8272  1.3473
 9246SOL     OW39373   3.313   4.177  13.229 -0.2272  0.0890  0.4461
 9246SOL    HW139374   3.268   4.260  13.242  0.7288  0.6479  0.1237
 9246SOL    HW239375   3.282   4.153  13.141  0.7532 -0.1200  0.1645
 9247SOL     OW39376   1.196   2.035   5.613  0.0558 -0.6965 -0.4187
 9247SOL    HW139377   1.157   1.958   5.572 -0.2113 -1.3764  1.1239
 9247SOL    HW239378   1.224   2.089   5.539 -0.8152 -0.7179 -0.7609
 9248SOL     OW39379   2.909   3.097   0.403  0.4467 -0.6375  0.3443
 9248SOL    HW139380   2.936   3.050   0.324  1.3782  0.8583 -0.2202
 9248SOL    HW239381   2.993   3.096   0.450 -0.5112 -0.9572  2.0567
 9249SOL     OW39382   3.553   0.014   3.205  0.3581 -0.5087  0.0116
 9249SOL    HW139383   3.576   0.020   3.112 -2.1331  1.3313 -0.4867
 9249SOL    HW239384   3.458   0.028   3.198  0.6010  0.4032 -1.5458
 9250SOL     OW39385   0.048   3.175  17.189 -0.6837  0.3664 -0.5631
 9250SOL    HW139386   4.729   3.225  17.250  2.2575  2.2036  0.5048
 9250SOL    HW239387   0.099   3.244  17.148  0.7541 -0.3889 -0.0390
 9251SOL     OW39388   2.491   3.757   4.487 -0.1936 -0.4120  0.4872
 9251SOL    HW139389   2.547   3.824   4.448  0.9758 -0.8422  1.4151
 9251SOL    HW239390   2.544   3.715   4.555  3.2907  1.7492 -0.9060
 9252SOL     OW39391   4.039   1.307  13.102 -0.0881  0.1676 -0.0595
 9252SOL    HW139392   4.060   1.269  13.187  1.8874 -0.3429 -0.7731
 9252SOL    HW239393   4.107   1.272  13.044 -0.9351 -0.5149 -0.6345
 9253SOL     OW39394   2.445   0.363   1.176 -0.2950 -0.0965  0.0365
 9253SOL    HW139395   2.504   0.422   1.223 -0.9711  0.5182  0.0977
 9253SOL    HW239396   2.431   0.298   1.245  0.1027 -0.4003 -0.1629
 9254SOL     OW39397   4.250   4.418   1.902 -0.3483  0.7278 -0.1543
 9254SOL    HW139398   4.180   4.431   1.838 -3.1102  1.4397  2.9645
 9254SOL    HW239399   4.302   4.356   1.852 -0.7659  1.1354 -1.0820
 9255SOL     OW39400   3.222   1.246   7.934  0.1973  0.3079 -0.2899
 9255SOL    HW139401   3.269   1.164   7.946 -1.2447 -0.2214  1.5086
 9255SOL    HW239402   3.248   1.297   8.011  1.3545  0.3367 -0.6879
 9256SOL     OW39403   2.597   2.620   5.021  0.0015  0.3169  0.6384
 9256SOL    HW139404   2.523   2.606   4.961  0.7759  3.0798 -0.9463
 9256SOL    HW239405   2.569   2.708   5.044 -3.1232 -0.4395 -0.2902
 9257SOL     OW39406   2.737   2.579   2.611  0.1951 -0.0807  0.2670
 9257SOL    HW139407   2.808   2.634   2.643  0.4645  0.5459 -1.4344
 9257SOL    HW239408   2.722   2.610   2.522  0.5210 -1.0257 -0.1119
 9258SOL     OW39409   2.348   2.060   6.561 -0.5020  0.9558 -0.0815
 9258SOL    HW139410   2.419   2.092   6.616 -0.4660 -0.3339  0.6206
 9258SOL    HW239411   2.267   2.090   6.603 -0.9698 -0.5691  0.1068
 9259SOL     OW39412   4.684   3.183   6.134  0.2904  0.2172 -0.0435
 9259SOL    HW139413   4.688   3.087   6.131  1.2639  0.2860 -1.1393
 9259SOL    HW239414   0.010   3.212   6.066 -0.0371  0.7874 -0.0916
 9260SOL     OW39415   0.556   2.898  13.144  0.7527  0.9519  0.4272
 9260SOL    HW139416   0.602   2.876  13.225  2.2687  1.9540 -0.1646
 9260SOL    HW239417   0.612   2.949  13.084 -0.6447 -1.0493 -2.5802
 9261SOL     OW39418   3.349   0.841   4.160 -0.1229  0.0588 -0.0307
 9261SOL    HW139419   3.269   0.885   4.132  0.5531  0.1464 -1.8220
 9261SOL    HW239420   3.411   0.914   4.152  0.4538 -0.5672 -1.3434
 9262SOL     OW39421   1.476   1.728   3.699 -0.2362  0.1233 -0.0608
 9262SOL    HW139422   1.444   1.689   3.780  2.9564  0.3103  1.2618
 9262SOL    HW239423   1.549   1.668   3.683 -1.3934 -1.1954 -0.4407
 9263SOL     OW39424   1.970   3.029  14.513 -0.8995 -0.1332 -0.2476
 9263SOL    HW139425   1.964   2.992  14.601 -0.0684  1.1478  0.3322
 9263SOL    HW239426   1.972   2.940  14.477 -2.6107 -0.4916  0.5366
 9264SOL     OW39427   0.359   0.363   3.865 -0.6269  0.2213  0.0527
 9264SOL    HW139428   0.403   0.330   3.944  1.1133  0.1205 -0.9576
 9264SOL    HW239429   0.304   0.287   3.851 -0.0332 -0.1301 -0.3881
 9265SOL     OW39430   2.152   1.758   7.139 -0.0874 -0.3379  0.3309
 9265SOL    HW139431   2.115   1.673   7.116  2.4393 -1.4897  0.5340
 9265SOL    HW239432   2.240   1.730   7.163  0.3309  0.6405 -0.0493
 9266SOL     OW39433   3.877   1.696  10.223  0.1357 -0.1013  0.0913
 9266SOL    HW139434   3.899   1.704  10.315 -2.0509  0.1856  0.5943
 9266SOL    HW239435   3.858   1.787  10.199 -0.4726 -0.1659  0.3184
 9267SOL     OW39436   2.887   4.041   3.508 -0.2918  0.1029 -0.3127
 9267SOL    HW139437   2.879   4.069   3.599  2.2228  1.0595 -0.3973
 9267SOL    HW239438   2.961   3.980   3.519 -0.8460 -0.4748  0.2434
 9268SOL     OW39439   4.631   3.773   9.528 -0.4585  0.3691 -0.1211
 9268SOL    HW139440   4.606   3.842   9.467  1.1426  1.5871  0.5910
 9268SOL    HW239441   4.643   3.822   9.610  0.8527 -1.0140  0.5146
 9269SOL     OW39442   1.926   2.139   5.883  0.0301 -0.0392  0.2042
 9269SOL    HW139443   1.939   2.228   5.850 -1.8303 -0.2039 -1.0117
 9269SOL    HW239444   1.911   2.156   5.976 -0.1430  0.6273  0.0563
 9270SOL     OW39445   1.725   2.822  15.481  0.2260  0.0797 -0.4765
 9270SOL    HW139446   1.718   2.904  15.433 -0.8003  0.5885  0.5461
 9270SOL    HW239447   1.769   2.851  15.561  0.8928  0.6034 -1.0294
 9271SOL     OW39448   3.965   4.590   0.245 -0.2748  0.4587 -0.3423
 9271SOL    HW139449   3.897   4.529   0.274 -1.0653  1.7819  0.5358
 9271SOL    HW239450   4.033   4.532   0.278 -0.7554  0.6297  0.9486
 9272SOL     OW39451   3.045   2.440  12.409  0.1795  0.0444  0.2344
 9272SOL    HW139452   3.099   2.416  12.484  1.1664 -0.2153 -0.5720
 9272SOL    HW239453   2.953   2.440  12.438  0.7604  1.5449  2.1404
 9273SOL     OW39454   3.981   1.920   3.412  0.2229 -0.8049  0.3727
 9273SOL    HW139455   4.059   1.866   3.430  2.1432  0.4983 -4.1797
 9273SOL    HW239456   3.936   1.892   3.492 -0.4045 -2.0740 -0.4243
 9274SOL     OW39457   1.980   4.552   8.006 -0.2561  0.2687 -0.3531
 9274SOL    HW139458   1.893   4.572   8.041 -0.1806 -1.0306  0.5471
 9274SOL    HW239459   2.023   4.535   8.090  0.7148  0.2432 -0.8523
 9275SOL     OW39460   3.881   1.817   9.278  0.6451  0.2448  0.1317
 9275SOL    HW139461   3.795   1.851   9.303  0.2110 -1.7215  1.3588
 9275SOL    HW239462   3.849   1.755   9.213 -0.6309  0.4984  0.5306
 9276SOL     OW39463   3.257   1.421   3.692  0.6154 -0.4506 -0.3400
 9276SOL    HW139464   3.222   1.447   3.607 -2.0709  1.9359  1.4910
 9276SOL    HW239465   3.315   1.493   3.717  2.9586 -1.2967 -3.2868
 9277SOL     OW39466   2.051   0.394   8.539 -0.4395 -0.2616 -0.5223
 9277SOL    HW139467   2.017   0.471   8.493  0.0621 -1.2672 -2.5509
 9277SOL    HW239468   2.048   0.437   8.625  0.0964  0.5821 -0.9251
 9278SOL     OW39469   3.939   4.514   7.860  0.4165 -0.3340 -0.0104
 9278SOL    HW139470   3.941   4.516   7.956  0.1250 -3.8314  0.0696
 9278SOL    HW239471   3.857   4.472   7.835  0.1670  0.1937 -0.0754
 9279SOL     OW39472   1.614   3.761   6.204 -0.0781 -0.4842  0.4104
 9279SOL    HW139473   1.534   3.813   6.217  0.2952  0.0021  0.7312
 9279SOL    HW239474   1.592   3.681   6.252  2.0636 -1.0598  0.4158
 9280SOL     OW39475   3.493   0.694   9.191 -0.0505 -0.4137 -0.3947
 9280SOL    HW139476   3.474   0.622   9.252 -2.0352 -2.0476 -2.9879
 9280SOL    HW239477   3.505   0.643   9.111 -1.9112  1.5805 -1.9396
 9281SOL     OW39478   1.628   1.744   8.105  0.3261  1.0735 -0.0141
 9281SOL    HW139479   1.641   1.676   8.171 -0.7286  0.2546 -0.6519
 9281SOL    HW239480   1.715   1.757   8.069 -0.2526 -1.5035 -2.3080
 9282SOL     OW39481   0.862   4.197   5.386 -0.4640 -0.6598  0.3759
 9282SOL    HW139482   0.883   4.119   5.437  1.7162  0.2811  0.9241
 9282SOL    HW239483   0.935   4.200   5.325 -1.3549 -1.0290 -0.6958
 9283SOL     OW39484   2.028   0.354   7.445  0.3172  0.6855 -0.0804
 9283SOL    HW139485   1.991   0.293   7.508  1.0429 -1.4616 -1.7394
 9283SOL    HW239486   2.049   0.292   7.375 -1.8125  0.5203 -0.5786
 9284SOL     OW39487   1.117   4.044   2.464 -0.2085 -0.2695  0.3385
 9284SOL    HW139488   1.064   4.123   2.469  0.7275  0.2161  2.6341
 9284SOL    HW239489   1.174   4.060   2.389  2.1216  1.8935  2.5926
 9285SOL     OW39490   3.967   1.794  14.195  0.4094 -0.1752 -0.0075
 9285SOL    HW139491   3.986   1.884  14.171 -2.2008  0.0467 -1.1947
 9285SOL    HW239492   3.989   1.747  14.115 -1.2530 -0.9333 -0.0101
 9286SOL     OW39493   0.527   3.537  13.719 -0.1245 -0.1150  0.1720
 9286SOL    HW139494   0.480   3.592  13.781 -1.8701 -0.6241 -0.7006
 9286SOL    HW239495   0.467   3.462  13.716 -0.7332  0.2969  2.1649
 9287SOL     OW39496   0.061   4.407   9.150 -0.3424 -0.7278 -0.0658
 9287SOL    HW139497   0.083   4.339   9.086  1.2472 -0.8130  0.5669
 9287SOL    HW239498   0.143   4.452   9.171 -1.4805  0.8493  0.9374
 9288SOL     OW39499   1.466   2.895  12.778 -0.3056 -0.5004 -0.5455
 9288SOL    HW139500   1.552   2.910  12.816 -0.5448 -1.1312  0.2356
 9288SOL    HW239501   1.487   2.806  12.750  3.4977 -0.1880  1.2979
 9289SOL     OW39502   4.106   3.193   3.568 -0.4678 -0.3414  0.3818
 9289SOL    HW139503   4.164   3.268   3.585 -0.1939 -0.3313 -0.6071
 9289SOL    HW239504   4.052   3.192   3.647  1.0921 -0.3753  1.4470
 9290SOL     OW39505   3.629   4.017   0.812 -0.0286  0.6125 -0.3880
 9290SOL    HW139506   3.643   4.033   0.718  0.1117  0.0338 -0.4624
 9290SOL    HW239507   3.687   4.084   0.849 -0.4457  0.5639  0.3351
 9291SOL     OW39508   2.836   0.870   9.064 -0.1023 -0.0568  0.3687
 9291SOL    HW139509   2.804   0.920   8.989 -3.0212  0.7745  2.1684
 9291SOL    HW239510   2.872   0.937   9.122 -1.8600  0.8914  0.3676
 9292SOL     OW39511   0.904   2.251  11.377 -0.0552 -0.3643 -0.0818
 9292SOL    HW139512   0.980   2.245  11.319  0.1974 -0.1920  0.2275
 9292SOL    HW239513   0.837   2.207  11.324 -1.3959  1.8103 -0.1830
 9293SOL     OW39514   0.807   2.041  14.077  0.2825 -0.0101  0.1171
 9293SOL    HW139515   0.867   1.967  14.089  1.1892  0.4884 -1.3533
 9293SOL    HW239516   0.757   2.012  14.001  0.4385  1.2928 -0.4628
 9294SOL     OW39517   3.779   1.980  16.301 -0.4991  0.1644  0.2476
 9294SOL    HW139518   3.869   2.011  16.310 -0.1401 -0.9442  0.5610
 9294SOL    HW239519   3.759   2.007  16.212  2.1235  2.6160  0.4149
 9295SOL     OW39520   0.191   0.738   6.153 -0.1016 -0.0437  0.1553
 9295SOL    HW139521   0.239   0.697   6.225 -0.6265 -0.3103  0.3462
 9295SOL    HW239522   0.228   0.826   6.146 -0.1220 -0.0748 -0.3712
 9296SOL     OW39523   2.961   3.018   2.678  0.7480 -0.4289  0.0543
 9296SOL    HW139524   2.954   3.106   2.715  1.3466  0.1320 -1.1934
 9296SOL    HW239525   3.002   3.035   2.594  0.8112 -0.4683  0.0767
 9297SOL     OW39526   2.397   4.563   7.049  0.3725 -0.2005 -0.3770
 9297SOL    HW139527   2.348   4.495   7.004 -0.4613  1.3786 -1.8441
 9297SOL    HW239528   2.347   4.564   7.131  0.8390  1.7515 -0.0956
 9298SOL     OW39529   3.239   4.058   8.769  0.4524 -0.4772  0.6123
 9298SOL    HW139530   3.146   4.043   8.789  0.6352  0.6604  2.3412
 9298SOL    HW239531   3.238   4.153   8.756  1.1294 -0.5431  0.1017
 9299SOL     OW39532   4.668   4.055   1.952 -0.5331  1.1187 -0.0932
 9299SOL    HW139533   0.021   4.064   1.987 -0.8354 -0.7294  1.1483
 9299SOL    HW239534   4.687   3.998   1.877  1.4822  0.0697  1.2200
 9300SOL     OW39535   3.745   3.964   5.243 -0.7033 -0.6894  0.7526
 9300SOL    HW139536   3.675   3.944   5.305 -0.9713 -2.6103 -0.1795
 9300SOL    HW239537   3.781   4.050   5.264 -2.0827 -0.1264  0.7605
 9301SOL     OW39538   3.042   4.102   4.582 -0.0659  0.1095 -0.2131
 9301SOL    HW139539   3.050   4.172   4.517  0.1409  0.7185  0.4740
 9301SOL    HW239540   3.123   4.109   4.632 -0.3818 -2.4271  0.6499
 9302SOL     OW39541   2.220   0.510   5.691  0.0098  0.6199 -0.2460
 9302SOL    HW139542   2.197   0.428   5.734 -0.4499  1.1346  0.4879
 9302SOL    HW239543   2.148   0.516   5.627 -0.0990  1.6990 -0.0217
 9303SOL     OW39544   4.724   4.450   7.439  0.2980 -0.1328  0.0074
 9303SOL    HW139545   0.064   4.490   7.396  0.8359  0.4575  1.4877
 9303SOL    HW239546   4.681   4.523   7.483 -0.6667 -0.2591 -0.7314
 9304SOL     OW39547   4.651   1.391   3.708 -0.0265  0.3510  0.4629
 9304SOL    HW139548   0.003   1.394   3.746  0.2058 -2.6610  0.1932
 9304SOL    HW239549   4.607   1.466   3.747 -0.4965  0.7559 -0.8300
 9305SOL     OW39550   0.194   2.867   6.748 -0.3749 -0.5013  0.5183
 9305SOL    HW139551   0.245   2.874   6.667 -1.2290 -1.9968 -0.1409
 9305SOL    HW239552   0.110   2.906   6.725 -1.7987 -2.2621  2.8213
 9306SOL     OW39553   3.238   2.669   6.809 -0.1904 -1.0715  0.1764
 9306SOL    HW139554   3.150   2.644   6.780 -0.5577  0.5079 -0.1130
 9306SOL    HW239555   3.205   2.689   6.896 -0.3897  0.5778 -0.2655
 9307SOL     OW39556   3.509   2.588  16.302  0.7527  0.0790  0.2142
 9307SOL    HW139557   3.451   2.544  16.240 -1.8503  0.2977  2.5048
 9307SOL    HW239558   3.458   2.668  16.308 -0.6512 -0.8121  0.1057
 9308SOL     OW39559   4.202   2.402   9.482  0.0129  0.1643  0.5418
 9308SOL    HW139560   4.261   2.476   9.469 -0.1506  0.7006  2.9585
 9308SOL    HW239561   4.183   2.389   9.389  0.8973  0.6579  0.2962
 9309SOL     OW39562   2.564   0.164   3.267  0.3538  0.2395  0.4633
 9309SOL    HW139563   2.632   0.231   3.266  1.2751 -0.6943  0.4075
 9309SOL    HW239564   2.483   0.216   3.268 -1.5271 -2.7348  2.9780
 9310SOL     OW39565   1.370   4.458   9.065  0.5630  0.4306 -0.0889
 9310SOL    HW139566   1.409   4.521   9.125  1.8242 -0.6783  0.2473
 9310SOL    HW239567   1.332   4.394   9.125 -0.7568  0.4932 -0.8398
 9311SOL     OW39568   4.371   2.361   7.905  0.1432  0.1669  0.1609
 9311SOL    HW139569   4.325   2.440   7.877 -0.8295  0.2518  1.9575
 9311SOL    HW239570   4.457   2.367   7.863  1.3123  0.3630  2.6087
 9312SOL     OW39571   1.856   2.200  12.694  0.1574  0.3338 -0.5683
 9312SOL    HW139572   1.874   2.262  12.763  0.3080 -0.6029  0.2364
 9312SOL    HW239573   1.902   2.126  12.733 -3.0972 -0.7617  1.1687
 9313SOL     OW39574   3.285   4.459  10.831 -0.2776  0.7551  0.4772
 9313SOL    HW139575   3.265   4.547  10.862 -0.8586  0.7517  0.0962
 9313SOL    HW239576   3.373   4.452  10.869 -0.6285  4.6696  1.9982
 9314SOL     OW39577   2.326   4.267   7.637 -0.5428 -0.0926 -0.7464
 9314SOL    HW139578   2.416   4.297   7.645 -0.2216 -1.3610  0.5635
 9314SOL    HW239579   2.297   4.283   7.727  0.2326 -1.0644 -0.3211
 9315SOL     OW39580   0.027   4.716   7.171  0.0949  0.4120  0.2060
 9315SOL    HW139581   0.100   0.043   7.168  1.3890 -1.1985 -1.5161
 9315SOL    HW239582   0.072   4.639   7.205  0.2403 -0.2625 -1.5323
 9316SOL     OW39583   2.155   2.082   2.249  0.5356  0.3177 -0.1702
 9316SOL    HW139584   2.184   2.152   2.307 -2.2646 -0.2035  1.8417
 9316SOL    HW239585   2.240   2.059   2.210  0.3550 -2.6398  1.1656
 9317SOL     OW39586   4.061   1.813   0.292 -0.1011 -0.6543 -0.0180
 9317SOL    HW139587   4.151   1.846   0.296 -0.3919 -0.1997  2.6238
 9317SOL    HW239588   4.008   1.893   0.287 -0.2553 -0.7780 -0.4026
 9318SOL     OW39589   3.489   2.504   6.764  0.6311 -0.4460  0.2061
 9318SOL    HW139590   3.399   2.537   6.767  1.8562  2.6869  1.6252
 9318SOL    HW239591   3.511   2.514   6.857  0.9317  0.1669  0.0639
 9319SOL     OW39592   2.272   4.150   8.281  0.6968 -0.0416  0.5092
 9319SOL    HW139593   2.313   4.069   8.250 -1.1649 -0.3399 -1.1779
 9319SOL    HW239594   2.206   4.133   8.349 -0.2348 -1.8884 -0.8354
 9320SOL     OW39595   2.291   1.870  11.910 -0.2659 -0.1309 -0.5200
 9320SOL    HW139596   2.206   1.902  11.940  0.3404  1.4238 -0.4927
 9320SOL    HW239597   2.328   1.944  11.863  1.6308 -0.6653  0.0969
 9321SOL     OW39598   1.811   1.674   7.399  0.1872  0.2644 -0.1871
 9321SOL    HW139599   1.827   1.712   7.313  1.8163 -1.3746 -0.6160
 9321SOL    HW239600   1.773   1.751   7.441  3.3308  1.6320  0.1293
 9322SOL     OW39601   0.732   4.648   4.793 -0.0004  0.2089 -0.5827
 9322SOL    HW139602   0.730   4.728   4.846 -1.0133 -1.5437  2.0165
 9322SOL    HW239603   0.652   4.661   4.743 -0.7000 -0.2265  0.4290
 9323SOL     OW39604   2.865   2.036   2.464  0.3133 -0.3698 -0.3439
 9323SOL    HW139605   2.858   2.083   2.547 -0.9686 -0.7645 -0.2219
 9323SOL    HW239606   2.951   1.997   2.478  0.8894  0.9869 -0.0716
 9324SOL     OW39607   4.517   4.069   1.288  0.2456 -0.0384  0.0328
 9324SOL    HW139608   4.443   4.127   1.269  0.5426  0.8728  1.6465
 9324SOL    HW239609   4.595   4.124   1.283  1.7389 -2.0894  0.8359
 9325SOL     OW39610   1.354   1.776   2.763  0.3356 -0.3997 -0.7986
 9325SOL    HW139611   1.292   1.703   2.766 -0.0877 -0.0906 -2.3021
 9325SOL    HW239612   1.316   1.835   2.827 -2.4065 -1.8531 -1.0708
 9326SOL     OW39613   3.116   2.222   2.871 -0.3478  0.5094 -0.6691
 9326SOL    HW139614   3.195   2.251   2.916 -0.8442  1.1015 -0.1724
 9326SOL    HW239615   3.051   2.246   2.937 -1.7020  0.5948 -2.0484
 9327SOL     OW39616   3.925   1.277   1.558 -0.0376  0.1677  0.1240
 9327SOL    HW139617   3.941   1.185   1.579 -0.0293  0.1552  0.0620
 9327SOL    HW239618   3.837   1.269   1.521 -0.1713 -1.1748  0.7182
 9328SOL     OW39619   1.621   3.686   8.724 -0.0203  0.2655  0.1040
 9328SOL    HW139620   1.679   3.735   8.665 -1.4612  0.6441 -0.9970
 9328SOL    HW239621   1.538   3.686   8.677  0.0529 -1.0933 -0.0251
 9329SOL     OW39622   3.704   2.235   9.472 -0.4355 -0.8728  0.0157
 9329SOL    HW139623   3.770   2.302   9.493 -1.1651  0.7902 -3.0021
 9329SOL    HW239624   3.623   2.282   9.449 -0.0491  0.2002  0.8142
 9330SOL     OW39625   1.054   2.939   5.196 -0.2904 -0.4923  0.0134
 9330SOL    HW139626   1.099   2.900   5.271  1.4749 -0.8315 -1.2208
 9330SOL    HW239627   1.129   2.959   5.140 -0.5776  0.0027 -0.2053
 9331SOL     OW39628   3.687   2.613   9.458  0.2226 -0.3916 -0.0377
 9331SOL    HW139629   3.661   2.546   9.395  0.0057  0.1421 -0.5184
 9331SOL    HW239630   3.782   2.601   9.459  0.0350 -1.7112  2.0945
 9332SOL     OW39631   1.435   1.557   1.049  0.4477  0.0383 -0.0915
 9332SOL    HW139632   1.359   1.535   1.102  1.0873 -2.5191 -0.2478
 9332SOL    HW239633   1.423   1.512   0.965  0.9467 -0.1584 -0.0564
 9333SOL     OW39634   1.330   3.440   7.548 -0.6004 -0.3553 -0.2083
 9333SOL    HW139635   1.389   3.371   7.578 -1.6198 -1.4235 -0.6324
 9333SOL    HW239636   1.337   3.426   7.453  1.1473 -0.0285 -0.1283
 9334SOL     OW39637   2.218   4.104   3.431  0.5030 -0.0091  0.3084
 9334SOL    HW139638   2.219   4.011   3.453  1.3816 -0.6667 -2.4299
 9334SOL    HW239639   2.165   4.139   3.502  0.1597  0.3859 -0.1430
 9335SOL     OW39640   0.439   4.576  15.561  0.6510  0.4106  0.7244
 9335SOL    HW139641   0.480   4.624  15.633 -0.4462 -0.9412  2.2506
 9335SOL    HW239642   0.346   4.595  15.575  0.3473 -0.2998 -0.3199
 9336SOL     OW39643   0.753   3.235  14.025 -0.3201 -0.0867  0.1285
 9336SOL    HW139644   0.763   3.326  14.055 -0.8655  0.1765 -0.4891
 9336SOL    HW239645   0.832   3.229  13.971 -0.2176  2.0818  0.0143
 9337SOL     OW39646   3.572   2.325   9.751 -0.2291 -0.3321  0.2132
 9337SOL    HW139647   3.514   2.323   9.675 -0.0493  0.5537  0.0480
 9337SOL    HW239648   3.606   2.413   9.735  1.7884 -1.2316 -0.4031
 9338SOL     OW39649   2.885   4.642  10.680  0.6973 -0.1586  0.0753
 9338SOL    HW139650   2.852   4.671  10.765  0.4554 -0.9011  0.2338
 9338SOL    HW239651   2.944   4.573  10.710 -1.3103 -1.3586  1.2898
 9339SOL     OW39652   3.782   2.277   4.371 -0.1302 -0.0463  0.3624
 9339SOL    HW139653   3.776   2.355   4.316  1.8080 -1.0689 -1.3547
 9339SOL    HW239654   3.766   2.206   4.308 -1.0917 -0.8449  1.5179
 9340SOL     OW39655   2.882   0.588  17.707 -0.0481 -0.2919 -0.1519
 9340SOL    HW139656   2.821   0.521  17.738  2.2176 -1.9715  0.7076
 9340SOL    HW239657   2.843   0.671  17.734  2.0731 -0.0031  1.9937
 9341SOL     OW39658   3.991   2.473   2.478  0.3081  0.5149  0.2539
 9341SOL    HW139659   3.905   2.464   2.520  1.3327 -0.8551  2.0574
 9341SOL    HW239660   3.994   2.569   2.476  1.9258  0.4064 -1.8546
 9342SOL     OW39661   4.333   3.787   3.218 -0.0890 -0.0546  0.5275
 9342SOL    HW139662   4.360   3.873   3.249  1.0276 -1.0985  2.5015
 9342SOL    HW239663   4.413   3.754   3.176  0.1999 -0.5917  1.4983
 9343SOL     OW39664   3.964   2.100   8.376 -0.0388  0.0978 -0.1539
 9343SOL    HW139665   3.966   2.053   8.459  3.1531  1.0228  0.2903
 9343SOL    HW239666   3.873   2.127   8.373 -0.3237 -0.7525  0.6565
 9344SOL     OW39667   1.220   3.498   3.189  0.2763 -0.4688  0.2122
 9344SOL    HW139668   1.125   3.484   3.189  0.2830 -0.5538  1.6057
 9344SOL    HW239669   1.218   3.586   3.151  0.6787 -0.8060 -0.5880
 9345SOL     OW39670   0.848   3.718  15.021  0.3570 -0.1553  0.6283
 9345SOL    HW139671   0.858   3.685  14.931 -2.7765 -0.3584  0.3695
 9345SOL    HW239672   0.934   3.730  15.061  1.0089 -1.6145 -0.3254
 9346SOL     OW39673   0.480   1.377   0.768 -0.2092 -0.3960 -0.1614
 9346SOL    HW139674   0.455   1.408   0.855  0.0730 -2.1003  0.5215
 9346SOL    HW239675   0.508   1.462   0.732  1.3365 -1.1870 -0.8061
 9347SOL     OW39676   1.642   0.371   8.662  0.1474  0.2726  0.0295
 9347SOL    HW139677   1.666   0.332   8.578  1.5175  2.2456 -0.4875
 9347SOL    HW239678   1.686   0.305   8.716 -0.7160  0.2310  0.6851
 9348SOL     OW39679   4.158   1.327   2.200  0.1954 -0.3637  0.5940
 9348SOL    HW139680   4.185   1.248   2.153  2.3196 -0.3854  1.8440
 9348SOL    HW239681   4.157   1.289   2.289 -1.8587 -0.3353  0.6018
 9349SOL     OW39682   4.274   2.640  12.224 -0.6161 -0.4697 -0.3798
 9349SOL    HW139683   4.225   2.660  12.304 -2.0623 -0.1580 -1.3523
 9349SOL    HW239684   4.309   2.552  12.240 -1.0266 -0.9941 -2.4103
 9350SOL     OW39685   0.950   3.583   5.214 -0.3718  0.3786 -0.2726
 9350SOL    HW139686   0.870   3.548   5.252  0.9043 -0.9052  1.2074
 9350SOL    HW239687   1.007   3.516   5.251 -2.0727  0.0444  1.7164
 9351SOL     OW39688   3.309   4.153   2.353  0.0787 -0.6532 -0.3651
 9351SOL    HW139689   3.268   4.079   2.308  0.0431 -1.3214  0.7574
 9351SOL    HW239690   3.319   4.115   2.440  1.3661  3.6340  1.3578
 9352SOL     OW39691   0.685   2.845   0.736  0.3446 -0.1955  0.4799
 9352SOL    HW139692   0.755   2.833   0.800 -0.3325 -0.2942  1.1994
 9352SOL    HW239693   0.621   2.897   0.784  2.6353  1.6316  1.5079
 9353SOL     OW39694   4.689   3.857   4.363 -0.3240 -0.3016  0.7900
 9353SOL    HW139695   4.636   3.863   4.283 -1.2832 -0.5862  1.3975
 9353SOL    HW239696   4.666   3.769   4.392  0.0618 -0.4794  0.5440
 9354SOL     OW39697   1.199   2.507   6.017 -0.3365 -0.5200 -0.1634
 9354SOL    HW139698   1.132   2.457   6.062 -1.3008  1.9080  1.0621
 9354SOL    HW239699   1.156   2.589   5.994  1.3222  1.1907  2.8938
 9355SOL     OW39700   1.673   4.315  11.739  0.6947 -0.3436 -0.2682
 9355SOL    HW139701   1.666   4.245  11.675  1.0918 -0.2549 -0.4077
 9355SOL    HW239702   1.758   4.347  11.710  0.1763 -1.2831 -2.8603
 9356SOL     OW39703   1.534   0.034  13.902 -0.5453  0.0749  0.0772
 9356SOL    HW139704   1.628   0.054  13.905 -0.3742 -0.9695  1.6164
 9356SOL    HW239705   1.517   0.007  13.992 -0.4431  0.9681  0.3604
 9357SOL     OW39706   4.574   4.031   3.034  0.7726  0.4520 -0.3750
 9357SOL    HW139707   4.529   4.026   3.119  0.5326 -1.7497 -0.6275
 9357SOL    HW239708   4.527   3.967   2.981  1.2105 -0.2163  0.0408
 9358SOL     OW39709   4.425   4.589   0.387  0.0055  0.1271  0.1209
 9358SOL    HW139710   4.457   4.501   0.368 -0.3252  0.2157 -0.8677
 9358SOL    HW239711   4.461   4.599   0.475 -1.3519 -1.6356  0.8833
 9359SOL     OW39712   1.118   3.138   3.096 -0.2238 -0.1954 -0.1880
 9359SOL    HW139713   1.047   3.188   3.136  2.1552  3.2441 -0.2416
 9359SOL    HW239714   1.194   3.172   3.144  1.7374 -3.3427 -1.0302
 9360SOL     OW39715   3.172   0.676   5.501  0.0105 -0.0602  0.3827
 9360SOL    HW139716   3.172   0.587   5.534 -3.4401 -0.5744 -1.0421
 9360SOL    HW239717   3.133   0.731   5.570 -0.8561 -1.1171  0.7217
 9361SOL     OW39718   3.318   0.619   4.774  0.3315  0.0391  0.4730
 9361SOL    HW139719   3.375   0.679   4.727 -1.1111  0.6137 -0.5690
 9361SOL    HW239720   3.288   0.682   4.840  0.2621  2.0173 -1.4278
 9362SOL     OW39721   4.242   3.184   2.243 -0.2777 -0.1185  0.4312
 9362SOL    HW139722   4.214   3.275   2.252  1.3733  0.3319  1.1149
 9362SOL    HW239723   4.320   3.202   2.295  0.6099 -0.4465 -0.7683
 9363SOL     OW39724   3.422   2.598   8.738  0.0233 -1.0821 -0.5723
 9363SOL    HW139725   3.418   2.638   8.825 -2.9474 -1.6211 -0.4789
 9363SOL    HW239726   3.329   2.590   8.716 -0.1126  1.4317 -0.9549
 9364SOL     OW39727   4.273   2.762   2.606 -0.1889  0.3704 -0.0658
 9364SOL    HW139728   4.204   2.773   2.671  0.5849  0.9476  0.6566
 9364SOL    HW239729   4.219   2.727   2.535  0.5354 -1.1465  0.1203
 9365SOL     OW39730   4.082   1.062  14.691 -0.0072  0.6828 -0.3738
 9365SOL    HW139731   4.018   1.054  14.762  0.2133  2.0808 -0.0349
 9365SOL    HW239732   4.059   1.146  14.653 -1.0405  0.9360  0.8210
 9366SOL     OW39733   0.723   4.520   3.210 -0.5844  0.3700  0.3172
 9366SOL    HW139734   0.642   4.567   3.229 -1.7472 -1.5041  0.0337
 9366SOL    HW239735   0.690   4.430   3.211  0.4619 -0.0505 -2.7488
 9367SOL     OW39736   2.609   0.993   5.255  0.5476 -0.4452 -0.2512
 9367SOL    HW139737   2.617   0.950   5.170 -0.6744 -2.3336  0.6112
 9367SOL    HW239738   2.517   0.990   5.278  0.6071 -0.5366 -0.0181
 9368SOL     OW39739   3.160   4.475   4.982  0.2577  0.1686 -0.3935
 9368SOL    HW139740   3.150   4.557   5.030 -0.6301 -0.2274  0.0966
 9368SOL    HW239741   3.243   4.476   4.935 -0.5691  0.2644 -1.8278
 9369SOL     OW39742   4.618   1.058   5.354 -0.7535 -0.2582  0.0609
 9369SOL    HW139743   4.676   1.051   5.278 -0.4608 -1.6128  0.4015
 9369SOL    HW239744   4.675   1.083   5.427 -0.8603  3.0389 -0.9715
 9370SOL     OW39745   1.689   1.460   4.878  0.2581 -0.7108  0.1425
 9370SOL    HW139746   1.760   1.475   4.941  1.5643  0.3878 -1.6210
 9370SOL    HW239747   1.619   1.515   4.913  0.0261 -0.9598  0.0700
 9371SOL     OW39748   1.494   1.591   2.559  0.6786 -0.4416 -0.0492
 9371SOL    HW139749   1.465   1.623   2.474  0.0769  1.0313  0.7078
 9371SOL    HW239750   1.466   1.660   2.619 -1.2688 -1.3595  0.1072
 9372SOL     OW39751   2.181   0.883  12.892 -0.6039  0.3111 -0.0629
 9372SOL    HW139752   2.110   0.890  12.956  1.0705 -1.4558  1.9970
 9372SOL    HW239753   2.262   0.880  12.942 -0.0510  3.0580 -0.7802
 9373SOL     OW39754   3.022   3.355  15.477 -0.1015 -0.0776 -0.0244
 9373SOL    HW139755   3.102   3.364  15.529 -1.9275  2.1013  2.4140
 9373SOL    HW239756   3.046   3.391  15.392 -0.8751 -0.4967 -0.4301
 9374SOL     OW39757   2.299   1.712  12.138 -0.3856  0.0126 -0.2566
 9374SOL    HW139758   2.288   1.781  12.072  0.4707  0.3693 -0.0198
 9374SOL    HW239759   2.365   1.754  12.193 -0.2604 -1.1161  0.4439
 9375SOL     OW39760   0.063   0.224   5.999 -0.2814 -0.7294 -0.3159
 9375SOL    HW139761   0.017   0.307   6.010 -1.8252 -1.6658  0.3561
 9375SOL    HW239762   0.082   0.221   5.905  1.2724 -1.0537  0.0129
 9376SOL     OW39763   3.511   1.678   6.076 -0.3085 -0.0933  0.3241
 9376SOL    HW139764   3.485   1.699   6.166 -1.8663 -0.9891  0.0849
 9376SOL    HW239765   3.530   1.764   6.039  0.8817 -0.3646  0.2911
 9377SOL     OW39766   1.698   1.902  14.744 -0.6872 -0.4006 -0.5758
 9377SOL    HW139767   1.653   1.978  14.780  1.1943  1.1366 -1.5479
 9377SOL    HW239768   1.626   1.842  14.724 -1.3506  0.0166  0.5721
 9378SOL     OW39769   0.285   4.355   1.495  0.4307  0.8264  0.1391
 9378SOL    HW139770   0.199   4.339   1.534  0.9845 -1.2529  0.4700
 9378SOL    HW239771   0.293   4.291   1.424 -1.9115  0.7719 -0.0887
 9379SOL     OW39772   4.178   1.231  10.007  0.4102 -0.5011  0.3089
 9379SOL    HW139773   4.099   1.232  10.060 -1.2183 -2.4166 -2.0655
 9379SOL    HW239774   4.126   1.225   9.926 -0.3706 -1.3703  0.8772
 9380SOL     OW39775   3.699   3.997   9.780 -0.0319 -0.5547  0.2289
 9380SOL    HW139776   3.667   3.917   9.822 -1.5947  0.2607  0.5587
 9380SOL    HW239777   3.617   4.035   9.750 -0.0755 -1.5605 -0.9621
 9381SOL     OW39778   0.432   3.652   1.313 -0.2242  0.4502 -0.1373
 9381SOL    HW139779   0.472   3.713   1.375  1.8269 -0.8684 -0.1533
 9381SOL    HW239780   0.342   3.643   1.343 -0.3689 -0.2112 -0.7630
 9382SOL     OW39781   3.329   0.570   4.124 -0.0897  0.0786 -0.3381
 9382SOL    HW139782   3.413   0.542   4.160 -1.3041 -3.0638  0.0441
 9382SOL    HW239783   3.331   0.666   4.130 -2.5737  0.1222 -0.5570
 9383SOL     OW39784   4.588   4.641   9.542 -0.2569 -0.2981 -0.3942
 9383SOL    HW139785   4.551   4.728   9.531  1.7813  0.3868 -1.7846
 9383SOL    HW239786   4.552   4.625   9.629  2.4759 -1.3419  0.5115
 9384SOL     OW39787   0.970   3.791  17.182  0.1689 -0.6091 -0.5349
 9384SOL    HW139788   0.961   3.880  17.147  0.2168 -0.3373  0.1350
 9384SOL    HW239789   0.882   3.765  17.208  0.4994 -1.2959 -0.1052
 9385SOL     OW39790   3.345   0.030   2.781 -0.1950 -0.2046  0.2052
 9385SOL    HW139791   3.321   0.122   2.784  1.8514  0.3487 -0.5440
 9385SOL    HW239792   3.439   0.041   2.769  0.1849 -1.3292  2.0163
 9386SOL     OW39793   1.855   3.497   2.084 -0.0590 -0.6975  0.4462
 9386SOL    HW139794   1.840   3.438   2.159  0.2472 -0.4791  0.6769
 9386SOL    HW239795   1.819   3.572   2.131  0.3031  0.5462 -1.2747
 9387SOL     OW39796   3.714   0.675   4.373  0.2265 -0.4757  0.0082
 9387SOL    HW139797   3.622   0.681   4.395  0.5017  1.5998  0.5296
 9387SOL    HW239798   3.712   0.598   4.316 -3.9492  0.4784 -1.1051
 9388SOL     OW39799   2.185   2.075   3.053 -0.6071 -0.3362 -0.1057
 9388SOL    HW139800   2.271   2.041   3.028  0.0004  0.9083  0.2918
 9388SOL    HW239801   2.207   2.164   3.078 -0.5080  0.2405 -2.2350
 9389SOL     OW39802   0.857   0.821   6.785  0.0389  0.2608 -0.1967
 9389SOL    HW139803   0.826   0.885   6.849 -2.2165 -0.4142 -0.6462
 9389SOL    HW239804   0.936   0.868   6.756 -0.3149  0.0962 -1.4251
 9390SOL     OW39805   2.564   0.340   0.941  0.1842 -0.2924  0.5725
 9390SOL    HW139806   2.554   0.406   0.873  0.2856  0.5910  1.4117
 9390SOL    HW239807   2.493   0.352   1.005 -1.1750 -0.2600 -0.9490
 9391SOL     OW39808   3.529   1.050   5.480 -0.0645 -0.4058 -0.2078
 9391SOL    HW139809   3.447   1.000   5.478  1.3328 -2.7386  1.3909
 9391SOL    HW239810   3.586   0.993   5.429 -1.0005 -1.0690 -0.5230
 9392SOL     OW39811   1.239   3.797  13.637 -0.1919 -0.0306 -0.2417
 9392SOL    HW139812   1.158   3.786  13.588 -1.3201  0.6148  1.4798
 9392SOL    HW239813   1.205   3.864  13.696  0.8065  0.1183  0.1710
 9393SOL     OW39814   0.608   4.281   5.209 -0.6443  0.5317 -0.0270
 9393SOL    HW139815   0.616   4.270   5.114  0.8459  2.1359 -0.0867
 9393SOL    HW239816   0.685   4.244   5.252 -0.3579  2.3622  0.9946
 9394SOL     OW39817   4.631   3.407   3.082  0.2052 -0.1661  0.4471
 9394SOL    HW139818   4.638   3.379   2.991 -1.8329 -0.2022  0.2900
 9394SOL    HW239819   4.632   3.325   3.131  0.8638  0.7415  1.9442
 9395SOL     OW39820   0.705   3.619   9.047  0.0853  0.1031 -0.0747
 9395SOL    HW139821   0.646   3.576   9.109  0.5003  1.9459  1.6100
 9395SOL    HW239822   0.685   3.709   9.073  1.8498  1.3702 -3.0787
 9396SOL     OW39823   0.552   1.272   5.572 -0.2456 -0.1970  0.1862
 9396SOL    HW139824   0.569   1.184   5.538  0.4142 -0.5461  1.4158
 9396SOL    HW239825   0.637   1.282   5.615  0.6112 -3.2091 -0.7910
 9397SOL     OW39826   4.064   2.829   4.411 -0.0896  0.0746  0.2553
 9397SOL    HW139827   4.119   2.849   4.335 -1.0389 -1.2020 -0.7569
 9397SOL    HW239828   4.068   2.734   4.422 -1.9769 -0.0600 -0.3016
 9398SOL     OW39829   1.648   2.814   1.215  0.3569  0.6816  0.0434
 9398SOL    HW139830   1.615   2.830   1.303 -0.8810 -0.4392 -0.2229
 9398SOL    HW239831   1.724   2.871   1.225 -0.0605  0.9664  1.5580
 9399SOL     OW39832   2.620   1.976   2.690  0.1963 -0.4141 -0.1861
 9399SOL    HW139833   2.540   1.991   2.740  1.2157  0.1994  1.2914
 9399SOL    HW239834   2.679   2.034   2.738  0.7658  0.3466 -1.8263
 9400SOL     OW39835   3.799   2.634   4.503 -0.6664  0.5915  0.1458
 9400SOL    HW139836   3.859   2.683   4.560  0.4515  3.1430 -3.2500
 9400SOL    HW239837   3.729   2.612   4.564 -0.5511 -0.9056 -0.2643
 9401SOL     OW39838   2.517   4.380   5.554  0.2390 -0.5579 -0.3783
 9401SOL    HW139839   2.448   4.315   5.541 -1.6065  1.3589 -0.1614
 9401SOL    HW239840   2.577   4.364   5.481  1.0439 -1.2724  0.4400
 9402SOL     OW39841   1.554   1.974   3.648 -0.5531  0.2142 -0.2697
 9402SOL    HW139842   1.520   1.888   3.673 -0.1616 -0.0205 -0.5390
 9402SOL    HW239843   1.545   2.020   3.731 -0.5400  0.6576 -0.5104
 9403SOL     OW39844   4.471   3.955   6.192 -0.1347  0.1733 -0.0070
 9403SOL    HW139845   4.488   4.045   6.164  0.7950  0.0026 -0.0087
 9403SOL    HW239846   4.406   3.972   6.260 -0.6606  1.7777 -0.8960
 9404SOL     OW39847   3.542   3.016   7.645 -0.1502  0.2382  0.4019
 9404SOL    HW139848   3.631   3.052   7.643  0.6449 -1.8187 -1.0068
 9404SOL    HW239849   3.540   3.010   7.741 -0.5256  3.5016  0.6083
 9405SOL     OW39850   0.210   2.279   3.160  0.1641 -0.0653 -0.5424
 9405SOL    HW139851   0.269   2.254   3.232  0.8438  1.5523 -0.5421
 9405SOL    HW239852   0.206   2.190   3.124 -1.2664 -0.2036 -0.0532
 9406SOL     OW39853   4.268   2.976   4.251  0.5134 -0.2517  0.2860
 9406SOL    HW139854   4.228   3.029   4.182 -2.5175  0.5614  2.6443
 9406SOL    HW239855   4.355   3.016   4.253  1.0263 -1.2793 -1.3804
 9407SOL     OW39856   1.518   2.428   6.643  0.5959  0.1409 -0.1272
 9407SOL    HW139857   1.499   2.342   6.682  1.4303  0.2841  0.5854
 9407SOL    HW239858   1.493   2.490   6.711  2.0353 -1.0707  1.5089
 9408SOL     OW39859   1.595   0.765  14.355 -0.0367 -0.4118  0.3968
 9408SOL    HW139860   1.510   0.800  14.382 -0.1833 -1.4569  1.2841
 9408SOL    HW239861   1.579   0.752  14.261  1.3725  1.3324 -0.0664
 9409SOL     OW39862   1.729   1.187   7.892 -0.0611  0.0318 -0.6567
 9409SOL    HW139863   1.811   1.138   7.890 -0.2216 -0.2731  0.4690
 9409SOL    HW239864   1.673   1.124   7.936  1.8958 -1.7745 -0.7890
 9410SOL     OW39865   0.476   3.846  12.755 -0.5840 -0.2162 -0.2408
 9410SOL    HW139866   0.564   3.864  12.722 -1.5982 -0.7135 -3.2557
 9410SOL    HW239867   0.446   3.934  12.781  0.3219  0.3070 -0.9567
 9411SOL     OW39868   1.176   1.930   3.728 -0.2199 -0.0443  0.0213
 9411SOL    HW139869   1.263   1.960   3.703  0.0186 -0.6681  0.1029
 9411SOL    HW239870   1.121   1.993   3.682 -1.9585 -1.2864  0.3899
 9412SOL     OW39871   3.635   0.203   8.141  0.1004 -0.2537  0.2206
 9412SOL    HW139872   3.643   0.248   8.225  1.0331 -0.0862  0.0490
 9412SOL    HW239873   3.614   0.281   8.090 -1.0756 -0.0872  0.9792
 9413SOL     OW39874   0.398   3.322   7.206 -0.5967  0.3319 -0.3202
 9413SOL    HW139875   0.478   3.361   7.242 -0.3659  0.0902 -0.5750
 9413SOL    HW239876   0.398   3.347   7.113 -0.0157 -1.4807 -0.8055
 9414SOL     OW39877   1.085   0.287   5.070 -0.0320  0.4301  0.0172
 9414SOL    HW139878   1.016   0.282   5.137  0.9693 -1.2432  0.9115
 9414SOL    HW239879   1.088   0.381   5.053 -3.2856  0.3856 -0.9680
 9415SOL     OW39880   1.134   1.633  16.064 -0.1600 -0.3028  0.2032
 9415SOL    HW139881   1.124   1.568  16.133  0.4912 -1.4356 -0.7541
 9415SOL    HW239882   1.124   1.710  16.119 -0.6735 -1.2770  1.4680
 9416SOL     OW39883   3.196   2.893  12.536 -0.1686 -0.1846 -0.3028
 9416SOL    HW139884   3.245   2.813  12.517 -1.6314 -1.2425  0.3471
 9416SOL    HW239885   3.161   2.882  12.625  0.6575 -1.1576 -0.0981
 9417SOL     OW39886   0.792   0.600   4.496 -0.3377 -0.8766 -0.2585
 9417SOL    HW139887   0.797   0.521   4.441 -1.9993 -1.3242  0.2264
 9417SOL    HW239888   0.871   0.644   4.467  0.1725 -2.0365 -0.6374
 9418SOL     OW39889   4.635   2.008   1.708 -0.2816 -0.1287  0.8498
 9418SOL    HW139890   4.720   1.975   1.736 -0.1631 -2.1796 -1.8485
 9418SOL    HW239891   4.640   2.102   1.722 -0.0265  0.2532 -1.7267
 9419SOL     OW39892   1.500   2.241   5.944  0.8753  0.7730  0.2346
 9419SOL    HW139893   1.458   2.217   6.027  0.7989  0.6917  0.1708
 9419SOL    HW239894   1.574   2.181   5.933  0.4007  0.2095  0.1350
 9420SOL     OW39895   1.274   4.521  13.529  0.0989  0.5652 -0.2616
 9420SOL    HW139896   1.196   4.535  13.475 -0.1347  0.8054  0.1364
 9420SOL    HW239897   1.345   4.572  13.492  0.7858  0.7525  1.3182
 9421SOL     OW39898   2.019   2.504   7.356  0.4575 -1.0748 -0.1902
 9421SOL    HW139899   2.002   2.494   7.449 -0.4313  0.6322 -0.1640
 9421SOL    HW239900   1.933   2.535   7.328  0.0794 -1.5783  0.4239
 9422SOL     OW39901   3.677   0.890  15.089  0.0174  0.5813  0.9422
 9422SOL    HW139902   3.639   0.973  15.059  0.6483  1.9518  3.9132
 9422SOL    HW239903   3.629   0.820  15.045 -0.8343  2.1504 -0.6350
 9423SOL     OW39904   0.536   2.537   4.376  0.1360  0.3550 -0.2305
 9423SOL    HW139905   0.616   2.564   4.331  0.7001 -2.9136 -1.2278
 9423SOL    HW239906   0.485   2.480   4.318 -0.9130  0.4121  0.6187
 9424SOL     OW39907   2.944   3.655  12.273 -0.0896  0.2511  0.0815
 9424SOL    HW139908   2.905   3.666  12.360  0.1139 -1.3024  0.3571
 9424SOL    HW239909   3.035   3.652  12.303  0.0116 -3.8918 -0.6454
 9425SOL     OW39910   3.965   2.304   3.580 -0.0029 -0.4099  0.2547
 9425SOL    HW139911   4.029   2.330   3.646 -0.2980  0.0333  0.3631
 9425SOL    HW239912   3.888   2.283   3.632  0.1656 -0.4062  0.5039
 9426SOL     OW39913   1.512   4.023  17.260  0.0145  0.0934  0.2190
 9426SOL    HW139914   1.460   3.960  17.310 -1.9592  3.6570  2.6454
 9426SOL    HW239915   1.570   3.978  17.199 -1.5587 -0.8577 -0.5784
 9427SOL     OW39916   4.330   2.549   5.937  0.2655  0.0493  0.1946
 9427SOL    HW139917   4.333   2.620   5.873 -0.2127 -0.0995  0.0019
 9427SOL    HW239918   4.315   2.602   6.015  1.3558 -0.3141  0.6536
 9428SOL     OW39919   4.166   3.126   8.469  0.6201  0.1218  0.1891
 9428SOL    HW139920   4.173   3.220   8.453  0.9383 -0.2137 -1.6009
 9428SOL    HW239921   4.138   3.112   8.378 -0.2178  1.9230  0.1500
 9429SOL     OW39922   2.906   3.373  12.819 -0.7363  0.4315 -0.1838
 9429SOL    HW139923   2.857   3.327  12.750 -1.3585 -1.5337  1.5901
 9429SOL    HW239924   2.955   3.300  12.857 -1.5913  0.1262  0.3333
 9430SOL     OW39925   0.975   3.110   8.819 -0.1015  0.1291 -0.2654
 9430SOL    HW139926   0.980   3.135   8.911 -0.0941 -0.7301 -0.0291
 9430SOL    HW239927   0.886   3.079   8.801  0.8586 -2.5330 -0.4086
 9431SOL     OW39928   2.732   3.991   2.156  0.3998  0.0100 -0.4217
 9431SOL    HW139929   2.707   4.043   2.079 -1.1990 -0.4851 -0.2267
 9431SOL    HW239930   2.750   4.044   2.233  1.7506 -2.0318  0.6576
 9432SOL     OW39931   3.074   3.397   8.267  0.0789 -0.0878 -0.0805
 9432SOL    HW139932   3.076   3.412   8.172 -0.6241  1.7059  0.1872
 9432SOL    HW239933   3.081   3.302   8.281 -1.6462 -0.1890  0.1317
 9433SOL     OW39934   3.617   0.036   2.942 -0.0061 -0.0436  0.1636
 9433SOL    HW139935   3.687   4.705   2.943  1.6203  1.6696 -0.4882
 9433SOL    HW239936   3.623   0.070   2.853 -2.2016 -1.4929 -0.5435
 9434SOL     OW39937   4.485   0.245   8.588  0.1939 -0.0597  0.3833
 9434SOL    HW139938   4.489   0.153   8.616  0.6549 -0.2592 -0.3284
 9434SOL    HW239939   4.573   0.278   8.571  0.9420 -2.3527 -0.2129
 9435SOL     OW39940   4.148   4.145   5.868 -0.0390  0.6480  0.0693
 9435SOL    HW139941   4.130   4.226   5.821 -1.6400  1.1609  1.5353
 9435SOL    HW239942   4.226   4.175   5.913  0.4039 -0.6249  0.1671
 9436SOL     OW39943   2.967   1.725   6.547 -0.5529 -0.1106 -0.1157
 9436SOL    HW139944   2.915   1.794   6.588 -0.2103  1.3955 -2.2073
 9436SOL    HW239945   3.027   1.694   6.614 -2.0798  1.6202  2.0336
 9437SOL     OW39946   1.069   1.909   1.758 -0.1205  0.1300 -0.2556
 9437SOL    HW139947   1.082   1.885   1.667 -0.7809 -1.6671  0.1313
 9437SOL    HW239948   0.995   1.849   1.772  1.1057 -1.4463 -0.6466
 9438SOL     OW39949   2.108   1.583  15.519  0.2205 -0.1795 -0.6952
 9438SOL    HW139950   2.198   1.607  15.497  0.1418 -0.8749 -1.7424
 9438SOL    HW239951   2.063   1.663  15.548 -2.5631 -1.2409 -2.1336
 9439SOL     OW39952   2.367   2.335   6.203  0.8090 -0.0260 -0.2175
 9439SOL    HW139953   2.461   2.316   6.195  1.3812  2.5613  0.4143
 9439SOL    HW239954   2.356   2.423   6.167  0.3345 -0.1710 -0.4200
 9440SOL     OW39955   0.058   0.788  15.942  0.0097  0.5362  0.1058
 9440SOL    HW139956   0.006   0.849  15.995  0.1113  0.9273 -0.2457
 9440SOL    HW239957   4.726   0.733  15.901 -0.0183  0.6093  0.0539
 9441SOL     OW39958   1.694   1.474  10.476 -0.2083 -0.2671 -0.4350
 9441SOL    HW139959   1.763   1.498  10.414  1.2605 -0.2407  1.1994
 9441SOL    HW239960   1.722   1.527  10.551  1.4708  0.3430 -1.4931
 9442SOL     OW39961   3.606   2.928  16.055 -0.2415  0.3663  0.9599
 9442SOL    HW139962   3.676   2.887  16.004  0.4018 -0.6912  2.6941
 9442SOL    HW239963   3.652   3.005  16.087  2.2364  0.4440 -2.8104
 9443SOL     OW39964   2.698   4.166   2.446  0.0598  0.7448  0.0441
 9443SOL    HW139965   2.603   4.154   2.444  0.1841 -0.2419  0.2889
 9443SOL    HW239966   2.720   4.151   2.538  3.2179 -1.5298 -1.0828
 9444SOL     OW39967   2.527   3.982   8.264 -0.5802 -0.0341 -0.2505
 9444SOL    HW139968   2.532   3.985   8.168  1.7908  0.4988 -0.1174
 9444SOL    HW239969   2.615   3.951   8.286 -0.9607  0.9160  2.5409
 9445SOL     OW39970   0.818   4.320  13.913 -0.4487 -0.5554 -1.2958
 9445SOL    HW139971   0.803   4.382  13.985 -1.9981 -0.6107 -1.5781
 9445SOL    HW239972   0.752   4.340  13.847 -1.2872 -1.7798 -0.8237
 9446SOL     OW39973   3.630   4.110  15.303 -0.0619  0.1858 -0.0946
 9446SOL    HW139974   3.584   4.131  15.222  1.8701 -1.1454 -1.5231
 9446SOL    HW239975   3.695   4.048  15.270 -0.7293 -0.1704 -0.7343
 9447SOL     OW39976   4.234   2.913   7.913 -0.1005 -0.0458  0.0900
 9447SOL    HW139977   4.178   2.990   7.912  1.5609  1.1681  0.9529
 9447SOL    HW239978   4.255   2.903   8.006 -1.2360  0.3116  0.3765
 9448SOL     OW39979   4.502   2.777  10.425 -0.2198  0.2449  0.0128
 9448SOL    HW139980   4.428   2.717  10.425  0.5171 -0.6668 -2.9792
 9448SOL    HW239981   4.476   2.845  10.363 -0.3064 -1.1443 -1.4783
 9449SOL     OW39982   4.622   2.160   5.186  0.1437  0.4154 -0.2311
 9449SOL    HW139983   4.576   2.172   5.103  0.6920 -0.7035 -0.7036
 9449SOL    HW239984   4.561   2.118   5.246 -0.0841 -0.5155 -1.1226
 9450SOL     OW39985   3.249   4.507   3.142  0.3827  0.4969 -0.2847
 9450SOL    HW139986   3.267   4.600   3.155  1.7515  0.0690  0.9539
 9450SOL    HW239987   3.251   4.500   3.046 -2.4942 -1.0418 -0.2388
 9451SOL     OW39988   3.007   0.391  15.022  0.3697  0.6688  0.1834
 9451SOL    HW139989   3.045   0.443  15.093 -0.1551 -0.7233  1.4867
 9451SOL    HW239990   3.017   0.459  14.956 -1.5863  1.7697  1.0384
 9452SOL     OW39991   1.666   4.564  11.491 -0.3785  0.3067 -0.3318
 9452SOL    HW139992   1.725   4.537  11.562  0.2544  1.5137 -0.3966
 9452SOL    HW239993   1.668   4.491  11.429 -1.9203 -0.9843  1.1436
 9453SOL     OW39994   1.551   0.871   7.332  0.3637 -0.3606 -0.3226
 9453SOL    HW139995   1.503   0.791   7.354 -0.6283  0.2584 -0.2216
 9453SOL    HW239996   1.557   0.919   7.415  3.9157 -0.2132 -0.6670
 9454SOL     OW39997   3.073   1.444  10.393  0.3104 -1.0534 -0.0077
 9454SOL    HW139998   3.068   1.383  10.467  0.8694 -1.6295 -0.4395
 9454SOL    HW239999   3.105   1.391  10.320  0.3121 -0.0184 -0.7492
 9455SOL     OW40000   2.493   3.174  13.426  0.5503 -0.0574 -0.4707
 9455SOL    HW140001   2.549   3.112  13.379  0.3623 -0.2627 -0.4282
 9455SOL    HW240002   2.474   3.221  13.345 -0.0602  0.0621 -0.2598
 9456SOL     OW40003   2.716   3.413   7.637  0.0085  0.1248  0.3656
 9456SOL    HW140004   2.765   3.458   7.568  1.2172 -1.9961 -0.1741
 9456SOL    HW240005   2.794   3.385   7.686 -0.6280  2.6555  2.7749
 9457SOL     OW40006   4.475   4.344  16.918  0.3843  0.1609  0.3051
 9457SOL    HW140007   4.420   4.388  16.853 -0.1209 -0.2472  0.4668
 9457SOL    HW240008   4.405   4.294  16.959  0.2142 -0.3402 -0.5859
 9458SOL     OW40009   1.318   3.900  16.905  0.1863  0.6635  0.3323
 9458SOL    HW140010   1.300   3.829  16.844 -1.8354  1.6425 -0.2137
 9458SOL    HW240011   1.301   3.861  16.991  0.1351  0.8959  0.4285
 9459SOL     OW40012   2.528   1.046   9.138 -0.3694 -0.4538  0.4851
 9459SOL    HW140013   2.584   1.071   9.064 -2.4163  1.3872 -0.4394
 9459SOL    HW240014   2.537   0.951   9.127  2.3281 -0.2693  1.1024
 9460SOL     OW40015   4.116   3.302   6.665 -0.5045  0.0696  1.0072
 9460SOL    HW140016   4.109   3.207   6.675 -2.0570  0.2013  1.1901
 9460SOL    HW240017   4.211   3.308   6.660 -0.7402  0.9282 -2.5919
 9461SOL     OW40018   1.655   1.279  12.206  0.1601  0.3758 -0.3699
 9461SOL    HW140019   1.690   1.207  12.258  0.0190  0.5072 -0.0857
 9461SOL    HW240020   1.566   1.245  12.194 -0.7651  3.1582 -1.4795
 9462SOL     OW40021   1.029   4.450   3.191 -0.2287  0.1667 -0.6824
 9462SOL    HW140022   0.933   4.451   3.195 -0.2173 -2.6094  0.5806
 9462SOL    HW240023   1.047   4.375   3.248  0.1842  1.6490  1.1148
 9463SOL     OW40024   3.776   1.289  13.032 -0.1458 -0.1736  0.2233
 9463SOL    HW140025   3.866   1.286  13.066  0.0112  0.3111 -0.1487
 9463SOL    HW240026   3.789   1.305  12.939  0.0523 -1.8600 -0.0424
 9464SOL     OW40027   3.942   4.559   6.412  0.7863  0.8536  0.2477
 9464SOL    HW140028   3.883   4.614   6.360 -0.9078 -1.6675 -0.5125
 9464SOL    HW240029   4.015   4.621   6.417  0.1911  1.5489  0.3271
 9465SOL     OW40030   2.792   4.241   6.669  0.0961 -0.2213  0.1344
 9465SOL    HW140031   2.820   4.215   6.582  0.0069 -1.5459  0.4880
 9465SOL    HW240032   2.881   4.258   6.700 -0.7833  2.3396  1.2824
 9466SOL     OW40033   1.328   4.632   7.689  0.3238 -0.0822 -0.4880
 9466SOL    HW140034   1.338   4.710   7.634 -0.7561  0.4748  0.0974
 9466SOL    HW240035   1.328   4.558   7.628 -1.0599  0.5579 -1.2712
 9467SOL     OW40036   1.542   3.602   1.911  0.1353 -0.0788  0.3483
 9467SOL    HW140037   1.529   3.654   1.990  0.3009  0.0074  0.3189
 9467SOL    HW240038   1.607   3.537   1.940 -1.5831 -0.7198  2.7192
 9468SOL     OW40039   0.821   2.380  10.184 -0.3278  0.5871 -0.6064
 9468SOL    HW140040   0.857   2.367  10.096  0.3405  0.6734 -0.3445
 9468SOL    HW240041   0.908   2.395  10.221 -0.6938  0.0121  0.4862
 9469SOL     OW40042   4.230   1.445  13.650 -0.2115  0.4934 -0.0230
 9469SOL    HW140043   4.293   1.384  13.610  1.1381  1.0252  1.2901
 9469SOL    HW240044   4.288   1.482  13.716 -1.9748 -1.2138  2.4668
 9470SOL     OW40045   0.408   2.516   6.405  0.4388  0.1401  0.2925
 9470SOL    HW140046   0.486   2.528   6.351  1.0671 -2.6290  0.5771
 9470SOL    HW240047   0.437   2.553   6.488  0.7419 -0.1726  0.3253
 9471SOL     OW40048   3.611   2.135   3.696  0.3168  0.0552 -0.2280
 9471SOL    HW140049   3.546   2.125   3.765 -0.5725  0.0402 -1.0659
 9471SOL    HW240050   3.676   2.171   3.757 -0.7386  0.4442  0.6565
 9472SOL     OW40051   2.504   4.326  15.861 -0.1018 -0.0302  0.3741
 9472SOL    HW140052   2.543   4.391  15.803  1.6829  1.0792  2.8418
 9472SOL    HW240053   2.436   4.293  15.802 -0.9419  1.2138  0.6238
 9473SOL     OW40054   2.044   4.269   7.191  0.5177 -0.0078  0.3130
 9473SOL    HW140055   2.078   4.317   7.266 -0.0902 -0.8691  1.1540
 9473SOL    HW240056   1.949   4.276   7.202  0.5589  1.2684 -0.1297
 9474SOL     OW40057   2.508   2.360   8.592  0.5748 -0.2497 -0.2106
 9474SOL    HW140058   2.481   2.291   8.531 -0.0951 -1.2350  1.1927
 9474SOL    HW240059   2.493   2.315   8.676  1.3317  1.2470  0.7231
 9475SOL     OW40060   2.437   3.533   7.378 -0.4935  0.3853  0.3808
 9475SOL    HW140061   2.391   3.485   7.448  1.9638 -0.7864  1.2173
 9475SOL    HW240062   2.503   3.469   7.349  2.3400  2.0230  3.0961
 9476SOL     OW40063   2.883   3.862   6.726  0.1132  0.4121 -0.3539
 9476SOL    HW140064   2.822   3.874   6.653  0.0342  1.5752 -0.0972
 9476SOL    HW240065   2.951   3.923   6.698  1.2620 -0.5995  0.2061
 9477SOL     OW40066   3.619   1.292  10.997 -0.0126  0.5569 -0.1753
 9477SOL    HW140067   3.613   1.201  10.967 -0.2665 -0.1415  2.0100
 9477SOL    HW240068   3.662   1.276  11.081  1.1985  0.2384 -0.8502
 9478SOL     OW40069   0.554   3.007  10.731  0.0739  0.0629 -0.0641
 9478SOL    HW140070   0.475   2.973  10.689 -0.8619  2.8899 -0.5929
 9478SOL    HW240071   0.513   3.059  10.799  0.8529 -0.6967  0.9808
 9479SOL     OW40072   4.275   2.999   6.086  0.2994 -0.3234  0.3314
 9479SOL    HW140073   4.319   2.940   6.024 -1.4664 -1.5924  0.2918
 9479SOL    HW240074   4.342   3.067   6.089 -0.2929  0.3765 -2.3536
 9480SOL     OW40075   1.668   1.345   2.087  0.3488 -0.1852  0.6348
 9480SOL    HW140076   1.643   1.253   2.092  2.2761 -0.8518 -1.6251
 9480SOL    HW240077   1.621   1.375   2.164 -0.6393 -1.1332  0.3928
 9481SOL     OW40078   0.046   3.956  12.819 -0.1863 -0.0073 -0.1898
 9481SOL    HW140079   4.715   3.887  12.815  0.1536 -0.4492  2.0708
 9481SOL    HW240080   0.096   3.938  12.740  0.6738 -2.5904  0.9686
 9482SOL     OW40081   0.676   1.749  13.164  0.1591  0.0914 -0.6322
 9482SOL    HW140082   0.679   1.655  13.152 -0.8944  0.1286 -1.2728
 9482SOL    HW240083   0.686   1.774  13.072 -0.4145  0.4647 -0.5997
 9483SOL     OW40084   2.979   2.261  17.709 -0.7014  0.3338 -0.0537
 9483SOL    HW140085   3.064   2.250   0.012 -0.2248 -2.7898 -1.8136
 9483SOL    HW240086   2.919   2.240   0.042 -0.0471  0.0067  0.3917
 9484SOL     OW40087   3.531   3.247   4.996  0.4549 -0.0150  0.3851
 9484SOL    HW140088   3.584   3.326   4.996  0.2454  0.1354 -1.5663
 9484SOL    HW240089   3.518   3.245   5.091 -0.9929 -0.1301  0.1817
 9485SOL     OW40090   0.516   1.537   5.844 -0.1947 -0.6627 -0.0947
 9485SOL    HW140091   0.566   1.579   5.914  0.7405 -1.8650 -0.0431
 9485SOL    HW240092   0.487   1.454   5.882 -0.9768  0.2489  1.2835
 9486SOL     OW40093   3.682   3.994   2.985 -0.9404 -0.1911 -0.1611
 9486SOL    HW140094   3.605   3.937   2.978 -2.8840  2.4502 -0.3989
 9486SOL    HW240095   3.744   3.930   3.021 -0.9728  0.5901  1.2994
 9487SOL     OW40096   2.731   2.259   7.267  0.0037 -0.2279  0.5160
 9487SOL    HW140097   2.813   2.263   7.316 -0.2589 -0.5203  0.9700
 9487SOL    HW240098   2.673   2.325   7.304  0.1495  0.7557 -0.9772
 9488SOL     OW40099   2.428   3.539   0.419 -1.1121 -0.5882 -0.0143
 9488SOL    HW140100   2.468   3.561   0.504  0.4563 -0.0852 -0.8950
 9488SOL    HW240101   2.374   3.463   0.440 -0.2387 -1.4879 -1.0330
 9489SOL     OW40102   3.301   1.504   6.263  0.2229 -0.1161  0.3850
 9489SOL    HW140103   3.285   1.536   6.175 -0.8390  0.7969  0.9122
 9489SOL    HW240104   3.382   1.551   6.283 -0.1910 -0.0129  1.8391
 9490SOL     OW40105   0.524   1.454  14.296  0.2160  0.4183  0.0041
 9490SOL    HW140106   0.513   1.547  14.274  0.9870  0.2706 -1.0014
 9490SOL    HW240107   0.611   1.456  14.336  0.6941 -1.9887 -0.9351
 9491SOL     OW40108   4.483   1.458   4.939  0.6443 -0.2446 -0.3732
 9491SOL    HW140109   4.565   1.428   4.900 -0.5065 -1.1935 -2.0196
 9491SOL    HW240110   4.484   1.554   4.931 -2.1528  0.0103  2.0774
 9492SOL     OW40111   2.701   3.527   3.722 -0.1760 -0.5831 -0.1870
 9492SOL    HW140112   2.625   3.471   3.734 -1.5525  1.5674  1.1461
 9492SOL    HW240113   2.769   3.464   3.697  0.0125  0.6367 -2.7374
 9493SOL     OW40114   0.982   2.220  13.007 -0.7258  0.3726  0.1788
 9493SOL    HW140115   1.034   2.181  13.078  1.2649 -0.2829 -1.6195
 9493SOL    HW240116   1.040   2.211  12.931  1.7017  0.9836  1.9511
 9494SOL     OW40117   3.053   0.164  12.962 -0.2044 -0.0879  0.2996
 9494SOL    HW140118   2.970   0.208  12.942  0.6203  1.0163 -0.6944
 9494SOL    HW240119   3.048   0.094  12.897  0.0691  2.3216 -2.3519
 9495SOL     OW40120   0.581   1.670  17.005  0.6768  0.4467 -0.1402
 9495SOL    HW140121   0.510   1.734  16.997 -0.8786 -1.1720  0.7082
 9495SOL    HW240122   0.655   1.730  16.993  2.0767 -1.4980 -1.1701
 9496SOL     OW40123   2.946   0.592  13.309  0.2200  0.0024 -0.1841
 9496SOL    HW140124   2.987   0.515  13.348  1.6483  0.8205 -0.0660
 9496SOL    HW240125   3.011   0.659  13.334 -0.0522  0.2995 -0.2802
 9497SOL     OW40126   1.475   1.927   4.555 -0.2871  0.1665  0.1946
 9497SOL    HW140127   1.531   1.978   4.495 -0.1316 -0.7327 -0.4220
 9497SOL    HW240128   1.471   1.983   4.632  0.3775 -0.9172  1.0160
 9498SOL     OW40129   3.267   1.523   6.860 -0.2568 -0.1570  0.1272
 9498SOL    HW140130   3.181   1.564   6.846  0.3686  0.4202 -1.9652
 9498SOL    HW240131   3.279   1.509   6.766  0.8720  2.2445 -0.1079
 9499SOL     OW40132   2.568   2.018   5.129  0.3182 -0.2336  0.0214
 9499SOL    HW140133   2.563   2.007   5.224  0.1665 -1.7491 -0.1568
 9499SOL    HW240134   2.539   2.109   5.121 -0.1350 -0.6567 -3.2005
 9500SOL     OW40135   1.324   0.845   8.018 -0.5986  0.1869 -0.3406
 9500SOL    HW140136   1.245   0.813   7.975 -0.6362  3.7263 -2.8455
 9500SOL    HW240137   1.363   0.758   8.032  1.0633  1.0856  0.6841
 9501SOL     OW40138   0.586   3.696   0.737  0.5940  0.3723 -0.1368
 9501SOL    HW140139   0.629   3.619   0.774  1.1185  0.1972 -1.1140
 9501SOL    HW240140   0.501   3.664   0.766  0.1689  1.5374 -0.0980
 9502SOL     OW40141   0.858   4.466   4.095  0.2131 -0.3014  0.1004
 9502SOL    HW140142   0.933   4.444   4.150  0.1361  0.6662  0.5839
 9502SOL    HW240143   0.817   4.544   4.132 -0.8222 -0.5991 -0.4278
 9503SOL     OW40144   2.065   1.498   7.755 -0.5166  0.2865 -0.3373
 9503SOL    HW140145   2.120   1.485   7.678 -1.6564 -2.3936 -0.6731
 9503SOL    HW240146   1.977   1.486   7.719  0.0524 -0.5168 -1.4398
 9504SOL     OW40147   2.529   1.274   7.003 -0.0288 -0.1988 -0.0752
 9504SOL    HW140148   2.535   1.280   6.908  2.4076 -0.5052  0.0400
 9504SOL    HW240149   2.443   1.316   7.005  0.1800  0.2562 -0.6114
 9505SOL     OW40150   0.763   2.955   5.633 -0.3276  0.2475 -0.0062
 9505SOL    HW140151   0.740   2.916   5.718  0.4395  0.3359  0.2359
 9505SOL    HW240152   0.857   2.973   5.630  0.1012 -2.1170 -0.5677
 9506SOL     OW40153   3.564   4.222  16.971 -0.6601 -0.1115 -0.2215
 9506SOL    HW140154   3.529   4.219  16.882  0.5649 -0.7684 -0.6813
 9506SOL    HW240155   3.592   4.131  16.973 -0.6703 -0.1036  0.2376
 9507SOL     OW40156   4.416   0.637  10.953 -0.3763 -0.2216  0.3888
 9507SOL    HW140157   4.443   0.617  10.863  0.9235  1.0632  0.4905
 9507SOL    HW240158   4.343   0.575  10.956 -0.9827  0.5204  1.0336
 9508SOL     OW40159   3.635   2.366   2.692 -0.0033  0.3408  0.3113
 9508SOL    HW140160   3.689   2.442   2.672 -1.9399  0.7895 -3.2252
 9508SOL    HW240161   3.551   2.409   2.679  0.0663  0.4976  0.3841
 9509SOL     OW40162   0.897   4.258   7.459 -0.0293  0.3367  0.2172
 9509SOL    HW140163   0.894   4.210   7.376  0.8361  1.6105 -0.5528
 9509SOL    HW240164   0.973   4.311   7.440 -1.1451  0.8780 -2.6697
 9510SOL     OW40165   1.075   1.803   8.251  0.2758 -0.7608  0.1420
 9510SOL    HW140166   1.153   1.828   8.301  0.2796 -0.9683  0.2401
 9510SOL    HW240167   1.077   1.707   8.246 -1.7169 -0.7571 -0.7220
 9511SOL     OW40168   2.205   0.997   6.894 -0.0034  0.4662 -0.1128
 9511SOL    HW140169   2.255   0.956   6.822 -1.2640 -2.5183  0.7347
 9511SOL    HW240170   2.262   0.979   6.969  0.8968  2.9740 -0.1878
 9512SOL     OW40171   0.166   0.158   3.820 -0.2158 -0.1486 -0.2241
 9512SOL    HW140172   0.079   0.149   3.860  0.8011 -1.6308  1.6754
 9512SOL    HW240173   0.144   0.169   3.728 -0.2346 -0.2711 -0.2341
 9513SOL     OW40174   4.034   3.028  11.999  0.0569  0.6393 -0.0712
 9513SOL    HW140175   4.005   2.996  12.085  1.4466 -3.4707 -1.1164
 9513SOL    HW240176   3.950   3.039  11.955 -0.1071 -0.4788 -0.0437
 9514SOL     OW40177   4.390   3.476   4.151 -0.6540 -0.1892  0.2456
 9514SOL    HW140178   4.389   3.469   4.056 -3.5247  1.1989  0.1643
 9514SOL    HW240179   4.353   3.564   4.151 -2.8317 -1.0884 -0.8919
 9515SOL     OW40180   4.351   2.207   3.190  0.2173  0.4202 -0.2440
 9515SOL    HW140181   4.447   2.205   3.185  0.1705 -0.2704 -0.8805
 9515SOL    HW240182   4.341   2.240   3.279  1.4362  1.1842 -0.3857
 9516SOL     OW40183   0.512   1.185   6.793  0.0330 -0.7633 -0.1760
 9516SOL    HW140184   0.544   1.271   6.767  2.8881 -1.8632 -0.3335
 9516SOL    HW240185   0.422   1.201   6.821 -0.3787  0.8524 -2.3890
 9517SOL     OW40186   2.133   2.297   8.551  0.6904 -0.0459  0.3600
 9517SOL    HW140187   2.070   2.321   8.483 -0.2284  1.0710  1.6013
 9517SOL    HW240188   2.104   2.349   8.626  0.6016  1.6316 -0.8475
 9518SOL     OW40189   1.909   0.067   1.684 -0.9956  0.0746  0.4983
 9518SOL    HW140190   1.834   0.011   1.669  0.1601 -1.0441 -1.0485
 9518SOL    HW240191   1.950   0.022   1.758  1.3976 -0.7002 -1.2833
 9519SOL     OW40192   3.478   3.532   7.292  0.5212 -0.2298 -0.4889
 9519SOL    HW140193   3.524   3.575   7.364  0.1828 -0.0931 -0.3545
 9519SOL    HW240194   3.404   3.492   7.336  1.7433 -0.5924  1.2218
 9520SOL     OW40195   2.336   2.224   3.336 -0.6531 -0.1803 -0.2824
 9520SOL    HW140196   2.258   2.277   3.352  0.9771  2.4040 -0.7764
 9520SOL    HW240197   2.368   2.270   3.258 -1.8650 -2.5043 -2.1351
 9521SOL     OW40198   0.115   2.088   6.477 -0.0541 -0.2197 -0.3644
 9521SOL    HW140199   0.091   2.143   6.403  0.5081 -0.1603 -0.5006
 9521SOL    HW240200   0.028   2.050   6.486 -0.7186  1.3529 -0.1013
 9522SOL     OW40201   1.652   1.800   3.355  0.6207 -0.5120 -0.0346
 9522SOL    HW140202   1.715   1.870   3.374  0.5932 -0.5650  0.2564
 9522SOL    HW240203   1.704   1.719   3.355  0.9974 -0.2686 -0.2009
 9523SOL     OW40204   1.256   3.902  16.515  0.4012 -0.2165  0.2128
 9523SOL    HW140205   1.251   3.836  16.584  2.3985  0.1756  0.7286
 9523SOL    HW240206   1.327   3.955  16.552  0.1430  0.3765 -0.1317
 9524SOL     OW40207   1.768   0.201   9.773 -0.8954 -0.5464 -0.0584
 9524SOL    HW140208   1.693   0.254   9.746  1.4059  2.1121 -1.3875
 9524SOL    HW240209   1.737   0.123   9.818 -1.1163 -0.0196  0.6927
 9525SOL     OW40210   1.162   2.140  11.584 -0.3214 -0.3910 -0.1848
 9525SOL    HW140211   1.214   2.088  11.646 -0.8154 -0.8138 -0.1259
 9525SOL    HW240212   1.215   2.136  11.504  0.5452 -2.2957  0.4891
 9526SOL     OW40213   4.218   1.424   6.485 -0.1863  0.0611  0.1272
 9526SOL    HW140214   4.150   1.460   6.428 -1.0203 -1.3912  0.2180
 9526SOL    HW240215   4.177   1.355   6.538  2.4151 -1.4045  0.2442
 9527SOL     OW40216   1.119   1.433   7.658  0.3734 -0.3960  0.1188
 9527SOL    HW140217   1.182   1.393   7.598  0.1173  0.3135 -0.6142
 9527SOL    HW240218   1.179   1.439   7.732 -0.1118  0.8370  0.4170
 9528SOL     OW40219   0.836   2.614   7.403  0.5197 -0.2741  0.0838
 9528SOL    HW140220   0.802   2.600   7.314  1.0354  0.9061 -0.2914
 9528SOL    HW240221   0.759   2.587   7.452 -0.7884  0.1464 -1.7279
 9529SOL     OW40222   3.561   0.910   2.884  0.1607 -1.2480 -0.0486
 9529SOL    HW140223   3.540   0.873   2.970  0.3294  0.4474  0.7131
 9529SOL    HW240224   3.515   0.846   2.830 -2.2924 -0.0228  0.5784
 9530SOL     OW40225   1.858   2.216   1.247  0.0276  0.0479 -0.3904
 9530SOL    HW140226   1.852   2.132   1.293  0.0574 -0.6424 -1.6351
 9530SOL    HW240227   1.825   2.280   1.311  2.8043 -0.0304  1.1022
 9531SOL     OW40228   0.578   1.089   7.678 -0.3204  0.1768 -0.5910
 9531SOL    HW140229   0.487   1.119   7.673 -0.7529 -1.0949 -0.2564
 9531SOL    HW240230   0.560   0.995   7.670  0.0036 -0.0055  0.9288
 9532SOL     OW40231   3.144   2.888  15.054  0.2629 -0.0572 -0.1214
 9532SOL    HW140232   3.108   2.822  14.995  1.5698 -3.4049  2.7999
 9532SOL    HW240233   3.239   2.880  15.043  0.5770 -0.4018  2.8451
 9533SOL     OW40234   0.531   4.141   4.054  0.1796 -0.1882  0.6391
 9533SOL    HW140235   0.492   4.226   4.074  0.4721  0.2615 -0.6941
 9533SOL    HW240236   0.622   4.157   4.026  0.0956  1.2619  1.1729
 9534SOL     OW40237   0.979   3.047   7.729  0.1718  0.3429  0.1340
 9534SOL    HW140238   1.045   3.078   7.667 -3.1405  1.5792 -2.7860
 9534SOL    HW240239   1.042   3.053   7.800  2.5387 -1.5818 -1.7964
 9535SOL     OW40240   3.400   1.144  12.675  0.3166  0.3644  0.2947
 9535SOL    HW140241   3.338   1.213  12.652 -1.5750 -1.5987 -0.4952
 9535SOL    HW240242   3.467   1.176  12.615 -0.9032  2.8780  0.2750
 9536SOL     OW40243   0.004   2.213   2.532 -0.6474  0.2204 -0.1530
 9536SOL    HW140244   0.063   2.272   2.578 -2.1212  1.7228 -0.1857
 9536SOL    HW240245   0.001   2.135   2.588 -0.8585 -0.4924 -1.1548
 9537SOL     OW40246   2.273   1.730   3.116  0.2551 -0.7463  0.3458
 9537SOL    HW140247   2.239   1.659   3.061 -0.2181  0.0368 -0.3749
 9537SOL    HW240248   2.276   1.801   3.053 -3.2067  1.3795  2.6261
 9538SOL     OW40249   3.341   0.548   0.728  0.4733 -0.3776  0.5969
 9538SOL    HW140250   3.319   0.510   0.813  0.7285  0.8473  1.2192
 9538SOL    HW240251   3.413   0.609   0.748  0.3318 -1.1936  3.6427
 9539SOL     OW40252   3.109   3.315   6.213 -0.2496  0.1940  0.0634
 9539SOL    HW140253   3.050   3.374   6.261 -1.7103  0.6193 -2.2622
 9539SOL    HW240254   3.122   3.251   6.283 -0.6311 -0.3031 -0.3184
 9540SOL     OW40255   1.592   0.398   3.206  0.7661  0.3268 -0.1671
 9540SOL    HW140256   1.653   0.346   3.153 -0.9830 -0.5526 -1.3220
 9540SOL    HW240257   1.553   0.332   3.263 -0.2285  0.7618 -0.3426
 9541SOL     OW40258   4.568   0.826   9.037  0.1480 -0.1414  0.6279
 9541SOL    HW140259   4.658   0.856   9.023 -0.4944  0.9231 -1.2479
 9541SOL    HW240260   4.589   0.780   9.118  2.4268 -0.9664 -0.4244
 9542SOL     OW40261   0.785   2.567   6.629 -0.1687 -0.1680  0.5445
 9542SOL    HW140262   0.857   2.630   6.623 -0.9162  0.7876  1.5918
 9542SOL    HW240263   0.822   2.483   6.603 -0.3570  0.1608 -0.8078
 9543SOL     OW40264   3.837   3.635  12.586  0.1399 -0.1426  1.0110
 9543SOL    HW140265   3.863   3.557  12.536  1.3866  0.5454  0.5898
 9543SOL    HW240266   3.775   3.598  12.649 -0.4172 -2.0626 -0.6708
 9544SOL     OW40267   2.509   3.403   8.769  0.8657 -0.2468 -0.1292
 9544SOL    HW140268   2.465   3.453   8.700  1.5457  0.5521  0.0171
 9544SOL    HW240269   2.462   3.435   8.846  0.1769 -0.1882 -0.5680
 9545SOL     OW40270   1.096   1.159   8.577 -0.1006 -0.3481  0.0122
 9545SOL    HW140271   1.013   1.187   8.617  0.9391  3.0671 -0.2560
 9545SOL    HW240272   1.161   1.210   8.624  0.1340  1.5247 -2.3355
 9546SOL     OW40273   4.066   0.460   3.519 -0.1373  0.1297 -0.4580
 9546SOL    HW140274   4.081   0.379   3.567  1.5727 -0.4372 -1.9755
 9546SOL    HW240275   4.096   0.433   3.432  0.2209 -1.4510  0.1609
 9547SOL     OW40276   1.450   2.198   2.826  0.7166  0.3175  0.3053
 9547SOL    HW140277   1.527   2.154   2.863  1.0122  0.3473 -0.2823
 9547SOL    HW240278   1.387   2.128   2.842  1.5924 -0.0929  1.9253
 9548SOL     OW40279   3.836   2.027   5.719 -1.0826 -0.6190  0.6317
 9548SOL    HW140280   3.762   2.037   5.658 -1.5575 -1.2233  1.1072
 9548SOL    HW240281   3.833   2.119   5.745  0.4904 -0.2068 -0.6922
 9549SOL     OW40282   1.634   4.070  10.155  0.5260 -0.5306  0.3994
 9549SOL    HW140283   1.554   4.019  10.167 -0.7177  1.1161 -0.9048
 9549SOL    HW240284   1.652   4.069  10.061  0.3725 -0.8559  0.3732
 9550SOL     OW40285   2.337   4.327   2.134  0.0114  0.5623 -0.2736
 9550SOL    HW140286   2.419   4.371   2.158 -0.0154  2.1660 -3.2438
 9550SOL    HW240287   2.274   4.373   2.189  0.6458 -1.7109  2.3652
 9551SOL     OW40288   3.345   2.815   5.683 -0.6534  0.0909  0.7702
 9551SOL    HW140289   3.289   2.892   5.680 -0.7498  0.0494  1.5099
 9551SOL    HW240290   3.430   2.857   5.668 -0.8133  0.1079 -0.0442
 9552SOL     OW40291   3.098   0.837   5.779  0.1500 -0.2611 -0.1749
 9552SOL    HW140292   3.064   0.769   5.837  0.8728 -0.4340  0.0526
 9552SOL    HW240293   3.055   0.919   5.804 -1.1667 -1.6753  2.2196
 9553SOL     OW40294   1.695   2.476   7.544 -0.2846 -0.1709  0.6215
 9553SOL    HW140295   1.664   2.386   7.560 -2.3263  0.7668  1.9671
 9553SOL    HW240296   1.781   2.469   7.584 -0.3406 -0.6667  0.6595
 9554SOL     OW40297   4.407   2.096   8.678  0.1506  0.3579 -0.1626
 9554SOL    HW140298   4.336   2.139   8.726 -0.5749  0.0064 -0.9234
 9554SOL    HW240299   4.375   2.111   8.589  1.3481 -0.7260 -0.7699
 9555SOL     OW40300   1.915   1.041  12.108 -0.1544 -0.6294 -0.6318
 9555SOL    HW140301   1.834   1.011  12.149  1.5745 -0.4313  2.9417
 9555SOL    HW240302   1.908   1.009  12.019 -0.0333 -0.5512 -0.6691
 9556SOL     OW40303   2.567   3.484   2.959 -0.0705  0.1583  0.0267
 9556SOL    HW140304   2.511   3.555   2.991 -0.0712  0.0858  0.1856
 9556SOL    HW240305   2.655   3.517   2.978  0.3803 -1.0128 -0.0357
 9557SOL     OW40306   3.327   3.666   6.761  0.3588  0.1031 -0.5224
 9557SOL    HW140307   3.253   3.670   6.701  0.2281 -0.1158 -0.3753
 9557SOL    HW240308   3.401   3.680   6.702  1.1396  1.0642  0.6831
 9558SOL     OW40309   3.344   2.673  12.495  0.7326 -0.3670 -0.5167
 9558SOL    HW140310   3.435   2.693  12.475  0.7759  1.2034  1.3306
 9558SOL    HW240311   3.361   2.618  12.572 -1.2291 -0.2734 -0.0006
 9559SOL     OW40312   1.681   0.208   4.337  0.0451 -0.2131 -0.2913
 9559SOL    HW140313   1.765   0.253   4.344 -0.0938 -0.3878  2.3399
 9559SOL    HW240314   1.639   0.241   4.416 -0.0605  2.0570 -1.3132
 9560SOL     OW40315   3.120   1.296  16.984  0.1155  0.2152  0.2964
 9560SOL    HW140316   3.050   1.332  17.038 -1.5719 -1.7484 -0.5781
 9560SOL    HW240317   3.167   1.231  17.035 -0.0792 -0.2775 -0.1556
 9561SOL     OW40318   0.901   1.115   0.748 -0.0478  0.9339  0.3968
 9561SOL    HW140319   0.832   1.125   0.682 -1.8013 -1.7436  1.8660
 9561SOL    HW240320   0.901   1.205   0.781 -2.4306  0.7942  0.7758
 9562SOL     OW40321   3.672   4.619   7.226  0.1718  0.6507 -0.2431
 9562SOL    HW140322   3.582   4.617   7.193  0.6244  2.2284 -1.5910
 9562SOL    HW240323   3.704   4.689   7.169  1.0044 -1.0160 -1.8502
 9563SOL     OW40324   3.766   2.055   4.191  0.0144 -0.1028 -0.8631
 9563SOL    HW140325   3.819   1.981   4.220 -0.3797 -0.2647 -0.5538
 9563SOL    HW240326   3.682   2.008   4.188  0.6869 -1.1528 -3.9039
 9564SOL     OW40327   0.850   4.047  13.901  0.6852  0.2692  0.7577
 9564SOL    HW140328   0.857   4.137  13.934 -0.9509  1.0729 -1.0743
 9564SOL    HW240329   0.767   4.010  13.931  0.7255 -2.0506 -1.9956
 9565SOL     OW40330   0.354   3.916   8.660  0.1843  0.0275  0.3774
 9565SOL    HW140331   0.346   3.882   8.571  2.8546 -0.1894  0.2382
 9565SOL    HW240332   0.316   3.848   8.716 -0.7771  1.3824  1.4061
 9566SOL     OW40333   2.436   2.148  12.357 -0.3501 -0.0922 -0.1588
 9566SOL    HW140334   2.365   2.115  12.412 -1.8450  0.9667 -1.4756
 9566SOL    HW240335   2.394   2.146  12.271  0.3525 -0.7658 -0.4845
 9567SOL     OW40336   0.933   3.553  11.208  0.5635 -0.6308 -0.2285
 9567SOL    HW140337   0.972   3.562  11.122  1.0433  2.1250  0.2697
 9567SOL    HW240338   0.851   3.601  11.194 -0.2111 -1.4062  1.5934
 9568SOL     OW40339   4.173   0.891   8.581 -0.5484  0.1447  0.0633
 9568SOL    HW140340   4.085   0.924   8.595 -0.7573 -0.7005  0.7668
 9568SOL    HW240341   4.230   0.965   8.560 -1.8559  1.0543 -0.2253
 9569SOL     OW40342   1.515   1.028   2.455 -0.0760  0.2951 -0.6401
 9569SOL    HW140343   1.460   0.967   2.406  1.4585 -1.9249  0.3694
 9569SOL    HW240344   1.592   0.974   2.476 -1.2723 -1.7210 -1.4115
   4.73499   4.73499  17.73882
