Membrane in water
40344
    1TMC1    C1    1   2.319   2.334  11.077  0.4940 -0.2116  0.3876
    1TMC1    C2    2   2.315   2.292  10.946  0.4856 -1.0943  0.6416
    1TMC1    C3    3   2.340   2.387  10.854  0.0791  0.0751  0.7006
    1TMC1    C4    4   2.345   2.464  11.113 -0.0060 -0.3813 -0.2509
    1TMC1    C5    5   2.359   2.555  11.012  0.5654 -0.1084 -0.1132
    1TMC1    C6    6   2.357   2.519  10.880  0.4199  0.0684 -0.7186
    1TMC1     C    7   2.335   2.223  11.169 -0.0593 -0.8324  0.1555
    1TMC1     O    8   2.308   2.252  11.284  0.6122  0.0141  0.1369
    1TMC1     H    9   2.284   2.192  10.918 -2.4268 -0.2694  0.9127
    1TMC1    H1   10   2.350   2.504  11.214  2.3274 -0.6385 -0.2748
    1TMC1    H2   11   2.354   2.588  10.797 -2.0738  0.1016 -0.5946
    1TMC1    C7   12   2.348   2.696  11.038  0.1050  0.1594  0.7155
    1TMC1    C8   13   2.365   2.354  10.718 -0.1960  0.0934 -0.7393
    1TMC1    O1   14   2.367   2.790  10.962  0.1843  0.0119  0.0517
    1TMC1    O2   15   2.323   2.429  10.628 -0.0764 -0.3496 -1.0113
    1TMC1    O3   16   2.242   2.700  11.115  0.5550  0.5332 -0.7113
    1TMC1    H3   17   2.209   2.611  11.141  1.5661 -0.5516 -3.1783
    1TMC1    O5   18   2.389   2.224  10.697  0.1461 -0.3930 -0.1120
    1TMC1    H5   19   2.424   2.174  10.774 -1.1197 -1.2313 -0.0756
    2MPD2     C   20   2.486   1.741  11.294  0.0783 -0.1419 -0.0232
    2MPD2    C1   21   2.477   1.856  11.368  1.0078 -0.0470  0.1443
    2MPD2    C2   22   2.444   1.974  11.311  0.3016  0.3430  0.8939
    2MPD2    C3   23   2.413   1.989  11.186  0.0271  1.0858 -0.2658
    2MPD2    C4   24   2.431   1.878  11.107 -0.0400 -0.1028 -0.1074
    2MPD2    C5   25   2.466   1.754  11.161  0.1779 -0.6254  0.2211
    2MPD2     H   26   2.450   2.067  11.366  1.2466  1.6288 -1.3634
    2MPD2    H1   27   2.420   1.883  10.999 -2.6354  0.6881  0.1891
    2MPD2    H2   28   2.513   1.642  11.328 -0.4793  0.9426  3.6809
    2MPD2    H3   29   2.465   1.669  11.094 -1.9339  0.4982 -1.1634
    2MPD2     N   30   2.382   2.112  11.112  0.0124  0.2804 -0.0503
    2MPD2    H5   31   2.410   2.107  11.015 -0.2167 -1.0749 -0.0480
    2MPD2    N1   32   2.493   1.859  11.507 -0.3860  0.6245  0.4892
    2MPD2    H7   33   2.488   1.955  11.541  0.5191  0.8122  0.0919
    3TMC1    C1   34   1.697   3.153  11.251 -0.0548 -0.7408 -0.6059
    3TMC1    C2   35   1.775   3.250  11.187  0.0539  0.0069 -0.5895
    3TMC1    C3   36   1.753   3.276  11.053 -0.2137 -0.3081  0.3149
    3TMC1    C4   37   1.590   3.094  11.187 -0.0551 -0.2976  1.2314
    3TMC1    C5   38   1.580   3.129  11.053 -0.0481 -0.0707 -0.4333
    3TMC1    C6   39   1.657   3.211  10.983  0.3576  0.2558 -0.7787
    3TMC1     C   40   1.683   3.167  11.395 -0.1033  0.5070 -0.0545
    3TMC1     O   41   1.593   3.109  11.446  0.6155  0.1703  0.1329
    3TMC1     H   42   1.864   3.294  11.231  0.9123 -0.6446 -1.6580
    3TMC1    H1   43   1.522   3.031  11.244  0.9511 -1.3738  1.2488
    3TMC1    H2   44   1.610   3.252  10.894 -1.9190  0.1564  0.3941
    3TMC1    C7   45   1.480   3.062  10.976  0.5894 -0.5357 -0.6710
    3TMC1    C8   46   1.820   3.389  10.999 -0.0943 -0.1787  0.5130
    3TMC1    O1   47   1.505   3.049  10.858  0.6669  0.0252  0.3103
    3TMC1    O2   48   1.887   3.459  11.070  0.1104 -0.2231 -0.4204
    3TMC1    O3   49   1.418   2.978  11.062  0.0295  0.4293 -0.0208
    3TMC1    H3   50   1.378   3.031  11.135 -1.1822  1.5400 -1.5048
    3TMC1    O5   51   1.850   3.361  10.870  0.1288  0.0779  0.0289
    3TMC1    H5   52   1.795   3.295  10.825  2.6328 -0.2684 -2.5321
    4MPD2     C   53   1.681   3.523  11.774 -0.3239 -0.2692 -0.3041
    4MPD2    C1   54   1.754   3.571  11.667  0.3261 -0.8840  0.0450
    4MPD2    C2   55   1.777   3.486  11.557 -0.2324 -0.2573 -0.0324
    4MPD2    C3   56   1.732   3.350  11.553 -0.3194 -0.3538 -0.4732
    4MPD2    C4   57   1.675   3.307  11.672  0.3549 -0.3690  0.2990
    4MPD2    C5   58   1.646   3.390  11.775 -0.3696 -0.9893  0.0960
    4MPD2     H   59   1.823   3.520  11.465 -0.4666 -0.7767 -0.3374
    4MPD2    H1   60   1.638   3.207  11.690  0.3204 -0.4809 -0.3880
    4MPD2    H2   61   1.655   3.577  11.865 -0.6143  0.4185 -0.7997
    4MPD2    H3   62   1.600   3.354  11.867 -0.5211  0.1935  0.4743
    4MPD2     N   63   1.758   3.276  11.435  0.2482 -0.3728 -0.2732
    4MPD2    H5   64   1.818   3.322  11.368 -0.1931 -1.4406 -1.3947
    4MPD2    N1   65   1.791   3.708  11.656  0.8104 -1.1081 -0.0763
    4MPD2    H7   66   1.827   3.746  11.569 -1.9882  1.0167 -0.3118
    5TCq1    O1   67   3.949   4.354  11.744 -0.3491 -0.1563 -0.2252
    5TCq1    C1   68   3.877   4.288  11.653 -0.1552 -0.0633 -0.6137
    5TCq1    O2   69   3.922   4.242  11.548  0.3449  0.4032 -0.0681
    5TCq1    C2   70   3.735   4.341  11.672  0.2439 -0.3509  0.2853
    5TCq1    C3   71   3.696   4.376  11.800  0.6682 -0.4768  0.3424
    5TCq1    C4   72   3.590   4.458  11.811 -0.4400 -0.7855 -0.6775
    5TCq1    C5   73   3.522   4.507  11.702  0.3504  0.3717 -0.6674
    5TCq1    C6   74   3.573   4.482  11.579  0.2710  0.2679  1.2914
    5TCq1    C7   75   3.684   4.401  11.559  0.7031 -0.1632 -0.5777
    5TCq1    C8   76   3.497   4.515  11.463 -0.3677  0.0082 -0.0109
    5TCq1    O4   77   3.544   4.502  11.354 -0.1270  1.0541  0.2729
    5TCq1    C9   78   3.554   4.496  11.948  0.7555 -0.4371 -0.2878
    5TCq1    O5   79   3.650   4.513  12.021 -0.1364  0.0537 -0.1685
    5TCq1    O6   80   3.438   4.539  11.962 -0.2702  0.1072  0.1398
    5TCq1    H1   81   3.889   4.401  11.806 -0.6165 -0.2032 -0.4465
    5TCq1    H2   82   3.745   4.333  11.887 -0.7887 -0.2724  1.2508
    5TCq1    H3   83   3.447   4.582  11.724 -1.4486 -1.0492 -2.0018
    5TCq1    H4   84   3.719   4.375  11.460  0.4068  0.5866 -0.8739
    6MPD2     C   85   3.162   4.679  11.473  0.1903 -1.1229 -0.0428
    6MPD2    C1   86   3.277   4.632  11.417 -0.6409  0.2132  0.0155
    6MPD2    C2   87   3.284   4.649  11.277 -0.5933  0.3395  0.9512
    6MPD2    C3   88   3.183   4.702  11.204  0.1970  0.3513  0.4350
    6MPD2    C4   89   3.067   0.004  11.271 -0.3960 -0.1446  0.2168
    6MPD2    C5   90   3.059   4.731  11.404 -0.4226 -0.0549 -0.3875
    6MPD2     H   91   3.374   4.611  11.230 -1.9191 -1.4361 -0.1816
    6MPD2    H1   92   2.985   0.055  11.221 -0.0832 -0.6211 -0.7880
    6MPD2    H2   93   3.152   4.671  11.580 -2.0716 -0.5141 -0.2271
    6MPD2    H3   94   2.965   0.008  11.456  0.3255 -0.8010  1.1960
    6MPD2     N   95   3.203   4.709  11.061 -0.0318  0.5670 -0.1456
    6MPD2    H5   96   3.276   4.653  11.018  1.5446  0.6553  2.4214
    6MPD2    N1   97   3.374   4.575  11.496 -0.3934  0.0920 -0.4899
    6MPD2    H7   98   3.352   4.566  11.594  2.7715  0.2588  0.2525
    7TCq1    O1   99   4.552   4.075  13.046  0.5049  0.1823  0.2002
    7TCq1    C1  100   4.641   3.988  13.105  0.5869  0.1107  0.6478
    7TCq1    O2  101   4.642   3.865  13.098  0.5838 -0.1025 -0.1037
    7TCq1    C2  102   4.730   4.057  13.200 -0.3536 -0.3594  0.0584
    7TCq1    C3  103   4.728   4.195  13.212  0.1870 -0.7855 -0.1049
    7TCq1    C4  104   0.093   4.251  13.282 -0.1880  0.2606  0.5867
    7TCq1    C5  105   0.186   4.181  13.353  0.1050 -0.2924 -0.3292
    7TCq1    C6  106   0.185   4.046  13.327  0.3777 -0.4815 -1.0539
    7TCq1    C7  107   0.092   3.984  13.253 -0.1112 -0.0131 -0.7539
    7TCq1    C8  108   0.282   3.967  13.392  0.2474 -0.4688  0.1788
    7TCq1    O4  109   0.267   3.847  13.383  0.2752  0.1516 -0.2202
    7TCq1    C9  110   0.105   4.389  13.289 -0.6271  0.0841 -0.4585
    7TCq1    O5  111   0.211   4.443  13.327 -0.0813 -0.2463  0.4286
    7TCq1    O6  112   4.732   4.449  13.260  0.0860  0.1567 -1.0195
    7TCq1    H1  113   4.540   4.162  13.090  1.2756  1.1836 -1.5611
    7TCq1    H2  114   4.658   4.252  13.152 -0.2552 -1.0439  0.1666
    7TCq1    H3  115   0.256   4.235  13.415  0.7535 -1.0174 -0.4288
    7TCq1    H4  116   0.091   3.879  13.224 -1.4003 -0.4191  0.8059
    8MPD2     C  117   0.627   3.966  13.789  0.6027 -0.0776  0.1955
    8MPD2    C1  118   0.538   3.867  13.753 -0.0103  0.6306 -0.7657
    8MPD2    C2  119   0.456   3.884  13.643  0.1547  0.0467 -0.4978
    8MPD2    C3  120   0.466   4.002  13.561  0.1636  0.7521  0.2478
    8MPD2    C4  121   0.560   4.092  13.601 -0.4663 -0.2486  0.7486
    8MPD2    C5  122   0.640   4.075  13.710  0.5544 -0.1512  0.5032
    8MPD2     H  123   0.387   3.804  13.621 -1.3611  0.7180  1.7841
    8MPD2    H1  124   0.579   4.180  13.541  1.9651 -2.7290 -2.1066
    8MPD2    H2  125   0.706   3.955  13.862  0.0487 -2.0735  0.5133
    8MPD2    H3  126   0.715   4.153  13.723  0.0568  0.6093 -1.2505
    8MPD2     N  127   0.373   4.046  13.460 -0.6735 -0.1644  0.1188
    8MPD2    H5  128   0.376   4.142  13.428 -4.2989 -1.1973 -3.3835
    8MPD2    N1  129   0.526   3.759  13.845  0.5680 -0.4433  0.1673
    8MPD2    H7  130   0.577   3.766  13.932  0.1123 -0.8213  0.4692
    9TMC1    C1  131   3.143   2.829  11.000  0.0231 -0.6021  0.5781
    9TMC1    C2  132   3.120   2.820  10.869  0.4122  0.7561  0.2982
    9TMC1    C3  133   3.106   2.936  10.793 -0.0557  0.2980  0.2084
    9TMC1    C4  134   3.155   2.951  11.067  0.1644 -0.0146  0.7228
    9TMC1    C5  135   3.154   3.056  10.986  0.4949 -0.7265 -0.6010
    9TMC1    C6  136   3.122   3.061  10.852 -0.4381  0.1775  0.5014
    9TMC1     C  137   3.104   2.705  11.074 -0.4180 -0.1050 -0.2626
    9TMC1     O  138   3.080   2.607  11.002 -0.2367 -0.4816 -1.5209
    9TMC1     H  139   3.104   2.727  10.816  1.0808  1.6059 -1.4091
    9TMC1    H1  140   3.180   2.965  11.171  2.0666  0.1451  0.2349
    9TMC1    H2  141   3.113   3.151  10.793  0.7884  1.9622  3.0343
    9TMC1    C7  142   3.193   3.180  11.040  0.0916  0.3842 -0.7331
    9TMC1    C8  143   3.022   2.928  10.677 -0.7989 -0.5237  0.4010
    9TMC1    O1  144   3.160   3.285  10.985 -0.0300  0.1787  0.1948
    9TMC1    O2  145   2.934   2.843  10.660 -0.2966  0.6295 -0.1295
    9TMC1    O3  146   3.320   3.157  11.085 -0.2271  0.2944 -0.0334
    9TMC1    H3  147   3.326   3.068  11.125 -0.8238 -0.7297 -2.2361
    9TMC1    O5  148   3.079   2.990  10.578 -0.0715  0.4505  0.2257
    9TMC1    H5  149   3.148   3.050  10.614  0.4789 -0.2270  0.3154
   10MPD2     C  150   3.025   2.497  11.276 -0.3085  0.0725  1.0290
   10MPD2    C1  151   3.042   2.633  11.300 -0.2344 -0.0497  0.5133
   10MPD2    C2  152   3.023   2.678  11.424  0.0755  0.6908 -0.2683
   10MPD2    C3  153   3.005   2.590  11.530  0.6038 -0.5097 -0.5457
   10MPD2    C4  154   3.002   2.456  11.506  0.6358  0.2477  0.2578
   10MPD2    C5  155   3.008   2.411  11.376 -0.8920 -0.7739  0.5588
   10MPD2     H  156   3.015   2.785  11.445  1.1033  0.1140  3.1178
   10MPD2    H1  157   2.977   2.391  11.589  0.2424 -0.1744 -0.1926
   10MPD2    H2  158   3.035   2.453  11.177 -2.0970  2.7147 -0.3444
   10MPD2    H3  159   3.008   2.304  11.361 -0.3094 -0.2539 -2.9723
   10MPD2     N  160   2.987   2.630  11.667 -0.4118  0.3467 -0.3461
   10MPD2    H5  161   2.979   2.555  11.735  2.0970  0.6116  0.2651
   10MPD2    N1  162   3.085   2.728  11.205 -0.0456 -0.0337 -0.3684
   10MPD2    H7  163   3.098   2.820  11.246 -1.4607  0.7213 -1.6695
   11TCq1    O1  164   3.746   4.091  13.853  0.1011  0.4478  0.8177
   11TCq1    C1  165   3.669   3.998  13.799  0.0184  0.4617 -0.1876
   11TCq1    O2  166   3.572   4.023  13.728  0.1681  0.0420 -0.1694
   11TCq1    C2  167   3.669   3.879  13.883 -0.3005  0.3331  0.0312
   11TCq1    C3  168   3.780   3.824  13.944 -0.0906 -0.9080  0.7131
   11TCq1    C4  169   3.760   3.707  14.005 -0.8166  0.4135  0.8828
   11TCq1    C5  170   3.645   3.637  14.003 -0.6332  0.3199  0.1164
   11TCq1    C6  171   3.540   3.690  13.937 -0.4198  0.2114 -1.0773
   11TCq1    C7  172   3.553   3.806  13.874 -0.5344  0.0414 -1.0071
   11TCq1    C8  173   3.422   3.613  13.896  0.2331  0.0873 -0.2661
   11TCq1    O4  174   3.338   3.676  13.836 -0.3659 -0.0378  0.3457
   11TCq1    C9  175   3.885   3.648  14.054  0.0980 -0.2641  0.2673
   11TCq1    O5  176   3.979   3.730  14.067  0.7133  0.1254  0.0859
   11TCq1    O6  177   3.905   3.523  14.040  0.3291  0.0008 -0.5541
   11TCq1    H1  178   3.797   4.058  13.930  0.8423 -0.4735 -0.0750
   11TCq1    H2  179   3.878   3.862  13.920 -0.7034  0.6685  0.7579
   11TCq1    H3  180   3.648   3.536  14.042  0.5536  0.0829 -0.5649
   11TCq1    H4  181   3.472   3.834  13.808 -2.4577 -2.7368  0.1767
   12MPD2     C  182   3.234   3.410  13.816  0.5942 -0.2240 -0.1626
   12MPD2    C1  183   3.352   3.376  13.870  0.1582  0.3808  0.3217
   12MPD2    C2  184   3.399   3.247  13.880 -1.0752 -0.2912  0.0252
   12MPD2    C3  185   3.324   3.143  13.828 -0.1822  0.0485  0.4198
   12MPD2    C4  186   3.205   3.178  13.768 -0.0901  0.7754  0.3589
   12MPD2    C5  187   3.157   3.308  13.760  0.4546  0.5262  0.3567
   12MPD2     H  188   3.502   3.227  13.909 -0.0135  2.0183 -2.1085
   12MPD2    H1  189   3.143   3.102  13.722  0.2350 -1.6775  3.9808
   12MPD2    H2  190   3.189   3.508  13.804 -0.6459 -0.7824 -0.0725
   12MPD2    H3  191   3.059   3.317  13.713  0.4311 -0.3068  0.2455
   12MPD2     N  192   3.356   3.009  13.841  0.3083  0.1587  0.0155
   12MPD2    H5  193   3.308   2.941  13.783 -0.8371  1.3347 -0.3966
   12MPD2    N1  194   3.439   3.476  13.914  0.0916  0.0999  0.5847
   12MPD2    H7  195   3.530   3.453  13.952  0.1914 -0.0184  0.2722
   13TCq1    O1  196   2.933   1.946  11.219 -0.2492  0.0871 -0.8982
   13TCq1    C1  197   2.837   1.992  11.297 -0.1722 -0.9064 -0.2309
   13TCq1    O2  198   2.862   2.016  11.414  0.0019  0.6895  0.5961
   13TCq1    C2  199   2.752   2.075  11.219 -0.1906 -0.1738 -0.1323
   13TCq1    C3  200   2.737   2.039  11.091  0.2046 -0.2886  0.1754
   13TCq1    C4  201   2.682   2.122  11.009 -0.5758 -0.4478  0.0705
   13TCq1    C5  202   2.655   2.257  11.043  0.2176 -0.4277  0.4475
   13TCq1    C6  203   2.686   2.299  11.174 -0.4233 -0.3627 -0.3006
   13TCq1    C7  204   2.733   2.202  11.270  0.0023 -0.3287  0.1836
   13TCq1    C8  205   2.672   2.435  11.210  1.0519  0.4756  0.9292
   13TCq1    O4  206   2.636   2.463  11.324 -0.8909  0.1352 -1.1557
   13TCq1    C9  207   2.637   2.068  10.883 -0.1206 -0.8504 -0.7953
   13TCq1    O5  208   2.696   1.968  10.830 -0.4598  0.0168  0.1838
   13TCq1    O6  209   2.526   2.113  10.866 -0.1918  0.4237  0.2875
   13TCq1    H1  210   2.905   1.935  11.125 -0.3431 -0.7215 -0.7731
   13TCq1    H2  211   2.738   1.935  11.062  0.0033  0.6011 -3.1066
   13TCq1    H3  212   2.604   2.319  10.971  1.8027  2.7979  2.1258
   13TCq1    H4  213   2.770   2.220  11.370 -2.6883 -0.7740  1.2592
   14MPD2     C  214   2.773   2.729  11.026 -0.9444 -0.0077 -0.1321
   14MPD2    C1  215   2.720   2.658  11.133 -0.5588  0.1237  0.2477
   14MPD2    C2  216   2.680   2.728  11.245 -0.6213 -0.8820  0.7706
   14MPD2    C3  217   2.696   2.863  11.250 -0.0134  0.2088 -0.4622
   14MPD2    C4  218   2.745   2.928  11.140  0.2332  0.6186  0.4459
   14MPD2    C5  219   2.795   2.867  11.026 -0.4756  0.1927  0.7904
   14MPD2     H  220   2.653   2.677  11.336 -0.3060 -1.2830  0.6388
   14MPD2    H1  221   2.742   3.037  11.134  1.1072  0.5756 -0.7749
   14MPD2    H2  222   2.791   2.671  10.937 -1.8933 -0.4326 -0.0489
   14MPD2    H3  223   2.835   2.919  10.940  1.1346 -0.2507  1.2595
   14MPD2     N  224   2.639   2.937  11.357 -0.0955 -0.3030  0.0695
   14MPD2    H5  225   2.579   2.889  11.423  0.0680 -0.3991  0.1455
   14MPD2    N1  226   2.720   2.518  11.121  0.4405 -0.3300 -0.5047
   14MPD2    H7  227   2.754   2.475  11.036 -1.6132 -0.5917 -1.1976
   15TCq1    O1  228   1.204   2.190   1.512 -0.6091  0.5181  0.6333
   15TCq1    C1  229   1.127   2.155   1.402  0.8067 -0.7312 -0.2185
   15TCq1    O2  230   1.162   2.167   1.289 -0.5972 -0.0125 -0.3614
   15TCq1    C2  231   0.997   2.110   1.444 -0.6709 -0.0680 -0.2242
   15TCq1    C3  232   0.949   2.169   1.560 -0.4126 -0.2658  0.3390
   15TCq1    C4  233   0.815   2.147   1.580  0.3561  0.3588 -0.6163
   15TCq1    C5  234   0.732   2.086   1.492 -0.7106  0.1342  0.0420
   15TCq1    C6  235   0.780   2.037   1.374 -0.1481 -0.4014  0.4611
   15TCq1    C7  236   0.913   2.050   1.355 -0.1166 -0.1523  0.0980
   15TCq1    C8  237   0.704   1.951   1.284 -0.7124  0.6087 -0.4978
   15TCq1    O4  238   0.772   1.881   1.215 -0.0275 -0.7014  0.1534
   15TCq1    C9  239   0.745   2.196   1.694 -0.4623 -0.7573  0.6335
   15TCq1    O5  240   0.621   2.181   1.694 -0.4587  0.3027 -0.0974
   15TCq1    O6  241   0.813   2.223   1.795  0.0368  0.1150  0.3137
   15TCq1    H1  242   1.175   2.138   1.590  1.9627 -3.8096 -1.3356
   15TCq1    H2  243   0.998   2.217   1.644 -2.7277  1.4090  0.7502
   15TCq1    H3  244   0.629   2.058   1.512 -1.0709 -0.4345 -2.6035
   15TCq1    H4  245   0.955   2.014   1.262  1.9372  2.2243  0.0896
   16MPD2     C  246   0.346   1.957   1.175  0.0717 -0.3166  0.4581
   16MPD2    C1  247   0.475   1.909   1.189 -0.7855 -0.4840 -0.1698
   16MPD2    C2  248   0.518   1.790   1.136  0.2212  0.1399 -0.0976
   16MPD2    C3  249   0.427   1.725   1.054 -0.5210 -0.3842  0.4974
   16MPD2    C4  250   0.301   1.774   1.038 -0.3608  0.8872 -0.4033
   16MPD2    C5  251   0.259   1.893   1.097 -0.0565  0.0604 -0.3367
   16MPD2     H  252   0.615   1.746   1.153 -0.0223  0.6834  2.7347
   16MPD2    H1  253   0.224   1.721   0.982 -0.1672  0.0524  0.1233
   16MPD2    H2  254   0.306   2.047   1.220  2.2950  0.9851 -0.1876
   16MPD2    H3  255   0.162   1.942   1.096 -0.1012 -0.0778 -2.2399
   16MPD2     N  256   0.463   1.598   1.001 -0.1158  0.1395  0.1321
   16MPD2    H5  257   0.561   1.572   1.008 -0.7212 -2.1491 -0.1036
   16MPD2    N1  258   0.569   1.987   1.266 -0.0131 -0.0595 -0.5677
   16MPD2    H7  259   0.533   2.068   1.315 -2.9365 -1.8068  0.1754
   17TMC1    C1  260   2.467   1.875  10.566  0.0351 -0.0117 -0.0119
   17TMC1    C2  261   2.554   1.802  10.645 -0.6339 -0.2548  0.9382
   17TMC1    C3  262   2.494   1.716  10.725 -0.1175 -0.0422  0.2834
   17TMC1    C4  263   2.331   1.867  10.559  0.4067  0.2318 -0.3323
   17TMC1    C5  264   2.282   1.759  10.630 -0.1482 -0.1171  0.3000
   17TMC1    C6  265   2.364   1.704  10.731  0.4118  0.2327 -0.0194
   17TMC1     C  266   2.524   1.994  10.503  0.2843 -0.3130  0.1326
   17TMC1     O  267   2.461   2.029  10.405 -0.5404  0.0259  0.1341
   17TMC1     H  268   2.659   1.800  10.621 -0.5332  1.7908  1.2758
   17TMC1    H1  269   2.270   1.927  10.491 -0.7543 -0.0212  0.4903
   17TMC1    H2  270   2.326   1.631  10.802  0.8825 -2.2188 -2.3021
   17TMC1    C7  271   2.138   1.757  10.658  0.4782  0.2716  1.0254
   17TMC1    C8  272   2.576   1.639  10.817 -0.2520  0.1330 -0.5625
   17TMC1    O1  273   2.079   1.862  10.636  0.2161  0.5859 -0.1535
   17TMC1    O2  274   2.550   1.524  10.848 -0.2148  0.2255  0.1131
   17TMC1    O3  275   2.094   1.634  10.629  0.2052  0.2850  0.0439
   17TMC1    H3  276   2.162   1.563  10.630  3.3258  3.2938 -0.0057
   17TMC1    O5  277   2.694   1.701  10.849 -0.1621  0.1073  0.4931
   17TMC1    H5  278   2.685   1.797  10.831  1.7938  0.0568 -0.8037
   18MPD2     C  279   2.610   2.263  10.472  0.5236  0.3579  0.1391
   18MPD2    C1  280   2.687   2.170  10.536  0.1011  0.2823  0.7599
   18MPD2    C2  281   2.813   2.207  10.573 -0.2769  0.8940 -0.2452
   18MPD2    C3  282   2.867   2.330  10.546 -0.2764  0.3815 -0.2007
   18MPD2    C4  283   2.785   2.423  10.482  0.1551 -0.0851  0.2101
   18MPD2    C5  284   2.656   2.393  10.444  0.0520  0.1827  0.4770
   18MPD2     H  285   2.879   2.135  10.621 -0.8389  1.1989  0.9745
   18MPD2    H1  286   2.829   2.522  10.469  0.9220 -0.5977 -1.0955
   18MPD2    H2  287   2.510   2.242  10.435  0.9843 -2.6110  0.6304
   18MPD2    H3  288   2.584   2.459  10.397  1.7774  2.8417  1.5285
   18MPD2     N  289   3.006   2.364  10.574  0.8342  1.0204  0.3144
   18MPD2    H5  290   3.043   2.455  10.549  1.5222  1.1512  1.8181
   18MPD2    N1  291   2.641   2.043  10.560  0.0167 -0.2070 -0.6462
   18MPD2    H7  292   2.687   1.997  10.638 -0.8571  1.5391  0.9016
   19TMC2    C1  293   0.207   3.068  14.525 -0.2002  0.1766  0.3755
   19TMC2    C2  294   0.144   3.183  14.571 -0.8123  0.0419 -0.0989
   19TMC2    C3  295   0.025   3.201  14.518  0.0802 -0.7202 -0.4444
   19TMC2    C4  296   0.145   2.977  14.445  0.2023  0.5826  0.4666
   19TMC2    C5  297   0.023   3.018  14.388 -0.5392  0.4880 -0.5794
   19TMC2    C6  298   4.689   3.126  14.435  0.1287 -0.0511 -0.0812
   19TMC2     C  299   0.353   3.081  14.506  0.6106 -0.1405 -0.4048
   19TMC2     O  300   0.400   3.197  14.497  0.0086  0.0612 -0.2025
   19TMC2     H  301   0.194   3.263  14.624 -1.1352 -0.9534  1.7175
   19TMC2    H1  302   0.199   2.900  14.391 -0.5294  1.6917 -1.8123
   19TMC2    H2  303   4.590   3.146  14.397 -0.4428 -0.6497  1.1116
   19TMC2    C7  304   4.698   2.920  14.306 -0.7367 -0.2370  0.9292
   19TMC2    C8  305   4.693   3.319  14.571 -1.0408 -0.4556 -0.3744
   19TMC2    O1  306   4.733   2.801  14.331  0.9218  0.8914  0.1062
   19TMC2    O2  307   4.612   3.382  14.502  0.7599 -0.8095  0.5044
   19TMC2    O5  308   4.686   3.309  14.705  0.0463 -0.0950 -0.1284
   19TMC2    H5  309   0.004   3.238  14.743  2.0958  2.5576  1.8647
   20MPD2     C  310   0.634   3.015  14.401  0.2262  0.0807  0.0608
   20MPD2    C1  311   0.547   2.921  14.455  0.9841  0.3531 -0.4685
   20MPD2    C2  312   0.590   2.793  14.475 -0.6710  0.2376 -0.3512
   20MPD2    C3  313   0.726   2.762  14.465 -0.2033 -0.0585 -0.6977
   20MPD2    C4  314   0.813   2.857  14.428 -0.0479 -0.6061 -0.6807
   20MPD2    C5  315   0.766   2.984  14.388  0.1537  0.5262  0.7994
   20MPD2     H  316   0.518   2.721  14.513 -2.4889  1.2237 -1.9098
   20MPD2    H1  317   0.911   2.823  14.395  0.4981  0.4294 -0.0930
   20MPD2    H2  318   0.601   3.117  14.388  1.0395  0.4841  1.1411
   20MPD2    H3  319   0.844   3.056  14.364  2.1872 -0.9978  2.8603
   20MPD2     N  320   0.780   2.630  14.492 -0.6427 -0.1969  0.0101
   20MPD2    H5  321   0.881   2.620  14.484 -0.1786  1.7107  3.3137
   20MPD2    N1  322   0.414   2.959  14.489 -0.1800  0.3032 -0.3766
   20MPD2    H7  323   0.358   2.879  14.518 -1.5483  1.4470  0.1587
   21TMC2    C1  324   2.224   3.161  14.290  0.1239  0.0809 -0.9283
   21TMC2    C2  325   2.143   3.124  14.188  1.0534 -0.5405  0.5280
   21TMC2    C3  326   2.003   3.140  14.206 -0.2648 -0.3597 -0.4891
   21TMC2    C4  327   2.168   3.196  14.414 -0.8100 -0.4262  0.1767
   21TMC2    C5  328   2.029   3.193  14.432 -0.0915  0.7729 -0.2136
   21TMC2    C6  329   1.942   3.165  14.329  0.8143  0.4494 -0.5385
   21TMC2     C  330   2.362   3.194  14.269  0.7669 -0.3120 -0.0505
   21TMC2     O  331   2.440   3.177  14.361 -0.5682 -0.0049  0.2207
   21TMC2     H  332   2.189   3.081  14.100  1.2411 -0.4366  0.5767
   21TMC2    H1  333   2.228   3.232  14.497  0.5828 -1.3447 -0.4418
   21TMC2    H2  334   1.834   3.182  14.327  0.8595  0.7467 -0.5556
   21TMC2    C7  335   1.972   3.225  14.562  0.2155 -0.9579  0.3657
   21TMC2    C8  336   1.909   3.134  14.086 -0.0712 -0.6075  0.4384
   21TMC2    O1  337   2.041   3.218  14.661  0.1057 -0.4420 -0.2846
   21TMC2    O2  338   1.799   3.184  14.089 -0.4319 -0.1366  0.0260
   21TMC2    O5  339   1.962   3.052  13.999 -0.1227  0.0029 -0.1599
   21TMC2    H5  340   2.031   2.989  14.029 -0.5160 -0.1425  0.4327
   22MPD2     C  341   2.753   3.336  13.961  0.2191 -0.2435  0.7584
   22MPD2    C1  342   2.736   3.340  14.100  0.3537  0.1324  0.4510
   22MPD2    C2  343   2.621   3.300  14.159  0.0246 -0.5227 -0.2515
   22MPD2    C3  344   2.512   3.262  14.088 -0.8378  0.5973  0.5330
   22MPD2    C4  345   2.523   3.260  13.946  0.7938 -0.1235 -0.2346
   22MPD2    C5  346   2.641   3.297  13.889 -0.1239 -0.0576 -0.0232
   22MPD2     H  347   2.611   3.296  14.266  0.7065 -2.1288 -0.2570
   22MPD2    H1  348   2.438   3.255  13.879  2.3510 -1.3915 -2.1041
   22MPD2    H2  349   2.843   3.355  13.904 -0.6189 -1.1206 -0.8565
   22MPD2    H3  350   2.644   3.305  13.781  0.8234 -1.7007 -0.1206
   22MPD2     N  351   2.384   3.227  14.138  0.1158  0.0172 -0.1570
   22MPD2    H5  352   2.311   3.232  14.068  0.0729 -1.4955 -0.2264
   22MPD2    N1  353   2.851   3.368  14.181 -0.9223 -0.3950 -0.3553
   22MPD2    H7  354   2.840   3.362  14.281 -2.7248  2.5016 -0.3971
   23TMC2    C1  355   3.559   4.014  14.672 -0.1030 -0.4891  0.0885
   23TMC2    C2  356   3.672   3.956  14.626 -0.0780 -0.1342  0.6578
   23TMC2    C3  357   3.689   3.964  14.492 -0.1455 -0.4454  0.2636
   23TMC2    C4  358   3.459   4.064  14.598 -0.4244  0.1834  0.1236
   23TMC2    C5  359   3.486   4.072  14.460  0.1079  0.0989 -0.0821
   23TMC2    C6  360   3.605   4.024  14.410  0.6453 -0.8121  0.1846
   23TMC2     C  361   3.559   4.040  14.813  0.6943 -0.2832  0.6358
   23TMC2     O  362   3.593   3.951  14.888  0.0341  0.1980 -0.6588
   23TMC2     H  363   3.754   3.910  14.680 -1.5751 -0.5066  2.6144
   23TMC2    H1  364   3.367   4.097  14.643 -1.1886 -2.6619  0.6325
   23TMC2    H2  365   3.633   4.040  14.306  1.0796 -0.5095  0.3481
   23TMC2    C7  366   3.386   4.120  14.364  0.2034 -0.7383  0.8600
   23TMC2    C8  367   3.792   3.886  14.443  0.3294 -0.2907  0.1881
   23TMC2    O1  368   3.443   4.148  14.258 -0.6895 -0.0555  0.1015
   23TMC2    O2  369   3.893   3.871  14.505  0.0605 -0.3428 -0.3062
   23TMC2    O5  370   3.745   3.819  14.335  0.0160  0.1744 -0.7346
   23TMC2    H5  371   3.649   3.831  14.323  0.0709  3.1539  1.6277
   24MPD2     C  372   3.597   4.350  15.216 -0.3358 -0.6090  0.1509
   24MPD2    C1  373   3.589   4.214  15.211  0.6139 -0.7278 -0.3215
   24MPD2    C2  374   3.561   4.144  15.094  0.1148  0.5036 -0.0295
   24MPD2    C3  375   3.539   4.217  14.975 -0.9433  0.1539  0.6961
   24MPD2    C4  376   3.528   4.354  14.986  1.0705 -0.0973 -0.2787
   24MPD2    C5  377   3.556   4.421  15.100  0.1884 -0.9391  0.0868
   24MPD2     H  378   3.557   4.036  15.100 -1.0584  0.5255 -0.5254
   24MPD2    H1  379   3.506   4.416  14.900 -1.1411 -1.2264 -0.5426
   24MPD2    H2  380   3.646   4.398  15.300  0.4126 -0.4999 -0.3527
   24MPD2    H3  381   3.567   4.528  15.099  0.6330 -0.9769  0.7318
   24MPD2     N  382   3.535   4.170  14.839 -0.5326  0.5435  0.6269
   24MPD2    H5  383   3.509   4.235  14.766 -2.1187  0.2586  0.9385
   24MPD2    N1  384   3.634   4.131  15.310 -0.4649 -0.5122 -0.3752
   24MPD2    H7  385   3.645   4.033  15.288 -0.3729 -0.5985  0.0469
   25TMC2    C1  386   2.222   0.905  12.101  1.0038 -0.2354  0.2955
   25TMC2    C2  387   2.206   0.768  12.084 -0.3740 -0.1180  0.5670
   25TMC2    C3  388   2.188   0.688  12.193  0.3154 -0.1561 -0.2835
   25TMC2    C4  389   2.258   0.952  12.225 -0.4479 -0.1177 -0.2996
   25TMC2    C5  390   2.245   0.872  12.333 -0.1193 -0.2940  0.4902
   25TMC2    C6  391   2.207   0.739  12.319 -0.4379  0.1742 -0.1495
   25TMC2     C  392   2.248   0.983  11.981 -0.2179 -0.6495 -0.6441
   25TMC2     O  393   2.332   1.075  11.987  0.2011 -0.4867 -0.3962
   25TMC2     H  394   2.170   0.732  11.988 -1.4744  0.2999  0.8266
   25TMC2    H1  395   2.268   1.059  12.233 -1.9598  0.0009 -0.0875
   25TMC2    H2  396   2.211   0.674  12.405 -1.0055  0.1158 -0.1649
   25TMC2    C7  397   2.215   0.939  12.456  0.3562  0.5180  0.1423
   25TMC2    C8  398   2.194   0.543  12.175 -0.4138  0.3238  0.2458
   25TMC2    O1  399   2.280   1.036  12.493  0.9941 -0.0463  0.7569
   25TMC2    O2  400   2.139   0.468  12.253 -0.1320 -0.2405 -0.3923
   25TMC2    O5  401   2.267   0.510  12.068 -0.2443  0.0806 -0.3922
   25TMC2    H5  402   2.309   0.595  12.040 -2.4213  1.5404  0.7910
   26MPD2     C  403   2.123   1.107  11.496  0.5874  0.2630  0.5594
   26MPD2    C1  404   2.045   1.007  11.542 -0.3759 -0.1599 -0.1177
   26MPD2    C2  405   2.068   0.951  11.667 -0.1919  0.2260 -0.7432
   26MPD2    C3  406   2.162   1.001  11.752  0.1523 -0.0457 -0.2976
   26MPD2    C4  407   2.243   1.102  11.700  0.0530  0.0256  0.0045
   26MPD2    C5  408   2.227   1.151  11.575 -0.1758  0.2997  0.1871
   26MPD2     H  409   2.008   0.874  11.713 -2.4470  1.6898 -1.2233
   26MPD2    H1  410   2.333   1.137  11.749  0.2253 -1.9635  1.1263
   26MPD2    H2  411   2.098   1.159  11.404  0.2058 -0.3309  0.3280
   26MPD2    H3  412   2.291   1.226  11.530 -0.2674  0.1049 -0.2695
   26MPD2     N  413   2.174   0.941  11.877  0.2676 -0.5672  0.0259
   26MPD2    H5  414   2.107   0.867  11.893  0.5491 -0.6942  0.6244
   26MPD2    N1  415   1.939   0.962  11.463 -0.1458  0.0136  0.3364
   26MPD2    H7  416   1.924   1.020  11.381 -2.3409 -2.2663 -0.8660
   27TMC2    C1  417   1.368   3.919  12.170  0.1946  0.6256 -0.0643
   27TMC2    C2  418   1.501   3.919  12.171 -0.1695 -0.1150  0.2814
   27TMC2    C3  419   1.569   4.024  12.231  0.7613 -0.8347  0.4110
   27TMC2    C4  420   1.304   4.028  12.218  0.2554  0.5007  1.0193
   27TMC2    C5  421   1.377   4.133  12.282 -0.2777  0.5773 -0.0976
   27TMC2    C6  422   1.514   4.132  12.288  0.3790  0.4906 -0.0117
   27TMC2     C  423   1.317   3.790  12.202  0.5095  0.4724 -0.0958
   27TMC2     O  424   1.389   3.698  12.167 -0.2035 -0.0128  0.2949
   27TMC2     H  425   1.552   3.834  12.126 -1.4603 -1.1932  0.8536
   27TMC2    H1  426   1.197   4.044  12.205  0.2451 -0.8057 -0.5048
   27TMC2    H2  427   1.577   4.210  12.330  1.0494 -0.0248 -0.0707
   27TMC2    C7  428   1.313   4.178  12.401 -0.2223  0.7743  0.2543
   27TMC2    C8  429   1.714   4.031  12.234 -0.4523 -0.3221 -0.2197
   27TMC2    O1  430   1.363   4.139  12.503 -0.6690  0.0631  0.2975
   27TMC2    O2  431   1.791   3.947  12.277  0.2150  0.0234  0.0921
   27TMC2    O5  432   1.738   4.112  12.127  0.2537 -0.3757 -0.2168
   27TMC2    H5  433   1.654   4.135  12.082 -1.0763 -1.0255  1.9257
   28MPD2     C  434   1.008   3.494  12.488  0.2202  0.5901  0.3682
   28MPD2    C1  435   0.958   3.623  12.488 -0.0350 -0.5615  0.0948
   28MPD2    C2  436   1.013   3.720  12.415  0.6008 -0.2656 -0.0001
   28MPD2    C3  437   1.129   3.695  12.343 -0.1157 -0.6726  0.9570
   28MPD2    C4  438   1.169   3.565  12.329  0.2116 -0.4104 -0.5430
   28MPD2    C5  439   1.113   3.465  12.407  0.1522 -0.0064  0.1166
   28MPD2     H  440   0.981   3.824  12.414  1.4648  0.0100  1.2754
   28MPD2    H1  441   1.249   3.533  12.263 -0.5819  1.1813 -2.2729
   28MPD2    H2  442   0.959   3.412  12.540 -1.7732  2.5197  1.5287
   28MPD2    H3  443   1.141   3.361  12.391 -1.0977 -0.0909 -1.4897
   28MPD2     N  444   1.205   3.801  12.292 -0.4168  0.1705  0.1857
   28MPD2    H5  445   1.170   3.892  12.320 -0.3671  0.0130  0.7474
   28MPD2    N1  446   0.832   3.639  12.553 -0.0301 -0.3876 -0.1073
   28MPD2    H7  447   0.800   3.555  12.600  1.9884 -0.8718  0.4213
   29TMC2    C1  448   0.787   1.458  14.375  0.0009 -1.0423 -0.5792
   29TMC2    C2  449   0.755   1.448  14.510 -0.4776  0.0859 -0.3305
   29TMC2    C3  450   0.771   1.557  14.591 -0.9584 -0.2277  0.2949
   29TMC2    C4  451   0.823   1.580  14.325 -0.1476  0.4282  0.4719
   29TMC2    C5  452   0.825   1.683  14.413 -0.6952  0.1203  0.1262
   29TMC2    C6  453   0.806   1.675  14.548  0.2216 -0.0602 -0.5927
   29TMC2     C  454   0.780   1.336  14.294  0.6503 -0.6746  0.5204
   29TMC2     O  455   0.760   1.234  14.354  0.1150  0.4802  0.2109
   29TMC2     H  456   0.733   1.354  14.559  2.8906  0.7454  2.4339
   29TMC2    H1  457   0.866   1.586  14.226 -0.2806  1.4934  0.4764
   29TMC2    H2  458   0.798   1.772  14.596  0.5050 -0.7464  0.8640
   29TMC2    C7  459   0.854   1.812  14.355  0.0986 -0.1164 -0.5737
   29TMC2    C8  460   0.745   1.542  14.730 -0.3735  0.5517  0.5305
   29TMC2    O1  461   0.813   1.838  14.243  0.5688  0.3497  0.1772
   29TMC2    O2  462   0.677   1.446  14.767 -0.1702  0.0189 -0.0853
   29TMC2    O5  463   0.774   1.657  14.792 -0.6330  0.3730 -0.0310
   29TMC2    H5  464   0.831   1.705  14.728 -0.3389  1.1516  0.8160
   30MPD2     C  465   0.761   1.052  13.871 -0.4857 -0.7128  0.4764
   30MPD2    C1  466   0.817   1.026  13.997  0.2939  0.1682  0.3839
   30MPD2    C2  467   0.824   1.123  14.095  0.5434  0.5050 -0.0018
   30MPD2    C3  468   0.783   1.255  14.062  0.4987  0.7071 -0.3231
   30MPD2    C4  469   0.737   1.289  13.935  0.2607 -0.2282 -0.0198
   30MPD2    C5  470   0.726   1.181  13.841 -0.2485  0.1989  0.2627
   30MPD2     H  471   0.857   1.102  14.197 -1.4380 -0.1025  0.5245
   30MPD2    H1  472   0.693   1.382  13.902  0.0603  0.0409  1.0268
   30MPD2    H2  473   0.724   0.986  13.794  0.6473  1.7787 -2.2151
   30MPD2    H3  474   0.697   1.209  13.740  1.6159  0.6912 -0.1334
   30MPD2     N  475   0.774   1.357  14.158 -1.0188  0.0389 -0.0523
   30MPD2    H5  476   0.758   1.451  14.123 -3.0045 -0.3191 -0.1181
   30MPD2    N1  477   0.858   0.896  14.037  0.3044 -0.0814  0.2929
   30MPD2    H7  478   0.892   0.886  14.132 -0.9725  0.2915  0.8016
   31TMC2    C1  479   3.028   0.223  15.694 -0.5898 -0.0738  0.7793
   31TMC2    C2  480   2.916   0.303  15.671  0.2778 -0.8511  0.3301
   31TMC2    C3  481   2.844   0.351  15.782 -1.0155 -0.2278 -0.0159
   31TMC2    C4  482   3.079   0.217  15.818  0.0036 -0.3474 -1.1306
   31TMC2    C5  483   3.006   0.265  15.922 -0.2767 -0.9602 -0.2516
   31TMC2    C6  484   2.886   0.322  15.907  0.0944  0.6183  0.8880
   31TMC2     C  485   3.107   0.195  15.580  0.7385  0.0296 -0.0933
   31TMC2     O  486   3.080   0.253  15.477 -0.3379 -0.2907  0.6638
   31TMC2     H  487   2.876   0.309  15.570 -1.0760 -0.8090  0.8624
   31TMC2    H1  488   3.170   0.163  15.842 -0.1140  0.1233  0.3676
   31TMC2    H2  489   2.825   0.354  15.991 -2.4610  0.3565 -0.8660
   31TMC2    C7  490   3.055   0.248  16.057  0.1969 -0.3793 -0.5949
   31TMC2    C8  491   2.707   0.387  15.762  0.5843  0.7423  0.1154
   31TMC2    O1  492   3.085   0.135  16.096  0.4130 -0.6557  0.4607
   31TMC2    O2  493   2.626   0.381  15.851 -0.1835 -0.2465  0.0437
   31TMC2    O5  494   2.694   0.450  15.649 -0.4266  0.0169 -0.1223
   31TMC2    H5  495   2.778   0.462  15.600 -0.3475 -1.3090 -0.3008
   32MPD2     C  496   3.506   4.686  15.380  0.1963  0.4570  0.1994
   32MPD2    C1  497   3.448   0.066  15.339 -0.2324  0.1113 -0.1898
   32MPD2    C2  498   3.338   0.116  15.421  0.0060  0.0324  0.3871
   32MPD2    C3  499   3.291   0.046  15.525 -0.3983 -0.6017  0.4324
   32MPD2    C4  500   3.352   4.665  15.567 -0.1634  0.6043  0.0809
   32MPD2    C5  501   3.462   4.623  15.494  0.0988  0.2719  0.3073
   32MPD2     H  502   3.305   0.217  15.398 -0.1894 -0.5834 -1.9807
   32MPD2    H1  503   3.328   4.621  15.663  2.9218 -0.9316  0.1235
   32MPD2    H2  504   3.595   4.650  15.329 -0.8049 -1.0988 -0.4491
   32MPD2    H3  505   3.519   4.543  15.540 -0.3927  0.0642  0.5523
   32MPD2     N  506   3.194   0.097  15.611  0.1011  0.1427 -1.2043
   32MPD2    H5  507   3.181   0.040  15.694 -2.1212 -0.7866 -2.1686
   32MPD2    N1  508   3.491   0.144  15.228  0.0835  0.4055 -0.5563
   32MPD2    H7  509   3.433   0.222  15.202 -0.8020  0.4782  1.6134
   33TMC2    C1  510   3.386   3.354  10.564  0.3460 -0.7433 -0.5887
   33TMC2    C2  511   3.267   3.399  10.530 -0.5005 -0.1657  0.5380
   33TMC2    C3  512   3.251   3.532  10.492  0.1940 -0.1680 -0.3146
   33TMC2    C4  513   3.491   3.443  10.575  0.3623 -0.0217  0.4732
   33TMC2    C5  514   3.473   3.568  10.525  0.2304 -0.1700  0.3090
   33TMC2    C6  515   3.355   3.621  10.485 -0.4851 -0.7431  0.3841
   33TMC2     C  516   3.399   3.215  10.611  0.0589  0.4368 -0.2124
   33TMC2     O  517   3.303   3.144  10.598  0.1596  0.4086 -0.8511
   33TMC2     H  518   3.193   3.322  10.510 -0.7249  0.1360  0.1730
   33TMC2    H1  519   3.592   3.405  10.583  1.3182  2.4715  0.2583
   33TMC2    H2  520   3.341   3.724  10.457  0.5553 -0.3309  1.3941
   33TMC2    C7  521   3.586   3.666  10.523 -0.0513  0.3267  0.0566
   33TMC2    C8  522   3.138   3.584  10.419 -0.1400 -0.1217  0.1863
   33TMC2    O1  523   3.564   3.767  10.458  0.1469  0.0490  0.4166
   33TMC2    O2  524   3.147   3.665  10.327 -0.5268 -0.0459  0.5046
   33TMC2    O5  525   3.045   3.486  10.421 -0.1307 -0.0206 -0.1067
   33TMC2    H5  526   3.051   3.422  10.494  0.2639  1.0469  0.7997
   34MPD2     C  527   3.623   2.844  10.888  0.2060  0.5162  0.0570
   34MPD2    C1  528   3.521   2.832  10.793 -0.5285  0.0699 -0.3031
   34MPD2    C2  529   3.467   2.950  10.742 -0.2727 -0.1074 -0.8296
   34MPD2    C3  530   3.531   3.073  10.768 -0.3334 -0.6120 -0.0330
   34MPD2    C4  531   3.628   3.075  10.862  0.3125  0.0152  0.0538
   34MPD2    C5  532   3.671   2.965  10.931 -0.7715  0.7497  0.3489
   34MPD2     H  533   3.384   2.952  10.672 -0.5145  0.2513 -0.5337
   34MPD2    H1  534   3.672   3.171  10.884 -2.3447  1.4527 -0.9761
   34MPD2    H2  535   3.673   2.756  10.927 -1.4701 -0.1919  0.6369
   34MPD2    H3  536   3.749   2.973  11.005 -1.0950 -0.9232  0.8652
   34MPD2     N  537   3.504   3.196  10.700 -0.6326  0.0332  1.1290
   34MPD2    H5  538   3.572   3.270  10.715 -0.3312 -0.3744  1.7776
   34MPD2    N1  539   3.484   2.699  10.762  0.3557  0.5529 -0.1361
   34MPD2    H7  540   3.528   2.625  10.816  1.8126  2.2956  1.0954
   35TMC2    C1  541   4.263   3.841  11.704  0.1578  0.5877 -0.2275
   35TMC2    C2  542   4.135   3.889  11.711  0.4408  0.4532  0.7646
   35TMC2    C3  543   4.040   3.823  11.777 -0.6376 -1.0018  0.0932
   35TMC2    C4  544   4.304   3.725  11.768 -0.0264 -0.2223 -0.0507
   35TMC2    C5  545   4.202   3.662  11.835  0.3854 -0.1148 -0.5052
   35TMC2    C6  546   4.069   3.704  11.835  0.1765  0.5447  0.4459
   35TMC2     C  547   4.365   3.929  11.662  1.0428  0.0084 -0.3943
   35TMC2     O  548   4.333   4.019  11.586  0.2698 -0.3042 -0.0032
   35TMC2     H  549   4.105   3.978  11.657 -2.0148 -0.7251  0.2019
   35TMC2    H1  550   4.393   3.676  11.730 -0.6689 -0.4925 -1.2430
   35TMC2    H2  551   3.989   3.655  11.888  1.1337 -0.9358  0.5310
   35TMC2    C7  552   4.222   3.514  11.853  0.3486 -0.6587 -0.0215
   35TMC2    C8  553   3.919   3.897  11.796 -0.8337 -0.4277  0.4292
   35TMC2    O1  554   4.128   3.439  11.851  0.4591  0.0323 -0.5247
   35TMC2    O2  555   3.810   3.840  11.795 -0.3974 -0.6678 -0.2392
   35TMC2    O5  556   3.937   4.031  11.810 -0.1134 -0.0623  0.1424
   35TMC2    H5  557   4.029   4.064  11.822 -0.6516  1.4974 -0.0978
   36MPD2     C  558   0.040   4.199  11.825  0.3825 -1.0533  0.9298
   36MPD2    C1  559   0.038   4.073  11.891  0.6970 -0.3113  0.1706
   36MPD2    C2  560   4.667   3.986  11.859 -0.2103  0.0833  0.4088
   36MPD2    C3  561   4.576   4.005  11.757 -0.0587  0.0631  0.4396
   36MPD2    C4  562   4.593   4.125  11.689 -0.0767 -0.5120  0.2730
   36MPD2    C5  563   4.689   4.216  11.725 -0.5006 -0.0285  0.0961
   36MPD2     H  564   4.661   3.892  11.913 -1.1597 -1.4422 -2.3689
   36MPD2    H1  565   4.532   4.151  11.603 -0.1331  1.1713  0.8306
   36MPD2    H2  566   0.104   4.278  11.862 -0.4065 -0.3444  0.7515
   36MPD2    H3  567   4.692   4.307  11.665  0.7716 -0.0252  0.1628
   36MPD2     N  568   4.475   3.908  11.748 -0.0523  0.0907  0.1117
   36MPD2    H5  569   4.485   3.834  11.816 -0.4380  2.9798  3.2982
   36MPD2    N1  570   0.134   4.029  11.985 -1.0985 -0.0340 -0.2636
   36MPD2    H7  571   0.196   4.104  12.016  0.2710 -1.9017  1.4763
   37TMC2    C1  572   2.473   3.706  11.619  0.0479 -0.3520  0.9069
   37TMC2    C2  573   2.502   3.767  11.506  0.4216  0.3194  0.3063
   37TMC2    C3  574   2.630   3.752  11.460 -0.9653 -0.8038  0.3366
   37TMC2    C4  575   2.573   3.637  11.688 -0.8497  0.5128 -0.2867
   37TMC2    C5  576   2.707   3.650  11.651 -0.1064  0.8766 -0.2005
   37TMC2    C6  577   2.737   3.712  11.534  0.1879 -0.6390 -0.2275
   37TMC2     C  578   2.362   3.770  11.689 -0.8358  0.5944  0.1418
   37TMC2     O  579   2.287   3.843  11.628 -0.3175  0.1724  0.2562
   37TMC2     H  580   2.429   3.831  11.458  0.8011 -1.1360 -2.1809
   37TMC2    H1  581   2.552   3.578  11.777 -1.8982  1.1787 -0.0859
   37TMC2    H2  582   2.835   3.747  11.508  0.8728 -0.3330  2.7240
   37TMC2    C7  583   2.799   3.660  11.762  0.9343 -0.8478 -0.7095
   37TMC2    C8  584   2.655   3.855  11.360  0.1898  0.4164  0.2816
   37TMC2    O1  585   2.758   3.665  11.878  0.4368 -0.5687  0.1897
   37TMC2    O2  586   2.600   3.961  11.366  0.3392  0.1718 -0.3489
   37TMC2    O5  587   2.736   3.818  11.257  0.6207 -0.3047  1.0030
   37TMC2    H5  588   2.754   3.722  11.268  1.6845 -0.2746 -0.4668
   38MPD2     C  589   2.111   3.895  12.131 -0.3763 -0.0310  0.1119
   38MPD2    C1  590   2.237   3.842  12.160 -0.0660 -0.0546  0.7762
   38MPD2    C2  591   2.316   3.787  12.059 -0.5679 -0.9301  0.2318
   38MPD2    C3  592   2.282   3.805  11.923  0.2022 -0.1077 -0.2495
   38MPD2    C4  593   2.156   3.855  11.901  0.1262 -0.1523 -0.1145
   38MPD2    C5  594   2.072   3.893  12.004 -0.0829  0.0982  0.0886
   38MPD2     H  595   2.408   3.738  12.088 -0.8978 -1.1224  0.9598
   38MPD2    H1  596   2.121   3.854  11.799 -0.7942  0.2638  0.1983
   38MPD2    H2  597   2.037   3.919  12.207 -0.4964  3.1562 -1.0083
   38MPD2    H3  598   1.970   3.928  11.990  0.9580  3.2222  0.4295
   38MPD2     N  599   2.366   3.756  11.825  0.6191 -0.3287 -0.9116
   38MPD2    H5  600   2.442   3.704  11.868  1.1335  0.8970 -0.3428
   38MPD2    N1  601   2.291   3.831  12.292 -0.0582 -0.1032 -0.5393
   38MPD2    H7  602   2.379   3.780  12.298 -0.0965  0.0906  1.6433
   39TMC2    C1  603   0.986   0.333   1.152  0.1431  1.1032  0.4647
   39TMC2    C2  604   1.034   0.214   1.104  0.6836  0.7117  0.2980
   39TMC2    C3  605   1.094   0.139   1.200 -0.1929 -0.1999 -0.1412
   39TMC2    C4  606   1.011   0.375   1.276 -0.3902  0.0826 -0.1262
   39TMC2    C5  607   1.073   0.292   1.367  0.4288 -0.3217  0.7879
   39TMC2    C6  608   1.111   0.171   1.333 -0.4285 -0.2534  0.2146
   39TMC2     C  609   0.869   0.392   1.090  0.0975 -0.0345  0.1392
   39TMC2     O  610   0.802   0.465   1.163 -0.3004  0.3403  0.2161
   39TMC2     H  611   1.000   0.157   1.018  2.0544 -1.8175  1.4196
   39TMC2    H1  612   0.991   0.475   1.312  0.9696  0.1106  0.5465
   39TMC2    H2  613   1.164   0.108   1.404 -2.2935 -0.3980  1.4749
   39TMC2    C7  614   1.094   0.323   1.506  0.3197 -0.0677  0.0196
   39TMC2    C8  615   1.154   0.024   1.145  0.5103 -0.2107  0.4724
   39TMC2    O1  616   1.080   0.236   1.591 -0.5758  0.4322  0.6986
   39TMC2    O2  617   1.155   4.659   1.206 -0.0434 -0.0960  0.2310
   39TMC2    O5  618   1.261   0.067   1.074 -0.1192 -0.2404 -1.1971
   39TMC2    H5  619   1.244   0.159   1.045 -2.3737 -0.2151  0.1633
   40MPD2     C  620   0.767   0.337   0.753  0.6020 -0.4575  0.9191
   40MPD2    C1  621   0.760   0.389   0.878 -0.3132  0.0702  0.1031
   40MPD2    C2  622   0.653   0.483   0.904  0.1158 -0.0403  0.2264
   40MPD2    C3  623   0.573   0.516   0.798 -0.7121  0.5421 -0.0453
   40MPD2    C4  624   0.600   0.469   0.672 -0.3769 -0.4765  0.4245
   40MPD2    C5  625   0.696   0.378   0.646  0.4568  0.0166  0.7368
   40MPD2     H  626   0.639   0.523   1.004 -0.7161  1.5276 -0.5162
   40MPD2    H1  627   0.515   0.464   0.604 -0.9429  1.2481  1.0210
   40MPD2    H2  628   0.840   0.257   0.750  2.6781  1.4230  1.0356
   40MPD2    H3  629   0.705   0.336   0.546 -1.3748  0.7648  0.2422
   40MPD2     N  630   0.450   0.591   0.817 -0.4543 -0.3124  0.4410
   40MPD2    H5  631   0.382   0.599   0.743  0.8252  1.1518 -0.5638
   40MPD2    N1  632   0.848   0.342   0.973  0.0231  0.1657  0.4998
   40MPD2    H7  633   0.915   0.274   0.940  1.2964  0.1464  3.0902
   41TMC2    C1  634   4.124   4.002  13.631  0.6773 -0.5949  0.1589
   41TMC2    C2  635   4.182   3.890  13.680  0.0642  0.3433 -0.1071
   41TMC2    C3  636   4.177   3.778  13.610 -1.4425  0.3774 -0.2461
   41TMC2    C4  637   4.056   3.999  13.516  0.0554  0.4243 -0.0514
   41TMC2    C5  638   4.053   3.888  13.442  0.3435  0.2227  0.9680
   41TMC2    C6  639   4.113   3.775  13.490 -0.8782  1.2241 -0.4664
   41TMC2     C  640   4.144   4.135  13.676 -0.0500 -0.4212  0.1937
   41TMC2     O  641   4.171   4.219  13.592  0.3824  0.2461  0.2487
   41TMC2     H  642   4.241   3.914  13.768 -0.1135 -2.7657  0.8461
   41TMC2    H1  643   4.018   4.090  13.471  1.0037  1.1618  0.6276
   41TMC2    H2  644   4.117   3.685  13.429 -0.7540  2.3644 -2.1384
   41TMC2    C7  645   3.997   3.908  13.308  1.0410  0.0947  0.1830
   41TMC2    C8  646   4.253   3.666  13.652 -0.2953 -0.1863 -0.1755
   41TMC2    O1  647   3.920   4.000  13.284  0.2109 -0.1437 -0.2039
   41TMC2    O2  648   4.255   3.567  13.583 -0.2007 -0.1129 -0.2343
   41TMC2    O5  649   4.241   3.681  13.786 -0.0430 -0.2695 -0.0118
   41TMC2    H5  650   4.314   3.737  13.820  1.4447 -2.0071 -0.2664
   42MPD2     C  651   4.124   4.394  13.820 -0.0127 -0.0350  0.2863
   42MPD2    C1  652   4.118   4.269  13.879  0.4194  0.9261 -0.1414
   42MPD2    C2  653   4.104   4.263  14.016  0.2471 -0.3422 -0.5297
   42MPD2    C3  654   4.086   4.374  14.094  0.8316 -0.2481 -0.2963
   42MPD2    C4  655   4.072   4.499  14.033 -0.3191  0.3483 -0.1233
   42MPD2    C5  656   4.101   4.511  13.900 -0.1656  1.0431  0.5761
   42MPD2     H  657   4.124   4.169  14.065  1.5215 -0.1717 -0.7330
   42MPD2    H1  658   4.051   4.587  14.093  0.6614 -0.9030  2.0234
   42MPD2    H2  659   4.153   4.409  13.717 -2.5366 -1.1950 -0.5911
   42MPD2    H3  660   4.113   4.611  13.860  0.4465 -0.3998 -2.8333
   42MPD2     N  661   4.077   4.374  14.236 -0.2147 -0.8472 -0.2840
   42MPD2    H5  662   4.045   4.461  14.278  1.3650 -0.3468 -0.1492
   42MPD2    N1  663   4.135   4.146  13.809 -0.2309 -0.3661 -0.5027
   42MPD2    H7  664   4.120   4.067  13.871 -2.7845  1.5688  1.3485
   43TMC2    C1  665   0.827   2.635   1.017  0.1475 -1.0204 -0.1318
   43TMC2    C2  666   0.708   2.684   1.067 -0.1611 -0.0064  0.1769
   43TMC2    C3  667   0.723   2.756   1.180  0.1070 -0.0845 -0.7579
   43TMC2    C4  668   0.952   2.657   1.083  0.5114  0.7372  0.0399
   43TMC2    C5  669   0.950   2.718   1.214 -0.1014 -0.5957 -0.4114
   43TMC2    C6  670   0.837   2.773   1.252  0.1862  0.2646 -0.0396
   43TMC2     C  671   0.831   2.546   0.903  0.1449  0.1810 -0.0824
   43TMC2     O  672   0.937   2.483   0.889  0.6711  0.1493  0.1925
   43TMC2     H  673   0.611   2.687   1.020 -1.3024  0.8188  2.5673
   43TMC2    H1  674   1.045   2.616   1.046  2.2426  1.1085  3.9917
   43TMC2    H2  675   0.823   2.819   1.349  0.6111  3.3531 -1.4435
   43TMC2    C7  676   1.070   2.693   1.293  0.1644  0.0554 -0.1753
   43TMC2    C8  677   0.610   2.831   1.225  0.9825  0.4815  0.5057
   43TMC2    O1  678   1.157   2.628   1.242 -0.5959 -0.3219 -0.0415
   43TMC2    O2  679   0.587   2.848   1.341 -0.1558 -0.3593  0.0043
   43TMC2    O5  680   0.587   2.921   1.125  0.1410 -0.2559 -0.4208
   43TMC2    H5  681   0.634   2.901   1.041 -0.8264 -0.2878 -0.9568
   44MPD2     C  682   0.611   2.245   0.546  0.0026 -0.1604 -0.5492
   44MPD2    C1  683   0.737   2.252   0.590 -0.6947 -0.0121 -0.4849
   44MPD2    C2  684   0.776   2.352   0.673 -0.2003 -0.0098  0.3171
   44MPD2    C3  685   0.681   2.431   0.738  0.3600  0.5636  0.3327
   44MPD2    C4  686   0.550   2.425   0.694  0.3178 -0.1383  0.2489
   44MPD2    C5  687   0.519   2.337   0.603  0.0743  0.3612 -0.4541
   44MPD2     H  688   0.882   2.364   0.691 -0.0377 -2.5485  1.0671
   44MPD2    H1  689   0.476   2.493   0.736  0.8653  0.2382  0.5983
   44MPD2    H2  690   0.573   2.166   0.482 -2.6706  0.2389  0.5318
   44MPD2    H3  691   0.416   2.329   0.572  0.6640  1.2198 -2.6237
   44MPD2     N  692   0.713   2.530   0.833  0.9557  0.1576 -0.5634
   44MPD2    H5  693   0.636   2.594   0.853 -0.4333 -1.9223  0.7152
   44MPD2    N1  694   0.832   2.158   0.541  0.2786  0.1409 -0.6262
   44MPD2    H7  695   0.924   2.153   0.583 -0.9479  0.1401  2.0637
   45TMC2    C1  696   1.827   0.117   9.664 -0.0757 -0.4021 -0.6754
   45TMC2    C2  697   1.882   0.115   9.544 -0.0277 -0.3412  0.5507
   45TMC2    C3  698   1.946   0.227   9.490  0.1495  0.0338  0.2223
   45TMC2    C4  699   1.834   0.230   9.743  0.8600  0.1567  0.6714
   45TMC2    C5  700   1.888   0.350   9.689 -0.7431 -0.3003 -0.2959
   45TMC2    C6  701   1.943   0.343   9.557  0.5788 -0.1958 -0.6284
   45TMC2     C  702   1.752   0.001   9.717  0.1736  0.1537  0.9995
   45TMC2     O  703   1.737   0.003   9.837  0.2841 -0.3050 -0.1639
   45TMC2     H  704   1.870   0.024   9.487 -2.2537  0.0618  0.3765
   45TMC2    H1  705   1.804   0.240   9.847 -0.4903  2.5371  0.0553
   45TMC2    H2  706   1.989   0.431   9.513 -0.8996  1.1047  0.4455
   45TMC2    C7  707   1.857   0.471   9.762  0.6544 -0.4180  0.1867
   45TMC2    C8  708   1.982   0.228   9.355  0.1404 -0.8918 -0.1703
   45TMC2    O1  709   1.829   0.456   9.880 -0.1227  0.2377 -0.1710
   45TMC2    O2  710   2.062   0.306   9.306 -0.0182 -0.0149  0.5729
   45TMC2    O5  711   1.869   0.197   9.286  0.0035  0.0760  0.2289
   45TMC2    H5  712   1.796   0.160   9.340  0.6895  0.3693  1.3775
   46MPD2     C  713   1.635   4.480   9.774  0.5309  0.1682  0.5752
   46MPD2    C1  714   1.612   4.559   9.661  0.7336  0.4715 -0.2693
   46MPD2    C2  715   1.501   4.532   9.583  0.2979 -0.7134  0.1545
   46MPD2    C3  716   1.415   4.429   9.608 -0.1943 -0.1851 -0.6422
   46MPD2    C4  717   1.443   4.344   9.716  0.6900 -0.7482 -1.0832
   46MPD2    C5  718   1.550   4.376   9.790 -0.0035  0.2363  0.0523
   46MPD2     H  719   1.478   4.607   9.509 -1.9017 -1.2367  0.3184
   46MPD2    H1  720   1.376   4.267   9.755  1.2248 -0.6432  0.0538
   46MPD2    H2  721   1.723   4.485   9.836  0.1418 -0.4393  1.1875
   46MPD2    H3  722   1.569   4.315   9.877 -0.9141  1.7172  1.2904
   46MPD2     N  723   1.298   4.416   9.527 -0.4706  0.2297 -0.2753
   46MPD2    H5  724   1.289   4.502   9.474 -1.1867 -0.0831 -0.6635
   46MPD2    N1  725   1.686   4.669   9.626 -0.1087  0.9268 -0.1010
   46MPD2    H7  726   1.662   4.715   9.538  0.8140  3.0542  0.7367
   47TMC2    C1  727   2.454   4.431   9.258  0.3599  0.4318  0.0214
   47TMC2    C2  728   2.343   4.366   9.205 -0.0163  0.1377  0.0123
   47TMC2    C3  729   2.255   4.294   9.284 -0.3516 -0.2242  0.3434
   47TMC2    C4  730   2.471   4.431   9.393  0.4707 -0.0883 -0.0758
   47TMC2    C5  731   2.381   4.359   9.471 -0.2795 -0.5767  0.0984
   47TMC2    C6  732   2.271   4.292   9.419  0.0621 -0.3369 -0.8709
   47TMC2     C  733   2.546   4.507   9.173  0.5756 -0.1681 -0.2795
   47TMC2     O  734   2.521   4.521   9.055 -0.3523 -0.4609  0.2636
   47TMC2     H  735   2.315   4.377   9.101  0.1554 -0.6642 -0.1182
   47TMC2    H1  736   2.556   4.478   9.441  0.1803 -0.2727  0.6273
   47TMC2    H2  737   2.192   4.254   9.483 -0.2871  2.0832  0.1686
   47TMC2    C7  738   2.390   4.365   9.613  0.5125  0.5530 -0.5325
   47TMC2    C8  739   2.155   4.205   9.229 -0.1692  0.3953 -1.2222
   47TMC2    O1  740   2.352   4.268   9.671  0.1101 -0.1837  0.5232
   47TMC2    O2  741   2.044   4.199   9.283  0.0356  0.0972 -0.0249
   47TMC2    O5  742   2.196   4.146   9.113  0.1948 -0.2169 -0.2089
   47TMC2    H5  743   2.293   4.139   9.096  0.3509 -0.1662  0.6759
   48MPD2     C  744   2.771   4.676   9.076 -0.6732  0.0008 -0.4470
   48MPD2    C1  745   2.782   4.602   9.189 -0.1638  0.4442 -0.2257
   48MPD2    C2  746   2.903   4.588   9.251  0.5565  0.5571 -0.5334
   48MPD2    C3  747   3.020   4.639   9.201 -0.1105  0.5451  0.0059
   48MPD2    C4  748   3.010   4.716   9.084  0.0120 -0.0553  0.3820
   48MPD2    C5  749   2.883   0.001   9.030  0.2109 -0.6061  0.6935
   48MPD2     H  750   2.908   4.541   9.349  1.1574  0.3826 -0.6480
   48MPD2    H1  751   3.095   0.016   9.028  1.7151  0.0379  3.0574
   48MPD2    H2  752   2.675   4.705   9.034 -0.7543  1.1290  0.5330
   48MPD2    H3  753   2.868   0.061   8.942  1.2135 -3.1488 -1.2050
   48MPD2     N  754   3.142   4.605   9.262  0.1992 -0.0476  0.0852
   48MPD2    H5  755   3.145   4.539   9.339 -1.1429 -0.7949 -0.4934
   48MPD2    N1  756   2.671   4.529   9.242 -0.5467  0.3288 -0.2556
   48MPD2    H7  757   2.675   4.488   9.335 -1.6222  0.5403 -0.1134
   49TMC2    C1  758   1.940   2.385  10.370  0.6433  0.1017 -0.4727
   49TMC2    C2  759   1.973   2.474  10.269  0.6534  0.3057 -0.5715
   49TMC2    C3  760   1.947   2.437  10.140 -0.1640 -0.1798  0.0256
   49TMC2    C4  761   1.885   2.262  10.355  0.2546 -0.1786  0.3370
   49TMC2    C5  762   1.854   2.233  10.220 -0.4698 -0.2573 -0.1030
   49TMC2    C6  763   1.879   2.323  10.119 -0.0240 -0.4469 -0.5878
   49TMC2     C  764   1.972   2.427  10.507 -0.2331 -0.5648 -0.5117
   49TMC2     O  765   1.998   2.546  10.514 -0.4745 -0.7044 -0.2059
   49TMC2     H  766   2.032   2.560  10.299  0.5922  0.4538 -0.8705
   49TMC2    H1  767   1.833   2.203  10.430 -1.6645  2.1397  0.8204
   49TMC2    H2  768   1.841   2.303  10.019  0.9052  0.7256 -1.1791
   49TMC2    C7  769   1.784   2.110  10.196  0.3420 -0.0023 -0.1064
   49TMC2    C8  770   1.943   2.529  10.025 -0.3922 -0.1558  0.6392
   49TMC2    O1  771   1.699   2.117  10.108 -0.0730  0.7297  0.0528
   49TMC2    O2  772   1.859   2.527   9.941 -0.0878  0.2285  0.1912
   49TMC2    O5  773   2.004   2.642  10.065  0.0500  0.0811  0.4236
   49TMC2    H5  774   2.072   2.616  10.130  2.0200  1.7923 -0.9468
   50MPD2     C  775   1.975   2.480  10.808 -0.9235  0.8933 -0.2145
   50MPD2    C1  776   1.977   2.353  10.746  0.2007  0.1217 -0.6322
   50MPD2    C2  777   1.985   2.235  10.827  0.9080 -0.5764 -0.9285
   50MPD2    C3  778   1.993   2.242  10.967 -0.4859  0.0974 -0.0666
   50MPD2    C4  779   1.991   2.372  11.022  0.1025 -0.1925  0.5377
   50MPD2    C5  780   1.981   2.486  10.943  0.2795  0.1071  0.1072
   50MPD2     H  781   1.998   2.137  10.783  0.7792 -0.7711 -0.5309
   50MPD2    H1  782   1.996   2.392  11.128 -0.4811  1.8113  0.1760
   50MPD2    H2  783   1.971   2.572  10.751  0.8724  0.5842 -0.8479
   50MPD2    H3  784   1.984   2.586  10.987 -2.1728  0.2856 -0.1394
   50MPD2     N  785   1.993   2.131  11.059  0.6478 -0.3139  0.4116
   50MPD2    H5  786   1.970   2.155  11.154 -0.6014 -0.4418  0.1422
   50MPD2    N1  787   1.964   2.331  10.603 -0.6009  0.1748  0.3631
   50MPD2    H7  788   1.967   2.234  10.572 -1.2991  1.0020 -2.3085
   51TMC2    C1  789   2.383   1.091   0.980  0.1174  0.3676 -0.0587
   51TMC2    C2  790   2.353   1.114   0.849  0.0419 -0.6632  0.3672
   51TMC2    C3  791   2.372   1.245   0.800 -0.2114 -0.1844  0.0529
   51TMC2    C4  792   2.433   1.189   1.065 -0.1322 -0.1504  0.2997
   51TMC2    C5  793   2.451   1.313   1.012  0.7678 -0.5440  0.6206
   51TMC2    C6  794   2.436   1.335   0.879 -0.5242  0.7952  0.2352
   51TMC2     C  795   2.404   0.948   1.017  0.3194 -0.0086 -0.0798
   51TMC2     O  796   2.422   0.880   0.917  0.2936 -0.2001  0.0065
   51TMC2     H  797   2.323   1.030   0.788 -0.3044 -0.2747  0.0016
   51TMC2    H1  798   2.480   1.157   1.157 -0.4813  0.3938  0.6682
   51TMC2    H2  799   2.464   1.433   0.843  1.6564  0.1977  0.2357
   51TMC2    C7  800   2.556   1.394   1.076  0.3113  0.1216  0.2479
   51TMC2    C8  801   2.384   1.255   0.656 -0.6457 -0.4849 -0.3360
   51TMC2    O1  802   2.643   1.332   1.132 -0.5736 -0.9573 -0.2017
   51TMC2    O2  803   2.389   1.356   0.588  0.4803 -0.1239  0.4884
   51TMC2    O5  804   2.461   1.145   0.611 -0.2151  0.0265 -0.0499
   51TMC2    H5  805   2.516   1.108   0.683 -2.8256 -2.0220  0.9158
   52MPD2     C  806   2.416   0.546   1.338 -0.4539  0.3570  0.0722
   52MPD2    C1  807   2.462   0.560   1.213  0.9987  0.1795 -0.0459
   52MPD2    C2  808   2.454   0.678   1.146 -0.1718 -0.1394 -0.3394
   52MPD2    C3  809   2.415   0.793   1.212 -0.6402  0.4629  0.3370
   52MPD2    C4  810   2.372   0.782   1.345 -0.0160  0.6433  0.0172
   52MPD2    C5  811   2.382   0.662   1.410  0.4060 -0.7051 -0.7276
   52MPD2     H  812   2.470   0.680   1.039 -0.2665  4.5176 -0.2703
   52MPD2    H1  813   2.358   0.868   1.410 -0.2841 -0.1974  1.0779
   52MPD2    H2  814   2.428   0.454   1.394 -2.3602 -0.6727 -1.2343
   52MPD2    H3  815   2.373   0.657   1.518 -0.8688  0.1443 -0.7998
   52MPD2     N  816   2.400   0.917   1.151  0.2085 -0.5960 -0.0808
   52MPD2    H5  817   2.366   0.994   1.209  3.2033  1.1638 -0.6721
   52MPD2    N1  818   2.506   0.448   1.142 -0.0341  0.1457 -0.0086
   52MPD2    H7  819   2.550   0.462   1.052  0.0334 -0.4656 -0.0753
   53TMC2    C1  820   3.116   3.978  12.354 -0.4410 -0.0285  0.2263
   53TMC2    C2  821   3.211   4.027  12.447 -0.0079 -0.3348 -0.1350
   53TMC2    C3  822   3.165   4.095  12.558 -1.2043 -0.5893  0.0603
   53TMC2    C4  823   2.986   4.011  12.376 -0.0416  0.1065  0.6868
   53TMC2    C5  824   2.945   4.084  12.484 -0.8338 -0.2997 -0.6571
   53TMC2    C6  825   3.032   4.122  12.578 -0.6322 -0.0927  0.3055
   53TMC2     C  826   3.176   3.906  12.241  0.4372 -0.3614 -0.9713
   53TMC2     O  827   3.296   3.923  12.224 -0.1489 -0.0606 -0.0437
   53TMC2     H  828   3.308   3.980  12.446  0.6808  1.1360 -1.9072
   53TMC2    H1  829   2.911   3.979  12.305  1.0738  1.1742 -0.9547
   53TMC2    H2  830   3.002   4.183  12.663 -0.8857  1.8241 -1.1375
   53TMC2    C7  831   2.810   4.123  12.483 -0.5179  0.4392 -0.4405
   53TMC2    C8  832   3.238   4.081  12.679 -1.1888  0.1879 -1.2104
   53TMC2    O1  833   2.755   4.136  12.379  0.6148  0.1440 -0.5065
   53TMC2    O2  834   3.184   4.068  12.786 -0.2025  0.1876 -0.1543
   53TMC2    O5  835   3.365   4.089  12.644  0.4407 -0.1312  0.4042
   53TMC2    H5  836   3.378   4.118  12.551 -2.1551  3.1920  1.0905
   54MPD2     C  837   3.239   3.822  11.952  0.0217  0.1934  0.2432
   54MPD2    C1  838   3.117   3.815  12.014  0.5059  1.0630  0.4309
   54MPD2    C2  839   3.013   3.768  11.942 -0.4485 -0.2039  0.2878
   54MPD2    C3  840   3.034   3.728  11.808 -0.2219 -0.2457  0.3709
   54MPD2    C4  841   3.157   3.738  11.751  0.7612 -0.3499 -0.2768
   54MPD2    C5  842   3.263   3.789  11.823 -0.1977  0.9114  0.4450
   54MPD2     H  843   2.916   3.774  11.990  0.0253  2.5189  0.9188
   54MPD2    H1  844   3.181   3.707  11.650 -0.0677  1.2484 -0.9638
   54MPD2    H2  845   3.322   3.879  11.995  1.4873  0.5976 -3.0951
   54MPD2    H3  846   3.365   3.804  11.790 -0.3490  2.2689  0.5858
   54MPD2     N  847   2.932   3.682  11.719  0.0294 -0.0315 -0.6033
   54MPD2    H5  848   2.963   3.658  11.626 -2.3070  0.8180 -1.6159
   54MPD2    N1  849   3.088   3.862  12.143 -0.2769 -0.1458 -0.1371
   54MPD2    H7  850   2.989   3.854  12.166  0.5932 -3.3138  2.5498
   55TMC2    C1  851   3.980   1.793   0.176 -0.1526  0.3880 -0.1301
   55TMC2    C2  852   4.005   1.763   0.042  0.3245 -0.1793 -0.1041
   55TMC2    C3  853   4.021   1.635   0.002  0.4449  0.6255  0.2971
   55TMC2    C4  854   3.945   1.696   0.263 -0.5676 -0.7982 -0.1935
   55TMC2    C5  855   3.943   1.562   0.219 -0.2913  0.5050 -0.0877
   55TMC2    C6  856   3.986   1.535   0.087  1.4151  0.3653 -0.6665
   55TMC2     C  857   3.941   1.924   0.214  0.5979  0.0317  0.0808
   55TMC2     O  858   3.919   1.948   0.330 -0.4527 -0.5312 -0.2619
   55TMC2     H  859   4.049   1.838  17.725  3.0019 -1.7375 -0.1103
   55TMC2    H1  860   3.913   1.716   0.364 -1.2935  1.5665 -0.9054
   55TMC2    H2  861   3.983   1.431   0.058  2.0686 -0.2108  1.3473
   55TMC2    C7  862   3.930   1.449   0.309  0.3023  0.3132  1.6110
   55TMC2    C8  863   4.024   1.612  17.604  0.3725 -0.2855 -1.6103
   55TMC2    O1  864   3.978   1.342   0.281 -0.6137 -0.0255 -0.1536
   55TMC2    O2  865   3.991   1.703  17.531  0.0993 -0.4648 -0.0986
   55TMC2    O5  866   4.142   1.546  17.593 -0.1475 -0.3650 -0.0041
   55TMC2    H5  867   4.171   1.500  17.675 -2.2348 -0.3233  0.7725
   56MPD2     C  868   3.842   2.192  17.741  0.6508 -0.0760  1.1638
   56MPD2    C1  869   3.841   2.126   0.110 -0.5060 -0.0642 -0.2974
   56MPD2    C2  870   3.784   2.186   0.222 -0.0091 -0.2113  0.4562
   56MPD2    C3  871   3.706   2.300   0.209  0.1046  0.0137  0.4718
   56MPD2    C4  872   3.706   2.361   0.089  0.3614 -0.1331  0.2346
   56MPD2    C5  873   3.769   2.307  17.725 -0.5574  0.1397  0.3736
   56MPD2     H  874   3.771   2.127   0.312 -1.7391 -2.1096 -1.0383
   56MPD2    H1  875   3.656   2.457   0.077  2.6740  1.0312 -0.0384
   56MPD2    H2  876   3.877   2.148  17.648  0.8138 -1.5443  1.9132
   56MPD2    H3  877   3.774   2.367  17.635  1.4518  1.7939  1.5853
   56MPD2     N  878   3.621   2.338   0.316  0.0500  0.1122 -0.6257
   56MPD2    H5  879   3.621   2.290   0.405  1.0559  0.8940 -0.2036
   56MPD2    N1  880   3.909   2.006   0.107 -0.8157 -0.3168 -0.0301
   56MPD2    H7  881   3.923   1.962   0.016  1.3571  1.1196 -0.3839
   57TMC2    C1  882   2.573   2.701  13.184  0.5454  0.3114 -0.4217
   57TMC2    C2  883   2.523   2.580  13.148 -0.0351 -0.3006 -0.4666
   57TMC2    C3  884   2.605   2.510  13.059  0.7568  0.0445 -0.3211
   57TMC2    C4  885   2.698   2.744  13.139 -0.1465  0.1335  0.0332
   57TMC2    C5  886   2.769   2.672  13.048 -0.0216 -0.0482  0.3214
   57TMC2    C6  887   2.726   2.551  13.009 -0.6773 -0.1579  0.5642
   57TMC2     C  888   2.483   2.798  13.246 -0.2552  0.1144 -0.2735
   57TMC2     O  889   2.367   2.769  13.257  0.7249 -0.7954  0.7559
   57TMC2     H  890   2.425   2.547  13.181  0.4696 -0.0099  1.2972
   57TMC2    H1  891   2.741   2.838  13.171 -0.8589 -0.0998  1.6662
   57TMC2    H2  892   2.776   2.494  12.932 -0.2395  1.4478 -0.3403
   57TMC2    C7  893   2.914   2.703  13.029  0.3751  0.1425 -0.4827
   57TMC2    C8  894   2.551   2.372  13.036  0.0426  0.3745  0.3152
   57TMC2    O1  895   2.948   2.816  13.059  0.0298  0.3696  0.7966
   57TMC2    O2  896   2.431   2.346  13.030  0.0456 -0.4367 -0.4238
   57TMC2    O5  897   2.628   2.288  13.111 -0.0379 -1.0292 -0.8375
   57TMC2    H5  898   2.714   2.325  13.139 -0.7604  0.8405 -1.0785
   58MPD2     C  899   2.408   3.194  13.567 -0.5920  0.0865  0.6345
   58MPD2    C1  900   2.313   3.125  13.495  0.2216 -0.2031  0.1579
   58MPD2    C2  901   2.361   3.015  13.418 -0.8235  0.0460  0.3290
   58MPD2    C3  902   2.493   2.993  13.395  0.0469  0.8988 -0.4376
   58MPD2    C4  903   2.585   3.072  13.468 -0.4822  0.6688  1.0378
   58MPD2    C5  904   2.540   3.166  13.557 -0.1581 -0.0433  0.2926
   58MPD2     H  905   2.292   2.943  13.373  1.0274  0.1815 -2.7418
   58MPD2    H1  906   2.693   3.058  13.463 -0.9569 -1.8696 -1.7481
   58MPD2    H2  907   2.385   3.280  13.630  0.3119  0.4041  0.5235
   58MPD2    H3  908   2.613   3.222  13.614 -2.9684  2.0677  1.8131
   58MPD2     N  909   2.553   2.898  13.309 -0.3781  0.7073 -0.7437
   58MPD2    H5  910   2.654   2.886  13.309 -0.6650 -1.8096 -2.7270
   58MPD2    N1  911   2.175   3.140  13.501 -0.1276  0.1109 -0.0683
   58MPD2    H7  912   2.111   3.080  13.450 -1.4088  0.4058  1.2098
   59TMC2    C1  913   0.618   3.166  12.974 -0.1856 -0.3667  0.0781
   59TMC2    C2  914   0.599   3.030  12.961 -0.0788 -0.4607  0.7252
   59TMC2    C3  915   0.665   2.963  12.862 -0.3936  0.3536  0.2287
   59TMC2    C4  916   0.697   3.238  12.883 -0.1367 -0.0986  0.5164
   59TMC2    C5  917   0.762   3.165  12.784 -0.3059 -0.0104  0.1929
   59TMC2    C6  918   0.746   3.026  12.772 -0.3706 -0.1112 -0.3725
   59TMC2     C  919   0.548   3.235  13.084  0.0249 -0.4094  0.1538
   59TMC2     O  920   0.460   3.167  13.142 -0.4062  0.6184  0.5502
   59TMC2     H  921   0.538   2.968  13.026 -2.3028 -0.5347 -1.4233
   59TMC2    H1  922   0.712   3.345  12.882 -0.2003 -0.0961 -0.6789
   59TMC2    H2  923   0.776   2.982  12.677  3.5054  2.2444 -0.2305
   59TMC2    C7  924   0.805   3.228  12.661  0.1554 -0.8021  0.3667
   59TMC2    C8  925   0.693   2.819  12.886 -0.4942 -0.2463 -0.3775
   59TMC2    O1  926   0.900   3.175  12.606 -0.1343  0.1722  0.1614
   59TMC2    O2  927   0.603   2.743  12.921  0.0615 -0.1072  0.5573
   59TMC2    O5  928   0.806   2.775  12.824  0.0170  0.2350  0.1518
   59TMC2    H5  929   0.868   2.849  12.806  1.0056 -0.9244 -1.2483
   60MPD2     C  930   0.480   3.395  13.323  0.0262  0.1196  0.9503
   60MPD2    C1  931   0.587   3.424  13.241 -0.3615 -0.3792  0.1204
   60MPD2    C2  932   0.674   3.528  13.262  0.3871 -0.2001  0.6174
   60MPD2    C3  933   0.648   3.610  13.374  0.3798 -0.9270 -0.5518
   60MPD2    C4  934   0.544   3.582  13.457 -0.3017  0.0257 -0.1240
   60MPD2    C5  935   0.459   3.485  13.426  0.2451  0.2561 -0.0127
   60MPD2     H  936   0.746   3.554  13.185 -0.1239  0.3421  0.3168
   60MPD2    H1  937   0.527   3.639  13.548  1.8211 -0.3628  0.5281
   60MPD2    H2  938   0.417   3.309  13.308 -0.8139  1.0518 -0.8774
   60MPD2    H3  939   0.374   3.471  13.492  0.6039  0.4487  0.4891
   60MPD2     N  940   0.725   3.722  13.413  0.2182 -0.1830 -0.4547
   60MPD2    H5  941   0.693   3.775  13.494  2.1756 -1.2861  1.0441
   60MPD2    N1  942   0.620   3.340  13.131  0.4853  0.7632 -0.6905
   60MPD2    H7  943   0.704   3.360  13.077  0.4629  0.1195 -0.9636
   61TMC2    C1  944   4.648   4.369  15.375  0.1526 -0.2025 -1.0189
   61TMC2    C2  945   4.593   4.306  15.488 -0.1741 -0.3630 -0.3211
   61TMC2    C3  946   4.500   4.378  15.559  0.4272 -0.4731  0.2912
   61TMC2    C4  947   4.602   4.493  15.334  0.1750 -0.1905  0.3849
   61TMC2    C5  948   4.496   4.544  15.408  0.4290 -0.4475 -0.0528
   61TMC2    C6  949   4.442   4.492  15.521  0.2312  0.2558  0.0312
   61TMC2     C  950   0.027   4.306  15.314  0.3214 -0.1932 -0.2204
   61TMC2     O  951   0.078   4.216  15.374 -0.1110 -0.4263 -0.4784
   61TMC2     H  952   4.637   4.212  15.519  1.5509  1.0635  1.5780
   61TMC2    H1  953   4.659   4.557  15.267  0.3511  1.0599  1.7397
   61TMC2    H2  954   4.367   4.540  15.582  1.2486 -0.2239  1.6584
   61TMC2    C7  955   4.446   4.674  15.369  0.3350 -0.8434  0.4642
   61TMC2    C8  956   4.448   4.299  15.665 -0.0536 -0.5494  0.4077
   61TMC2    O1  957   4.518   4.733  15.285  0.4463 -0.8838 -0.0317
   61TMC2    O2  958   4.512   4.207  15.710  0.1519  0.2321 -0.0287
   61TMC2    O5  959   4.310   4.297  15.661  0.0264  0.1751  0.0333
   61TMC2    H5  960   4.268   4.361  15.600 -1.1108 -0.9168 -0.3273
   62MPD2     C  961   0.282   4.280  15.168 -0.2683 -0.5023 -0.3559
   62MPD2    C1  962   0.174   4.344  15.116 -0.9453  0.5162 -0.2432
   62MPD2    C2  963   0.200   4.428  15.011  0.1374  0.3557  0.1414
   62MPD2    C3  964   0.324   4.452  14.958  0.3301  0.2278 -0.0374
   62MPD2    C4  965   0.427   4.384  15.010 -0.0255 -0.1589  0.1474
   62MPD2    C5  966   0.405   4.298  15.114  0.2536  0.5338 -0.2323
   62MPD2     H  967   0.123   4.485  14.960  0.8917 -0.2112 -1.6552
   62MPD2    H1  968   0.526   4.393  14.968  1.0736  0.3745  2.8617
   62MPD2    H2  969   0.284   4.211  15.251 -0.3937 -1.1098 -0.8614
   62MPD2    H3  970   0.497   4.250  15.145 -0.2917 -0.2013  0.2509
   62MPD2     N  971   0.334   4.543  14.853  0.7766 -0.2789  0.1508
   62MPD2    H5  972   0.247   4.588  14.829 -0.4884 -2.1678  1.1899
   62MPD2    N1  973   0.047   4.352  15.182 -0.0957 -0.6439  0.2482
   62MPD2    H7  974   4.707   4.405  15.142  0.3510 -0.3257 -0.1867
   63TMC2    C1  975   4.056   0.183  10.213 -0.0776 -0.1052 -0.2603
   63TMC2    C2  976   4.158   0.170  10.303  0.5213 -0.6279 -0.1333
   63TMC2    C3  977   4.249   0.271  10.310 -0.2223 -0.0109 -0.7347
   63TMC2    C4  978   4.076   0.272  10.112 -0.4570  0.5730  0.0283
   63TMC2    C5  979   4.183   0.362  10.111  0.4373 -0.4409 -0.2165
   63TMC2    C6  980   4.258   0.376  10.224 -0.5266  0.7809  0.4306
   63TMC2     C  981   3.933   0.091  10.209 -0.0428  1.0863 -0.3753
   63TMC2     O  982   3.868   0.084  10.106 -0.5440 -0.3313 -0.7452
   63TMC2     H  983   4.158   0.097  10.382 -1.9130  0.3876  0.8178
   63TMC2    H1  984   4.009   0.269  10.027 -1.2473 -2.5201  0.7571
   63TMC2    H2  985   4.322   0.462  10.239  0.2521  0.3357 -0.2765
   63TMC2    C7  986   4.160   0.476  10.022 -0.2989  0.8861  0.5628
   63TMC2    C8  987   4.365   0.251  10.391 -1.1275 -0.2168 -0.0276
   63TMC2    O1  988   4.156   0.451   9.904  0.6122  0.0365  0.3604
   63TMC2    O2  989   4.352   0.183  10.489  0.5626  0.5715  0.6622
   63TMC2    O5  990   4.459   0.255  10.295 -0.2047  0.5584  0.4648
   63TMC2    H5  991   4.426   0.296  10.212 -0.4110  1.2284  0.8830
   64MPD2     C  992   3.722   4.379  10.358  0.5871 -0.0482 -0.3907
   64MPD2    C1  993   3.808   4.421  10.464  0.4362  0.4024 -0.5853
   64MPD2    C2  994   3.875   4.545  10.459  0.0314  0.1309 -0.0561
   64MPD2    C3  995   3.860   4.621  10.346  0.0106 -0.1902  0.2818
   64MPD2    C4  996   3.771   4.577  10.244  0.7506  1.1003  0.6123
   64MPD2    C5  997   3.699   4.463  10.254 -0.1532 -1.1437  0.5202
   64MPD2     H  998   3.934   4.578  10.543  0.8339 -0.7938 -0.2530
   64MPD2    H1  999   3.752   4.623  10.147  1.6584 -3.3551 -1.6912
   64MPD2    H2 1000   3.681   4.278  10.359  0.5556 -0.0168  0.7174
   64MPD2    H3 1001   3.633   4.429  10.174 -2.0715  3.1404  0.2267
   64MPD2     N 1002   3.930   0.004  10.320 -0.7981 -0.5527 -0.8220
   64MPD2    H5 1003   3.985   0.030  10.401  0.1574 -0.7073 -1.4210
   64MPD2    N1 1004   3.830   4.347  10.585  0.3828  0.0262 -0.1704
   64MPD2    H7 1005   3.903   4.385  10.644 -1.5855 -1.1452  3.0323
   65TMC2    C1 1006   0.401   4.077  15.704  0.4537  0.3091  0.1062
   65TMC2    C2 1007   0.484   4.020  15.611 -0.4891  0.0501 -0.1469
   65TMC2    C3 1008   0.513   4.091  15.498 -0.6017  0.2117 -0.6243
   65TMC2    C4 1009   0.336   4.197  15.676 -0.0133  0.3943 -0.0059
   65TMC2    C5 1010   0.364   4.265  15.563  0.1360 -0.0349  0.0245
   65TMC2    C6 1011   0.455   4.212  15.474  0.5232  0.2215  0.2604
   65TMC2     C 1012   0.334   4.006  15.811  0.3125 -0.1751  0.0277
   65TMC2     O 1013   0.314   4.062  15.921  0.6263  0.8341 -0.1806
   65TMC2     H 1014   0.543   3.932  15.631  0.3987  0.7519  0.3472
   65TMC2    H1 1015   0.263   4.239  15.743 -0.0348  0.2440  0.0654
   65TMC2    H2 1016   0.472   4.268  15.383 -0.4772 -1.7358 -1.1229
   65TMC2    C7 1017   0.310   4.400  15.531 -0.0470  0.4627 -0.5885
   65TMC2    C8 1018   0.634   4.062  15.418  0.6880 -0.1944  0.3162
   65TMC2    O1 1019   0.380   4.476  15.457  0.7085  0.5663  0.6485
   65TMC2    O2 1020   0.678   3.952  15.411  1.2022 -0.1636 -0.6614
   65TMC2    O5 1021   0.709   4.174  15.406 -0.1347 -0.1763  0.3606
   65TMC2    H5 1022   0.665   4.258  15.429  0.7482 -0.5766  3.4560
   66MPD2     C 1023   0.311   3.793  15.994  0.5751 -0.4838  0.6756
   66MPD2    C1 1024   0.313   3.770  15.861  0.0842  0.0189 -0.3510
   66MPD2    C2 1025   0.287   3.646  15.813 -0.9587 -0.5592  0.2319
   66MPD2    C3 1026   0.241   3.548  15.895  0.4699  0.1879  0.1956
   66MPD2    C4 1027   0.225   3.569  16.028  0.2437 -0.0106  0.2822
   66MPD2    C5 1028   0.261   3.691  16.075 -0.7115  0.1831 -0.2442
   66MPD2     H 1029   0.299   3.629  15.706  1.0533  0.0885  0.3462
   66MPD2    H1 1030   0.193   3.494  16.099 -0.1063 -0.2453 -0.1232
   66MPD2    H2 1031   0.328   3.893  16.034 -0.6065  0.8338 -2.0921
   66MPD2    H3 1032   0.256   3.700  16.183  0.8206 -2.3151  0.0465
   66MPD2     N 1033   0.205   3.418  15.855  0.1714 -0.4291 -0.2491
   66MPD2    H5 1034   0.171   3.358  15.929 -1.6656  0.4487 -0.3826
   66MPD2    N1 1035   0.333   3.872  15.769 -0.2517 -0.7305  0.0515
   66MPD2    H7 1036   0.360   3.848  15.675 -1.8130  2.0999 -1.1021
   67TMC2    C1 1037   0.551   3.694  14.745  0.1322  0.6511  0.4414
   67TMC2    C2 1038   0.535   3.822  14.785 -0.3315  0.4412 -0.1215
   67TMC2    C3 1039   0.622   3.861  14.887  0.0464 -0.1596  0.3695
   67TMC2    C4 1040   0.632   3.604  14.803 -0.0732  0.4103  0.4047
   67TMC2    C5 1041   0.707   3.648  14.910  0.0442  1.2075  0.4708
   67TMC2    C6 1042   0.700   3.776  14.951  0.0709  0.5105 -0.1438
   67TMC2     C 1043   0.439   3.630  14.678  0.3464  0.5359  0.7934
   67TMC2     O 1044   0.373   3.540  14.733 -0.0799  0.1315 -0.3033
   67TMC2     H 1045   0.458   3.890  14.751 -0.6697  1.1690  2.1148
   67TMC2    H1 1046   0.639   3.504  14.762  0.5335 -1.0308  4.1019
   67TMC2    H2 1047   0.777   3.811  15.019  1.5676  0.9729 -2.0779
   67TMC2    C7 1048   0.800   3.551  14.974  0.1962 -0.5574 -0.1918
   67TMC2    C8 1049   0.618   3.992  14.940 -0.2134 -0.4549 -0.2763
   67TMC2    O1 1050   0.842   3.462  14.900  0.5495 -0.8131  0.2247
   67TMC2    O2 1051   0.578   4.080  14.860  0.4936  0.0353 -0.2981
   67TMC2    O5 1052   0.594   3.981  15.073  0.1203  0.2589 -0.2646
   67TMC2    H5 1053   0.599   3.888  15.103 -0.1911 -0.6870 -3.1397
   68MPD2     C 1054   0.306   3.514  14.446 -0.3317 -0.1824  0.9077
   68MPD2    C1 1055   0.356   3.641  14.446 -0.4150 -0.1526 -0.2250
   68MPD2    C2 1056   0.334   3.724  14.337  0.8836  0.3746  0.5006
   68MPD2    C3 1057   0.266   3.684  14.221  0.4858 -0.2242  0.3446
   68MPD2    C4 1058   0.214   3.557  14.225 -0.2646  0.2031  0.1844
   68MPD2    C5 1059   0.236   3.470  14.333  0.8625  0.3728  0.1403
   68MPD2     H 1060   0.368   3.824  14.360 -0.1377  0.9438 -0.4165
   68MPD2    H1 1061   0.163   3.512  14.142 -0.8288 -1.3881  1.3905
   68MPD2    H2 1062   0.317   3.439  14.523  3.4300  0.5938  1.1197
   68MPD2    H3 1063   0.210   3.365  14.331 -1.4773  0.9441  0.3972
   68MPD2     N 1064   0.239   3.768  14.110 -0.2796 -0.7124 -0.3294
   68MPD2    H5 1065   0.159   3.741  14.053 -0.2278  1.8701 -1.6348
   68MPD2    N1 1066   0.438   3.684  14.548  0.1019  0.4985 -0.0231
   68MPD2    H7 1067   0.495   3.767  14.538  3.7599 -1.8490  1.4676
   69TMC2    C1 1068   2.993   4.401  12.222 -0.6993  0.6048 -0.1522
   69TMC2    C2 1069   3.087   4.484  12.272  0.3845  0.1886 -0.2551
   69TMC2    C3 1070   3.212   4.463  12.240 -0.3966 -0.0837  0.1580
   69TMC2    C4 1071   3.010   4.297  12.132 -0.0113  0.0721  0.3650
   69TMC2    C5 1072   3.147   4.292  12.096 -0.1660  0.2700 -0.2194
   69TMC2    C6 1073   3.250   4.366  12.152 -0.0286 -0.3048 -0.6593
   69TMC2     C 1074   2.854   4.441  12.270  0.7534  0.2040  0.7597
   69TMC2     O 1075   2.851   4.512  12.369  0.8588  0.0974 -0.1395
   69TMC2     H 1076   3.058   4.570  12.330  0.1174  0.6296 -1.0438
   69TMC2    H1 1077   2.935   4.224  12.102  0.6501 -1.0728  1.5217
   69TMC2    H2 1078   3.355   4.347  12.131  0.6541  2.2322  0.4778
   69TMC2    C7 1079   3.183   4.201  11.994  0.0743  0.1681 -0.0228
   69TMC2    C8 1080   3.312   4.535  12.310 -0.3151 -0.2777  0.3922
   69TMC2    O1 1081   3.297   4.199  11.965  0.2338  0.5915 -0.0032
   69TMC2    O2 1082   3.290   4.581  12.419 -0.7599 -0.8259 -0.3170
   69TMC2    O5 1083   3.407   4.579  12.227 -0.5770 -0.7004 -0.2591
   69TMC2    H5 1084   3.396   4.547  12.135 -0.0465 -0.0885 -0.5380
   70MPD2     C 1085   2.514   4.436  12.140 -0.0348 -0.2427 -0.0607
   70MPD2    C1 1086   2.611   4.428  12.239 -0.8204 -0.1004 -0.0932
   70MPD2    C2 1087   2.580   4.453  12.370 -0.2527 -0.3027  0.0638
   70MPD2    C3 1088   2.452   4.500  12.406 -0.0120  0.4397  0.4386
   70MPD2    C4 1089   2.357   4.510  12.306 -0.2001 -0.0115  0.5291
   70MPD2    C5 1090   2.394   4.477  12.179  1.0266 -0.1030 -0.1232
   70MPD2     H 1091   2.658   4.443  12.444  0.2792  1.8867 -0.2182
   70MPD2    H1 1092   2.257   4.536  12.338 -0.1413  1.6931 -0.6538
   70MPD2    H2 1093   2.529   4.428  12.033  0.8876 -0.3990  0.0783
   70MPD2    H3 1094   2.321   4.487  12.099  1.3724  1.6595 -0.2089
   70MPD2     N 1095   2.415   4.524  12.540  0.5456  0.3093  0.2401
   70MPD2    H5 1096   2.318   4.523  12.568  0.2249  1.0293 -0.8398
   70MPD2    N1 1097   2.749   4.407  12.191 -0.0479  0.1359  0.4572
   70MPD2    H7 1098   2.761   4.353  12.105  2.0384 -0.0439  0.8675
   71TMC2    C1 1099   0.254   0.050   1.314  0.3879 -0.2833 -0.2868
   71TMC2    C2 1100   0.373   0.067   1.382  0.0306  0.3826 -0.0823
   71TMC2    C3 1101   0.368   0.078   1.514 -0.5171  0.5911 -0.0915
   71TMC2    C4 1102   0.132   0.035   1.376 -0.2928 -0.2091  0.9341
   71TMC2    C5 1103   0.129   0.057   1.508  1.0909 -0.7229  0.3709
   71TMC2    C6 1104   0.247   0.075   1.574 -0.4187 -0.1919  0.1409
   71TMC2     C 1105   0.254   0.021   1.169 -0.2621 -0.5432 -0.2611
   71TMC2     O 1106   0.347   0.063   1.103  0.1163 -0.0316  0.3201
   71TMC2     H 1107   0.469   0.063   1.331 -1.1665  4.7548 -2.6376
   71TMC2    H1 1108   0.043   0.025   1.315 -0.7748  2.0527  1.2807
   71TMC2    H2 1109   0.247   0.099   1.680 -2.4572  1.5533 -0.2601
   71TMC2    C7 1110   0.011   0.027   1.583 -1.1301  0.2586  0.0688
   71TMC2    C8 1111   0.495   0.101   1.585  0.3031  0.1511  0.3225
   71TMC2    O1 1112   0.030   4.721   1.697  0.2520  0.3062  0.1909
   71TMC2    O2 1113   0.527   0.047   1.694  0.5565 -0.2326  0.6075
   71TMC2    O5 1114   0.590   0.162   1.504  0.3688  0.3900 -0.0257
   71TMC2    H5 1115   0.545   0.211   1.432  1.0994  2.5984  1.0186
   72MPD2     C 1116   4.731   4.647   0.747  0.2807 -0.6650  0.5313
   72MPD2    C1 1117   0.087   0.009   0.767 -1.0510  0.1415  0.1973
   72MPD2    C2 1118   0.141   0.023   0.893 -0.3590 -0.0990  0.2918
   72MPD2    C3 1119   0.102   4.683   0.995 -0.3754 -0.2109  0.0649
   72MPD2    C4 1120   0.003   4.586   0.977  0.0117  0.4487  0.0511
   72MPD2    C5 1121   4.695   4.566   0.849  0.1676 -0.4462 -0.2489
   72MPD2     H 1122   0.207   0.106   0.915 -0.0385 -0.0401 -0.8615
   72MPD2    H1 1123   4.698   4.529   1.059 -0.1287 -1.8933 -1.6568
   72MPD2    H2 1124   4.684   4.626   0.652 -0.2235  0.7818  0.4584
   72MPD2    H3 1125   4.609   4.503   0.828 -1.3704  1.4630  0.2718
   72MPD2     N 1126   0.143   4.691   1.130  0.4280  0.5775  0.3809
   72MPD2    H5 1127   0.094   4.640   1.202  1.1679 -1.5676 -0.6272
   72MPD2    N1 1128   0.112   0.100   0.669  0.0255 -0.4323  0.4796
   72MPD2    H7 1129   0.080   0.082   0.574  0.0816 -1.7456  0.7222
   73TMC2    C1 1130   0.491   2.279  13.930 -0.0008  0.8720  0.7587
   73TMC2    C2 1131   0.418   2.242  14.040  0.3921 -0.0056  0.1246
   73TMC2    C3 1132   0.486   2.257  14.158 -0.1314 -0.1538  0.6969
   73TMC2    C4 1133   0.627   2.323  13.935 -0.5829 -0.5088 -0.6088
   73TMC2    C5 1134   0.682   2.342  14.056 -0.4804 -0.7614  0.1789
   73TMC2    C6 1135   0.605   2.319  14.166  0.6002 -0.4940  0.4521
   73TMC2     C 1136   0.432   2.355  13.824 -0.0762  0.1080 -0.2137
   73TMC2     O 1137   0.507   2.431  13.764  0.2924  0.2578 -0.2097
   73TMC2     H 1138   0.315   2.207  14.033  0.6323 -0.0969 -2.9279
   73TMC2    H1 1139   0.690   2.325  13.846  1.5260  0.6697  0.9045
   73TMC2    H2 1140   0.651   2.326  14.264  0.4293 -0.2175  0.5132
   73TMC2    C7 1141   0.722   2.482  14.067  0.5107  0.1101  0.2463
   73TMC2    C8 1142   0.453   2.178  14.271  0.1778  0.3935  0.0377
   73TMC2    O1 1143   0.810   2.504  14.147  0.5800  0.0993  0.1711
   73TMC2    O2 1144   0.524   2.167  14.367  0.2568 -0.3251  0.3248
   73TMC2    O5 1145   0.319   2.152  14.275 -0.0831 -0.2493 -0.0819
   73TMC2    H5 1146   0.270   2.190  14.199 -2.1718  0.1047  1.4503
   74MPD2     C 1147   0.025   2.636  13.692  0.1671 -0.4652 -0.0250
   74MPD2    C1 1148   0.165   2.650  13.662 -0.1087 -0.3863 -0.0506
   74MPD2    C2 1149   0.251   2.548  13.693 -0.2975  0.1905 -0.0311
   74MPD2    C3 1150   0.210   2.446  13.775  0.5079  0.3682 -0.8577
   74MPD2    C4 1151   0.075   2.433  13.804  0.5414 -0.3474 -0.0427
   74MPD2    C5 1152   4.718   2.528  13.768  0.6557 -0.2067  0.0805
   74MPD2     H 1153   0.355   2.562  13.663 -0.6012 -0.1087 -1.2087
   74MPD2    H1 1154   0.032   2.365  13.877  1.0866  0.1967  0.7895
   74MPD2    H2 1155   4.698   2.719  13.668 -0.6383 -0.8088  0.9213
   74MPD2    H3 1156   4.614   2.516  13.795 -0.2280  1.6268 -2.5292
   74MPD2     N 1157   0.291   2.353  13.836  0.5482 -0.1013 -0.4299
   74MPD2    H5 1158   0.256   2.275  13.891 -2.0035  0.0086 -1.8814
   74MPD2    N1 1159   0.202   2.769  13.591 -0.0052 -0.0362  0.1846
   74MPD2    H7 1160   0.131   2.841  13.584 -1.1274 -1.1930 -0.2035
   75TMC2    C1 1161   0.231   3.967  13.980 -0.0928  0.5181 -0.6697
   75TMC2    C2 1162   0.278   4.095  13.954  0.0249  0.3810 -0.2039
   75TMC2    C3 1163   0.230   4.159  13.845 -0.1102  0.2383 -0.3558
   75TMC2    C4 1164   0.141   3.903  13.896 -0.0904 -0.1523  0.5650
   75TMC2    C5 1165   0.088   3.971  13.789  0.7119 -0.1532 -0.4021
   75TMC2    C6 1166   0.143   4.096  13.758  0.7688 -0.4125 -0.4293
   75TMC2     C 1167   0.287   3.899  14.094 -0.1470 -0.0631 -0.0890
   75TMC2     O 1168   0.387   3.951  14.152 -0.6124 -0.0504  1.0240
   75TMC2     H 1169   0.352   4.140  14.020 -1.0172  0.9064  0.6012
   75TMC2    H1 1170   0.106   3.802  13.916  1.3622 -0.6719  0.4387
   75TMC2    H2 1171   0.115   4.146  13.666  0.0537 -0.6031 -0.3188
   75TMC2    C7 1172   4.717   3.910  13.707 -0.1845  0.1217  0.2017
   75TMC2    C8 1173   0.311   4.268  13.787  0.6146  0.6472 -0.1334
   75TMC2    O1 1174   4.695   3.795  13.736 -0.0361 -0.6665  0.1911
   75TMC2    O2 1175   0.301   4.295  13.669 -0.4360 -0.0989 -0.3644
   75TMC2    O5 1176   0.413   4.310  13.861 -0.6793 -0.2528 -0.2458
   75TMC2    H5 1177   0.396   4.306  13.958 -0.8744 -0.1973 -0.2782
   76TMC2    C1 1178   3.798   3.223  11.675  0.6383  0.8164 -0.2550
   76TMC2    C2 1179   3.686   3.142  11.654  0.2349  0.0123  0.0083
   76TMC2    C3 1180   3.662   3.049  11.759  0.4477  0.5953  0.0550
   76TMC2    C4 1181   3.876   3.217  11.787 -0.1253 -0.2277 -0.5051
   76TMC2    C5 1182   3.859   3.110  11.873  0.2673  0.2671 -0.9413
   76TMC2    C6 1183   3.749   3.024  11.867  0.0288 -0.3190  0.5888
   76TMC2     C 1184   3.812   3.336  11.592 -0.4294  0.4642 -0.3842
   76TMC2     O 1185   3.714   3.366  11.519  0.3884  0.0871  0.7966
   76TMC2     H 1186   3.635   3.133  11.558  1.2981  1.5000 -0.6988
   76TMC2    H1 1187   3.957   3.288  11.799  2.0316 -2.4800 -1.7388
   76TMC2    H2 1188   3.737   2.935  11.927  0.2605 -0.3965  0.5177
   76TMC2    C7 1189   3.957   3.080  11.975 -0.2684 -0.4205 -0.1729
   76TMC2    C8 1190   3.541   2.981  11.771  1.0780  0.8447 -1.1020
   76TMC2    O1 1191   3.962   2.966  12.021  0.2896  0.8161  0.0295
   76TMC2    O2 1192   3.527   2.879  11.835 -0.4906  0.5495 -1.2704
   76TMC2    O5 1193   3.450   3.054  11.707 -0.1243 -0.2102  0.2284
   76TMC2    H5 1194   3.479   3.148  11.710  1.1606 -0.5978 -0.1682
   77MPD2     C 1195   4.110   3.722  11.439  0.3932 -0.2202 -0.3563
   77MPD2    C1 1196   3.977   3.710  11.450 -0.6106 -0.8034 -0.1697
   77MPD2    C2 1197   3.928   3.588  11.488 -0.4992  0.3744 -0.2756
   77MPD2    C3 1198   4.002   3.480  11.522  0.0210  0.1736  0.1578
   77MPD2    C4 1199   4.138   3.498  11.516 -0.2016  0.1070  0.1348
   77MPD2    C5 1200   4.188   3.618  11.477 -0.3993  0.7121  0.0291
   77MPD2     H 1201   3.820   3.583  11.492 -0.4250 -0.2739  1.0870
   77MPD2    H1 1202   4.213   3.424  11.542  0.2344  0.2392 -0.7519
   77MPD2    H2 1203   4.162   3.811  11.404 -0.5504  0.3198 -0.3884
   77MPD2    H3 1204   4.296   3.632  11.471 -0.3040 -0.0080  0.0886
   77MPD2     N 1205   3.946   3.369  11.582  0.1272  0.3825  0.0154
   77MPD2    H5 1206   4.014   3.300  11.613 -0.6963 -0.8355 -0.8647
   77MPD2    N1 1207   3.880   3.811  11.426 -0.5419  0.1436 -0.4968
   77MPD2    H7 1208   3.783   3.789  11.449 -0.6780  0.2543 -0.9675
   78TMC2    C1 1209   4.340   4.289   1.408  0.1911 -0.1420 -0.2411
   78TMC2    C2 1210   4.274   4.364   1.318  0.2172  0.3716 -0.3026
   78TMC2    C3 1211   4.340   4.459   1.251  0.0488  0.0947 -0.9791
   78TMC2    C4 1212   4.467   4.320   1.448 -0.4925 -0.3905  0.4305
   78TMC2    C5 1213   4.531   4.418   1.367 -0.0359  0.0333 -0.2012
   78TMC2    C6 1214   4.473   4.478   1.261  0.1044  0.2702  0.7064
   78TMC2     C 1215   4.286   4.161   1.458 -0.3409  0.4376 -0.0545
   78TMC2     O 1216   4.348   4.092   1.533  0.2199  0.6402 -0.6799
   78TMC2     H 1217   4.178   4.338   1.275 -0.9981  2.1742  1.3137
   78TMC2    H1 1218   4.532   4.248   1.497 -0.0462 -1.5031 -1.7621
   78TMC2    H2 1219   4.520   4.557   1.204  0.2094 -1.6145 -1.7885
   78TMC2    C7 1220   4.667   4.449   1.398 -0.1512 -0.3717  0.1108
   78TMC2    C8 1221   4.274   4.491   1.129  0.7389  0.0803 -0.4608
   78TMC2    O1 1222   4.735   4.493   1.302  0.2657  0.5010 -0.3750
   78TMC2    O2 1223   4.161   4.523   1.121  0.3231  0.1039  0.1203
   78TMC2    O5 1224   4.359   4.465   1.027  0.0400 -0.0067  0.6011
   78TMC2    H5 1225   4.436   4.410   1.052 -0.0408 -0.4102 -0.0344
   79MPD1     C 1226   3.901   3.831   1.517 -0.3808  0.0895  1.0809
   79MPD1    C1 1227   4.035   3.817   1.558  0.0041  0.0118 -0.2198
   79MPD1    C2 1228   4.125   3.910   1.510 -0.2938  0.2668 -0.6746
   79MPD1    C3 1229   4.082   4.020   1.436  0.2111  0.0584  0.4962
   79MPD1    C4 1230   3.947   4.027   1.402  0.8906 -0.0980 -0.1423
   79MPD1    C5 1231   3.853   3.933   1.445 -0.1181  0.1767 -0.4322
   79MPD1     H 1232   4.232   3.906   1.527 -0.1163  0.4484 -1.7618
   79MPD1    H1 1233   3.917   4.116   1.347  0.1814  0.8811  1.8440
   79MPD1    H2 1234   3.838   3.745   1.535 -2.5050  1.4547  0.0432
   79MPD1    H3 1235   3.749   3.940   1.415  0.1680 -0.5767 -1.6278
   79MPD1     N 1236   4.160   4.131   1.404  0.1488 -0.7371 -0.6967
   79MPD1    H5 1237   4.106   4.212   1.377  0.9174 -0.7246 -2.1679
   79MPD1    N1 1238   4.077   3.698   1.617  0.0861 -0.1376  0.1195
   79MPD1    H6 1239   4.010   3.658   1.683  0.4537  0.9339  1.1271
   79MPD1    H7 1240   4.163   3.712   1.669 -0.0655 -0.1001  0.3626
   80TMC2    C1 1241   3.175   3.496  12.123 -0.9766  0.0960 -0.4961
   80TMC2    C2 1242   3.298   3.482  12.059  0.0320 -0.3944 -0.0711
   80TMC2    C3 1243   3.299   3.424  11.940 -0.0442  1.3143  0.0012
   80TMC2    C4 1244   3.059   3.427  12.087  0.4622 -0.0067 -0.2974
   80TMC2    C5 1245   3.075   3.339  11.989 -0.0320  0.1709  0.0637
   80TMC2    C6 1246   3.192   3.338  11.921  0.2174 -0.4209  0.0921
   80TMC2     C 1247   3.184   3.554  12.259  0.4482  0.3908 -0.2766
   80TMC2     O 1248   3.301   3.575  12.294  0.1348  0.4311 -0.0448
   80TMC2     H 1249   3.373   3.557  12.081 -4.8075  4.0994  1.3212
   80TMC2    H1 1250   2.964   3.434  12.138  0.4150  0.4054 -0.4382
   80TMC2    H2 1251   3.203   3.265  11.841 -1.3237 -1.2371  0.6394
   80TMC2    C7 1252   2.973   3.242  11.956  0.2770 -0.5781  0.0171
   80TMC2    C8 1253   3.422   3.360  11.902  0.0402 -0.3336 -0.1156
   80TMC2    O1 1254   2.981   3.204  11.842  0.1237 -0.1842 -0.1134
   80TMC2    O2 1255   3.451   3.305  11.797  0.1729  0.5517  0.1764
   80TMC2    O5 1256   3.481   3.328  12.015 -0.1757  0.1635 -0.5051
   80TMC2    H5 1257   3.444   3.374  12.093  1.6040 -3.0101  2.2011
   81MPD2     C 1258   3.141   3.690  12.514  0.2802  0.3708 -0.3851
   81MPD2    C1 1259   3.040   3.645  12.435  0.0705  0.2163 -0.1884
   81MPD2    C2 1260   2.906   3.663  12.469  0.0096  0.1189  0.2497
   81MPD2    C3 1261   2.880   3.723  12.593  0.0702 -0.4072  0.1324
   81MPD2    C4 1262   2.980   3.756  12.677 -0.8004  0.0218  0.2074
   81MPD2    C5 1263   3.111   3.738  12.641  1.1374  0.0773 -0.2677
   81MPD2     H 1264   2.825   3.615  12.415 -0.2826  0.1452  0.6649
   81MPD2    H1 1265   2.954   3.815  12.765  0.2155  1.3371 -0.3888
   81MPD2    H2 1266   3.243   3.674  12.483  0.0382 -0.3020 -0.8351
   81MPD2    H3 1267   3.190   3.765  12.709  0.5143  1.1212  0.0364
   81MPD2     N 1268   2.746   3.749  12.636 -0.6111 -0.0873  0.5139
   81MPD2    H5 1269   2.725   3.778  12.731 -2.8654 -1.6183  0.4788
   81MPD2    N1 1270   3.065   3.589  12.310  0.1897  0.4910  0.0547
   81MPD2    H7 1271   2.978   3.578  12.258  1.4282 -4.5649 -0.9221
   82TMC2    C1 1272   0.786   3.288  10.944  0.5651  0.0218  0.7489
   82TMC2    C2 1273   0.843   3.374  11.030 -0.6681  0.4803  0.4287
   82TMC2    C3 1274   0.922   3.315  11.125  0.6973  0.7429 -0.0017
   82TMC2    C4 1275   0.815   3.155  10.930 -0.0090 -0.0586  0.4537
   82TMC2    C5 1276   0.896   3.107  11.029 -0.5523 -0.4931  0.3305
   82TMC2    C6 1277   0.948   3.180  11.128 -0.3285  0.1681  0.5934
   82TMC2     C 1278   0.688   3.354  10.859 -0.2557  0.8678 -0.2435
   82TMC2     O 1279   0.702   3.475  10.849 -0.3440  0.1117  0.3061
   82TMC2     H 1280   0.809   3.477  11.033  2.1651  1.4274  0.6964
   82TMC2    H1 1281   0.779   3.088  10.853  0.1457  1.0361 -0.5674
   82TMC2    H2 1282   1.011   3.134  11.203  1.2818 -0.4673 -1.1423
   82TMC2    C7 1283   0.910   2.958  11.059 -0.5375  0.3594  0.6986
   82TMC2    C8 1284   0.949   3.404  11.233  0.0860 -1.1197 -0.0861
   82TMC2    O1 1285   0.988   2.926  11.147  0.0833 -0.5501 -0.0334
   82TMC2    O2 1286   0.861   3.436  11.313 -0.0535  0.0785 -0.3573
   82TMC2    O5 1287   1.051   3.483  11.191 -0.1394  0.4153  0.0849
   82TMC2    H5 1288   1.105   3.438  11.123 -0.7629 -0.6831  0.3239
   83MPD2     C 1289   0.350   3.421  10.493  0.0243  0.8468  0.2175
   83MPD2    C1 1290   0.455   3.500  10.524  0.3995  0.5517 -0.5011
   83MPD2    C2 1291   0.543   3.452  10.609  0.0234  0.1298 -0.0526
   83MPD2    C3 1292   0.530   3.326  10.668 -0.2723  0.5907  0.0878
   83MPD2    C4 1293   0.427   3.247  10.622 -0.2021 -0.2380 -0.1073
   83MPD2    C5 1294   0.337   3.295  10.531  0.5572  0.6560  0.0158
   83MPD2     H 1295   0.611   3.526  10.649  2.5545 -2.2412 -0.0120
   83MPD2    H1 1296   0.412   3.145  10.656 -3.3910  0.1470 -0.3520
   83MPD2    H2 1297   0.275   3.464  10.426 -0.8034 -0.6130  0.2179
   83MPD2    H3 1298   0.256   3.229  10.502 -0.9174  1.5091  2.1644
   83MPD2     N 1299   0.607   3.278  10.779 -0.3072  0.0916  0.1829
   83MPD2    H5 1300   0.600   3.181  10.809  1.4061  0.0341  0.3830
   83MPD2    N1 1301   0.432   3.631  10.486  0.2071  0.0344 -0.2893
   83MPD2    H7 1302   0.356   3.651  10.422 -1.0357  0.6043  1.3555
   84TMC2    C1 1303   2.064   1.869  11.371 -0.5169  0.6869  0.4137
   84TMC2    C2 1304   2.028   1.736  11.354  0.0395 -0.0546 -0.2998
   84TMC2    C3 1305   1.956   1.698  11.241  0.3077 -0.6742  0.5641
   84TMC2    C4 1306   2.048   1.950  11.264 -0.5156  0.0971 -0.0849
   84TMC2    C5 1307   1.999   1.910  11.145  0.4008 -0.7009 -0.1285
   84TMC2    C6 1308   1.971   1.773  11.132  0.3698 -0.2765  0.0443
   84TMC2     C 1309   2.131   1.924  11.488  0.0527  0.4851 -0.1329
   84TMC2     O 1310   2.130   2.047  11.496  0.3738  0.1572  0.2689
   84TMC2     H 1311   2.042   1.664  11.434 -0.9898 -0.1178 -0.1813
   84TMC2    H1 1312   2.077   2.054  11.271  0.5193 -0.1993 -0.0111
   84TMC2    H2 1313   1.937   1.732  11.038 -2.3095 -1.0915  1.3865
   84TMC2    C7 1314   2.004   1.994  11.032  0.1246  0.3329  0.1325
   84TMC2    C8 1315   1.948   1.555  11.219 -1.2056  0.5799 -0.1383
   84TMC2    O1 1316   2.005   1.933  10.927 -0.3191 -0.1101  0.6888
   84TMC2    O2 1317   2.006   1.475  11.294 -0.3129  0.3065  0.1049
   84TMC2    O5 1318   1.831   1.523  11.160  0.3205 -0.2670  0.0182
   84TMC2    H5 1319   1.799   1.585  11.091 -0.2299 -0.9247 -0.3123
   85TMC2    C1 1320   2.728   0.877  16.240  0.1093 -0.3387 -0.1317
   85TMC2    C2 1321   2.605   0.908  16.184 -0.1200  0.5669 -0.6439
   85TMC2    C3 1322   2.611   1.020  16.104 -0.1408 -0.6677  0.0144
   85TMC2    C4 1323   2.840   0.944  16.221  0.0143 -0.7145  0.0189
   85TMC2    C5 1324   2.843   1.056  16.139 -1.8107  0.1073  0.0863
   85TMC2    C6 1325   2.726   1.094  16.077 -0.0327  0.1036 -0.0502
   85TMC2     C 1326   2.737   0.768  16.340  0.4496 -0.1703  0.3557
   85TMC2     O 1327   2.829   0.786  16.418  0.1011  0.1755  0.1649
   85TMC2     H 1328   2.510   0.857  16.200  0.5544 -0.0670  1.2840
   85TMC2    H1 1329   2.931   0.897  16.258 -1.3417 -1.5199  2.3066
   85TMC2    H2 1330   2.722   1.187  16.021 -0.5837  0.8144  1.1714
   85TMC2    C7 1331   2.969   1.080  16.064 -0.6733 -0.8542 -0.3139
   85TMC2    C8 1332   2.490   1.102  16.107 -0.5862  0.6731 -1.0837
   85TMC2    O1 1333   3.069   1.039  16.116 -0.8366  0.0520  0.8380
   85TMC2    O2 1334   2.437   1.163  16.014  0.0872  0.1256 -0.1463
   85TMC2    O5 1335   2.441   1.095  16.236  0.6233 -0.0277 -0.2068
   85TMC2    H5 1336   2.519   1.076  16.294  0.8350  0.8223 -0.2085
   86MPD2     C 1337   2.639   0.307  16.547  0.4078  0.0802  0.4168
   86MPD2    C1 1338   2.563   0.319  16.431  0.2313  0.2703 -0.5085
   86MPD2    C2 1339   2.575   0.430  16.358 -0.0497 -0.1487 -0.2946
   86MPD2    C3 1340   2.661   0.534  16.391 -0.3519 -0.2930 -0.0084
   86MPD2    C4 1341   2.744   0.511  16.496 -0.9789  0.4444  0.2662
   86MPD2    C5 1342   2.732   0.402  16.572  0.1387  0.0730 -0.2304
   86MPD2     H 1343   2.511   0.436  16.270 -2.6681 -2.0003  1.4831
   86MPD2    H1 1344   2.821   0.577  16.533 -2.5903  2.1998  0.4900
   86MPD2    H2 1345   2.640   0.221  16.612 -0.0506 -0.6680 -0.5756
   86MPD2    H3 1346   2.803   0.386  16.652 -1.3221 -3.9295  0.2855
   86MPD2     N 1347   2.652   0.659  16.322 -0.8534  0.2982 -0.0474
   86MPD2    H5 1348   2.598   0.670  16.236  0.2395  1.6742 -0.5709
   86MPD2    N1 1349   2.483   0.212  16.392  0.0017 -0.0077 -0.6744
   86MPD2    H7 1350   2.435   0.212  16.303  1.2464  0.8347 -1.3440
   87TMC2    C1 1351   0.682   3.447   1.120  0.2070 -0.4391 -0.1029
   87TMC2    C2 1352   0.806   3.513   1.116  0.6465 -0.9284  0.1041
   87TMC2    C3 1353   0.835   3.602   1.213  0.0852  0.8286 -0.3012
   87TMC2    C4 1354   0.586   3.482   1.216 -0.3200 -0.0125 -0.0893
   87TMC2    C5 1355   0.620   3.575   1.315 -0.1906  0.4212  0.2075
   87TMC2    C6 1356   0.744   3.635   1.310  0.2638  0.1759  0.0582
   87TMC2     C 1357   0.650   3.367   1.003 -0.0449 -0.2872 -0.4385
   87TMC2     O 1358   0.731   3.367   0.912 -0.1420 -0.0439  0.4634
   87TMC2     H 1359   0.881   3.479   1.045  0.1285 -2.1510  0.1312
   87TMC2    H1 1360   0.493   3.427   1.210 -0.3710  0.1167 -0.4902
   87TMC2    H2 1361   0.781   3.708   1.381  1.4075  0.1414 -0.4919
   87TMC2    C7 1362   0.522   3.653   1.385 -0.5741  0.0135  0.1105
   87TMC2    C8 1363   0.976   3.637   1.246 -0.1018 -0.1934  0.6047
   87TMC2    O1 1364   0.540   3.776   1.382  0.4456  0.3773 -0.1227
   87TMC2    O2 1365   1.014   3.689   1.347 -0.3092 -0.6646  0.6394
   87TMC2    O5 1366   1.037   3.649   1.124  0.4666  0.3127  0.0954
   87TMC2    H5 1367   0.976   3.650   1.046  2.1019  0.8754 -1.1706
   88MPD2     C 1368   0.187   3.551   1.518 -0.3312  1.2521 -0.2420
   88MPD2    C1 1369   0.290   3.636   1.475  0.2611 -0.7345  0.0307
   88MPD2    C2 1370   0.266   3.769   1.462 -0.5588 -0.0507  0.8049
   88MPD2    C3 1371   0.136   3.820   1.471  0.1508  0.5066  0.2337
   88MPD2    C4 1372   0.040   3.738   1.523  0.0869  1.4532 -0.1199
   88MPD2    C5 1373   0.065   3.609   1.547 -0.1219 -0.2076  0.3183
   88MPD2     H 1374   0.349   3.837   1.447 -3.0044  2.2825 -2.3244
   88MPD2    H1 1375   4.678   3.780   1.533 -1.1741 -1.5263 -0.1217
   88MPD2    H2 1376   0.197   3.444   1.533  1.8195  1.5026  0.0987
   88MPD2    H3 1377   4.715   3.549   1.571  0.5160 -2.0187 -1.8646
   88MPD2     N 1378   0.092   3.943   1.428  0.4171 -0.3789 -0.2499
   88MPD2    H5 1379   4.729   3.957   1.421  0.4849  0.9456  1.4674
   88MPD2    N1 1380   0.414   3.577   1.441 -0.9196  0.0854  0.2993
   88MPD2    H7 1381   0.412   3.476   1.443 -4.1226  0.1565  1.3735
   89TMC2    C1 1382   1.375   1.066   1.730 -0.7364 -0.2859 -0.2678
   89TMC2    C2 1383   1.481   1.126   1.793  0.0186  0.7762  0.3925
   89TMC2    C3 1384   1.529   1.241   1.742  0.9059 -0.0627  0.4380
   89TMC2    C4 1385   1.297   1.125   1.631 -0.0064  0.5694  0.4373
   89TMC2    C5 1386   1.342   1.250   1.598 -0.8545 -0.3576  0.3251
   89TMC2    C6 1387   1.458   1.308   1.649  0.0412  0.2382  0.0714
   89TMC2     C 1388   1.309   0.953   1.798  0.1864 -0.1242 -0.1084
   89TMC2     O 1389   1.348   0.934   1.914 -0.1011  0.5765 -0.8542
   89TMC2     H 1390   1.532   1.081   1.877  0.3814  1.3836  0.4945
   89TMC2    H1 1391   1.197   1.088   1.615 -0.0543 -0.3448  2.8302
   89TMC2    H2 1392   1.483   1.411   1.627 -1.4289  0.2073 -1.7792
   89TMC2    C7 1393   1.241   1.340   1.549 -0.0129 -0.0101  0.2093
   89TMC2    C8 1394   1.638   1.315   1.818  0.4420 -0.0835 -0.5111
   89TMC2    O1 1395   1.126   1.301   1.548 -0.2381 -0.2608 -0.0218
   89TMC2    O2 1396   1.655   1.436   1.822 -0.2046  0.5979  0.1964
   89TMC2    O5 1397   1.740   1.233   1.838  0.1180  0.2213 -0.6915
   89TMC2    H5 1398   1.728   1.140   1.809  2.0229  0.1770 -1.3281
   90MPD2     C 1399   1.150   0.463   1.756  0.2786  0.0661 -0.7950
   90MPD2    C1 1400   1.161   0.522   1.631  0.2037 -0.3588 -0.8262
   90MPD2    C2 1401   1.203   0.655   1.622 -0.1156 -0.2433  0.4248
   90MPD2    C3 1402   1.233   0.725   1.733  0.0574 -0.3230  0.6294
   90MPD2    C4 1403   1.214   0.673   1.859  0.0176 -0.3701 -0.1099
   90MPD2    C5 1404   1.170   0.539   1.870 -0.2151 -0.1330 -0.0477
   90MPD2     H 1405   1.219   0.697   1.524 -0.3952  1.2524  1.0227
   90MPD2    H1 1406   1.235   0.739   1.942  0.1008 -1.4968  0.7648
   90MPD2    H2 1407   1.122   0.361   1.780  0.3072 -0.0611 -1.3072
   90MPD2    H3 1408   1.161   0.497   1.969 -0.9270 -3.6566 -1.6024
   90MPD2     N 1409   1.274   0.859   1.708 -0.5817 -0.2221  0.0063
   90MPD2    H5 1410   1.292   0.880   1.610  0.7103 -0.1936  0.2378
   90MPD2    N1 1411   1.132   0.457   1.513  0.4706 -0.3194 -0.2522
   90MPD2    H7 1412   1.146   0.507   1.426 -0.0508  2.0989  1.0618
   91TMC2    C1 1413   2.336   1.456  16.083 -0.0706  0.5624  0.0015
   91TMC2    C2 1414   2.360   1.460  16.220  0.0328 -0.0479  0.1958
   91TMC2    C3 1415   2.256   1.410  16.297  0.0230 -0.3813  0.4940
   91TMC2    C4 1416   2.236   1.383  16.030 -0.5126 -0.7019  0.2924
   91TMC2    C5 1417   2.138   1.340  16.108  0.2508  0.0639 -0.0270
   91TMC2    C6 1418   2.145   1.348  16.244  0.0054 -0.0123 -0.2337
   91TMC2     C 1419   2.418   1.534  15.996  0.2324 -0.2315  0.1695
   91TMC2     O 1420   2.365   1.586  15.901 -0.0287  0.3477 -0.4262
   91TMC2     H 1421   2.434   1.530  16.258 -1.3970  1.6345 -0.1105
   91TMC2    H1 1422   2.224   1.376  15.923 -0.8121 -3.2876  0.4795
   91TMC2    H2 1423   2.064   1.307  16.303 -1.0181  0.7455 -1.1008
   91TMC2    C7 1424   2.066   1.224  16.061 -0.6094 -0.0289 -0.4260
   91TMC2    C8 1425   2.280   1.366  16.433  0.1547  0.7508 -0.6465
   91TMC2    O1 1426   1.952   1.202  16.100 -0.2004 -0.1245  0.4742
   91TMC2    O2 1427   2.189   1.303  16.491 -0.1003  0.3350 -0.1890
   91TMC2    O5 1428   2.371   1.447  16.492 -0.4113 -0.1114 -0.1317
   91TMC2    H5 1429   2.436   1.493  16.434  0.1412 -1.5833 -0.6930
   92MPD2     C 1430   2.637   1.613  15.817  0.3263  0.3582  0.6621
   92MPD2    C1 1431   2.657   1.537  15.929  0.7591  0.2441 -0.2490
   92MPD2    C2 1432   2.783   1.488  15.951 -0.9497 -0.7904  0.1565
   92MPD2    C3 1433   2.894   1.514  15.867  0.5128 -0.7148 -0.0952
   92MPD2    C4 1434   2.865   1.594  15.759 -0.8988 -0.0947  0.1152
   92MPD2    C5 1435   2.742   1.647  15.733 -1.1141  0.3462 -0.4103
   92MPD2     H 1436   2.801   1.432  16.042  1.2626  1.9817  1.4471
   92MPD2    H1 1437   2.938   1.618  15.684 -1.0721 -2.3121 -0.7672
   92MPD2    H2 1438   2.558   1.686  15.806  0.7297  0.4987 -1.2327
   92MPD2    H3 1439   2.739   1.725  15.658  0.0222  0.5230 -0.2791
   92MPD2     N 1440   3.018   1.461  15.903  0.3234 -0.0539  0.0686
   92MPD2    H5 1441   3.029   1.413  15.991 -3.1030  1.9753  1.5989
   92MPD2    N1 1442   2.551   1.505  16.019  0.1930 -0.5501  0.3312
   92MPD2    H7 1443   2.582   1.444  16.093 -1.2181  1.2228  2.3654
   93TMC2    C1 1444   0.083   1.591  14.060  0.2180  0.5396 -0.6388
   93TMC2    C2 1445   0.030   1.612  14.188  0.2399  0.3542 -0.0015
   93TMC2    C3 1446   0.076   1.722  14.260 -0.0660 -0.4276 -0.4006
   93TMC2    C4 1447   0.182   1.665  14.015 -0.0189  0.6912  0.1717
   93TMC2    C5 1448   0.221   1.770  14.090 -0.2078  0.8574 -0.1151
   93TMC2    C6 1449   0.177   1.805  14.211  0.5526  1.3154 -0.1044
   93TMC2     C 1450   0.044   1.471  13.984 -0.8220  0.6198 -0.2615
   93TMC2     O 1451   0.117   1.422  13.898 -0.3119 -0.6115  0.8298
   93TMC2     H 1452   4.693   1.547  14.232 -0.0656  2.0355  1.9661
   93TMC2    H1 1453   0.216   1.642  13.915  1.6278 -0.2425  0.9523
   93TMC2    H2 1454   0.228   1.875  14.277  0.9991  1.5110 -0.6609
   93TMC2    C7 1455   0.353   1.827  14.065 -0.0768  0.2699  0.4423
   93TMC2    C8 1456   0.007   1.744  14.380 -0.7467 -0.2206 -0.7413
   93TMC2    O1 1457   0.422   1.842  14.163 -0.4263 -0.0837  0.0667
   93TMC2    O2 1458   4.734   1.656  14.466 -0.2020  0.4466 -0.6405
   93TMC2    O5 1459   4.724   1.876  14.396  0.4841 -0.3373 -0.1684
   93TMC2    H5 1460   4.735   1.916  14.307  1.6526  0.1036  0.1764
   94MPD2     C 1461   4.631   1.221  13.916  0.0014 -0.5222  0.5353
   94MPD2    C1 1462   4.581   1.334  13.971 -0.4755  0.5399 -0.2048
   94MPD2    C2 1463   4.439   1.349  13.979  0.5992 -0.5041  0.0014
   94MPD2    C3 1464   4.355   1.251  13.931 -0.2002  0.4459 -0.0515
   94MPD2    C4 1465   4.406   1.145  13.861  0.0605  0.9035 -0.8878
   94MPD2    C5 1466   4.543   1.135  13.864  0.6464 -0.2766  0.2893
   94MPD2     H 1467   4.406   1.442  14.023 -0.3253 -1.0136  0.3682
   94MPD2    H1 1468   4.352   1.066  13.811  2.4625 -0.7566 -0.8350
   94MPD2    H2 1469   4.737   1.199  13.921  0.1089  0.4134  2.1497
   94MPD2    H3 1470   4.586   1.038  13.841  0.4026 -0.5105  0.8169
   94MPD2     N 1471   4.214   1.269  13.943  0.1090 -0.7623 -0.0208
   94MPD2    H5 1472   4.165   1.186  13.909 -0.4566 -0.3439 -0.2367
   94MPD2    N1 1473   4.658   1.434  14.021 -0.1671  0.1577 -0.9370
   94MPD2    H7 1474   4.595   1.501  14.063  1.4873  0.6007  0.8504
   95TMC2    C1 1475   4.070   2.926  16.116 -0.1307 -0.7208  0.9839
   95TMC2    C2 1476   4.139   2.896  16.231 -0.6375  0.8310 -0.8780
   95TMC2    C3 1477   4.069   2.889  16.348 -0.4017 -0.2376 -0.4374
   95TMC2    C4 1478   3.933   2.953  16.124 -0.1262 -0.1155 -0.4732
   95TMC2    C5 1479   3.869   2.945  16.247 -0.0369 -0.0128 -0.0869
   95TMC2    C6 1480   3.934   2.914  16.363  0.1824  0.6196  0.1855
   95TMC2     C 1481   4.152   2.964  15.996  0.1787 -0.6421 -0.2596
   95TMC2     O 1482   4.262   3.008  16.022  0.0602 -0.0378  0.1194
   95TMC2     H 1483   4.246   2.884  16.227 -0.8240 -0.7462 -1.2723
   95TMC2    H1 1484   3.886   2.989  16.034 -3.6413  0.7653  1.7158
   95TMC2    H2 1485   3.889   2.900  16.460  1.4564  0.3528  0.7410
   95TMC2    C7 1486   3.732   2.954  16.258  0.5519 -0.7917 -0.0749
   95TMC2    C8 1487   4.149   2.874  16.469 -0.2918  0.1999  0.2507
   95TMC2    O1 1488   3.666   2.962  16.156  0.2316 -0.8411  0.1289
   95TMC2    O2 1489   4.148   2.774  16.541  0.5459 -0.3141  0.0899
   95TMC2    O5 1490   4.204   2.996  16.504  0.1143 -0.2377 -0.5152
   95TMC2    H5 1491   4.166   3.065  16.446  1.5415  0.8733 -0.1378
   96MPD2     C 1492   4.293   2.969  15.508 -0.4160  0.0836 -0.5342
   96MPD2    C1 1493   4.361   3.010  15.621 -0.0216 -0.5470  0.3884
   96MPD2    C2 1494   4.289   3.009  15.738 -0.8524 -0.6669 -0.4546
   96MPD2    C3 1495   4.164   2.955  15.749  0.2220 -0.2901 -0.1611
   96MPD2    C4 1496   4.093   2.922  15.633  0.3754  0.4397  0.4348
   96MPD2    C5 1497   4.161   2.936  15.514 -0.3320 -0.7392 -0.5094
   96MPD2     H 1498   4.350   3.032  15.825 -1.1133  3.5872 -1.4091
   96MPD2    H1 1499   3.991   2.887  15.640  0.3230  1.3134  3.8386
   96MPD2    H2 1500   4.350   2.967  15.416  1.7010 -1.4955  0.7986
   96MPD2    H3 1501   4.103   2.907  15.427 -0.7594  0.7987 -0.7473
   96MPD2     N 1502   4.099   2.932  15.873  0.1578 -0.2545 -0.3370
   96MPD2    H5 1503   4.014   2.876  15.866  0.6678 -1.1911  0.9821
   96MPD2    N1 1504   4.494   3.048  15.606 -0.3212 -0.9819 -0.5628
   96MPD2    H7 1505   4.530   3.039  15.511  0.3222  4.1907 -0.8168
   97TMC2    C1 1506   2.308   0.875  17.431  0.6686  0.2901 -0.4053
   97TMC2    C2 1507   2.261   0.875  17.300 -0.4376 -0.1769  0.9090
   97TMC2    C3 1508   2.266   0.990  17.224 -0.9524  0.0160 -0.6645
   97TMC2    C4 1509   2.365   0.991  17.479  0.3665 -0.5222 -0.7253
   97TMC2    C5 1510   2.361   1.106  17.402 -0.8830 -0.2054  0.0692
   97TMC2    C6 1511   2.305   1.114  17.271  0.2031  0.3252 -0.0960
   97TMC2     C 1512   2.256   0.782  17.537  0.2467  0.2250 -0.2700
   97TMC2     O 1513   2.272   0.813  17.655 -0.4700 -0.0458  0.1669
   97TMC2     H 1514   2.203   0.791  17.263 -0.4711  1.2296 -2.2975
   97TMC2    H1 1515   2.390   0.991  17.585 -2.9412 -1.0851  0.0719
   97TMC2    H2 1516   2.317   1.202  17.210 -1.2166  0.7220  0.1937
   97TMC2    C7 1517   2.392   1.232  17.470 -0.3932  0.2721 -0.6095
   97TMC2    C8 1518   2.197   0.989  17.094  0.8020 -0.5556  0.0338
   97TMC2    O1 1519   2.478   1.216  17.557 -0.0687  0.4833  0.5262
   97TMC2    O2 1520   2.130   1.083  17.048 -0.1919 -0.3906 -0.1821
   97TMC2    O5 1521   2.257   0.893  17.021  0.1217 -0.4737 -0.3921
   97TMC2    H5 1522   2.328   0.850  17.074  0.5664  0.0236 -0.5764
   98MPD2     C 1523   1.915   0.433  17.676 -0.7451  0.4118 -0.2864
   98MPD2    C1 1524   1.979   0.530   0.004 -0.3799  0.9449 -0.4794
   98MPD2    C2 1525   2.078   0.602  17.690 -0.3439  0.0456  0.3177
   98MPD2    C3 1526   2.100   0.584  17.552  0.3319 -0.0372 -0.1233
   98MPD2    C4 1527   2.041   0.486  17.482  0.2090 -1.1146  0.2225
   98MPD2    C5 1528   1.951   0.405  17.548 -0.1026  0.1237 -0.0486
   98MPD2     H 1529   2.122   0.687  17.739 -0.1207 -1.8292  3.3298
   98MPD2    H1 1530   2.062   0.465  17.378 -0.8153  2.9371 -0.7954
   98MPD2    H2 1531   1.853   0.368  17.737  0.7116  1.1387  1.9629
   98MPD2    H3 1532   1.916   0.314  17.502  1.3664 -0.0397 -0.8517
   98MPD2     N 1533   2.197   0.669  17.488  0.2518  0.2894 -0.4618
   98MPD2    H5 1534   2.217   0.658  17.389  0.3679  0.0062 -0.4086
   98MPD2    N1 1535   1.946   0.545   0.144 -0.5691  0.3507  0.0324
   98MPD2    H7 1536   1.874   0.480   0.174  1.2332 -1.2504  0.9147
   99TMC2    C1 1537   1.374   3.181   1.900  0.1550 -0.3550 -0.0575
   99TMC2    C2 1538   1.473   3.229   1.990 -0.6495 -0.3778 -0.2762
   99TMC2    C3 1539   1.435   3.341   2.063  0.1729 -0.0502  0.2517
   99TMC2    C4 1540   1.262   3.248   1.874  0.0530 -0.0036 -0.5156
   99TMC2    C5 1541   1.239   3.359   1.951  0.1453  0.6806  0.5885
   99TMC2    C6 1542   1.322   3.414   2.045  0.1161 -0.2132  0.1430
   99TMC2     C 1543   1.410   3.066   1.825 -0.2788 -0.2698  0.5746
   99TMC2     O 1544   1.529   3.033   1.820 -0.0969 -0.3461  0.4100
   99TMC2     H 1545   1.560   3.173   2.021 -0.0952 -0.0162 -1.1559
   99TMC2    H1 1546   1.203   3.233   1.784  2.3620  1.0207 -2.1948
   99TMC2    H2 1547   1.307   3.508   2.096  0.3194 -0.1078  0.0087
   99TMC2    C7 1548   1.106   3.428   1.943  0.6269  0.0891 -0.5279
   99TMC2    C8 1549   1.495   3.364   2.192 -0.0257 -0.0916  0.1258
   99TMC2    O1 1550   1.102   3.546   1.974  0.1146 -0.0913  0.2603
   99TMC2    O2 1551   1.615   3.364   2.204  0.6138  0.4021  0.2704
   99TMC2    O5 1552   1.418   3.286   2.269 -0.0397  0.3149  0.0368
   99TMC2    H5 1553   1.322   3.302   2.254 -0.5776 -1.5452  1.5068
  100MPD2     C 1554   1.427   2.826   1.636 -0.1993  0.1864  0.0347
  100MPD2    C1 1555   1.316   2.890   1.671  0.7110  0.8745 -0.5261
  100MPD2    C2 1556   1.203   2.862   1.592  0.1322  0.5348  0.6731
  100MPD2    C3 1557   1.200   2.781   1.485  0.1783  0.2378 -0.5071
  100MPD2    C4 1558   1.319   2.711   1.458 -0.3191 -0.5554 -0.5752
  100MPD2    C5 1559   1.430   2.736   1.538  0.2580  0.1154  0.4265
  100MPD2     H 1560   1.109   2.907   1.621 -0.0952 -0.0818  0.8780
  100MPD2    H1 1561   1.329   2.639   1.378  2.0604  0.4863 -1.2211
  100MPD2    H2 1562   1.517   2.835   1.696 -0.3164  0.2949  0.1954
  100MPD2    H3 1563   1.519   2.679   1.513  0.1047 -0.5493  1.3755
  100MPD2     N 1564   1.079   2.768   1.412  0.0453  0.3647  0.0489
  100MPD2    H5 1565   1.008   2.837   1.436 -0.7680 -0.7522  0.8100
  100MPD2    N1 1566   1.303   2.991   1.773  0.6780 -0.1989  0.1999
  100MPD2    H7 1567   1.209   3.027   1.787 -0.2714 -2.2542 -0.8242
  101TMC2    C1 1568   1.147   4.537  12.774 -0.1959  0.0008  0.0025
  101TMC2    C2 1569   1.041   4.615  12.742 -0.2990 -0.0816 -0.2113
  101TMC2    C3 1570   1.049   4.683  12.623  0.1004 -0.5593  0.0148
  101TMC2    C4 1571   1.246   4.516  12.686  0.0294  0.3779 -0.4558
  101TMC2    C5 1572   1.247   4.576  12.565  0.1895  0.0671  0.2806
  101TMC2    C6 1573   1.147   4.667  12.532 -0.1897  1.0532 -0.9737
  101TMC2     C 1574   1.147   4.470  12.898  0.4293 -0.0003 -0.1545
  101TMC2     O 1575   1.040   4.459  12.959  0.2454  0.2232  0.5109
  101TMC2     H 1576   0.965   4.636  12.816  0.9876  1.0279  0.7726
  101TMC2    H1 1577   1.335   4.459  12.708 -0.6242  0.3579  2.1637
  101TMC2    H2 1578   1.152   4.724  12.440 -2.3048  1.7990 -0.6259
  101TMC2    C7 1579   1.355   4.550  12.475 -0.4516 -0.4510 -0.3333
  101TMC2    C8 1580   0.930   0.024  12.608  0.1856 -0.0955  0.1811
  101TMC2    O1 1581   1.443   4.475  12.515 -0.3635  0.0142 -0.2886
  101TMC2    O2 1582   0.834   4.720  12.666 -0.3987  0.7380  0.3700
  101TMC2    O5 1583   0.940   0.089  12.488 -0.1654 -0.1602  0.4487
  101TMC2    H5 1584   1.028   0.099  12.446  1.0378 -1.7822  2.6340
  102MPD2     C 1585   1.452   4.363  13.073 -0.7159 -0.2061  0.5768
  102MPD2    C1 1586   1.314   4.380  13.051 -0.7683 -0.3189 -0.3527
  102MPD2    C2 1587   1.227   4.302  13.129  0.6209  0.7781  0.4223
  102MPD2    C3 1588   1.274   4.210  13.227  0.1784 -0.2522  0.2757
  102MPD2    C4 1589   1.418   4.197  13.236 -0.6259 -0.1564 -0.1496
  102MPD2    C5 1590   1.506   4.278  13.168  0.0396  0.0105  0.5035
  102MPD2     H 1591   1.120   4.319  13.131  0.6336  0.7440  1.3550
  102MPD2    H1 1592   1.460   4.120  13.301  0.9897  0.6116 -0.2787
  102MPD2    H2 1593   1.522   4.437  13.036  1.6904 -1.8427  1.8063
  102MPD2    H3 1594   1.613   4.272  13.184  0.2432  0.6732 -0.5833
  102MPD2     N 1595   1.188   4.134  13.303  0.8242 -0.2524 -0.0725
  102MPD2    H5 1596   1.087   4.139  13.290  0.9816 -0.7423 -1.4284
  102MPD2    N1 1597   1.278   4.454  12.937 -0.2107 -0.2053  0.0143
  102MPD2    H7 1598   1.351   4.491  12.877 -1.8636 -0.9945 -2.5080
  103TMC2    C1 1599   4.352   3.599  12.448 -0.0401  0.3475  0.4435
  103TMC2    C2 1600   4.481   3.559  12.486  0.7690 -0.1163  0.4508
  103TMC2    C3 1601   4.551   3.621  12.587  0.0588 -0.0097  0.2292
  103TMC2    C4 1602   4.282   3.687  12.527 -0.4633 -0.2306  0.1100
  103TMC2    C5 1603   4.344   3.729  12.643  0.4182  0.3627 -0.3071
  103TMC2    C6 1604   4.474   3.707  12.669 -0.0299  1.0716  0.4187
  103TMC2     C 1605   4.272   3.525  12.356  0.3218  0.1928  0.0307
  103TMC2     O 1606   4.177   3.581  12.300 -0.3263  0.6219 -0.4648
  103TMC2     H 1607   4.531   3.493  12.416  1.7253 -0.3888  1.3924
  103TMC2    H1 1608   4.185   3.716  12.489  0.0857  0.1394 -0.9969
  103TMC2    H2 1609   4.517   3.749  12.759  2.3403  0.5847 -0.4786
  103TMC2    C7 1610   4.274   3.790  12.754  0.1768  0.1403  0.0219
  103TMC2    C8 1611   4.681   3.571  12.617  0.0014 -0.2865  0.1813
  103TMC2    O1 1612   4.342   3.842  12.850  0.5423 -0.2390  0.5797
  103TMC2    O2 1613   4.710   3.456  12.591  0.3180  0.2306  0.4362
  103TMC2    O5 1614   0.006   3.657  12.697 -0.0037 -0.5221  0.1718
  103TMC2    H5 1615   4.712   3.749  12.685 -0.7159 -0.5818  1.5064
  104MPD2     C 1616   4.339   3.167  12.285  1.0664 -0.3347 -0.2424
  104MPD2    C1 1617   4.276   3.292  12.266 -0.1336  0.7055  0.1636
  104MPD2    C2 1618   4.180   3.298  12.164  0.3372 -0.2198  0.2251
  104MPD2    C3 1619   4.137   3.183  12.098  0.0335 -0.4317  0.4088
  104MPD2    C4 1620   4.202   3.065  12.116 -0.2917 -0.3215 -0.6640
  104MPD2    C5 1621   4.304   3.060  12.201  0.1394 -0.2689  0.2116
  104MPD2     H 1622   4.130   3.392  12.145 -0.7955 -0.6463  1.0945
  104MPD2    H1 1623   4.185   2.976  12.057  1.2042 -0.8182 -0.3501
  104MPD2    H2 1624   4.420   3.161  12.358  0.8665  0.5883  0.0588
  104MPD2    H3 1625   4.352   2.964  12.212  2.1247  0.5436 -1.3276
  104MPD2     N 1626   4.022   3.193  12.015 -0.3269  0.7568 -0.2196
  104MPD2    H5 1627   4.002   3.281  11.967  0.2631  1.6148  1.1052
  104MPD2    N1 1628   4.324   3.402  12.349  0.0598 -0.0145 -0.0651
  104MPD2    H7 1629   4.388   3.380  12.425 -0.0724 -0.6759 -0.1437
  105TMC2    C1 1630   0.679   2.974   0.140  0.1830 -0.3515 -0.1516
  105TMC2    C2 1631   0.740   3.092   0.105 -0.3042 -0.2874  0.0383
  105TMC2    C3 1632   0.734   3.195   0.197  0.8507  0.2659  0.5247
  105TMC2    C4 1633   0.612   2.961   0.258  0.1046  0.2454 -0.2674
  105TMC2    C5 1634   0.598   3.066   0.339 -0.3222  0.3007  0.0921
  105TMC2    C6 1635   0.658   3.187   0.311 -0.0496 -0.4254 -1.0391
  105TMC2     C 1636   0.696   2.856   0.060 -0.0393 -0.3318  0.4550
  105TMC2     O 1637   0.616   2.769   0.086 -0.4145 -0.1372  0.7007
  105TMC2     H 1638   0.761   3.110  17.747 -0.0281  1.4124  0.3713
  105TMC2    H1 1639   0.562   2.866   0.273  1.5039 -0.1281  2.1338
  105TMC2    H2 1640   0.639   3.275   0.372  0.7359 -0.4716 -0.7317
  105TMC2    C7 1641   0.504   3.060   0.446  0.1541  0.4609 -0.7540
  105TMC2    C8 1642   0.777   3.329   0.156  0.3874 -1.1227  0.3577
  105TMC2    O1 1643   0.411   2.985   0.421  0.5927  0.1443 -0.9840
  105TMC2    O2 1644   0.722   3.438   0.177 -0.3351  0.3150 -0.3046
  105TMC2    O5 1645   0.863   3.309   0.057 -0.1599 -0.4533 -0.2013
  105TMC2    H5 1646   0.901   3.220   0.044  0.0321 -0.6561  1.7577
  106MPD2     C 1647   0.937   2.547  17.486  0.4091 -0.3005  0.4683
  106MPD2    C1 1648   0.989   2.675  17.482 -0.4825  0.1332  0.3186
  106MPD2    C2 1649   0.943   2.775  17.563  0.3112  1.1691  0.0453
  106MPD2    C3 1650   0.839   2.747  17.647 -0.1024  0.1466 -0.0412
  106MPD2    C4 1651   0.787   2.617  17.653 -0.1975 -0.4000  0.2409
  106MPD2    C5 1652   0.824   2.525  17.561  0.2361  0.4564 -0.0833
  106MPD2     H 1653   0.986   2.875  17.563 -0.0903  1.3403 -0.2197
  106MPD2    H1 1654   0.704   2.592  17.719 -0.1699  2.8224  1.5191
  106MPD2    H2 1655   0.977   2.473  17.417 -0.0316  0.2251 -0.3523
  106MPD2    H3 1656   0.771   2.430  17.568 -0.0221  0.6784  0.9946
  106MPD2     N 1657   0.804   2.848  17.734  0.0276  0.2861  0.1026
  106MPD2    H5 1658   0.862   2.931  17.726 -1.7304  1.5104  0.0882
  106MPD2    N1 1659   1.098   2.715  17.401  0.0167  0.3322 -0.3142
  106MPD2    H7 1660   1.132   2.806  17.431  1.3153  0.0290 -0.8964
  107TMC2    C1 1661   2.224   2.562  11.974  0.1290  0.8032  0.0271
  107TMC2    C2 1662   2.327   2.612  11.895  0.0334  0.5967 -0.1448
  107TMC2    C3 1663   2.431   2.528  11.873 -0.7030 -0.7022 -0.2301
  107TMC2    C4 1664   2.237   2.441  12.039 -0.2260  0.6237 -0.0290
  107TMC2    C5 1665   2.349   2.366  12.012  0.2358 -0.6271 -0.1704
  107TMC2    C6 1666   2.440   2.398  11.918 -0.3222 -0.8255 -0.0589
  107TMC2     C 1667   2.099   2.628  11.983 -0.2470  0.5294  0.4522
  107TMC2     O 1668   2.024   2.587  12.074 -0.2438  0.4791 -0.2741
  107TMC2     H 1669   2.326   2.721  11.888 -0.8051  0.4531 -2.1377
  107TMC2    H1 1670   2.152   2.400  12.092 -0.3250  0.9272  0.0427
  107TMC2    H2 1671   2.527   2.337  11.900  1.3747  1.5540  0.1361
  107TMC2    C7 1672   2.316   2.231  12.030 -0.1057  0.0930  0.1961
  107TMC2    C8 1673   2.545   2.578  11.808 -1.0190 -0.0191  0.2273
  107TMC2    O1 1674   2.332   2.189  12.142  0.1041 -0.3481  0.0311
  107TMC2    O2 1675   2.655   2.532  11.821 -0.4396 -0.3678 -0.0340
  107TMC2    O5 1676   2.514   2.687  11.728 -0.4905  0.1178 -0.1519
  107TMC2    H5 1677   2.421   2.719  11.727 -0.9240 -1.3256 -4.2745
  108MPD2     C 1678   1.985   2.910  11.768 -0.1839  0.1555  0.3115
  108MPD2    C1 1679   1.976   2.817  11.874  0.1917 -0.6427 -0.2677
  108MPD2    C2 1680   1.885   2.842  11.972 -0.4577 -0.3215  0.1223
  108MPD2    C3 1681   1.802   2.953  11.972 -0.8862  0.5360  0.4994
  108MPD2    C4 1682   1.807   3.038  11.872 -0.5787 -0.1656  0.6170
  108MPD2    C5 1683   1.898   3.015  11.767  0.6001  0.0624  0.3988
  108MPD2     H 1684   1.883   2.780  12.061  0.0367 -0.8620 -0.2438
  108MPD2    H1 1685   1.743   3.125  11.863 -0.3587 -0.1471 -0.8097
  108MPD2    H2 1686   2.054   2.902  11.685 -1.0730 -0.2891 -0.3789
  108MPD2    H3 1687   1.905   3.081  11.681 -0.9129 -0.3140 -0.0236
  108MPD2     N 1688   1.718   2.988  12.081 -0.5046 -0.9933 -0.0154
  108MPD2    H5 1689   1.660   3.070  12.070  2.3039  0.8645 -0.8417
  108MPD2    N1 1690   2.082   2.720  11.885 -0.3835  0.6198  0.2952
  108MPD2    H7 1691   2.148   2.722  11.809  0.5992  0.8002  1.1542
  109TMC2    C1 1692   0.998   4.668   0.371 -0.3054 -0.0062  0.6801
  109TMC2    C2 1693   1.016   4.569   0.280  0.4261  0.1185  0.5727
  109TMC2    C3 1694   1.142   4.557   0.222 -0.6349 -0.4185  0.5291
  109TMC2    C4 1695   1.104   4.728   0.439  0.3341 -0.3158  0.2952
  109TMC2    C5 1696   1.227   4.700   0.386 -0.0734  0.2984 -0.2608
  109TMC2    C6 1697   1.248   4.626   0.275  0.1358  0.2140  0.3221
  109TMC2     C 1698   0.859   4.696   0.407  0.0147  0.0877  0.1469
  109TMC2     O 1699   0.763   4.675   0.330  0.0868  1.0150  0.6187
  109TMC2     H 1700   0.932   4.524   0.229  2.2480 -1.3779 -1.1497
  109TMC2    H1 1701   1.093   0.082   0.497 -0.1867 -1.9947  2.8615
  109TMC2    H2 1702   1.349   4.608   0.240 -1.1649 -0.7358 -2.9242
  109TMC2    C7 1703   1.344   0.019   0.451  0.6109  0.5986 -0.2023
  109TMC2    C8 1704   1.165   4.447   0.126  0.2219 -0.1344  0.4423
  109TMC2    O1 1705   1.438   0.049   0.378  0.4743  0.1788  0.3067
  109TMC2    O2 1706   1.277   4.398   0.119 -0.3239 -0.4723 -0.0360
  109TMC2    O5 1707   1.081   4.482   0.019  0.4065  0.1248 -0.1327
  109TMC2    H5 1708   1.046   4.574   0.022 -0.0114 -0.0494  0.4136
  110MPD2     C 1709   0.520   0.006   0.796 -0.0197 -0.5946 -0.0347
  110MPD2    C1 1710   0.649   4.713   0.853  0.4120  0.1720 -0.1134
  110MPD2    C2 1711   0.759   4.699   0.763  0.4416  0.2389 -0.2561
  110MPD2    C3 1712   0.742   4.716   0.626  0.4876 -0.1431  0.1894
  110MPD2    C4 1713   0.617   0.016   0.575 -0.2513  0.1338 -0.4008
  110MPD2    C5 1714   0.510   0.036   0.663  0.5357 -0.0058  0.2209
  110MPD2     H 1715   0.858   4.661   0.788 -0.4527 -0.4608  2.1999
  110MPD2    H1 1716   0.601   0.047   0.473 -0.2229 -0.3074 -0.5376
  110MPD2    H2 1717   0.429   0.000   0.853 -0.1017 -0.9504 -0.1969
  110MPD2    H3 1718   0.412   0.058   0.623  0.6308 -0.4524 -0.2587
  110MPD2     N 1719   0.852   4.700   0.542 -1.1121 -0.0213  0.0394
  110MPD2    H5 1720   0.938   4.697   0.596 -2.0796 -0.2016  1.5666
  110MPD2    N1 1721   0.658   4.674   0.988  0.7070 -0.7757  0.4650
  110MPD2    H7 1722   0.575   4.687   1.044  0.9028  1.7753  0.1644
  111TMC2    C1 1723   2.192   4.406  11.178 -0.2065  0.5462  0.1742
  111TMC2    C2 1724   2.254   4.336  11.081  0.1997 -0.4197  0.4775
  111TMC2    C3 1725   2.352   4.238  11.118 -0.4191  0.7120  0.6580
  111TMC2    C4 1726   2.224   4.393  11.306 -0.1213  0.0604  0.4424
  111TMC2    C5 1727   2.318   4.301  11.335  0.2016 -0.3429 -0.4626
  111TMC2    C6 1728   2.390   4.229  11.242  0.1303 -1.1687  0.2604
  111TMC2     C 1729   2.060   4.446  11.139  0.0441  0.2392  0.7371
  111TMC2     O 1730   2.036   4.506  11.035 -0.1443 -0.1447  0.4588
  111TMC2     H 1731   2.228   4.355  10.977  0.9418 -0.0579  0.3574
  111TMC2    H1 1732   2.171   4.454  11.378 -1.8060  0.6957 -1.3543
  111TMC2    H2 1733   2.458   4.149  11.266  0.1657 -0.5935  2.1206
  111TMC2    C7 1734   2.325   4.264  11.474  0.4932 -0.6188 -0.6521
  111TMC2    C8 1735   2.424   4.150  11.018  0.1537 -0.0734  0.6271
  111TMC2    O1 1736   2.256   4.334  11.545 -0.3050 -0.4731 -0.2875
  111TMC2    O2 1737   2.546   4.137  11.027  0.0672 -0.2432 -0.1305
  111TMC2    O5 1738   2.350   4.150  10.905  0.2121  0.1197  0.1396
  111TMC2    H5 1739   2.253   4.145  10.919  0.2978 -0.4953  0.4936
  112MPD2     C 1740   1.589   4.503  11.310  0.4978  0.2105  0.4921
  112MPD2    C1 1741   1.670   4.592  11.248 -0.0240 -0.6855 -0.3398
  112MPD2    C2 1742   1.797   4.556  11.214 -0.7606 -0.0071 -0.1627
  112MPD2    C3 1743   1.844   4.436  11.253 -0.1267 -0.4754 -0.6744
  112MPD2    C4 1744   1.761   4.341  11.317 -0.1033  0.1652  0.2439
  112MPD2    C5 1745   1.627   4.376  11.333 -0.7057  1.0442 -0.3041
  112MPD2     H 1746   1.859   4.627  11.160 -1.0459 -1.4058 -2.3290
  112MPD2    H1 1747   1.794   4.239  11.334 -0.2311  0.0804 -0.0260
  112MPD2    H2 1748   1.490   4.524  11.348 -0.0429  1.6810 -1.7464
  112MPD2    H3 1749   1.558   4.314  11.389  1.4864 -0.4011  0.8216
  112MPD2     N 1750   1.970   4.389  11.226 -0.4877 -0.1038  0.0253
  112MPD2    H5 1751   1.992   4.303  11.275 -1.4357 -1.1860 -1.4331
  112MPD2    N1 1752   1.630   4.719  11.206  0.2435  0.4012 -0.0945
  112MPD2    H7 1753   1.692   0.043  11.154  0.5017 -2.3121 -2.9701
  113TMC2    C1 1754   4.131   2.790   0.997 -0.1416  0.1606  0.2257
  113TMC2    C2 1755   4.044   2.882   1.047 -0.2659  0.0003  0.5850
  113TMC2    C3 1756   3.921   2.848   1.100  0.7752 -0.5500 -0.6829
  113TMC2    C4 1757   4.082   2.663   0.995 -0.4458  0.3352  0.3258
  113TMC2    C5 1758   3.962   2.631   1.043 -0.7641 -0.1752 -0.5188
  113TMC2    C6 1759   3.881   2.722   1.106 -0.4763  0.0733  0.4787
  113TMC2     C 1760   4.270   2.818   0.996 -0.2843  0.4987  0.2876
  113TMC2     O 1761   4.292   2.926   1.042 -0.0102 -0.0881 -0.2814
  113TMC2     H 1762   4.073   2.986   1.045 -1.6715  0.3837  0.1052
  113TMC2    H1 1763   4.139   2.584   0.947  0.1447  1.3128 -0.6049
  113TMC2    H2 1764   3.789   2.694   1.155  0.4636 -2.8086  0.5985
  113TMC2    C7 1765   3.893   2.505   1.006  1.0516  0.5139  0.5319
  113TMC2    C8 1766   3.838   2.954   1.157  0.0709 -0.0298 -0.2730
  113TMC2    O1 1767   3.771   2.507   0.988 -0.3162  0.1222 -0.2351
  113TMC2    O2 1768   3.879   3.032   1.243  0.1240 -0.2031  0.5014
  113TMC2    O5 1769   3.709   2.922   1.143 -0.6386  0.0275  0.1519
  113TMC2    H5 1770   3.690   2.876   1.059  0.3215 -0.8803  0.4304
  114MPD2     C 1771   0.038   2.728   0.972 -0.3197 -0.9383 -0.5705
  114MPD2    C1 1772   4.698   2.808   1.048  0.1688 -0.0298 -0.5578
  114MPD2    C2 1773   4.559   2.808   1.038 -1.2971 -0.3122 -0.1057
  114MPD2    C3 1774   4.493   2.721   0.952 -0.8689  0.7117 -0.0098
  114MPD2    C4 1775   4.565   2.634   0.874 -0.1539 -0.0413  0.4233
  114MPD2    C5 1776   4.701   2.638   0.891  0.6244 -0.0447 -0.3471
  114MPD2     H 1777   4.499   2.874   1.100 -0.3720  0.3558  0.0737
  114MPD2    H1 1778   4.522   2.566   0.802  0.0155  0.7785 -0.4562
  114MPD2    H2 1779   0.146   2.720   0.968 -0.1118  2.1696 -1.0610
  114MPD2    H3 1780   0.021   2.565   0.835  0.7874  0.9657 -1.4810
  114MPD2     N 1781   4.352   2.721   0.942 -0.1153 -0.0460 -0.2350
  114MPD2    H5 1782   4.320   2.649   0.877  0.6627  1.6932 -2.5588
  114MPD2    N1 1783   0.019   2.902   1.134  0.0002  0.0460 -0.8344
  114MPD2    H7 1784   4.693   2.970   1.174 -0.1725 -1.9215  2.2218
  115TMC2    C1 1785   0.592   0.104  17.641  0.1422  0.5412  0.1269
  115TMC2    C2 1786   0.704   0.063  17.706  0.4208 -0.0340 -0.1769
  115TMC2    C3 1787   0.799   0.147   0.002 -0.4363  0.0403 -0.3894
  115TMC2    C4 1788   0.581   0.238  17.612 -0.3237  1.1143 -0.1603
  115TMC2    C5 1789   0.692   0.309  17.644  0.2322 -0.4949  0.1320
  115TMC2    C6 1790   0.811   0.272  17.701  0.5507 -0.0770  0.3964
  115TMC2     C 1791   0.487   0.007  17.617 -0.6272  0.3216 -0.3528
  115TMC2     O 1792   0.525   4.629  17.636  0.5226 -0.0468 -0.6442
  115TMC2     H 1793   0.722   4.697  17.735  2.1013  0.9022  2.1161
  115TMC2    H1 1794   0.499   0.281  17.556 -0.5021  0.9149 -0.0498
  115TMC2    H2 1795   0.885   0.349  17.719 -0.7385  1.3327 -0.3762
  115TMC2    C7 1796   0.675   0.448  17.630 -0.7741 -0.2273 -0.2323
  115TMC2    C8 1797   0.923   0.084   0.057  0.4744  0.1439  0.1981
  115TMC2    O1 1798   0.564   0.492  17.667  0.4233  0.1452 -0.2877
  115TMC2    O2 1799   0.982   4.724   0.014  0.2811 -0.6612 -0.2222
  115TMC2    O5 1800   0.976   0.181   0.134  0.4430 -0.2277 -0.0233
  115TMC2    H5 1801   0.909   0.241   0.174  0.2411 -1.2211  1.1389
  116MPD2     C 1802   0.017   4.600  17.495 -0.3537 -0.4986 -0.0630
  116MPD2    C1 1803   0.138   4.530  17.492 -0.1845  0.1958 -0.1270
  116MPD2    C2 1804   0.258   4.595  17.519  0.3148 -0.7992 -0.2739
  116MPD2    C3 1805   0.256   4.732  17.547 -0.2725 -0.1072 -0.2743
  116MPD2    C4 1806   0.140   0.064  17.549 -0.0044  0.5572  0.3148
  116MPD2    C5 1807   0.020   4.728  17.550  0.3710  0.1744 -0.3924
  116MPD2     H 1808   0.353   4.544  17.512  0.8024  0.1799 -0.7360
  116MPD2    H1 1809   0.132   0.171  17.564  2.2978  1.0317 -1.8974
  116MPD2    H2 1810   4.667   4.540  17.473 -1.5630  1.2842 -0.1282
  116MPD2    H3 1811   4.663   0.042  17.564 -0.6048 -1.8359  0.3028
  116MPD2     N 1812   0.372   0.064  17.581 -0.5411 -0.0981 -0.0853
  116MPD2    H5 1813   0.358   0.164  17.595 -0.1302 -0.0275 -0.1776
  116MPD2    N1 1814   0.128   4.401  17.446  0.0904  0.4191  0.2287
  116MPD2    H7 1815   0.038   4.364  17.420  0.3211  0.3014 -0.4014
  117TMC2    C1 1816   4.324   2.162  13.996  0.4674  0.4581 -0.1468
  117TMC2    C2 1817   4.418   2.065  13.995  0.6484 -0.0347  0.1944
  117TMC2    C3 1818   4.544   2.096  14.024  0.7176 -0.5763 -0.0777
  117TMC2    C4 1819   4.353   2.289  14.042  0.2138  0.6374 -0.0293
  117TMC2    C5 1820   4.484   2.319  14.052  0.4939 -0.5492 -0.1634
  117TMC2    C6 1821   4.587   2.227  14.050  0.3411 -0.1322 -0.0753
  117TMC2     C 1822   4.192   2.122  14.033 -0.5866 -0.2909 -0.3553
  117TMC2     O 1823   4.175   2.006  14.064 -0.2409 -0.3121  0.2112
  117TMC2     H 1824   4.397   1.959  13.987 -0.3152  0.1148  0.7445
  117TMC2    H1 1825   4.285   2.365  14.079 -0.8133  1.3289 -3.3667
  117TMC2    H2 1826   4.692   2.249  14.041  0.5444 -1.0809 -0.0886
  117TMC2    C7 1827   4.530   2.455  14.082 -0.2898 -0.1690  0.2568
  117TMC2    C8 1828   4.638   1.987  14.058 -0.0599 -0.3604 -0.5683
  117TMC2    O1 1829   4.640   2.482  14.119 -0.2844 -0.5942 -0.8578
  117TMC2    O2 1830   4.639   1.875  14.013 -0.1719 -0.8261  0.6199
  117TMC2    O5 1831   4.718   2.035  14.161  0.4605  0.4947 -0.0972
  117TMC2    H5 1832   4.683   2.121  14.192  1.1329  0.8617 -0.3583
  118MPD2     C 1833   4.321   2.742  14.024 -0.5486  0.5035 -0.1570
  118MPD2    C1 1834   4.430   2.675  14.068 -0.4449  0.2086 -0.5748
  118MPD2    C2 1835   4.525   2.745  14.138 -0.1713 -0.0641  0.4706
  118MPD2    C3 1836   4.514   2.884  14.162 -0.1842 -0.2670 -0.1553
  118MPD2    C4 1837   4.407   2.953  14.097 -0.6235 -0.0598 -0.1421
  118MPD2    C5 1838   4.308   2.880  14.028  0.1235 -0.1188 -0.1820
  118MPD2     H 1839   4.599   2.686  14.191 -2.1347  0.2666  3.5764
  118MPD2    H1 1840   4.397   3.060  14.108  0.1786  0.3253 -3.2104
  118MPD2    H2 1841   4.244   2.686  13.971  1.3261 -0.1569 -2.1763
  118MPD2    H3 1842   4.225   2.922  13.973 -1.2550  0.2981  2.2118
  118MPD2     N 1843   4.602   2.964  14.230  0.2496 -0.5119 -0.4114
  118MPD2    H5 1844   4.594   3.065  14.219 -0.3057 -0.6855 -1.5482
  118MPD2    N1 1845   4.427   2.544  14.043  0.0706  1.3768 -0.1058
  118MPD2    H7 1846   4.339   2.502  14.014  1.6839 -1.5032 -0.8327
  119TMC2    C1 1847   1.565   3.611  12.911  0.1679 -0.2144  1.1237
  119TMC2    C2 1848   1.488   3.712  12.968 -0.4088 -0.0106 -0.5577
  119TMC2    C3 1849   1.396   3.672  13.060 -0.1056  0.2653  0.3037
  119TMC2    C4 1850   1.533   3.475  12.923  0.8864 -0.1433 -0.4207
  119TMC2    C5 1851   1.436   3.448  13.020  0.0251  0.0359 -0.3330
  119TMC2    C6 1852   1.360   3.543  13.076 -0.1421  0.2728  0.1943
  119TMC2     C 1853   1.666   3.662  12.819 -1.1416 -0.3943  0.5601
  119TMC2     O 1854   1.648   3.774  12.783  0.0253  0.5256 -0.5360
  119TMC2     H 1855   1.525   3.813  12.972 -0.5367  0.0744 -1.5612
  119TMC2    H1 1856   1.593   3.393  12.886  0.6319 -0.8720  0.7778
  119TMC2    H2 1857   1.285   3.518  13.150 -1.7538 -0.0880 -1.5655
  119TMC2    C7 1858   1.458   3.322  13.085  0.1888 -0.5641  0.3094
  119TMC2    C8 1859   1.331   3.784  13.127 -0.0949 -0.1277  0.3610
  119TMC2    O1 1860   1.490   3.237  13.005 -0.2506 -0.1371 -0.2848
  119TMC2    O2 1861   1.367   3.898  13.120 -0.4733 -0.5424  0.8552
  119TMC2    O5 1862   1.199   3.760  13.143  0.4224  0.0688 -0.4228
  119TMC2    H5 1863   1.176   3.666  13.129 -0.5544  0.4537 -1.3896
  120MPD2     C 1864   1.960   3.253  12.940 -0.7524  0.8663  0.8048
  120MPD2    C1 1865   1.879   3.337  13.019  0.3093  0.1561  1.2264
  120MPD2    C2 1866   1.822   3.453  12.968 -0.0240  0.1531 -0.7443
  120MPD2    C3 1867   1.829   3.472  12.830  0.3206 -0.5187 -0.3635
  120MPD2    C4 1868   1.897   3.379  12.748  0.7721  1.0530 -0.4468
  120MPD2    C5 1869   1.967   3.281  12.808  0.4083  0.1494  0.2692
  120MPD2     H 1870   1.770   3.522  13.032  1.3455 -0.7476  1.3230
  120MPD2    H1 1871   1.895   3.388  12.640  2.7269  1.2579 -0.4634
  120MPD2    H2 1872   2.015   3.167  12.978 -0.5009 -0.0259 -1.6060
  120MPD2    H3 1873   2.014   3.216  12.735  3.0596  1.8669  0.4692
  120MPD2     N 1874   1.763   3.577  12.764 -0.1237  0.0284  0.0901
  120MPD2    H5 1875   1.783   3.584  12.664  0.3052  0.9788  0.2521
  120MPD2    N1 1876   1.879   3.309  13.159 -0.6601  0.8301 -0.4552
  120MPD2    H7 1877   1.940   3.235  13.192 -0.9021 -0.5340 -3.0829
  121TMC2    C1 1878   3.810   0.250  14.479  0.2898  0.0670 -0.7265
  121TMC2    C2 1879   3.893   0.173  14.407  0.3961  0.0165 -0.2206
  121TMC2    C3 1880   3.899   0.041  14.439  0.9426  0.1459 -0.4360
  121TMC2    C4 1881   3.727   0.204  14.575  0.5231  0.8836  0.4094
  121TMC2    C5 1882   3.733   0.067  14.603  0.1860  0.4408 -0.3213
  121TMC2    C6 1883   3.816   4.723  14.530  0.0314 -0.2331 -0.0282
  121TMC2     C 1884   3.789   0.390  14.449  1.1925 -0.6244  0.3730
  121TMC2     O 1885   3.759   0.465  14.541 -0.5848  0.0432  0.1150
  121TMC2     H 1886   3.946   0.218  14.323  0.0570  2.1059  0.6855
  121TMC2    H1 1887   3.655   0.272  14.620 -2.6386 -2.5503  0.5107
  121TMC2    H2 1888   3.826   4.618  14.557 -0.4639 -0.1927  0.3017
  121TMC2    C7 1889   3.607   0.008  14.653  0.2203 -0.6084 -0.2445
  121TMC2    C8 1890   3.938   4.690  14.333 -0.8001  0.6498  0.4688
  121TMC2    O1 1891   3.627   4.640  14.710 -0.2644  0.5633 -0.8167
  121TMC2    O2 1892   3.893   4.577  14.342 -0.9942  0.0700 -0.1755
  121TMC2    O5 1893   4.074   4.714  14.322  0.3676  0.4473 -0.2083
  121TMC2    H5 1894   4.108   0.067  14.341  0.0071  0.7461 -0.9939
  122MPD2     C 1895   3.729   0.633  14.292 -0.1830 -0.0972 -0.0585
  122MPD2    C1 1896   3.753   0.510  14.245 -0.3565 -0.2770 -0.1178
  122MPD2    C2 1897   3.756   0.494  14.105 -0.7887  0.0947  0.1185
  122MPD2    C3 1898   3.715   0.605  14.027 -0.1732 -0.3577 -0.1803
  122MPD2    C4 1899   3.698   0.731  14.079  0.2812 -0.2864  0.7613
  122MPD2    C5 1900   3.714   0.747  14.220 -0.6856 -0.8069  0.2645
  122MPD2     H 1901   3.766   0.391  14.070  3.5788  0.9994 -1.3438
  122MPD2    H1 1902   3.696   0.818  14.014  0.4952 -1.9126 -1.3843
  122MPD2    H2 1903   3.754   0.654  14.396  2.2298  0.2678 -0.7109
  122MPD2    H3 1904   3.725   0.846  14.263 -3.1433 -0.9706  1.3054
  122MPD2     N 1905   3.702   0.602  13.887 -0.7959  0.2253 -0.5797
  122MPD2    H5 1906   3.672   0.688  13.842 -1.1479 -0.3158 -1.3926
  122MPD2    N1 1907   3.788   0.398  14.314 -0.4284 -0.1830  0.0897
  122MPD2    H7 1908   3.807   0.314  14.261  1.8809  0.4267 -0.0313
  123TMC2    C1 1909   2.164   3.350  10.959 -0.3056 -0.5761  0.3543
  123TMC2    C2 1910   2.168   3.483  10.994  0.7536 -0.5676 -0.5117
  123TMC2    C3 1911   2.140   3.569  10.881  0.2961  0.3030 -0.3372
  123TMC2    C4 1912   2.160   3.311  10.820  0.3790 -0.1699 -0.0802
  123TMC2    C5 1913   2.135   3.397  10.721  0.2856 -0.6953  0.3329
  123TMC2    C6 1914   2.113   3.529  10.753  0.8858 -0.3708  0.1692
  123TMC2     C 1915   2.127   3.256  11.055 -0.2587 -0.1995 -0.7953
  123TMC2     O 1916   2.135   3.288  11.174  0.2684 -0.3187 -0.5781
  123TMC2     H 1917   2.170   3.527  11.093  0.8444 -2.0979  0.1628
  123TMC2    H1 1918   2.198   3.212  10.798  1.6292 -0.6052  4.0643
  123TMC2    H2 1919   2.100   3.603  10.675 -2.1151 -0.7650  0.2865
  123TMC2    C7 1920   2.089   3.330  10.594  0.1018 -0.3686 -0.2607
  123TMC2    C8 1921   2.076   3.699  10.898 -1.2976  0.2397 -0.4661
  123TMC2    O1 1922   2.070   3.206  10.607 -0.2669 -0.0470  0.2396
  123TMC2    O2 1923   2.118   3.802  10.841 -0.2012  0.5590 -0.0085
  123TMC2    O5 1924   2.005   3.688  11.011  0.2576 -0.0151 -0.1498
  123TMC2    H5 1925   1.996   3.597  11.045  1.9935 -0.4563 -0.8816
  124MPD2     C 1926   1.868   2.820  11.155 -0.2974 -0.2344 -0.1363
  124MPD2    C1 1927   1.846   2.855  11.024 -0.5204 -0.4057  0.3135
  124MPD2    C2 1928   1.923   2.959  10.975  1.4588 -0.3949 -0.1201
  124MPD2    C3 1929   2.002   3.045  11.058 -0.8705 -0.3069 -0.1061
  124MPD2    C4 1930   2.004   3.015  11.192  0.2116  0.3439  0.2167
  124MPD2    C5 1931   1.945   2.900  11.235  1.0680  0.6205 -0.1902
  124MPD2     H 1932   1.916   2.989  10.871  2.6519  2.0674  0.5178
  124MPD2    H1 1933   2.051   3.076  11.268 -0.9002  1.2914  0.1419
  124MPD2    H2 1934   1.829   2.727  11.197 -0.0634 -0.7653 -1.0988
  124MPD2    H3 1935   1.955   2.858  11.335  0.7401 -0.2599 -0.5246
  124MPD2     N 1936   2.055   3.155  10.996 -0.1736 -0.8251 -0.1238
  124MPD2    H5 1937   2.039   3.166  10.896 -0.8262  5.3268  0.6226
  124MPD2    N1 1938   1.763   2.790  10.937 -0.2364  0.6592  0.0426
  124MPD2    H7 1939   1.764   2.829  10.844  1.3766 -3.0119 -1.4594
  125TMC2    C1 1940   2.311   4.185  10.434 -0.5567 -0.0732 -0.2525
  125TMC2    C2 1941   2.225   4.196  10.536 -0.7014  0.1865  0.5073
  125TMC2    C3 1942   2.164   4.315  10.543  0.1755 -0.0275  0.5397
  125TMC2    C4 1943   2.342   4.282  10.344  0.0559  0.3372 -0.7628
  125TMC2    C5 1944   2.270   4.397  10.353  0.5059 -0.1283  0.1039
  125TMC2    C6 1945   2.177   4.413  10.446  0.0954 -0.0183  0.4918
  125TMC2     C 1946   2.399   4.063  10.444 -0.2076  0.0972  0.1089
  125TMC2     O 1947   2.357   3.966  10.509 -0.2886  0.2033 -0.6260
  125TMC2     H 1948   2.205   4.115  10.606 -1.9783 -1.4460 -1.7134
  125TMC2    H1 1949   2.413   4.260  10.266  0.2508  1.7344 -0.9721
  125TMC2    H2 1950   2.117   4.503  10.454 -2.1351 -1.6266  1.9020
  125TMC2    C7 1951   2.300   4.505  10.254 -0.0716 -0.2211  0.2809
  125TMC2    C8 1952   2.079   4.338  10.659 -0.6102  0.1539 -0.1715
  125TMC2    O1 1953   2.259   4.617  10.286 -0.5428 -0.3193 -0.1116
  125TMC2    O2 1954   2.034   4.248  10.726 -0.1396  0.7885 -0.1724
  125TMC2    O5 1955   2.120   4.460  10.704  0.1912  0.1538  0.1666
  125TMC2    H5 1956   2.176   4.513  10.643  0.3988 -0.5283 -0.2374
  126MPD1     C 1957   2.818   3.779  10.360 -0.1115 -0.1637 -0.2801
  126MPD1    C1 1958   2.845   3.912  10.333  0.7121  0.2728  0.3411
  126MPD1    C2 1959   2.739   4.006  10.331 -1.1579  0.0529 -0.6648
  126MPD1    C3 1960   2.614   3.972  10.379  0.3657 -0.2315  0.7044
  126MPD1    C4 1961   2.591   3.836  10.417  0.1929  1.2170  0.4855
  126MPD1    C5 1962   2.694   3.745  10.407 -0.1900  0.0125 -1.0615
  126MPD1     H 1963   2.766   4.105  10.297 -0.4407 -0.3169 -1.1916
  126MPD1    H1 1964   2.491   3.802  10.445  1.6377 -1.7461  2.0727
  126MPD1    H2 1965   2.888   3.698  10.346  1.5538  1.0896  0.7867
  126MPD1    H3 1966   2.680   3.638  10.422 -0.3495  0.2559  0.5498
  126MPD1     N 1967   2.524   4.076  10.385  0.5217 -0.2458 -0.1803
  126MPD1    H5 1968   2.535   4.162  10.332 -2.4186  1.5429  2.1205
  126MPD1    N1 1969   2.972   3.944  10.276  0.3191  0.4411  0.0408
  126MPD1    H6 1970   3.048   3.885  10.309  0.6050  0.0533 -1.3063
  126MPD1    H7 1971   2.995   4.043  10.283 -1.0782  0.6678  1.5986
  127TMC2    C1 1972   4.068   4.240  10.119 -0.0485 -0.0058  0.1997
  127TMC2    C2 1973   4.196   4.263  10.079 -0.1918  0.4231 -0.2194
  127TMC2    C3 1974   4.291   4.228  10.171  0.7714 -1.0896  0.1372
  127TMC2    C4 1975   4.040   4.184  10.238  0.3305  0.5172 -0.0700
  127TMC2    C5 1976   4.135   4.159  10.330 -0.0249 -0.4098  0.7379
  127TMC2    C6 1977   4.265   4.177  10.297 -0.1641 -0.5249  0.2633
  127TMC2     C 1978   3.965   4.280  10.024 -0.0016 -0.0966 -0.0917
  127TMC2     O 1979   3.998   4.364   9.944  0.1165  0.6561  0.4087
  127TMC2     H 1980   4.212   4.310   9.983 -2.9218  1.4855 -0.1736
  127TMC2    H1 1981   3.937   4.175  10.272  1.1089  0.7375  2.3232
  127TMC2    H2 1982   4.339   4.138  10.367 -0.3713 -1.0537  0.1851
  127TMC2    C7 1983   4.108   4.081  10.445 -0.0734 -0.5889  0.1482
  127TMC2    C8 1984   4.435   4.275  10.161 -0.5087  0.4155 -0.0154
  127TMC2    O1 1985   4.193   4.102  10.531  0.0484  0.3326 -0.4556
  127TMC2    O2 1986   4.503   4.293  10.262 -0.2054 -0.3917 -0.2815
  127TMC2    O5 1987   4.474   4.264  10.031  0.0291  0.5594 -0.0617
  127TMC2    H5 1988   4.400   4.225   9.980  1.5476 -0.2150 -1.6805
  128MPD2     C 1989   3.610   4.195  10.025 -0.3745  0.1603 -0.3938
  128MPD2    C1 1990   3.730   4.236   9.968  0.1308 -0.6537  0.2466
  128MPD2    C2 1991   3.726   4.304   9.848 -0.1336 -0.2479  0.1983
  128MPD2    C3 1992   3.606   4.331   9.785  0.6786 -0.3390 -0.3524
  128MPD2    C4 1993   3.488   4.291   9.849  0.2569 -0.1094  0.1278
  128MPD2    C5 1994   3.493   4.213   9.964  1.0207 -0.1726  0.4259
  128MPD2     H 1995   3.817   4.339   9.802  0.5232 -0.3139  1.4361
  128MPD2    H1 1996   3.386   4.311   9.820 -0.4499 -0.4838  2.3532
  128MPD2    H2 1997   3.608   4.129  10.110 -0.6729 -1.1154 -1.3874
  128MPD2    H3 1998   3.403   4.163   9.999  1.1025  0.4705  1.5417
  128MPD2     N 1999   3.601   4.394   9.660  0.4286 -0.5040 -0.1621
  128MPD2    H5 2000   3.688   4.399   9.608  0.9043 -3.9642  0.2606
  128MPD2    N1 2001   3.845   4.213  10.044 -0.2820  0.5675 -0.1423
  128MPD2    H7 2002   3.838   4.138  10.112 -0.4437  0.5558 -0.1725
  129TMC2    C1 2003   2.445   4.288   1.758  0.1470 -0.5603 -0.3909
  129TMC2    C2 2004   2.343   4.372   1.718 -0.0998 -0.1160  0.6498
  129TMC2    C3 2005   2.218   4.353   1.772 -0.2758  0.6531  0.1274
  129TMC2    C4 2006   2.411   4.180   1.839 -0.6257  0.0276  0.4283
  129TMC2    C5 2007   2.283   4.159   1.878 -0.2255 -0.1296  0.0035
  129TMC2    C6 2008   2.180   4.244   1.851 -0.3588  0.0456  0.1750
  129TMC2     C 2009   2.583   4.327   1.723 -0.1114  0.7679  0.1220
  129TMC2     O 2010   2.671   4.261   1.778 -0.6579 -0.0067  0.0285
  129TMC2     H 2011   2.361   4.463   1.661  0.6952 -0.3674  0.5041
  129TMC2    H1 2012   2.494   4.112   1.854 -2.1882 -1.8878  0.4477
  129TMC2    H2 2013   2.074   4.229   1.866 -0.2997 -1.1707 -0.6239
  129TMC2    C7 2014   2.260   4.031   1.935 -0.0887  0.6637  0.8197
  129TMC2    C8 2015   2.108   4.443   1.753  0.0900  0.2611  0.9108
  129TMC2    O1 2016   2.147   3.991   1.931 -0.1644  0.1511 -0.6415
  129TMC2    O2 2017   2.142   4.555   1.753 -0.1857 -0.0069 -0.3946
  129TMC2    O5 2018   2.043   4.383   1.646  0.0251 -0.2855 -0.7073
  129TMC2    H5 2019   2.011   4.292   1.666 -0.5344 -0.2097 -1.2488
  130MPD2     C 2020   2.826   4.428   1.597  1.3637 -0.7052 -1.0363
  130MPD2    C1 2021   2.699   4.458   1.554  0.2569 -0.7129 -0.0955
  130MPD2    C2 2022   2.694   4.541   1.445  0.0674 -0.2185 -0.6279
  130MPD2    C3 2023   2.804   4.586   1.377 -0.4617  0.3284  0.0551
  130MPD2    C4 2024   2.936   4.559   1.424  0.7001 -0.3283  0.2260
  130MPD2    C5 2025   2.942   4.471   1.532 -0.3950  0.1803 -0.0615
  130MPD2     H 2026   2.595   4.563   1.407 -0.2056  1.7415  1.1803
  130MPD2    H1 2027   3.026   4.591   1.372 -0.1209  1.8031  0.1122
  130MPD2    H2 2028   2.847   4.354   1.672 -1.2992 -0.7930 -0.4051
  130MPD2    H3 2029   3.035   4.429   1.568  0.1684  1.7574  0.3135
  130MPD2     N 2030   2.779   4.660   1.256 -0.7316  0.0682  0.7197
  130MPD2    H5 2031   2.682   4.681   1.234  0.3936  1.0447 -3.2312
  130MPD2    N1 2032   2.587   4.413   1.618 -0.0332  0.1277  0.5393
  130MPD2    H7 2033   2.505   4.460   1.580  0.4231  0.2681 -0.2639
  131TMC2    C1 2034   1.655   3.624  10.635 -0.1451 -0.7137  0.2871
  131TMC2    C2 2035   1.584   3.714  10.705 -0.7343  0.3980 -0.0893
  131TMC2    C3 2036   1.621   3.847  10.695  0.0419 -0.0152 -0.1532
  131TMC2    C4 2037   1.769   3.654  10.572  0.0847 -0.1027  0.2272
  131TMC2    C5 2038   1.815   3.781  10.575  0.1246  0.1223 -0.0404
  131TMC2    C6 2039   1.730   3.884  10.625  0.0229 -0.0559  0.3396
  131TMC2     C 2040   1.633   3.481  10.643  0.2864 -0.0271 -0.4757
  131TMC2     O 2041   1.596   3.439  10.750 -0.2899 -0.0951 -0.5238
  131TMC2     H 2042   1.495   3.685  10.760 -1.2545  0.0830 -1.1157
  131TMC2    H1 2043   1.819   3.575  10.516 -1.9650 -0.0417 -1.6943
  131TMC2    H2 2044   1.775   3.981  10.639  0.8754 -0.7841  2.6879
  131TMC2    C7 2045   1.931   3.812  10.490  0.4635 -0.0284 -0.1913
  131TMC2    C8 2046   1.569   3.923  10.805  0.1911 -0.3581  0.0224
  131TMC2    O1 2047   2.014   3.719  10.478 -0.4159 -0.2379  0.9844
  131TMC2    O2 2048   1.543   3.878  10.917 -0.4150  0.1140  0.0258
  131TMC2    O5 2049   1.598   4.054  10.774 -0.2275  0.5182  0.3029
  131TMC2    H5 2050   1.595   4.050  10.676 -0.6265 -1.1167  0.3686
  132MPD2     C 2051   1.527   3.298  10.346 -0.5362  0.0663 -0.9018
  132MPD2    C1 2052   1.565   3.307  10.481  0.6473 -0.0072  0.1295
  132MPD2    C2 2053   1.542   3.201  10.562  0.1296  0.1588  0.4100
  132MPD2    C3 2054   1.496   3.080  10.508  0.2774 -0.0908 -0.3094
  132MPD2    C4 2055   1.468   3.073  10.368 -0.3772 -0.6369 -0.5497
  132MPD2    C5 2056   1.481   3.185  10.290  0.5532 -0.2728  0.1874
  132MPD2     H 2057   1.571   3.203  10.667  0.5164 -1.7639  0.3300
  132MPD2    H1 2058   1.450   2.978  10.320 -1.3857 -0.5229 -0.3915
  132MPD2    H2 2059   1.545   3.373  10.270 -1.7800  2.0173  0.7204
  132MPD2    H3 2060   1.467   3.183  10.182  2.9133 -1.1601 -0.1123
  132MPD2     N 2061   1.487   2.964  10.592  1.0429  0.3155 -0.6608
  132MPD2    H5 2062   1.497   2.993  10.689  1.3919 -1.0797 -0.2922
  132MPD2    N1 2063   1.619   3.430  10.517 -0.4535  0.2694  0.0179
  132MPD2    H7 2064   1.623   3.493  10.438 -1.0860  1.0005  0.5668
  133TMC2    C1 2065   1.484   0.323   9.719 -0.3676  0.1223  0.2188
  133TMC2    C2 2066   1.513   0.224   9.810 -0.1056 -0.4107  0.8181
  133TMC2    C3 2067   1.534   0.255   9.942 -0.4228 -0.4688  0.0395
  133TMC2    C4 2068   1.466   0.451   9.762  0.0431 -0.7685 -0.4021
  133TMC2    C5 2069   1.475   0.477   9.899 -0.2400 -0.2598  0.4003
  133TMC2    C6 2070   1.518   0.383   9.986 -0.0494 -0.8341 -0.3642
  133TMC2     C 2071   1.422   0.276   9.597  0.0499 -0.0889 -0.3358
  133TMC2     O 2072   1.468   0.172   9.551  0.4342  0.5864 -0.2244
  133TMC2     H 2073   1.504   0.121   9.777 -3.2367  0.3247 -0.6532
  133TMC2    H1 2074   1.452   0.537   9.697  1.6298  0.0056  0.2834
  133TMC2    H2 2075   1.532   0.411  10.090 -1.3440 -0.1919 -0.3624
  133TMC2    C7 2076   1.443   0.604   9.954 -0.6256  0.1552 -0.4034
  133TMC2    C8 2077   1.518   0.157  10.051  0.3584  0.1293  0.2640
  133TMC2    O1 2078   1.479   0.621  10.069 -0.5562 -0.0589 -0.5349
  133TMC2    O2 2079   1.444   0.190  10.141  1.1152  0.3806  0.0721
  133TMC2    O5 2080   1.530   0.038   9.994  0.2257 -0.0884  0.0747
  133TMC2    H5 2081   1.606   0.032   9.933 -1.5946  0.3211 -2.2174
  134MPD2     C 2082   1.135   0.434   9.410  0.5499  0.2107 -0.2785
  134MPD2    C1 2083   1.214   0.334   9.457 -0.0064  0.3469  1.2314
  134MPD2    C2 2084   1.194   0.203   9.406  0.1673 -0.1434 -0.5006
  134MPD2    C3 2085   1.076   0.179   9.320 -0.8325 -0.1702 -0.3394
  134MPD2    C4 2086   1.004   0.281   9.275 -0.7569 -0.2664 -0.7758
  134MPD2    C5 2087   1.027   0.407   9.323  0.2472 -0.2064 -0.4440
  134MPD2     H 2088   1.256   0.123   9.446 -0.3787 -0.1397  0.3299
  134MPD2    H1 2089   0.927   0.255   9.203 -2.7481  0.3253  1.1451
  134MPD2    H2 2090   1.150   0.539   9.432  1.8663  0.0371 -0.3481
  134MPD2    H3 2091   0.962   0.488   9.292 -0.3017 -0.0209  1.2244
  134MPD2     N 2092   1.033   0.047   9.283 -0.2547  1.0884 -0.4652
  134MPD2    H5 2093   0.952   0.040   9.222  0.8252  1.7751 -1.9980
  134MPD2    N1 2094   1.324   0.365   9.548  0.0652  0.3167  0.3346
  134MPD2    H7 2095   1.333   0.460   9.583  3.5062 -1.0588  3.1629
  135TMC2    C1 2096   3.338   0.842   9.921  0.2815 -0.1078  0.4464
  135TMC2    C2 2097   3.379   0.969   9.886  0.3531  0.4292 -0.9877
  135TMC2    C3 2098   3.374   1.071   9.975  0.4284 -0.6278 -0.0182
  135TMC2    C4 2099   3.296   0.828  10.050  0.3222  0.2867  0.5180
  135TMC2    C5 2100   3.301   0.932  10.133 -0.3173 -0.4152  0.5600
  135TMC2    C6 2101   3.338   1.055  10.106  0.0790  0.1500  0.4299
  135TMC2     C 2102   3.268   0.768   9.813 -0.0939  0.0804  0.4304
  135TMC2     O 2103   3.159   0.714   9.826  0.5580  0.2895  0.7334
  135TMC2     H 2104   3.400   0.993   9.783  2.9533  0.8842 -0.3656
  135TMC2    H1 2105   3.275   0.723  10.068  0.9449  0.0631 -0.0487
  135TMC2    H2 2106   3.317   1.137  10.175 -0.1541  0.0116  0.5250
  135TMC2    C7 2107   3.244   0.911  10.269  0.6543 -0.9617 -0.3745
  135TMC2    C8 2108   3.346   1.205   9.933  0.1441  0.2541 -0.8326
  135TMC2    O1 2109   3.233   1.014  10.332 -0.1544  0.2675  0.3207
  135TMC2    O2 2110   3.260   1.278   9.981 -0.4795  0.9214 -0.3313
  135TMC2    O5 2111   3.437   1.223   9.832 -0.0253  0.4265 -0.7632
  135TMC2    H5 2112   3.497   1.147   9.838 -0.4449  0.0818 -0.9162
  136MPD2     C 2113   3.178   0.740   9.527  0.0662  0.3785 -0.1478
  136MPD2    C1 2114   3.308   0.749   9.570  0.0600 -0.7331  0.1481
  136MPD2    C2 2115   3.402   0.754   9.475 -0.9115  0.1497  0.1130
  136MPD2    C3 2116   3.372   0.768   9.341 -0.2464 -0.0897 -0.5121
  136MPD2    C4 2117   3.241   0.766   9.300  0.4839  0.0468  0.0541
  136MPD2    C5 2118   3.149   0.736   9.395 -0.3681 -0.2120 -0.0121
  136MPD2     H 2119   3.504   0.766   9.509 -0.7230 -2.1257  0.3511
  136MPD2    H1 2120   3.205   0.755   9.198  0.2044 -1.9631  0.3614
  136MPD2    H2 2121   3.091   0.733   9.591  1.0159  0.6396  1.1544
  136MPD2    H3 2122   3.043   0.723   9.377  0.0933 -3.7991 -0.1208
  136MPD2     N 2123   3.479   0.800   9.251 -0.4491 -0.3013  0.1629
  136MPD2    H5 2124   3.571   0.794   9.292 -0.7418 -3.3376  0.3393
  136MPD2    N1 2125   3.345   0.777   9.701  0.0992 -0.2827  0.1383
  136MPD2    H7 2126   3.445   0.793   9.714 -0.2664  0.4402  1.9536
  137TMC2    C1 2127   2.445   0.240   9.059 -0.1086  0.3284  0.2131
  137TMC2    C2 2128   2.394   0.319   8.960 -0.0910 -0.7053 -0.3339
  137TMC2    C3 2129   2.283   0.276   8.897 -0.0514 -0.9772  0.3786
  137TMC2    C4 2130   2.378   0.131   9.111  1.2077 -0.0443 -0.0042
  137TMC2    C5 2131   2.250   0.100   9.058  0.8804 -0.7308 -0.0506
  137TMC2    C6 2132   2.213   0.164   8.940  0.5896 -0.2340 -0.1295
  137TMC2     C 2133   2.570   0.284   9.118  0.4357  0.5377 -0.0249
  137TMC2     O 2134   2.590   0.243   9.234  0.8729 -1.5425 -0.1513
  137TMC2     H 2135   2.441   0.414   8.939  2.1849 -1.2916  2.0771
  137TMC2    H1 2136   2.432   0.079   9.189  0.3890  0.7507  1.0973
  137TMC2    H2 2137   2.134   0.114   8.885  1.9720  1.6207 -3.7879
  137TMC2    C7 2138   2.161   0.006   9.117 -0.0515  0.2706  0.6511
  137TMC2    C8 2139   2.220   0.364   8.807 -0.0252 -0.4441  0.0701
  137TMC2    O1 2140   2.099   4.676   9.035 -0.0094  0.3385  0.2116
  137TMC2    O2 2141   2.281   0.423   8.718 -0.6123  0.4393  0.6012
  137TMC2    O5 2142   2.095   0.314   8.786  0.5441  0.0267  0.0268
  137TMC2    H5 2143   2.044   0.298   8.868 -1.2311  0.9508 -0.8949
  138MPD2     C 2144   2.847   0.470   8.968  0.4495 -0.4000  0.1901
  138MPD2    C1 2145   2.787   0.392   9.062  0.3908 -0.3104 -0.0553
  138MPD2    C2 2146   2.858   0.343   9.165  0.1407 -0.2546 -0.0591
  138MPD2    C3 2147   2.982   0.383   9.197  0.3462  0.3968  0.5169
  138MPD2    C4 2148   3.046   0.461   9.100 -0.0398  0.6481  0.2727
  138MPD2    C5 2149   2.984   0.498   8.980  0.5194 -0.2080  0.1887
  138MPD2     H 2150   2.818   0.265   9.230 -0.9520 -0.2878 -0.7658
  138MPD2    H1 2151   3.142   0.509   9.115  1.2885 -1.5865 -1.0643
  138MPD2    H2 2152   2.786   0.512   8.889 -1.0268 -2.8459  0.0122
  138MPD2    H3 2153   3.025   0.571   8.911 -1.0274 -1.7230 -2.3726
  138MPD2     N 2154   3.048   0.342   9.315 -0.5211 -0.1147  0.7516
  138MPD2    H5 2155   2.999   0.296   9.391 -1.5690  0.8198  0.6398
  138MPD2    N1 2156   2.653   0.359   9.035 -0.8041 -0.2335 -0.6283
  138MPD2    H7 2157   2.622   0.372   8.940  0.5613  0.7131 -0.9557
  139TMC2    C1 2158   3.607   3.308  13.564  0.2270  0.5462 -0.2896
  139TMC2    C2 2159   3.688   3.417  13.597  0.1572 -0.5638 -0.3061
  139TMC2    C3 2160   3.646   3.539  13.560 -0.0356  0.1055  0.3834
  139TMC2    C4 2161   3.493   3.323  13.492 -0.3746 -0.4473 -0.3080
  139TMC2    C5 2162   3.441   3.449  13.490 -0.3836  0.6297  0.4139
  139TMC2    C6 2163   3.517   3.561  13.511 -0.3073  0.2667  0.1312
  139TMC2     C 2164   3.649   3.177  13.594 -1.4310  0.3775 -0.3745
  139TMC2     O 2165   3.612   3.086  13.520  0.3925 -0.0184  0.2763
  139TMC2     H 2166   3.789   3.398  13.633  0.1943  1.4304  0.6337
  139TMC2    H1 2167   3.427   3.238  13.507 -0.1417 -0.0412  3.1210
  139TMC2    H2 2168   3.472   3.659  13.515  0.2500  0.4969  0.7080
  139TMC2    C7 2169   3.300   3.469  13.476 -0.1933 -0.2378 -0.7975
  139TMC2    C8 2170   3.723   3.651  13.612 -0.3097  0.7034  0.1992
  139TMC2    O1 2171   3.264   3.590  13.483 -0.5529  0.0298  0.0065
  139TMC2    O2 2172   3.818   3.636  13.685  0.2835  0.0267  0.1562
  139TMC2    O5 2173   3.686   3.767  13.554  0.5638  0.0662 -0.0806
  139TMC2    H5 2174   3.607   3.760  13.497  0.6516  1.4466 -0.3702
  140MPD2     C 2175   3.886   3.073  13.866  0.7009  0.5071 -0.7522
  140MPD2    C1 2176   3.802   3.058  13.756  0.0965 -0.7954  0.1957
  140MPD2    C2 2177   3.800   2.935  13.692  0.1874 -0.2764 -0.1428
  140MPD2    C3 2178   3.899   2.845  13.719  0.2532  0.1108 -0.9074
  140MPD2    C4 2179   3.975   2.852  13.841  0.4134  0.0323 -0.8042
  140MPD2    C5 2180   3.961   2.967  13.911 -0.3657  0.9066  0.0749
  140MPD2     H 2181   3.733   2.921  13.607 -1.8099  2.4113  0.9834
  140MPD2    H1 2182   4.034   2.770  13.880 -1.5088 -1.2676 -0.6167
  140MPD2    H2 2183   3.874   3.169  13.915 -0.3008  0.8273 -1.6242
  140MPD2    H3 2184   4.011   2.980  14.007 -0.4425  2.0112 -0.0391
  140MPD2     N 2185   3.891   2.717  13.667  0.6204  0.1676  0.5616
  140MPD2    H5 2186   3.806   2.695  13.616  2.0594 -1.4159 -1.1561
  140MPD2    N1 2187   3.738   3.171  13.703 -0.5776 -0.4853 -1.1645
  140MPD2    H7 2188   3.749   3.257  13.757 -1.3480 -1.0586 -0.1037
  141TMC2    C1 2189   4.073   4.291  14.456  0.0979  0.4613 -0.2216
  141TMC2    C2 2190   4.012   4.218  14.551 -0.4725  0.0731 -0.2121
  141TMC2    C3 2191   4.005   4.272  14.680  0.2637 -0.0735 -0.1939
  141TMC2    C4 2192   4.120   4.421  14.488 -0.3523 -0.3183 -0.0067
  141TMC2    C5 2193   4.127   4.456  14.622 -0.9280 -0.3647 -0.2862
  141TMC2    C6 2194   4.066   4.383  14.719 -0.0286 -0.2258  0.9758
  141TMC2     C 2195   4.063   4.260  14.314  0.0939  0.1613  0.0242
  141TMC2     O 2196   4.072   4.148  14.274 -0.3943 -0.0995 -0.0127
  141TMC2     H 2197   3.962   4.123  14.536  1.4106 -0.7016 -1.5698
  141TMC2    H1 2198   4.161   4.484  14.410 -1.0338  2.5943  1.9679
  141TMC2    H2 2199   4.071   4.430  14.817  0.9388  1.0697  0.2994
  141TMC2    C7 2200   4.195   4.582  14.666  0.5972 -0.8905  0.4224
  141TMC2    C8 2201   3.954   4.187  14.789  0.1894 -0.1604  0.5679
  141TMC2    O1 2202   4.127   4.640  14.750  0.1404 -0.1429  0.2113
  141TMC2    O2 2203   3.967   4.064  14.788 -0.0028 -0.2945 -0.1318
  141TMC2    O5 2204   3.926   4.272  14.892 -0.0086 -0.0537 -0.3139
  141TMC2    H5 2205   3.896   4.360  14.862  0.2694  0.1351 -0.0445
  142TMC2    C1 2206   1.647   2.695  10.145 -0.2906 -0.6230 -0.1065
  142TMC2    C2 2207   1.583   2.726  10.030  0.0191  0.0865 -0.4317
  142TMC2    C3 2208   1.606   2.843   9.972 -0.4531 -0.1542  0.9979
  142TMC2    C4 2209   1.714   2.795  10.218 -0.9690  1.4235 -0.6430
  142TMC2    C5 2210   1.730   2.912  10.153  0.1223  0.8503 -0.3348
  142TMC2    C6 2211   1.675   2.947  10.030 -0.4797 -0.2036 -0.4914
  142TMC2     C 2212   1.611   2.571  10.207  0.5031  0.5292 -0.2595
  142TMC2     O 2213   1.537   2.500  10.138 -0.2073 -0.3748  0.2121
  142TMC2     H 2214   1.536   2.651   9.968 -2.1284 -0.8194  2.3017
  142TMC2    H1 2215   1.785   2.763  10.294 -1.5723  1.3933 -0.0973
  142TMC2    H2 2216   1.680   3.042   9.979 -1.8621  0.9625  1.5561
  142TMC2    C7 2217   1.793   3.014  10.239 -0.8146  0.6958 -1.0943
  142TMC2    C8 2218   1.626   2.824   9.825  0.3185 -0.5630  0.3660
  142TMC2    O1 2219   1.817   2.988  10.356 -0.6469  0.4751  0.2907
  142TMC2    O2 2220   1.555   2.752   9.754  0.9056  0.0795  0.3775
  142TMC2    O5 2221   1.736   2.894   9.793  0.1973 -0.1958 -0.2782
  142TMC2    H5 2222   1.751   2.966   9.859 -0.7845 -0.0525 -0.2118
  143MPD2     C 2223   1.597   2.242  10.587 -0.0970 -0.0614  0.7468
  143MPD2    C1 2224   1.552   2.224  10.457 -0.1120 -0.5693  0.0420
  143MPD2    C2 2225   1.567   2.327  10.369 -0.1541  0.1914 -0.9544
  143MPD2    C3 2226   1.622   2.449  10.415 -0.0303 -0.6912  0.4502
  143MPD2    C4 2227   1.653   2.460  10.548 -0.0501  0.4918 -0.1821
  143MPD2    C5 2228   1.635   2.357  10.637 -0.4780 -0.3101 -0.3459
  143MPD2     H 2229   1.537   2.321  10.265 -1.7825 -0.9343 -0.4129
  143MPD2    H1 2230   1.696   2.546  10.597 -2.7588 -0.4099  3.7726
  143MPD2    H2 2231   1.598   2.155  10.651 -1.8944 -1.1944 -0.7993
  143MPD2    H3 2232   1.658   2.370  10.742  1.7795  1.3740 -1.0451
  143MPD2     N 2233   1.650   2.559  10.336 -0.7963  0.0023  0.1913
  143MPD2    H5 2234   1.687   2.645  10.376  0.3037 -0.5082  0.2565
  143MPD2    N1 2235   1.504   2.096  10.417  0.4282  0.1725  0.0334
  143MPD2    H7 2236   1.500   2.015  10.479 -3.0554 -0.4624 -1.0188
  144TMC2    C1 2237   0.376   2.170   0.912  0.0773  0.1105  0.0658
  144TMC2    C2 2238   0.404   2.059   0.833  0.0781 -0.0207  0.6160
  144TMC2    C3 2239   0.533   2.014   0.850 -0.0585  0.3341 -0.2366
  144TMC2    C4 2240   0.465   2.246   0.983  0.2177  0.1161  0.2238
  144TMC2    C5 2241   0.588   2.198   0.992  0.1586 -0.5452  0.2705
  144TMC2    C6 2242   0.624   2.077   0.934  0.0776  0.3970  0.5033
  144TMC2     C 2243   0.247   2.224   0.886 -0.2733  0.9609 -0.6837
  144TMC2     O 2244   0.198   2.182   0.780 -0.5854 -0.2159  0.3309
  144TMC2     H 2245   0.339   2.020   0.755 -0.1358  1.4307  0.0624
  144TMC2    H1 2246   0.434   2.339   1.030 -0.5655 -1.3610  2.6621
  144TMC2    H2 2247   0.725   2.044   0.953 -0.1587  0.4709  1.9273
  144TMC2    C7 2248   0.694   2.258   1.076  0.2155 -0.5773 -0.5554
  144TMC2    C8 2249   0.584   1.935   0.742 -0.5119  0.4292 -0.5064
  144TMC2    O1 2250   0.809   2.213   1.055  0.4517 -0.2509 -0.1956
  144TMC2    O2 2251   0.702   1.928   0.712 -0.1489 -0.0830 -0.0546
  144TMC2    O5 2252   0.484   1.849   0.698 -0.2108 -0.1144  0.3703
  144TMC2    H5 2253   0.411   1.856   0.763 -0.0188  0.8497  0.4904
  145MPD2     C 2254   4.511   2.353   1.064 -0.1228 -0.8441 -0.0594
  145MPD2    C1 2255   4.547   2.287   0.942  0.6038  0.1184  0.2190
  145MPD2    C2 2256   4.678   2.271   0.913  0.4250 -0.1826  0.4687
  145MPD2    C3 2257   0.039   2.302   1.003 -0.5035  0.3540  0.0846
  145MPD2    C4 2258   4.737   2.367   1.119  0.5260 -1.4278 -0.0362
  145MPD2    C5 2259   4.609   2.396   1.155  0.2777 -0.5475  0.4581
  145MPD2     H 2260   4.700   2.217   0.822  2.3231 -1.9233  1.9650
  145MPD2    H1 2261   0.081   2.393   1.185 -0.4046 -2.1660  1.4161
  145MPD2    H2 2262   4.412   2.388   1.092 -0.4550 -1.9084  0.0776
  145MPD2    H3 2263   4.591   2.434   1.255  1.3529 -0.5432  0.6502
  145MPD2     N 2264   0.181   2.275   0.997 -0.6440 -0.3982 -0.5647
  145MPD2    H5 2265   0.237   2.302   1.077  0.0505 -1.0855 -0.8138
  145MPD2    N1 2266   4.447   2.257   0.837  0.3220 -0.0749 -0.5061
  145MPD2    H7 2267   4.473   2.204   0.754 -0.1534 -0.6778 -0.2632
  146TMC2    C1 2268   1.132   0.628  12.875 -0.3195 -0.2050 -0.0226
  146TMC2    C2 2269   1.130   0.734  12.786  0.5424 -0.0769 -0.0007
  146TMC2    C3 2270   1.170   0.709  12.660 -0.1582  0.2278 -0.1235
  146TMC2    C4 2271   1.174   0.504  12.837 -0.4054  0.3435 -0.7662
  146TMC2    C5 2272   1.208   0.488  12.704 -0.3683  0.1135 -0.9162
  146TMC2    C6 2273   1.196   0.589  12.610 -0.4494 -0.7896  0.8480
  146TMC2     C 2274   1.134   0.670  13.014  0.9019  0.0261  0.0144
  146TMC2     O 2275   1.080   0.781  13.027 -0.7633  0.1562  0.7972
  146TMC2     H 2276   1.097   0.828  12.829  0.4888  0.2270 -0.7163
  146TMC2    H1 2277   1.166   0.417  12.902 -0.3808  0.6728 -0.3294
  146TMC2    H2 2278   1.229   0.577  12.508  1.9974 -1.0868  1.6743
  146TMC2    C7 2279   1.269   0.365  12.661 -0.2744  0.2730  0.1230
  146TMC2    C8 2280   1.152   0.813  12.563 -0.8903  0.4339  0.0723
  146TMC2    O1 2281   1.275   0.340  12.541  0.3408  0.2149 -0.4843
  146TMC2    O2 2282   1.119   0.781  12.447 -0.2646  0.1076  0.2310
  146TMC2    O5 2283   1.172   0.933  12.616  0.5273 -0.1528 -0.5253
  146TMC2    H5 2284   1.190   0.934  12.713 -0.0068  2.6464 -0.4544
  147MPD2     C 2285   1.596   4.718  12.723 -0.6210 -0.1130 -0.4260
  147MPD2    C1 2286   1.561   0.015  12.847  0.1024  0.9756  0.4507
  147MPD2    C2 2287   1.467   0.117  12.859  0.1040 -0.5578  0.4781
  147MPD2    C3 2288   1.421   0.185  12.749 -0.0088  0.1635 -0.7923
  147MPD2    C4 2289   1.447   0.132  12.626  0.0654  0.0763 -0.1208
  147MPD2    C5 2290   1.532   0.030  12.615 -0.3843  1.0338  0.7407
  147MPD2     H 2291   1.436   0.148  12.959 -0.4493  2.5723 -0.6806
  147MPD2    H1 2292   1.411   0.172  12.532  1.4121  0.3479 -0.5235
  147MPD2    H2 2293   1.674   4.643  12.715 -1.7646 -1.2343 -0.9309
  147MPD2    H3 2294   1.561   4.733  12.516  1.0560 -1.1329  1.9363
  147MPD2     N 2295   1.327   0.292  12.766 -0.3344  0.0645 -0.1670
  147MPD2    H5 2296   1.307   0.318  12.862  0.0640 -0.7603  0.1378
  147MPD2    N1 2297   1.628   4.687  12.958  0.3915  0.5400  0.7642
  147MPD2    H7 2298   1.701   4.622  12.930 -0.8153  0.3070 -1.8154
  148TMC2    C1 2299   1.112   3.756  11.483  0.7003  0.0501 -0.4365
  148TMC2    C2 2300   1.194   3.821  11.560  0.7284 -0.3663  0.1570
  148TMC2    C3 2301   1.287   3.763  11.634  0.5427  0.1669 -0.0082
  148TMC2    C4 2302   1.118   3.621  11.478 -0.8942 -1.0294 -0.1590
  148TMC2    C5 2303   1.221   3.564  11.549  0.1398 -0.7680  0.1544
  148TMC2    C6 2304   1.301   3.633  11.627 -0.2780 -0.4879 -0.5819
  148TMC2     C 2305   1.032   3.838  11.395  0.4454  0.0068 -0.3904
  148TMC2     O 2306   1.015   3.952  11.437  0.5873  0.1818 -0.0039
  148TMC2     H 2307   1.200   3.929  11.558  0.3746 -0.3852 -1.2123
  148TMC2    H1 2308   1.050   3.558  11.422 -3.9792  0.3864  1.9942
  148TMC2    H2 2309   1.382   3.586  11.681  0.2546  1.4539  0.3337
  148TMC2    C7 2310   1.291   3.471  11.464 -0.1838 -0.0820 -0.6136
  148TMC2    C8 2311   1.406   3.834  11.663 -0.2229 -0.3775  0.4066
  148TMC2    O1 2312   1.232   3.379  11.410  0.3221 -0.4809 -0.7117
  148TMC2    O2 2313   1.493   3.829  11.577  0.0067 -0.4578 -0.2784
  148TMC2    O5 2314   1.367   3.950  11.720 -0.4628  0.2257  0.0812
  148TMC2    H5 2315   1.289   3.936  11.777 -2.7566  0.2424 -3.0708
  149MPD2     C 2316   0.878   3.958  11.177 -0.2588  0.0184  0.7898
  149MPD2    C1 2317   0.936   3.830  11.165 -0.2565 -0.7501  0.4326
  149MPD2    C2 2318   0.957   3.768  11.038  0.0628 -0.1451  0.4240
  149MPD2    C3 2319   0.904   3.836  10.921 -0.0722 -0.1866 -0.1891
  149MPD2    C4 2320   0.827   3.947  10.946 -0.2946 -0.1769 -0.4117
  149MPD2    C5 2321   0.813   4.005  11.069  0.3906 -0.8227 -0.6187
  149MPD2     H 2322   1.028   3.687  11.033  0.7673  0.4873  0.2926
  149MPD2    H1 2323   0.777   3.993  10.862  1.2719  0.3810 -1.0243
  149MPD2    H2 2324   0.867   4.003  11.275  1.6130 -0.2077  1.1071
  149MPD2    H3 2325   0.748   4.092  11.074  1.0434 -0.3222 -0.7499
  149MPD2     N 2326   0.917   3.790  10.784  0.5070 -0.1053 -0.0063
  149MPD2    H5 2327   0.877   3.852  10.714 -0.9221 -1.2145 -0.1726
  149MPD2    N1 2328   1.001   3.771  11.275  0.5791  0.2928 -0.5768
  149MPD2    H7 2329   1.040   3.680  11.252 -0.2655  0.2518 -1.8491
  150TMC2    C1 2330   3.810   3.275  12.322 -0.3272 -0.0066 -0.3625
  150TMC2    C2 2331   3.810   3.357  12.217  0.4953 -0.2020 -0.4913
  150TMC2    C3 2332   3.845   3.482  12.238 -0.6341 -0.2775 -0.6722
  150TMC2    C4 2333   3.852   3.305  12.445  1.0361 -0.1774  0.6410
  150TMC2    C5 2334   3.894   3.431  12.462  0.3506  0.6749 -0.2575
  150TMC2    C6 2335   3.883   3.526  12.366  0.1063 -0.9974  0.1600
  150TMC2     C 2336   3.803   3.138  12.299 -0.3051 -0.7853 -0.3313
  150TMC2     O 2337   3.882   3.063  12.359 -0.2681  0.6950  0.0231
  150TMC2     H 2338   3.790   3.327  12.115  0.4399  3.4850 -1.5626
  150TMC2    H1 2339   3.830   3.233  12.523 -2.9245  0.0982 -0.2023
  150TMC2    H2 2340   3.912   3.628  12.387 -0.6948 -0.4073 -1.6075
  150TMC2    C7 2341   3.993   3.449  12.563  0.1782 -0.6471 -0.1563
  150TMC2    C8 2342   3.869   3.563  12.129  0.3852  0.4004  0.1424
  150TMC2    O1 2343   4.017   3.561  12.597 -0.2987  0.2944  0.3257
  150TMC2    O2 2344   3.805   3.553  12.024 -0.2999  0.3454  0.1126
  150TMC2    O5 2345   3.976   3.639  12.145 -0.3782 -0.0622 -0.1705
  150TMC2    H5 2346   4.033   3.601  12.215 -0.6447 -0.9104 -0.4152
  151MPD2     C 2347   3.497   2.750  12.137  0.3503  0.3545 -0.1658
  151MPD2    C1 2348   3.425   2.869  12.134 -0.0488 -0.3140 -0.1030
  151MPD2    C2 2349   3.481   2.983  12.174 -0.7469  0.3161 -0.1281
  151MPD2    C3 2350   3.615   2.981  12.215 -0.1616 -0.4073 -0.2609
  151MPD2    C4 2351   3.690   2.863  12.218 -0.3023  1.0310  0.2813
  151MPD2    C5 2352   3.623   2.748  12.178  0.2049  0.2970  0.3261
  151MPD2     H 2353   3.433   3.080  12.180  1.6734  1.6189 -1.4009
  151MPD2    H1 2354   3.795   2.851  12.239 -0.0233 -1.5663 -2.5594
  151MPD2    H2 2355   3.447   2.656  12.118 -0.2735  0.3212  1.6404
  151MPD2    H3 2356   3.673   2.652  12.174 -1.4018 -0.3699 -3.8964
  151MPD2     N 2357   3.677   3.109  12.246 -0.0178 -0.5305 -0.4260
  151MPD2    H5 2358   3.617   3.190  12.242 -0.1823 -0.6331 -0.0001
  151MPD2    N1 2359   3.295   2.858  12.082 -0.2789 -0.1165 -0.6555
  151MPD2    H7 2360   3.280   2.777  12.022 -0.4605  0.5845 -1.5573
  152TMC2    C1 2361   3.389   2.761  12.592 -0.6774  0.2605 -0.6528
  152TMC2    C2 2362   3.489   2.670  12.609 -0.1886 -0.7830 -0.0907
  152TMC2    C3 2363   3.616   2.705  12.651  0.3982 -0.7445 -0.2573
  152TMC2    C4 2364   3.419   2.891  12.641 -0.2246  0.0903 -0.2569
  152TMC2    C5 2365   3.552   2.926  12.677  0.0729  0.2018 -0.0598
  152TMC2    C6 2366   3.655   2.835  12.674  0.1377  0.7636 -0.0502
  152TMC2     C 2367   3.249   2.729  12.578 -0.4381 -0.7383  0.5796
  152TMC2     O 2368   3.170   2.820  12.554  0.2892  0.1695  0.3074
  152TMC2     H 2369   3.485   2.571  12.566 -0.6407  0.5399 -3.0925
  152TMC2    H1 2370   3.338   2.963  12.652  0.1022  0.4366 -0.1156
  152TMC2    H2 2371   3.756   2.858  12.706 -0.1154  1.1114  0.5105
  152TMC2    C7 2372   3.581   3.061  12.727  0.1469  0.7512  0.1914
  152TMC2    C8 2373   3.698   2.598  12.704 -1.1427 -0.0244 -0.0225
  152TMC2    O1 2374   3.487   3.138  12.746 -0.0197 -0.9282 -0.1396
  152TMC2    O2 2375   3.648   2.498  12.747  0.3555  0.4349  0.3822
  152TMC2    O5 2376   3.826   2.615  12.663 -0.6795  0.5782  0.2313
  152TMC2    H5 2377   3.839   2.693  12.606  0.6655  0.8701  0.9358
  153MPD2     C 2378   3.074   2.413  12.651  0.4358 -0.0747 -0.2140
  153MPD2    C1 2379   3.087   2.545  12.629  0.2269  0.2169  0.7078
  153MPD2    C2 2380   2.965   2.616  12.617 -0.4388  0.2657  0.4904
  153MPD2    C3 2381   2.843   2.557  12.656  0.2511 -0.4891  0.6875
  153MPD2    C4 2382   2.843   2.417  12.687  0.3991  0.2281 -0.3159
  153MPD2    C5 2383   2.958   2.348  12.678 -0.0743  0.5797 -0.7241
  153MPD2     H 2384   2.969   2.720  12.585 -1.8202  0.8179  2.1225
  153MPD2    H1 2385   2.756   2.361  12.720 -0.9987  1.3126 -2.1685
  153MPD2    H2 2386   3.166   2.358  12.664  0.5632 -0.6945 -3.8560
  153MPD2    H3 2387   2.953   2.242  12.701 -0.7477  0.8890  0.5389
  153MPD2     N 2388   2.730   2.638  12.649 -0.0439 -0.1448 -0.1672
  153MPD2    H5 2389   2.746   2.737  12.637  0.7445  0.1465  3.3774
  153MPD2    N1 2390   3.220   2.598  12.610 -0.0447  0.6697 -0.8890
  153MPD2    H7 2391   3.295   2.532  12.631 -0.3161  1.1836  1.6149
  154TMC2    C1 2392   4.363   2.898   0.607  0.1401 -0.8208 -0.3060
  154TMC2    C2 2393   4.491   2.886   0.653 -0.2430 -0.5085  0.0615
  154TMC2    C3 2394   4.593   2.863   0.563 -0.5171  0.4842 -0.2785
  154TMC2    C4 2395   4.343   2.888   0.478  0.0081 -0.1685  0.1051
  154TMC2    C5 2396   4.449   2.867   0.396  0.1181 -0.3265 -0.0051
  154TMC2    C6 2397   4.571   2.849   0.436 -0.4316  0.2673 -0.0368
  154TMC2     C 2398   4.267   2.981   0.681 -0.0308 -0.3115  0.7053
  154TMC2     O 2399   4.312   3.033   0.780  0.1251 -0.3037  0.1698
  154TMC2     H 2400   4.503   2.888   0.761 -2.4248 -0.5904  0.2962
  154TMC2    H1 2401   4.248   2.909   0.432  0.0302  0.5442  0.3961
  154TMC2    H2 2402   4.659   2.833   0.375 -1.2961  0.2416 -1.2962
  154TMC2    C7 2403   4.415   2.891   0.253 -0.0033  0.2409 -0.3372
  154TMC2    C8 2404   4.725   2.838   0.618  0.3832 -0.4198 -0.6192
  154TMC2    O1 2405   4.300   2.863   0.226 -0.7467  1.3650 -0.3331
  154TMC2    O2 2406   0.072   2.763   0.571  0.1901 -0.3748  0.1696
  154TMC2    O5 2407   0.007   2.921   0.718  0.3683 -0.0807  0.2822
  154TMC2    H5 2408   4.665   2.979   0.723  0.3042  0.1353 -3.1838
  155MPD2     C 2409   3.891   3.023   0.633  0.6950  0.4295 -0.6586
  155MPD2    C1 2410   4.019   3.047   0.689 -0.0628  0.7998  0.5759
  155MPD2    C2 2411   4.022   3.119   0.807 -0.4030  0.4887 -0.5106
  155MPD2    C3 2412   3.909   3.165   0.876  0.0537  0.4224 -0.0382
  155MPD2    C4 2413   3.783   3.141   0.811  0.8430  0.0031  0.1828
  155MPD2    C5 2414   3.779   3.087   0.687  0.2916  0.3032 -0.6352
  155MPD2     H 2415   4.117   3.133   0.857  0.3779  0.5293 -2.0107
  155MPD2    H1 2416   3.691   3.176   0.855  0.4028 -2.5414  1.2364
  155MPD2    H2 2417   3.879   2.962   0.544  0.2709 -0.4676  0.0185
  155MPD2    H3 2418   3.681   3.075   0.643 -1.0025  1.9126  1.7977
  155MPD2     N 2419   3.929   3.229   0.998 -0.4287 -0.1547  0.4788
  155MPD2    H5 2420   4.023   3.230   1.036  0.1498  0.2871 -0.9523
  155MPD2    N1 2421   4.131   2.969   0.638 -0.6443  0.0536 -0.8744
  155MPD2    H7 2422   4.109   2.911   0.557 -0.2424 -1.4263  0.0836
  156TMC2    C1 2423   3.297   0.307  11.138  0.2329  0.6475 -0.1548
  156TMC2    C2 2424   3.356   0.253  11.027  0.7556 -0.3875  0.5275
  156TMC2    C3 2425   3.316   0.294  10.903 -0.7175 -0.1744  0.0063
  156TMC2    C4 2426   3.198   0.405  11.127 -0.2009 -0.2693  0.4335
  156TMC2    C5 2427   3.149   0.421  10.997 -0.4183 -0.4717 -0.4011
  156TMC2    C6 2428   3.210   0.373  10.889 -0.3616  0.7908  0.8232
  156TMC2     C 2429   3.351   0.277  11.274  0.0863  0.7727 -0.7003
  156TMC2     O 2430   3.305   0.345  11.366 -0.0257  0.6209  0.2524
  156TMC2     H 2431   3.424   0.170  11.040 -3.1587 -3.2005  2.7370
  156TMC2    H1 2432   3.157   0.463  11.209 -1.0806 -0.4346  0.1065
  156TMC2    H2 2433   3.169   0.393  10.791  2.9861  0.3201 -0.6743
  156TMC2    C7 2434   3.077   0.542  10.983 -0.6537 -0.4660  0.5289
  156TMC2    C8 2435   3.381   0.247  10.783 -0.0161 -0.9298  0.6833
  156TMC2    O1 2436   3.130   0.643  10.938 -0.1036 -0.3546  0.1004
  156TMC2    O2 2437   3.326   0.246  10.674  0.0739 -0.1410  0.1833
  156TMC2    O5 2438   3.515   0.251  10.804 -0.0415 -0.5760  0.0181
  156TMC2    H5 2439   3.547   0.269  10.895 -0.5592  0.2420  0.0392
  157MPD2     C 2440   3.654   0.094  11.334 -1.0651  0.6250 -0.6890
  157MPD2    C1 2441   3.550   0.170  11.367  0.3813 -0.2572  0.4495
  157MPD2    C2 2442   3.517   0.193  11.498  0.2039  0.5827 -0.5519
  157MPD2    C3 2443   3.606   0.154  11.600 -0.2886 -0.0324 -0.5401
  157MPD2    C4 2444   3.727   0.094  11.566 -0.4056 -0.2428 -0.0928
  157MPD2    C5 2445   3.746   0.065  11.428 -0.1862 -0.0287  0.6585
  157MPD2     H 2446   3.433   0.251  11.535  1.9896  0.8838  2.9747
  157MPD2    H1 2447   3.802   0.069  11.640  1.8463  1.6551 -1.7396
  157MPD2    H2 2448   3.667   0.055  11.234  1.3982  1.8504 -0.8392
  157MPD2    H3 2449   3.836   0.018  11.391 -0.7287  1.6758 -2.9530
  157MPD2     N 2450   3.574   0.176  11.733  0.5636 -0.6914 -0.2249
  157MPD2    H5 2451   3.476   0.195  11.749  0.1454 -1.7129 -1.5347
  157MPD2    N1 2452   3.477   0.225  11.261 -0.3576 -0.3697  0.3273
  157MPD2    H7 2453   3.521   0.211  11.171 -1.0859  2.5891 -0.4746
  158TMC2    C1 2454   3.379   4.692  13.498  1.1144 -0.3984 -0.9210
  158TMC2    C2 2455   3.408   0.067  13.426 -0.1067 -0.0868 -0.0958
  158TMC2    C3 2456   3.316   0.123  13.338 -0.0271  0.0707 -0.1604
  158TMC2    C4 2457   3.259   4.622  13.475 -0.3372  0.1293 -0.0597
  158TMC2    C5 2458   3.180   4.673  13.372  0.2226 -0.0781 -0.0598
  158TMC2    C6 2459   3.211   0.050  13.302 -0.5648  0.3445  0.2734
  158TMC2     C 2460   3.460   4.658  13.612 -0.2236  0.5218  0.6804
  158TMC2     O 2461   3.556   4.729  13.638 -0.3533 -0.2656  0.3608
  158TMC2     H 2462   3.502   0.117  13.451 -0.1182 -1.0067  1.7470
  158TMC2    H1 2463   3.228   4.543  13.543 -2.7147  0.8214 -0.3345
  158TMC2    H2 2464   3.147   0.082  13.221  0.0904 -2.3187 -1.3174
  158TMC2    C7 2465   3.050   4.617  13.345  0.5113 -0.5644 -0.3232
  158TMC2    C8 2466   3.337   0.262  13.293  0.3640  0.3048  0.3831
  158TMC2    O1 2467   2.964   4.691  13.291 -0.0647  0.3010  0.8872
  158TMC2    O2 2468   3.420   0.329  13.350  0.3308  0.1178  0.2177
  158TMC2    O5 2469   3.250   0.306  13.203  0.5840 -0.7081 -0.0840
  158TMC2    H5 2470   3.194   0.243  13.153  0.4447 -0.0199 -0.8025
  159MPD2     C 2471   3.555   4.349  14.003  0.5619 -0.5085 -0.3762
  159MPD2    C1 2472   3.457   4.287  13.929 -0.7969 -0.5168  0.2932
  159MPD2    C2 2473   3.414   4.357  13.821 -0.1418 -0.4395 -0.3420
  159MPD2    C3 2474   3.472   4.479  13.789 -0.5739  0.0916 -0.2066
  159MPD2    C4 2475   3.564   4.540  13.872 -0.4779  0.2902 -0.2823
  159MPD2    C5 2476   3.607   4.474  13.981 -0.3039 -0.2084  0.1879
  159MPD2     H 2477   3.340   4.322  13.750 -1.3740  1.7767 -0.1406
  159MPD2    H1 2478   3.614   4.632  13.845 -0.4142  0.7456  1.4149
  159MPD2    H2 2479   3.593   4.307  14.095 -0.6903  1.0434  0.8612
  159MPD2    H3 2480   3.680   4.506  14.054  0.1143  0.5496 -0.5617
  159MPD2     N 2481   3.428   4.535  13.667 -0.4391 -0.1702 -0.3688
  159MPD2    H5 2482   3.364   4.475  13.617 -0.9195 -1.5929  1.9777
  159MPD2    N1 2483   3.411   4.162  13.968  0.6946  0.7116  0.1046
  159MPD2    H7 2484   3.450   4.124  14.054 -1.6079  0.3187  0.9521
  160TMC2    C1 2485   3.678   2.155   1.334  0.2195 -0.1265 -0.2931
  160TMC2    C2 2486   3.681   2.032   1.281  0.4559  0.2431  0.2649
  160TMC2    C3 2487   3.800   1.966   1.279 -0.9996  0.1831 -0.2422
  160TMC2    C4 2488   3.793   2.233   1.361 -0.2206  0.0238 -0.1646
  160TMC2    C5 2489   3.911   2.170   1.335  0.2523 -0.7541 -0.2897
  160TMC2    C6 2490   3.916   2.035   1.303 -0.1791  0.2377  0.4626
  160TMC2     C 2491   3.585   2.162   1.445  0.1224  0.2026 -0.6453
  160TMC2     O 2492   3.544   2.054   1.486 -0.1299  0.1797 -0.0115
  160TMC2     H 2493   3.581   1.990   1.279  0.8864 -0.6580 -1.6354
  160TMC2    H1 2494   3.775   2.323   1.419 -3.0376  0.7324 -2.1272
  160TMC2    H2 2495   4.009   1.984   1.284 -0.5490 -0.6558  1.0507
  160TMC2    C7 2496   4.030   2.251   1.341  0.3732 -1.2648  0.0514
  160TMC2    C8 2497   3.810   1.833   1.239 -0.0626  0.7893 -0.1209
  160TMC2    O1 2498   4.138   2.198   1.314 -0.6513 -0.9426  0.3497
  160TMC2    O2 2499   3.748   1.780   1.148  0.3247  0.2513 -0.0410
  160TMC2    O5 2500   3.913   1.770   1.303 -0.9006  0.4765 -0.1657
  160TMC2    H5 2501   3.934   1.820   1.385 -0.2527  0.1393 -0.1316
  161MPD2     C 2502   3.398   2.231   1.659  0.1458  0.3314 -0.0381
  161MPD2    C1 2503   3.434   2.314   1.552  0.6456 -0.1737 -0.1945
  161MPD2    C2 2504   3.359   2.423   1.515  0.7154  0.0912  1.0872
  161MPD2    C3 2505   3.240   2.440   1.577  0.2173  1.1248 -0.3846
  161MPD2    C4 2506   3.204   2.357   1.679 -0.1557  0.0245 -0.6872
  161MPD2    C5 2507   3.281   2.249   1.721  0.0508  0.2077 -0.1864
  161MPD2     H 2508   3.375   2.482   1.425 -1.1627  0.2991  0.8776
  161MPD2    H1 2509   3.111   2.372   1.732  0.5741  0.2055  0.5227
  161MPD2    H2 2510   3.464   2.146   1.677 -0.5335 -0.7155 -2.5036
  161MPD2    H3 2511   3.242   2.183   1.798 -0.8435  0.7433 -0.1890
  161MPD2     N 2512   3.149   2.534   1.539 -0.2957 -0.6836 -0.7191
  161MPD2    H5 2513   3.054   2.517   1.569 -0.1723 -0.8302 -0.4090
  161MPD2    N1 2514   3.540   2.288   1.463  0.1390  0.0739  0.7034
  161MPD2    H7 2515   3.566   2.361   1.397 -0.8758 -0.7556 -0.5866
  162TMC2    C1 2516   1.305   4.016   1.412  0.3713 -0.0656  0.0719
  162TMC2    C2 2517   1.171   4.058   1.405 -0.3320  0.1126 -0.5585
  162TMC2    C3 2518   1.106   4.085   1.518 -0.0951  0.4059  0.4475
  162TMC2    C4 2519   1.361   3.971   1.525 -0.2927 -0.7262 -0.4281
  162TMC2    C5 2520   1.295   4.011   1.643 -0.5071  0.2292 -0.6295
  162TMC2    C6 2521   1.166   4.072   1.639  0.8872 -0.8442 -0.2438
  162TMC2     C 2522   1.391   4.039   1.296  0.1590 -0.0393 -0.0046
  162TMC2     O 2523   1.485   3.969   1.270  0.0404 -0.3245  0.0005
  162TMC2     H 2524   1.116   4.066   1.312 -0.2030 -2.0985 -0.8271
  162TMC2    H1 2525   1.465   3.939   1.526  0.4453  1.6463 -0.4316
  162TMC2    H2 2526   1.111   4.089   1.732  0.6077 -0.2848 -0.5072
  162TMC2    C7 2527   1.359   3.993   1.774 -0.3922  0.3203 -0.4979
  162TMC2    C8 2528   0.963   4.118   1.521 -0.4160  0.6122  0.3546
  162TMC2    O1 2529   1.318   4.062   1.862 -0.0351 -0.7593 -0.3180
  162TMC2    O2 2530   0.900   4.103   1.418 -0.5489  0.2571 -0.3306
  162TMC2    O5 2531   0.927   4.183   1.627  0.4825  0.6924 -0.3086
  162TMC2    H5 2532   0.994   4.220   1.688 -1.0313 -0.9135  2.3146
  163MPD2     C 2533   1.451   4.290   0.856 -0.3155  0.1257 -0.2334
  163MPD2    C1 2534   1.509   4.172   0.904  0.9105  0.5404  0.1512
  163MPD2    C2 2535   1.471   4.125   1.028  0.0233  0.0560 -0.5031
  163MPD2    C3 2536   1.375   4.192   1.102  0.2734 -0.8612 -0.5562
  163MPD2    C4 2537   1.331   4.317   1.053 -0.4086  0.5906 -0.5293
  163MPD2    C5 2538   1.370   4.367   0.931 -0.1064 -0.5137 -0.0854
  163MPD2     H 2539   1.510   4.027   1.051  0.0646  0.4390  1.0195
  163MPD2    H1 2540   1.258   4.378   1.106  1.1021  1.2458  0.8067
  163MPD2    H2 2541   1.479   4.329   0.758  2.9162 -1.1709  0.1912
  163MPD2    H3 2542   1.314   4.454   0.899  0.0433 -0.5762 -0.5218
  163MPD2     N 2543   1.336   4.147   1.226 -0.0429  0.6046  0.2306
  163MPD2    H5 2544   1.270   4.210   1.270  0.4779  2.2912 -1.3933
  163MPD2    N1 2545   1.606   4.112   0.823 -0.1205 -1.0582  0.2462
  163MPD2    H7 2546   1.609   4.142   0.726  1.0894  0.4509  0.7382
  164TMC2    C1 2547   1.842   3.923  11.714 -0.3873  0.1344  0.1673
  164TMC2    C2 2548   1.946   3.930  11.622 -0.0128  0.0184  0.0224
  164TMC2    C3 2549   1.986   4.050  11.579  0.8440  0.1502 -0.3382
  164TMC2    C4 2550   1.780   4.038  11.765  0.0980 -0.1230 -0.7546
  164TMC2    C5 2551   1.830   4.156  11.721  0.0284  0.2014 -0.3798
  164TMC2    C6 2552   1.933   4.169  11.629 -0.1571  0.1667  0.2034
  164TMC2     C 2553   1.784   3.796  11.759  0.0249 -1.3998 -0.3240
  164TMC2     O 2554   1.720   3.785  11.866 -0.8491  0.3856  0.4473
  164TMC2     H 2555   1.997   3.846  11.576  2.2114  1.0991  0.5366
  164TMC2    H1 2556   1.688   4.041  11.822  1.3971  1.0905  1.2870
  164TMC2    H2 2557   1.946   4.263  11.578  0.5155  0.4638  0.9163
  164TMC2    C7 2558   1.734   4.265  11.720  0.0293 -0.4221  0.1229
  164TMC2    C8 2559   2.033   4.071  11.449  0.1626 -0.6850 -0.1786
  164TMC2    O1 2560   1.613   4.238  11.738 -0.3602 -0.2956 -0.0160
  164TMC2    O2 2561   2.015   4.175  11.382  0.6106  0.1732  0.9206
  164TMC2    O5 2562   2.148   3.992  11.441  0.1854 -0.6258 -0.4933
  164TMC2    H5 2563   2.163   3.940  11.522 -0.5747 -0.9886 -0.5871
  165TMC2    C1 2564   3.095   1.598   1.433 -0.8920 -0.2983 -0.1243
  165TMC2    C2 2565   3.082   1.703   1.511 -0.6188 -0.1730  0.2066
  165TMC2    C3 2566   3.196   1.750   1.569  0.2220 -0.5790  0.3665
  165TMC2    C4 2567   3.212   1.542   1.406  0.4035  0.3926  0.4201
  165TMC2    C5 2568   3.325   1.592   1.461 -0.6105 -0.5574 -0.1426
  165TMC2    C6 2569   3.320   1.694   1.555 -0.6206 -0.0573  0.0531
  165TMC2     C 2570   2.989   1.568   1.337 -0.3176  0.4209 -0.5177
  165TMC2     O 2571   2.969   1.451   1.313 -0.4855  0.2238 -0.2326
  165TMC2     H 2572   2.989   1.757   1.529 -2.5621 -3.4670 -0.0045
  165TMC2    H1 2573   3.205   1.453   1.343 -0.7959  1.6804 -1.2460
  165TMC2    H2 2574   3.413   1.743   1.580 -0.3647  0.6816 -2.3495
  165TMC2    C7 2575   3.450   1.578   1.384  0.8945  0.4194 -0.1956
  165TMC2    C8 2576   3.188   1.873   1.649 -0.2553  0.2144 -0.0397
  165TMC2    O1 2577   3.528   1.676   1.380 -0.3305  0.2473  0.6364
  165TMC2    O2 2578   3.264   1.898   1.740 -0.1591 -0.0217 -0.2235
  165TMC2    O5 2579   3.104   1.961   1.596  0.3586  0.3671  0.2892
  165TMC2    H5 2580   3.078   1.941   1.504 -2.2798  1.8740  0.6831
  166MPD2     C 2581   2.613   1.763   1.048  0.2760  0.0064 -0.8755
  166MPD2    C1 2582   2.634   1.632   1.100 -0.4412  0.0142  0.0950
  166MPD2    C2 2583   2.742   1.607   1.182 -0.0786 -0.0355 -0.9312
  166MPD2    C3 2584   2.829   1.707   1.210 -0.4448  0.3427  0.2585
  166MPD2    C4 2585   2.801   1.837   1.158 -0.4830 -1.0871  0.9952
  166MPD2    C5 2586   2.692   1.869   1.084 -0.3836  0.4335 -0.0289
  166MPD2     H 2587   2.763   1.502   1.199 -0.4434 -0.1229 -1.0143
  166MPD2    H1 2588   2.867   1.921   1.175 -0.6236 -0.8002  0.1089
  166MPD2    H2 2589   2.541   1.784   0.970  0.7633 -0.1396 -1.3680
  166MPD2    H3 2590   2.676   1.967   1.041  0.7765  0.0309 -1.3941
  166MPD2     N 2591   2.929   1.690   1.305  0.6349  0.1973  0.3953
  166MPD2    H5 2592   2.984   1.773   1.322 -0.6781  1.1482 -0.0986
  166MPD2    N1 2593   2.546   1.526   1.049  0.2870 -0.7043  0.0846
  166MPD2    H7 2594   2.460   1.545   0.999  0.5571  1.5877  0.4823
  167TMC2    C1 2595   0.858   3.960  12.932 -0.4667  0.1681 -0.1712
  167TMC2    C2 2596   0.748   3.959  13.012 -0.3669  0.0601  0.3071
  167TMC2    C3 2597   0.694   3.836  13.020 -0.6132 -0.3042  0.2459
  167TMC2    C4 2598   0.940   3.850  12.895  0.1448 -0.3145  0.2443
  167TMC2    C5 2599   0.879   3.730  12.925  0.1244 -0.0132  0.3924
  167TMC2    C6 2600   0.756   3.723  12.983 -0.3834  0.4044 -0.6098
  167TMC2     C 2601   0.833   4.044  12.821 -0.5345  0.3334 -0.1266
  167TMC2     O 2602   0.718   4.061  12.792 -0.0807  0.4821 -0.0283
  167TMC2     H 2603   0.686   4.042  13.043 -0.2852  0.1778  0.1569
  167TMC2    H1 2604   1.030   3.859  12.836 -1.1911  0.6757 -1.6443
  167TMC2    H2 2605   0.707   3.626  12.989  0.3492  0.0160 -0.8052
  167TMC2    C7 2606   0.930   3.604  12.871 -0.4061 -0.1582 -0.5019
  167TMC2    C8 2607   0.569   3.834  13.093  0.2809 -0.0323  0.8104
  167TMC2    O1 2608   0.856   3.507  12.881 -0.6543  0.8066  0.2525
  167TMC2    O2 2609   0.532   3.927  13.163  0.2581 -0.4308  0.3926
  167TMC2    O5 2610   0.498   3.721  13.067  0.0314  0.0375  0.1566
  167TMC2    H5 2611   0.413   3.699  13.110  0.1870 -3.8837 -1.5074
  168MPD2     C 2612   0.851   4.239  12.597 -0.0086 -0.1372 -0.0060
  168MPD2    C1 2613   0.961   4.173  12.646  0.6380  0.0574  0.8626
  168MPD2    C2 2614   1.080   4.196  12.586 -0.5133  0.0421  0.2425
  168MPD2    C3 2615   1.091   4.267  12.469  0.2488 -0.2011 -0.1044
  168MPD2    C4 2616   0.980   4.337  12.420 -0.7498 -0.3536  0.1430
  168MPD2    C5 2617   0.859   4.322  12.485 -0.7327  0.8272 -0.3538
  168MPD2     H 2618   1.171   4.151  12.626  0.7340  0.2936 -2.3621
  168MPD2    H1 2619   0.981   4.390  12.326 -3.2257 -1.3304 -0.4268
  168MPD2    H2 2620   0.754   4.236  12.646  0.5741  0.1492  1.1806
  168MPD2    H3 2621   0.773   4.382  12.460 -2.0393 -0.2883  1.5577
  168MPD2     N 2622   1.194   4.253  12.379 -0.3582  0.0870 -0.0491
  168MPD2    H5 2623   1.195   4.297  12.287  0.3083 -1.4939 -0.7988
  168MPD2    N1 2624   0.953   4.090  12.765  0.0646 -0.7139  0.0036
  168MPD2    H7 2625   1.039   4.057  12.807  0.1308  0.1317  0.5253
  169MPD1     C 2626   2.367   3.760   9.908  0.0975 -0.3879 -0.0608
  169MPD1    C1 2627   2.456   3.866   9.920 -0.1146  0.0478 -0.3368
  169MPD1    C2 2628   2.585   3.833   9.960  0.2667  0.1293  0.4193
  169MPD1    C3 2629   2.624   3.702   9.984 -1.0143  0.1615 -0.0864
  169MPD1    C4 2630   2.535   3.600   9.963  0.1666 -0.0040  0.5422
  169MPD1    C5 2631   2.409   3.630   9.924  0.2735  0.7036  0.8089
  169MPD1     H 2632   2.655   3.915   9.969 -0.6204  1.0411 -1.1550
  169MPD1    H1 2633   2.562   3.496   9.978 -0.1878  0.2369  2.8172
  169MPD1    H2 2634   2.261   3.775   9.890 -0.1809 -0.8618  1.1722
  169MPD1    H3 2635   2.340   3.547   9.911 -2.1198  2.6422  1.1180
  169MPD1     N 2636   2.759   3.685  10.013 -0.0526 -0.1913  0.6661
  169MPD1    H5 2637   2.812   3.772  10.010 -0.9137  0.3074 -0.0640
  169MPD1    N1 2638   2.423   4.002   9.886 -0.1007  0.2149  0.4537
  169MPD1    H6 2639   2.330   4.001   9.843  0.5507  0.2177 -0.9546
  169MPD1    H7 2640   2.491   4.031   9.816  1.6746  0.2351  2.1907
  170MPD1     C 2641   2.296   1.094  12.951  0.0884 -0.7418  0.2575
  170MPD1    C1 2642   2.390   1.194  12.963  1.1358 -0.4348  0.4473
  170MPD1    C2 2643   2.429   1.227  13.093  0.2603 -0.3057 -0.7392
  170MPD1    C3 2644   2.362   1.181  13.205 -0.9624 -0.2634 -0.3693
  170MPD1    C4 2645   2.262   1.089  13.187 -0.4255  0.1027 -0.6233
  170MPD1    C5 2646   2.231   1.041  13.057  0.6148  1.4791 -0.3923
  170MPD1     H 2647   2.512   1.293  13.116  0.9067 -0.2811 -3.0973
  170MPD1    H1 2648   2.219   1.051  13.280  2.7849 -0.8256  0.4800
  170MPD1    H2 2649   2.261   1.056  12.856 -1.4421 -2.6264  1.5751
  170MPD1    H3 2650   2.161   0.961  13.037 -0.1868  2.7370 -2.6979
  170MPD1     N 2651   2.404   1.231  13.334 -0.7804  0.1642 -0.6641
  170MPD1    H5 2652   2.488   1.287  13.328 -0.2108 -0.6090  0.1310
  170MPD1    N1 2653   2.472   1.228  12.849 -0.1226  0.4042 -0.8217
  170MPD1    H6 2654   2.537   1.305  12.866 -1.0319  1.1724 -0.7959
  170MPD1    H7 2655   2.424   1.247  12.761 -1.3981  0.0555 -0.2027
  171MPD1     C 2656   0.490   2.541  15.887 -0.2057  0.4056  0.2303
  171MPD1    C1 2657   0.439   2.414  15.895  0.0467 -0.2614 -0.6403
  171MPD1    C2 2658   0.521   2.304  15.865  0.4170 -0.5042  0.8491
  171MPD1    C3 2659   0.654   2.325  15.825  0.0406 -0.1807  0.1760
  171MPD1    C4 2660   0.704   2.451  15.818 -0.2876  0.7131 -0.0251
  171MPD1    C5 2661   0.625   2.555  15.848  0.1336  0.3876 -0.4789
  171MPD1     H 2662   0.476   2.206  15.880 -0.3668 -0.4377 -1.1678
  171MPD1    H1 2663   0.802   2.478  15.781  0.1189  0.8023  1.1002
  171MPD1    H2 2664   0.437   2.632  15.914  0.7655  1.0287  0.0196
  171MPD1    H3 2665   0.675   2.650  15.839 -1.2049  1.1214 -0.2492
  171MPD1     N 2666   0.733   2.216  15.783 -0.1514 -1.1463  0.1498
  171MPD1    H5 2667   0.832   2.228  15.768 -0.6376  0.6295 -1.6651
  171MPD1    N1 2668   0.314   2.391  15.944  0.2266  0.6776 -0.8340
  171MPD1    H6 2669   0.242   2.461  15.935 -0.8664 -0.3809 -0.2781
  171MPD1    H7 2670   0.287   2.295  15.926 -0.4248  1.0426 -1.8009
  172MPD1     C 2671   4.225   1.291   0.812  0.0672  0.6066  0.1679
  172MPD1    C1 2672   4.183   1.420   0.788  0.1710 -0.2597  0.0773
  172MPD1    C2 2673   4.275   1.524   0.775 -0.2900 -0.2318  0.1223
  172MPD1    C3 2674   4.409   1.494   0.780  0.0382 -0.4730 -0.0485
  172MPD1    C4 2675   4.449   1.368   0.804  0.1813  0.3002 -0.4415
  172MPD1    C5 2676   4.356   1.268   0.826 -0.2199  1.4388  0.6001
  172MPD1     H 2677   4.230   1.622   0.762  1.3204  0.2770 -1.4541
  172MPD1    H1 2678   4.553   1.338   0.805  0.6445  1.9483  0.5821
  172MPD1    H2 2679   4.158   1.206   0.821 -0.9292  1.3590 -0.1729
  172MPD1    H3 2680   4.382   1.170   0.862 -0.2300  0.8417 -1.0058
  172MPD1     N 2681   4.506   1.589   0.743  0.7371 -0.6839  0.5450
  172MPD1    H5 2682   4.602   1.556   0.742  1.4787  1.4374  0.2697
  172MPD1    N1 2683   4.055   1.440   0.750  0.4031  0.0566  0.1146
  172MPD1    H6 2684   4.017   1.533   0.765 -2.4852 -1.3179  1.2032
  172MPD1    H7 2685   3.990   1.375   0.792 -2.0602  1.3635 -1.6738
  173MPD1     C 2686   2.009   1.739  13.532  0.1776  0.1933  0.3410
  173MPD1    C1 2687   1.877   1.720  13.554  0.1404 -0.9558  0.1739
  173MPD1    C2 2688   1.843   1.668  13.676  0.6884 -0.8287  0.2619
  173MPD1    C3 2689   1.924   1.656  13.787  0.1152 -0.5736  0.5289
  173MPD1    C4 2690   2.048   1.712  13.769 -0.1674  0.5401 -0.5519
  173MPD1    C5 2691   2.092   1.742  13.643 -1.0512  0.2320 -0.1262
  173MPD1     H 2692   1.742   1.633  13.696  1.0010 -1.5377  0.6281
  173MPD1    H1 2693   2.127   1.708  13.843  0.1313 -0.5572 -0.9403
  173MPD1    H2 2694   2.055   1.761  13.436  0.7679 -0.0224  0.5746
  173MPD1    H3 2695   2.200   1.753  13.633 -0.7857 -2.1708  0.0319
  173MPD1     N 2696   1.875   1.617  13.916 -0.2410  0.6604  0.3840
  173MPD1    H5 2697   1.790   1.563  13.911 -1.1353  2.0732  0.2081
  173MPD1    N1 2698   1.796   1.700  13.442 -0.0933  0.1513  0.1294
  173MPD1    H6 2699   1.696   1.694  13.460 -0.3102 -1.9985 -1.8019
  173MPD1    H7 2700   1.805   1.766  13.365 -1.6306  1.5902  1.1831
  174MPD1     C 2701   2.315   1.173  14.706  0.6123  0.0239 -0.1243
  174MPD1    C1 2702   2.184   1.190  14.739 -0.1956 -0.8664  0.1308
  174MPD1    C2 2703   2.109   1.256  14.649 -0.7193 -0.6686 -0.2540
  174MPD1    C3 2704   2.159   1.307  14.526 -0.5464 -0.5729  0.3594
  174MPD1    C4 2705   2.291   1.284  14.494 -0.1119 -0.6056  0.1495
  174MPD1    C5 2706   2.363   1.210  14.585  0.8034  0.0429  0.6006
  174MPD1     H 2707   2.002   1.265  14.668  0.0250  5.1302  0.8887
  174MPD1    H1 2708   2.340   1.315  14.402  2.2040 -1.6080  1.0391
  174MPD1    H2 2709   2.390   1.123  14.767  0.3324  0.8122  0.8606
  174MPD1    H3 2710   2.471   1.204  14.583  0.7898 -0.5497  2.3773
  174MPD1     N 2711   2.066   1.364  14.428  0.3159  0.0993 -0.5006
  174MPD1    H5 2712   2.111   1.393  14.342  0.6905  1.5566  0.1866
  174MPD1    N1 2713   2.132   1.173  14.873  0.2089  0.4970 -0.0381
  174MPD1    H6 2714   2.193   1.107  14.921  0.5767  1.7370  1.1641
  174MPD1    H7 2715   2.040   1.129  14.873 -0.0974  1.1335 -1.0505
  175MPD1     C 2716   4.653   2.693  15.419  0.0819 -0.3822 -0.4685
  175MPD1    C1 2717   0.006   2.606  15.473 -0.1227 -0.6314 -0.1055
  175MPD1    C2 2718   4.710   2.530  15.582 -0.5879 -0.6829  0.4304
  175MPD1    C3 2719   4.586   2.552  15.648 -0.0932 -0.2329 -0.6607
  175MPD1    C4 2720   4.501   2.642  15.598 -0.8562 -0.4223 -0.6909
  175MPD1    C5 2721   4.536   2.716  15.485  0.4255  0.0115 -0.5409
  175MPD1     H 2722   0.048   2.468  15.627 -0.1370 -0.0760  0.5162
  175MPD1    H1 2723   4.408   2.672  15.645 -0.5618 -0.2318 -0.2351
  175MPD1    H2 2724   4.670   2.746  15.326  1.0475  2.2918  1.2309
  175MPD1    H3 2725   4.479   2.799  15.445  1.3879  1.4065  0.9738
  175MPD1     N 2726   4.541   2.488  15.759  0.3716  0.1672  0.6403
  175MPD1    H5 2727   4.444   2.499  15.786 -0.3607  0.7968 -2.2961
  175MPD1    N1 2728   0.113   2.567  15.388 -0.8950  0.4359  0.1027
  175MPD1    H6 2729   0.190   2.528  15.442 -0.2948  0.7320 -0.5365
  175MPD1    H7 2730   0.155   2.649  15.344 -1.8077  1.0720  0.4251
  176MPD1     C 2731   1.060   3.896   0.003  0.3102  0.2329 -0.5266
  176MPD1    C1 2732   1.009   4.018   0.030 -0.1200 -0.2204  0.9422
  176MPD1    C2 2733   1.076   4.127  17.732  0.7736  0.8109 -0.1426
  176MPD1    C3 2734   1.188   4.110  17.656  0.6100 -0.0807  0.5882
  176MPD1    C4 2735   1.251   3.982  17.652  0.0718 -0.2715 -0.8992
  176MPD1    C5 2736   1.174   3.877  17.686  0.2650 -0.4082 -0.4367
  176MPD1     H 2737   1.036   4.228  17.738 -0.7160  0.3113 -1.5331
  176MPD1    H1 2738   1.339   3.956  17.593 -0.0350 -0.6117 -0.9099
  176MPD1    H2 2739   1.015   3.802   0.034 -1.6447  0.7542 -1.7313
  176MPD1    H3 2740   1.208   3.776  17.667  0.2813 -0.5907  0.5454
  176MPD1     N 2741   1.248   4.216  17.606 -0.2241 -0.2017  0.0665
  176MPD1    H5 2742   1.217   4.307  17.637  0.7220 -0.6411  2.3069
  176MPD1    N1 2743   0.896   4.010   0.108  0.4327 -0.0779 -0.0953
  176MPD1    H6 2744   0.828   4.077   0.074 -0.2695 -0.5073  0.4464
  176MPD1    H7 2745   0.854   3.917   0.113  1.5807 -0.5557  0.6740
  177MPD1     C 2746   3.911   4.322   8.711  0.3334 -0.4846 -0.0510
  177MPD1    C1 2747   3.794   4.394   8.689  0.7102  0.0067 -0.5256
  177MPD1    C2 2748   3.707   4.426   8.792 -0.3106 -0.1199 -0.1123
  177MPD1    C3 2749   3.745   4.391   8.926  0.9657  0.2198  0.7996
  177MPD1    C4 2750   3.863   4.314   8.937  0.1926 -0.3731  0.1913
  177MPD1    C5 2751   3.944   4.271   8.835 -0.0414 -0.3178  0.0218
  177MPD1     H 2752   3.615   4.479   8.770 -1.1475 -2.0293 -1.2368
  177MPD1    H1 2753   3.893   4.283   9.037 -1.8662  0.2150  0.9956
  177MPD1    H2 2754   3.983   4.300   8.632  0.0051 -0.7462 -0.2756
  177MPD1    H3 2755   4.034   4.216   8.859  0.8853  1.4279  0.5843
  177MPD1     N 2756   3.658   4.422   9.031 -0.6480  0.2289 -0.3231
  177MPD1    H5 2757   3.578   4.475   8.996  1.1088  2.9519 -0.2780
  177MPD1    N1 2758   3.756   4.430   8.559  0.0989  0.6271  1.0056
  177MPD1    H6 2759   3.694   4.511   8.552 -1.5880 -1.0730 -3.7893
  177MPD1    H7 2760   3.841   4.436   8.504 -0.4808 -1.5227 -0.1067
  178MPD1     C 2761   2.234   0.611   0.695 -0.2724  0.1135  0.2278
  178MPD1    C1 2762   2.228   0.480   0.649 -0.4157  0.3468  0.4157
  178MPD1    C2 2763   2.271   0.461   0.519  0.7639  0.0041  0.4098
  178MPD1    C3 2764   2.289   0.566   0.432  0.0539 -0.0576  0.5798
  178MPD1    C4 2765   2.269   0.696   0.476 -0.0563 -0.7181 -0.0910
  178MPD1    C5 2766   2.244   0.720   0.607 -0.2278 -0.6885 -0.4183
  178MPD1     H 2767   2.288   0.358   0.490 -0.3660  0.2257 -1.0200
  178MPD1    H1 2768   2.265   0.780   0.407 -1.1165 -0.1824  0.6230
  178MPD1    H2 2769   2.211   0.632   0.799 -0.6525 -0.5503  0.2753
  178MPD1    H3 2770   2.221   0.819   0.645  1.5562 -0.0005 -1.1513
  178MPD1     N 2771   2.306   0.551   0.297 -0.2514  0.0025 -0.6677
  178MPD1    H5 2772   2.327   0.636   0.245 -1.1421 -0.3983 -1.6862
  178MPD1    N1 2773   2.221   0.379   0.741 -0.2132 -0.3553  0.0737
  178MPD1    H6 2774   2.195   0.292   0.695  2.5559 -0.5794 -1.0956
  178MPD1    H7 2775   2.140   0.406   0.797  2.0204  3.7771  1.2677
  179MPD1     C 2776   1.765   3.796  16.578  0.3536  0.1165  0.6405
  179MPD1    C1 2777   1.746   3.780  16.448 -0.4331 -0.1717 -0.2473
  179MPD1    C2 2778   1.752   3.654  16.391  0.5547 -0.8474 -0.3692
  179MPD1    C3 2779   1.774   3.541  16.467 -0.7058 -0.3689 -0.4936
  179MPD1    C4 2780   1.790   3.561  16.601  0.9108  1.1223  0.2345
  179MPD1    C5 2781   1.786   3.687  16.661 -0.0215 -0.0134 -0.1817
  179MPD1     H 2782   1.741   3.641  16.284 -0.9216  0.4998 -0.3876
  179MPD1    H1 2783   1.823   3.476  16.660  0.9752 -0.0467 -1.5013
  179MPD1    H2 2784   1.766   3.890  16.632  0.0680  2.6321 -3.7426
  179MPD1    H3 2785   1.804   3.708  16.766  0.1705  1.5909 -0.5357
  179MPD1     N 2786   1.778   3.409  16.405  0.2359 -0.2651  0.6312
  179MPD1    H5 2787   1.805   3.336  16.470  1.8268 -0.7950 -0.6139
  179MPD1    N1 2788   1.750   3.890  16.364 -0.0366 -0.2719  0.0926
  179MPD1    H6 2789   1.689   3.871  16.285 -0.4079  2.4692 -0.2725
  179MPD1    H7 2790   1.712   3.963  16.423 -0.6992  0.1763 -0.8925
  180MPD1     C 2791   1.865   4.153  15.947 -0.2271 -0.2200 -0.2321
  180MPD1    C1 2792   1.964   4.223  15.886 -0.4419  0.2344  0.1504
  180MPD1    C2 2793   1.952   4.254  15.749  0.1424  0.2411  0.1831
  180MPD1    C3 2794   1.834   4.219  15.684 -0.2365 -0.0216 -0.7170
  180MPD1    C4 2795   1.732   4.161  15.749  0.1280  0.7677 -0.7521
  180MPD1    C5 2796   1.750   4.126  15.880  0.8245 -0.4103 -0.2363
  180MPD1     H 2797   2.035   4.302  15.699  1.4998 -3.7610 -1.3987
  180MPD1    H1 2798   1.636   4.131  15.707  1.6708 -3.5715 -1.1659
  180MPD1    H2 2799   1.861   4.130  16.053  1.6935 -2.1607 -0.5719
  180MPD1    H3 2800   1.665   4.072  15.921  0.8569 -0.9791 -0.9096
  180MPD1     N 2801   1.825   4.256  15.545 -0.1847 -0.1154  0.1472
  180MPD1    H5 2802   1.908   4.291  15.497 -0.1331  0.3739  0.5972
  180MPD1    N1 2803   2.057   4.298  15.960  0.2277  0.2885  0.1788
  180MPD1    H6 2804   2.140   4.315  15.903  0.9140 -0.2168  1.0303
  180MPD1    H7 2805   2.089   4.256  16.047 -1.6380 -0.9919  0.2342
  181MPD1     C 2806   2.810   1.938  10.109 -0.3809  0.3163 -0.1688
  181MPD1    C1 2807   2.821   2.050  10.189  0.0893  0.2614  0.0271
  181MPD1    C2 2808   2.951   2.085  10.234  1.0958 -0.2864 -0.2879
  181MPD1    C3 2809   3.061   2.018  10.181 -0.2056  0.6938 -0.9531
  181MPD1    C4 2810   3.039   1.912  10.096  0.1849 -0.8873 -0.0776
  181MPD1    C5 2811   2.917   1.877  10.054 -0.7073 -0.3250  0.0427
  181MPD1     H 2812   2.967   2.179  10.286  0.7491 -0.5066  0.2172
  181MPD1    H1 2813   3.124   1.848  10.073  0.2445 -0.8101 -0.0707
  181MPD1    H2 2814   2.713   1.894  10.085  0.1906  1.0099 -3.7831
  181MPD1    H3 2815   2.903   1.795   9.985 -2.2955 -1.7873  2.0674
  181MPD1     N 2816   3.196   2.048  10.207 -0.2000 -0.0546  0.0613
  181MPD1    H5 2817   3.264   1.988  10.161 -1.7454  0.5380 -2.9893
  181MPD1    N1 2818   2.703   2.118  10.223 -0.3483  0.0797  0.3660
  181MPD1    H6 2819   2.715   2.171  10.309  0.0931  2.4045 -1.1404
  181MPD1    H7 2820   2.628   2.051  10.240 -0.3806  0.1603  0.5410
  182MPD1     C 2821   0.682   1.539   1.488  0.1269 -0.6259  0.2582
  182MPD1    C1 2822   0.671   1.405   1.500 -0.3626  0.0555 -0.4593
  182MPD1    C2 2823   0.542   1.355   1.508 -0.1134 -0.3689  0.7415
  182MPD1    C3 2824   0.429   1.432   1.489  0.1175  0.1609  0.0424
  182MPD1    C4 2825   0.449   1.564   1.465  0.7537 -0.0928  0.5455
  182MPD1    C5 2826   0.571   1.616   1.475  0.1205 -0.4988  0.8340
  182MPD1     H 2827   0.542   1.251   1.541  0.6216 -0.1510  1.4326
  182MPD1    H1 2828   0.369   1.637   1.458 -0.2912 -1.2541  0.5249
  182MPD1    H2 2829   0.776   1.594   1.491 -0.0250 -0.3148 -0.8416
  182MPD1    H3 2830   0.590   1.722   1.464  0.7085 -0.6967 -0.0603
  182MPD1     N 2831   0.298   1.383   1.510  0.4666 -0.0948  0.0288
  182MPD1    H5 2832   0.221   1.449   1.506  0.9786  0.5228  0.5809
  182MPD1    N1 2833   0.783   1.326   1.537 -0.4656  0.2546 -0.5957
  182MPD1    H6 2834   0.771   1.228   1.511  3.0326 -0.1508 -0.6253
  182MPD1    H7 2835   0.872   1.360   1.504  0.6888 -3.0177 -0.9119
  183MPD1     C 2836   0.659   2.421   9.733 -0.7808  0.1834  0.3263
  183MPD1    C1 2837   0.546   2.462   9.798  0.3742 -0.3376 -0.7287
  183MPD1    C2 2838   0.436   2.380   9.809  0.6764  0.4537 -0.7803
  183MPD1    C3 2839   0.440   2.251   9.753  0.1383 -0.4606 -0.4833
  183MPD1    C4 2840   0.560   2.207   9.701 -0.8558 -0.4381  0.1980
  183MPD1    C5 2841   0.669   2.289   9.693  0.7013 -0.1887  0.4501
  183MPD1     H 2842   0.353   2.413   9.870 -1.5416  0.4116 -3.7508
  183MPD1    H1 2843   0.577   2.107   9.663 -3.3381 -1.2411  1.1896
  183MPD1    H2 2844   0.746   2.484   9.721  1.0652 -2.1788  1.3801
  183MPD1    H3 2845   0.759   2.245   9.652 -0.5942 -1.9607 -0.4957
  183MPD1     N 2846   0.322   2.176   9.749  0.0980  0.4944  0.1689
  183MPD1    H5 2847   0.245   2.225   9.792 -0.2762  0.5071 -0.5118
  183MPD1    N1 2848   0.550   2.587   9.853 -0.2103 -0.1018 -0.3628
  183MPD1    H6 2849   0.467   2.645   9.863 -2.6016 -3.5238 -0.3426
  183MPD1    H7 2850   0.619   2.644   9.806  0.5181 -0.3457  0.3938
  184MPD1     C 2851   3.370   0.129  10.343  0.1268  0.4946 -0.3067
  184MPD1    C1 2852   3.307   0.062  10.237  0.4470  0.4192  0.2428
  184MPD1    C2 2853   3.389   0.032  10.123 -0.4372 -0.3178  0.0055
  184MPD1    C3 2854   3.518   0.077  10.105  0.7003 -0.5310 -0.4134
  184MPD1    C4 2855   3.573   0.143  10.209 -0.4872  0.8867 -1.2015
  184MPD1    C5 2856   3.502   0.168  10.320 -0.4702  0.4886 -0.3466
  184MPD1     H 2857   3.347   4.698  10.053 -2.1427 -1.2364  1.9432
  184MPD1    H1 2858   3.669   0.194  10.214 -0.6449  1.0664 -0.0564
  184MPD1    H2 2859   3.334   0.148  10.443  1.4824  0.3285  0.2125
  184MPD1    H3 2860   3.550   0.213  10.406 -1.2773 -0.1822  0.4579
  184MPD1     N 2861   3.597   0.044   9.992 -0.8798  0.3367 -0.0074
  184MPD1    H5 2862   3.695   0.068   9.998 -1.1508  1.5365 -0.3966
  184MPD1    N1 2863   3.180   0.014  10.256  0.2866 -0.1691  0.2302
  184MPD1    H6 2864   3.125   4.736  10.172 -0.4605 -0.3891  0.7621
  184MPD1    H7 2865   3.131   0.063  10.331 -0.0244 -0.1391  0.0054
  185MPD1     C 2866   3.823   0.033   8.942  0.2888 -0.5049  0.0012
  185MPD1    C1 2867   3.718   0.099   8.998 -0.0139 -0.3682 -1.4562
  185MPD1    C2 2868   3.714   0.086   9.139  0.0882  0.1025 -0.1326
  185MPD1    C3 2869   3.787   0.002   9.217 -0.3734 -0.1859  0.4268
  185MPD1    C4 2870   3.880   4.663   9.147 -0.7640 -0.0183 -0.4656
  185MPD1    C5 2871   3.893   4.679   9.014  0.0963  0.4109  0.8801
  185MPD1     H 2872   3.632   0.135   9.190  0.6259  0.7781  0.0923
  185MPD1    H1 2873   3.933   4.575   9.182 -0.7993 -0.2229 -0.9322
  185MPD1    H2 2874   3.836   0.031   8.834 -0.8533 -0.2651 -0.1408
  185MPD1    H3 2875   3.957   4.615   8.955 -1.1944 -1.7066  1.7731
  185MPD1     N 2876   3.769   4.728   9.358  0.1353  0.4097 -0.3116
  185MPD1    H5 2877   3.826   4.657   9.404 -1.1023 -0.7426 -0.5668
  185MPD1    N1 2878   3.640   0.185   8.924 -0.0895  0.1067 -0.7739
  185MPD1    H6 2879   3.542   0.184   8.952 -0.0751  0.0278 -0.7255
  185MPD1    H7 2880   3.641   0.170   8.823 -0.7325 -1.7615 -0.5086
  186MPD1     C 2881   1.987   3.226  15.850  0.1822  0.2227 -0.1321
  186MPD1    C1 2882   2.116   3.236  15.896 -1.0774  0.3002  0.0896
  186MPD1    C2 2883   2.143   3.338  15.983 -0.8000  0.5681 -0.7448
  186MPD1    C3 2884   2.054   3.438  16.007  0.3275  0.2515  0.2431
  186MPD1    C4 2885   1.925   3.425  15.963  0.6554 -0.0302  0.6345
  186MPD1    C5 2886   1.892   3.318  15.882  0.7077  0.7392 -0.5703
  186MPD1     H 2887   2.241   3.345  16.028 -2.7083  1.1971  3.3471
  186MPD1    H1 2888   1.856   3.505  15.988 -1.8500 -2.0264  0.0476
  186MPD1    H2 2889   1.963   3.141  15.787 -0.8262  1.5859 -1.5994
  186MPD1    H3 2890   1.797   3.325  15.830  1.0639  1.9327 -1.0675
  186MPD1     N 2891   2.077   3.561  16.074  0.6362 -0.0546  0.0095
  186MPD1    H5 2892   2.002   3.628  16.091  1.7586  1.1204  0.3533
  186MPD1    N1 2893   2.203   3.129  15.868 -0.0319 -0.2912  0.1456
  186MPD1    H6 2894   2.301   3.141  15.895 -0.1318 -2.3037  1.3792
  186MPD1    H7 2895   2.200   3.092  15.773  0.6247 -1.9541  0.7804
  187MPD1     C 2896   1.614   0.647   0.171 -0.7811 -0.7131 -0.5039
  187MPD1    C1 2897   1.562   0.532   0.132 -0.7955  0.5039  0.5148
  187MPD1    C2 2898   1.555   0.498   0.002  0.3325 -0.1184 -0.1591
  187MPD1    C3 2899   1.603   0.585  17.658 -0.1814 -0.6680 -0.1926
  187MPD1    C4 2900   1.650   0.704  17.694 -0.0128  0.3771  0.0466
  187MPD1    C5 2901   1.659   0.732   0.077  0.2293  0.6402  0.3573
  187MPD1     H 2902   1.520   0.397  17.730 -1.9778  0.3137  1.8140
  187MPD1    H1 2903   1.689   0.763  17.612 -0.6701  0.0279 -0.5229
  187MPD1    H2 2904   1.633   0.663   0.276 -0.5470 -1.2413 -0.4639
  187MPD1    H3 2905   1.702   0.824   0.115 -0.2333  0.6054  0.9806
  187MPD1     N 2906   1.585   0.557  17.521  0.1142 -0.2057  0.0855
  187MPD1    H5 2907   1.635   0.613  17.453 -0.9774 -3.1859 -3.1189
  187MPD1    N1 2908   1.526   0.434   0.229  0.2497  0.3617 -0.2759
  187MPD1    H6 2909   1.524   0.470   0.325 -1.7311 -1.3411  0.3112
  187MPD1    H7 2910   1.442   0.378   0.216  1.2125 -1.1997  0.2928
  188MPD1     C 2911   0.952   1.203  10.304  0.0519  0.1333  0.7892
  188MPD1    C1 2912   1.020   1.155  10.415 -0.7309 -0.1178 -0.2965
  188MPD1    C2 2913   1.051   1.025  10.424  0.0209  0.5640  0.4345
  188MPD1    C3 2914   1.027   0.941  10.315 -0.3319  0.4863  0.3807
  188MPD1    C4 2915   0.963   0.989  10.206 -0.1083 -0.1531  0.1049
  188MPD1    C5 2916   0.928   1.120  10.199 -0.3612 -0.0836  0.4186
  188MPD1     H 2917   1.099   0.979  10.510 -4.1865 -3.1236  0.8204
  188MPD1    H1 2918   0.940   0.918  10.128  1.3413 -0.3802 -0.1170
  188MPD1    H2 2919   0.908   1.302  10.304 -1.8563 -0.7038 -1.9401
  188MPD1    H3 2920   0.882   1.162  10.111  0.0027 -2.1282 -0.7508
  188MPD1     N 2921   1.057   0.803  10.307 -0.4868  0.3212  0.6167
  188MPD1    H5 2922   1.005   0.745  10.242 -0.5262 -0.5760  1.4357
  188MPD1    N1 2923   1.022   1.229  10.531  0.9349  0.5749 -0.1032
  188MPD1    H6 2924   1.021   1.329  10.513  2.6428  0.1801 -2.4094
  188MPD1    H7 2925   1.115   1.202  10.563 -0.3888 -0.5243  2.8592
  189MPD1     C 2926   3.035   1.036   0.649  0.8076 -0.1703  0.4668
  189MPD1    C1 2927   2.921   1.015   0.574 -0.5369  0.1021  0.6954
  189MPD1    C2 2928   2.879   1.125   0.507  0.2801  0.6050  0.1724
  189MPD1    C3 2929   2.930   1.251   0.525  0.7749 -0.0868  0.4422
  189MPD1    C4 2930   3.028   1.276   0.620 -0.7840 -0.0524  0.4001
  189MPD1    C5 2931   3.081   1.163   0.682 -0.2963 -0.4123 -0.0004
  189MPD1     H 2932   2.794   1.114   0.442  0.8451 -0.2494 -0.4257
  189MPD1    H1 2933   3.068   1.370   0.656  0.4224 -0.6773  0.7049
  189MPD1    H2 2934   3.089   0.954   0.697  0.2737 -0.3271  0.8044
  189MPD1    H3 2935   3.164   1.185   0.747  1.7179  2.3088 -3.4842
  189MPD1     N 2936   2.877   1.353   0.446  0.6042  0.1026 -0.3428
  189MPD1    H5 2937   2.811   1.327   0.374  2.8215  0.7794 -2.6186
  189MPD1    N1 2938   2.862   0.889   0.556  0.0565 -0.1271  0.5248
  189MPD1    H6 2939   2.775   0.887   0.504 -0.1413 -0.5662  0.8790
  189MPD1    H7 2940   2.851   0.826   0.634  4.0687 -2.0067 -0.4235
  190MPD1     C 2941   1.361   4.664  15.808 -0.0670 -0.4342  0.1364
  190MPD1    C1 2942   1.405   4.723  15.922  0.0520 -0.0826 -0.7530
  190MPD1    C2 2943   1.537   0.012  15.943 -0.3741 -0.0595 -0.1343
  190MPD1    C3 2944   1.631   4.712  15.853  0.0576 -0.5428  0.1340
  190MPD1    C4 2945   1.593   4.635  15.743  0.2065 -0.9398  0.2947
  190MPD1    C5 2946   1.461   4.616  15.725  0.7114  0.2999  0.2516
  190MPD1     H 2947   1.570   0.053  16.038 -1.1763 -1.9268  0.9586
  190MPD1    H1 2948   1.659   4.587  15.671  1.1869 -0.4947  0.8991
  190MPD1    H2 2949   1.255   4.645  15.794  0.3210 -1.5518 -1.2310
  190MPD1    H3 2950   1.434   4.558  15.638 -0.2693  0.9433  0.1319
  190MPD1     N 2951   1.763   4.727  15.888  0.2057  0.0063  0.1346
  190MPD1    H5 2952   1.790   0.041  15.971 -0.1620  2.2842 -1.1480
  190MPD1    N1 2953   1.311   0.024  16.019  0.4101 -0.3091 -0.6356
  190MPD1    H6 2954   1.337   0.007  16.116  1.8937 -0.2193 -1.0243
  190MPD1    H7 2955   1.221   4.716  16.000  0.8782 -1.8274  0.7886
  191MPD1     C 2956   1.364   1.339  12.907 -0.3296 -0.5568 -0.5277
  191MPD1    C1 2957   1.285   1.310  12.799 -0.6302 -0.9819 -0.2518
  191MPD1    C2 2958   1.342   1.324  12.668  0.3523  0.1751  0.3708
  191MPD1    C3 2959   1.472   1.360  12.653  0.1086 -0.5448 -0.0537
  191MPD1    C4 2960   1.549   1.387  12.768  0.6681 -0.6351 -0.1967
  191MPD1    C5 2961   1.492   1.380  12.893  0.1271 -0.6289  0.2725
  191MPD1     H 2962   1.284   1.307  12.578  1.1101 -0.5380  0.0124
  191MPD1    H1 2963   1.645   1.438  12.760 -0.2350  0.7035 -2.3275
  191MPD1    H2 2964   1.324   1.326  13.007  0.8802  1.6545  0.2624
  191MPD1    H3 2965   1.558   1.410  12.974 -1.4696  0.3355  1.1989
  191MPD1     N 2966   1.521   1.377  12.519  0.4696  0.2282 -0.3358
  191MPD1    H5 2967   1.456   1.377  12.441  1.3806  0.4864 -1.0982
  191MPD1    N1 2968   1.167   1.240  12.809  0.7321 -0.1891  1.0801
  191MPD1    H6 2969   1.118   1.264  12.895 -2.5133  2.1522 -1.4744
  191MPD1    H7 2970   1.107   1.252  12.728  1.5747  3.8474  1.0523
  192MPD1     C 2971   1.293   1.397  11.615  0.5005  0.3311 -0.0182
  192MPD1    C1 2972   1.315   1.287  11.691 -0.0496  0.1060 -0.0472
  192MPD1    C2 2973   1.397   1.294  11.794  0.8431  0.0282 -0.2494
  192MPD1    C3 2974   1.488   1.400  11.806  0.2880  0.5240  0.0372
  192MPD1    C4 2975   1.465   1.509  11.726 -0.3246  0.2798 -0.3128
  192MPD1    C5 2976   1.378   1.502  11.623  0.3428 -0.2476  0.0005
  192MPD1     H 2977   1.395   1.202  11.852  1.2879 -0.3568 -0.8378
  192MPD1    H1 2978   1.525   1.599  11.731 -0.0018  0.0774 -0.5774
  192MPD1    H2 2979   1.209   1.398  11.546  0.3547 -0.9065  0.1346
  192MPD1    H3 2980   1.361   1.586  11.557 -0.3193  0.6845  1.3316
  192MPD1     N 2981   1.584   1.407  11.914 -0.1454 -0.0128  0.0502
  192MPD1    H5 2982   1.637   1.493  11.924 -1.7929  1.0226 -0.2747
  192MPD1    N1 2983   1.220   1.180  11.680 -0.0271 -0.4970 -0.4288
  192MPD1    H6 2984   1.161   1.181  11.597 -1.8511 -0.2411  0.8566
  192MPD1    H7 2985   1.262   1.088  11.689 -1.2103 -1.0608 -0.7080
  193MPD1     C 2986   0.828   1.667  17.176 -0.4381  1.0286 -0.0483
  193MPD1    C1 2987   0.829   1.636  17.041 -0.2774  0.1235  0.1515
  193MPD1    C2 2988   0.899   1.710  16.952  0.8323 -0.5460  0.0202
  193MPD1    C3 2989   0.971   1.823  16.994 -0.0580 -1.1023  0.1623
  193MPD1    C4 2990   0.966   1.855  17.127 -0.2445 -0.3014  0.0333
  193MPD1    C5 2991   0.898   1.773  17.215 -0.3875  0.9076  0.3138
  193MPD1     H 2992   0.891   1.675  16.850 -0.0502 -0.0841 -0.0726
  193MPD1    H1 2993   1.011   1.945  17.165 -0.3967 -0.4217  0.5074
  193MPD1    H2 2994   0.769   1.613  17.249  1.8434 -0.3628  0.7803
  193MPD1    H3 2995   0.896   1.808  17.318  0.3902 -0.5454  0.8364
  193MPD1     N 2996   1.051   1.906  16.909  0.6374 -0.1037 -0.4980
  193MPD1    H5 2997   1.092   1.988  16.954  1.9923 -1.1655  0.1867
  193MPD1    N1 2998   0.764   1.516  17.003  0.3003 -0.3736  0.4509
  193MPD1    H6 2999   0.693   1.489  17.070 -0.9608  1.9194  0.0462
  193MPD1    H7 3000   0.722   1.518  16.911 -0.7390 -1.3319  0.9150
  194MPD1     C 3001   3.557   3.834  17.501  0.1235 -0.3657 -0.0113
  194MPD1    C1 3002   3.421   3.801  17.533  0.1323  1.0070 -0.2646
  194MPD1    C2 3003   3.390   3.667  17.553 -0.1550 -0.4141 -0.4124
  194MPD1    C3 3004   3.481   3.568  17.522 -0.3370 -0.0053  0.3104
  194MPD1    C4 3005   3.598   3.601  17.460 -0.5788  0.0073  0.1388
  194MPD1    C5 3006   3.639   3.733  17.461 -0.0900 -0.0093 -0.4839
  194MPD1     H 3007   3.296   3.627  17.587  0.1023  0.6362  1.4938
  194MPD1    H1 3008   3.668   3.530  17.417 -2.8863 -2.1199 -0.0694
  194MPD1    H2 3009   3.596   3.935  17.503 -0.3133 -0.1684 -1.4213
  194MPD1    H3 3010   3.744   3.755  17.443 -0.3060 -1.6067 -3.5736
  194MPD1     N 3011   3.450   3.436  17.529  0.1957 -0.4420 -0.3678
  194MPD1    H5 3012   3.506   3.368  17.478  0.8327 -0.8172  0.8238
  194MPD1    N1 3013   3.333   3.901  17.580  0.2315 -0.1330  0.0838
  194MPD1    H6 3014   3.359   3.993  17.544  1.1170  0.4895  2.3072
  194MPD1    H7 3015   3.235   3.879  17.570  0.9768 -3.7531  0.7729
  195MPD1     C 3016   0.644   1.368   0.103  0.2799 -0.1419  0.4639
  195MPD1    C1 3017   0.569   1.277   0.171  0.0716 -0.6190 -0.0782
  195MPD1    C2 3018   0.626   1.159   0.202 -0.4611 -0.8366  0.0721
  195MPD1    C3 3019   0.757   1.132   0.161  0.8232  0.6291 -0.3608
  195MPD1    C4 3020   0.822   1.216   0.081  0.0614  0.6950 -0.1061
  195MPD1    C5 3021   0.762   1.331   0.036 -0.5086  0.5827  0.6189
  195MPD1     H 3022   0.574   1.087   0.265 -2.8066  0.3647 -0.4686
  195MPD1    H1 3023   0.922   1.199   0.042  0.1560  2.2567 -0.5324
  195MPD1    H2 3024   0.609   1.471   0.101  0.3140 -0.1424 -0.1171
  195MPD1    H3 3025   0.830   1.400  17.734  1.1957 -2.6138 -1.5395
  195MPD1     N 3026   0.819   1.007   0.183  0.5392  0.0093 -0.0526
  195MPD1    H5 3027   0.900   0.987   0.124  1.0828  2.0335  0.0051
  195MPD1    N1 3028   0.454   1.319   0.238 -0.1988 -0.4118 -0.5211
  195MPD1    H6 3029   0.418   1.410   0.210  0.1861 -1.0420 -2.9816
  195MPD1    H7 3030   0.379   1.255   0.264 -1.5845  1.6849  0.6357
  196MPD1     C 3031   4.504   0.387  17.526 -0.7524 -0.5225 -0.3310
  196MPD1    C1 3032   4.474   0.290  17.626  0.6084 -0.0090 -0.0963
  196MPD1    C2 3033   4.535   0.304  17.746  0.0156 -0.0964 -0.3082
  196MPD1    C3 3034   4.637   0.395   0.019  0.8417 -0.5924  0.0359
  196MPD1    C4 3035   4.664   0.487  17.667  0.0230 -0.5556  0.1076
  196MPD1    C5 3036   4.598   0.481  17.544 -0.1537  0.7082  0.5195
  196MPD1     H 3037   4.521   0.223   0.069 -1.1281 -0.3412 -0.8176
  196MPD1    H1 3038   0.003   0.563  17.678 -1.4808  0.8757  0.5679
  196MPD1    H2 3039   4.446   0.377  17.435  0.4158  1.4107 -1.2868
  196MPD1    H3 3040   4.607   0.557  17.467  0.8177 -1.8232 -1.8463
  196MPD1     N 3041   4.716   0.407   0.137 -0.0754 -0.2423  0.5877
  196MPD1    H5 3042   0.039   0.487   0.149 -0.2841 -0.5113  3.3934
  196MPD1    N1 3043   4.368   0.200  17.597 -0.1293 -0.1254 -0.0893
  196MPD1    H6 3044   4.373   0.140  17.515  0.7428  0.0571 -0.1667
  196MPD1    H7 3045   4.355   0.142  17.679  0.3404  1.0011  0.7930
  197MPD1     C 3046   4.150   2.234  17.652  0.6042  0.1024 -0.6197
  197MPD1    C1 3047   4.286   2.235  17.692 -0.3622  0.4000  0.0343
  197MPD1    C2 3048   4.376   2.275  17.598 -0.5519 -0.2149  0.0668
  197MPD1    C3 3049   4.341   2.301  17.471 -0.1092  0.0999 -0.5047
  197MPD1    C4 3050   4.201   2.307  17.444 -0.0902  0.1959 -0.5494
  197MPD1    C5 3051   4.110   2.261  17.528 -0.9892  0.0029 -0.0364
  197MPD1     H 3052   4.482   2.274  17.621 -0.6327 -1.1511  0.4236
  197MPD1    H1 3053   4.164   2.350  17.351 -1.4633  1.8223  0.7336
  197MPD1    H2 3054   4.077   2.196  17.724  0.7888  0.1371 -0.4143
  197MPD1    H3 3055   4.006   2.265  17.498 -0.6555 -0.3789 -1.2424
  197MPD1     N 3056   4.426   2.338  17.368 -0.3846 -0.2343  0.0734
  197MPD1    H5 3057   4.376   2.342  17.279  0.2632  0.3252 -0.2698
  197MPD1    N1 3058   4.312   2.229   0.087 -0.1190  0.6572 -0.5237
  197MPD1    H6 3059   4.392   2.170   0.111 -1.0968  0.8896  3.3094
  197MPD1    H7 3060   4.241   2.187   0.147  1.3704 -1.4551 -0.2234
  198MPD1     C 3061   1.376   0.569  14.889 -0.4479  0.7514 -0.7764
  198MPD1    C1 3062   1.428   0.490  14.986 -0.2435 -0.3804 -0.8578
  198MPD1    C2 3063   1.521   0.546  15.074  0.3535  0.3812 -0.2161
  198MPD1    C3 3064   1.542   0.681  15.074  0.0995 -0.0301  1.2512
  198MPD1    C4 3065   1.479   0.762  14.978  0.2795  0.0331 -0.3057
  198MPD1    C5 3066   1.402   0.704  14.881  0.0869 -0.2901 -0.6099
  198MPD1     H 3067   1.575   0.484  15.144  0.4252  0.3667 -0.2844
  198MPD1    H1 3068   1.496   0.869  14.966 -0.3170  0.1142 -0.4655
  198MPD1    H2 3069   1.310   0.525  14.815 -0.2751 -2.0098  0.7023
  198MPD1    H3 3070   1.358   0.755  14.795 -0.2810  0.9605  0.3182
  198MPD1     N 3071   1.620   0.733  15.179 -0.2465  0.6000  0.3025
  198MPD1    H5 3072   1.615   0.672  15.261  2.7394 -0.7858 -0.5439
  198MPD1    N1 3073   1.411   0.349  14.978  0.1147  0.5000 -0.0419
  198MPD1    H6 3074   1.408   0.300  15.067 -2.4243  0.9593  0.1335
  198MPD1    H7 3075   1.319   0.327  14.939  1.1944 -1.2364 -1.5903
  199MPD1     C 3076   3.535   2.090   9.811  0.5346  0.3994 -0.0826
  199MPD1    C1 3077   3.541   2.220   9.854 -0.3956  0.2012 -0.9964
  199MPD1    C2 3078   3.431   2.287   9.904  0.0842 -0.4716 -0.3521
  199MPD1    C3 3079   3.308   2.224   9.916 -0.5195 -0.0959 -0.3276
  199MPD1    C4 3080   3.300   2.098   9.873 -0.8814  0.0432  0.2881
  199MPD1    C5 3081   3.410   2.035   9.817  1.0985 -0.0068  0.2235
  199MPD1     H 3082   3.443   2.393   9.927  3.5947 -0.8811 -0.3535
  199MPD1    H1 3083   3.207   2.043   9.880  0.2975 -2.0953 -0.8736
  199MPD1    H2 3084   3.621   2.033   9.778  0.2776  0.0739 -0.1958
  199MPD1    H3 3085   3.404   1.930   9.793 -1.5309  0.1941  0.0839
  199MPD1     N 3086   3.201   2.303   9.968  0.0049  0.5465 -0.0262
  199MPD1    H5 3087   3.218   2.391  10.015  0.6879  0.4938 -0.1645
  199MPD1    N1 3088   3.657   2.300   9.833  0.6909 -0.4696 -0.4536
  199MPD1    H6 3089   3.740   2.241   9.829  1.5884  0.8258 -0.9841
  199MPD1    H7 3090   3.667   2.380   9.894  2.2280 -0.7873 -0.2974
  200MPD1     C 3091   3.614   2.659  15.402 -0.2738 -0.6041  0.3327
  200MPD1    C1 3092   3.507   2.744  15.407 -0.8222 -0.5248 -0.9981
  200MPD1    C2 3093   3.526   2.873  15.372  0.5400  0.4333 -0.3702
  200MPD1    C3 3094   3.651   2.923  15.342  0.2883 -0.2475 -0.4103
  200MPD1    C4 3095   3.755   2.842  15.352  0.4343 -0.2452 -0.1511
  200MPD1    C5 3096   3.740   2.708  15.372  0.8339 -0.3542  0.2586
  200MPD1     H 3097   3.443   2.942  15.377 -0.2245 -0.4042 -1.4623
  200MPD1    H1 3098   3.859   2.870  15.342 -0.0939  1.3166 -1.2359
  200MPD1    H2 3099   3.604   2.554  15.425 -0.0728 -0.6387  0.2658
  200MPD1    H3 3100   3.830   2.649  15.373  1.6295  0.8663  0.0664
  200MPD1     N 3101   3.667   3.060  15.310  0.3817 -0.0995 -0.1233
  200MPD1    H5 3102   3.585   3.119  15.302 -0.3606 -0.5735  3.9053
  200MPD1    N1 3103   3.378   2.692  15.426 -0.1719  0.6506 -0.5663
  200MPD1    H6 3104   3.381   2.600  15.470  0.0041 -0.5135 -3.0021
  200MPD1    H7 3105   3.331   2.759  15.486 -1.6198  2.0962 -3.2776
  201MPD1     C 3106   0.373   1.517  13.009  0.3439  0.3874  0.9322
  201MPD1    C1 3107   0.356   1.386  12.993 -0.1241  0.1649 -0.6167
  201MPD1    C2 3108   0.418   1.301  13.088 -0.1199 -0.0385  0.6565
  201MPD1    C3 3109   0.514   1.343  13.181  0.2615  0.2681 -0.7080
  201MPD1    C4 3110   0.530   1.478  13.187  0.1265 -0.6573 -0.2642
  201MPD1    C5 3111   0.459   1.559  13.105 -0.0475 -0.0267 -0.3691
  201MPD1     H 3112   0.398   1.195  13.076  0.7171  0.0455 -1.4376
  201MPD1    H1 3113   0.592   1.539  13.252  1.9049  0.1074 -2.6528
  201MPD1    H2 3114   0.332   1.581  12.932  1.3733 -1.9827 -1.5872
  201MPD1    H3 3115   0.486   1.664  13.103  0.0385 -0.0226  1.3298
  201MPD1     N 3116   0.561   1.257  13.280  0.0332  0.3652 -0.5012
  201MPD1    H5 3117   0.536   1.159  13.272 -0.4512  0.4562 -0.1109
  201MPD1    N1 3118   0.297   1.345  12.870  0.0104 -0.2706  0.2342
  201MPD1    H6 3119   0.216   1.401  12.843  0.9836  0.4032 -1.2522
  201MPD1    H7 3120   0.259   1.251  12.874 -2.9365  0.8994 -0.1173
  202MPD1     C 3121   0.783   1.481  10.986  0.1476 -0.3079 -0.1194
  202MPD1    C1 3122   0.659   1.497  10.932  0.1269 -0.3328 -0.6088
  202MPD1    C2 3123   0.630   1.419  10.819  0.1257 -0.0972 -0.4393
  202MPD1    C3 3124   0.738   1.359  10.756 -0.2652 -0.1440 -0.0952
  202MPD1    C4 3125   0.867   1.354  10.807  0.1316 -0.3038  0.9288
  202MPD1    C5 3126   0.887   1.414  10.926 -0.2636 -0.5225 -0.0718
  202MPD1     H 3127   0.529   1.427  10.780  0.4031  4.8851 -0.1609
  202MPD1    H1 3128   0.951   1.305  10.760  0.4452 -0.6511  1.8313
  202MPD1    H2 3129   0.815   1.528  11.079  1.1194  0.5985 -0.9142
  202MPD1    H3 3130   0.986   1.404  10.969 -0.9120 -0.2480  1.4791
  202MPD1     N 3131   0.724   1.301  10.625  0.3557 -1.1304 -0.5170
  202MPD1    H5 3132   0.809   1.255  10.596  1.8425  0.8353  0.7277
  202MPD1    N1 3133   0.557   1.529  11.023  0.1158  0.2162  0.2225
  202MPD1    H6 3134   0.578   1.581  11.108  2.2491  0.5207 -0.4962
  202MPD1    H7 3135   0.463   1.547  10.988  0.3099 -0.1043 -0.4601
  203MPD1     C 3136   3.919   2.045  12.407 -0.1921 -0.3457  0.4388
  203MPD1    C1 3137   3.857   1.947  12.329 -0.3079 -0.2133  0.4368
  203MPD1    C2 3138   3.814   1.825  12.378 -0.2887  0.2355 -0.3264
  203MPD1    C3 3139   3.852   1.795  12.513 -0.4433 -0.1352  0.7422
  203MPD1    C4 3140   3.915   1.889  12.598  0.3047  0.7089  0.1928
  203MPD1    C5 3141   3.954   2.007  12.537 -0.0247  0.9671  0.3539
  203MPD1     H 3142   3.778   1.745  12.315  0.4219  0.9958 -1.7290
  203MPD1    H1 3143   3.936   1.884  12.704 -0.7707  0.6345  0.4059
  203MPD1    H2 3144   3.965   2.134  12.367  0.3771 -0.8291  0.0241
  203MPD1    H3 3145   3.999   2.074  12.609  1.3667  0.0109  0.3956
  203MPD1     N 3146   3.820   1.663  12.558 -0.3524 -0.2939 -0.5317
  203MPD1    H5 3147   3.771   1.591  12.506  0.3855 -0.5948 -0.8066
  203MPD1    N1 3148   3.848   1.971  12.188  0.8927 -0.0332  0.1029
  203MPD1    H6 3149   3.805   2.061  12.167 -0.0350 -0.5109 -0.0753
  203MPD1    H7 3150   3.799   1.893  12.144 -2.5925  0.8481  2.4279
  204MPD1     C 3151   2.915   2.578   0.233  0.5553 -0.4092 -0.3677
  204MPD1    C1 3152   3.033   2.638   0.211  0.6039 -0.7271  0.4528
  204MPD1    C2 3153   3.132   2.551   0.162  0.2479  0.2314 -0.2742
  204MPD1    C3 3154   3.118   2.418   0.153 -0.2067  0.3809  0.0694
  204MPD1    C4 3155   2.992   2.367   0.169  0.6116 -0.2678  0.5777
  204MPD1    C5 3156   2.890   2.447   0.200  0.2032 -0.1890  0.0816
  204MPD1     H 3157   3.231   2.591   0.148  0.1019  0.8484  0.4694
  204MPD1    H1 3158   2.969   2.263   0.153 -1.8500  0.5453 -1.0708
  204MPD1    H2 3159   2.830   2.632   0.272  1.4911 -0.7174  2.0661
  204MPD1    H3 3160   2.791   2.403   0.210 -0.0239 -0.3428 -2.8401
  204MPD1     N 3161   3.239   2.347   0.135 -0.4703  0.5125  0.0797
  204MPD1    H5 3162   3.329   2.391   0.118  0.8060 -1.6650  1.1886
  204MPD1    N1 3163   3.035   2.782   0.210 -0.0351 -0.1324  0.3139
  204MPD1    H6 3164   2.960   2.808   0.273  0.7255 -1.8006  1.8883
  204MPD1    H7 3165   3.127   2.816   0.238 -0.2737  1.3467 -0.6793
  205MPD1     C 3166   3.308   0.922   1.126  0.3072  0.2912 -0.3825
  205MPD1    C1 3167   3.280   1.047   1.064  0.9705  0.8169 -1.2297
  205MPD1    C2 3168   3.353   1.082   0.957 -0.5071  0.2695  0.6321
  205MPD1    C3 3169   3.447   0.995   0.896  0.1636 -0.0324 -0.2668
  205MPD1    C4 3170   3.473   0.874   0.953 -0.2200 -0.2209 -0.9511
  205MPD1    C5 3171   3.407   0.842   1.073  0.7540  0.7477 -0.2411
  205MPD1     H 3172   3.328   1.177   0.912 -2.7450 -1.0318 -0.8447
  205MPD1    H1 3173   3.544   0.801   0.916  1.9120  1.3008  0.0761
  205MPD1    H2 3174   3.264   0.910   1.224 -0.6378 -0.4990 -0.9092
  205MPD1    H3 3175   3.443   0.757   1.130 -0.6728 -0.2900 -0.8783
  205MPD1     N 3176   3.512   1.024   0.778 -0.4999 -0.0629  0.2083
  205MPD1    H5 3177   3.585   0.959   0.751  0.3800  1.7157 -1.7876
  205MPD1    N1 3178   3.212   1.141   1.137  0.0230  0.0559  0.4610
  205MPD1    H6 3179   3.182   1.223   1.085 -1.1592  0.5976  1.9815
  205MPD1    H7 3180   3.128   1.104   1.182  0.8671 -0.5060  1.5605
  206MPD1     C 3181   3.035   4.086  17.252 -0.0447 -0.8866 -0.6399
  206MPD1    C1 3182   2.990   4.220  17.257 -0.1831  0.3600 -0.3658
  206MPD1    C2 3183   3.033   4.310  17.167  0.1233 -0.1688 -0.9826
  206MPD1    C3 3184   3.126   4.269  17.068  0.0527 -0.1962  0.3476
  206MPD1    C4 3185   3.171   4.137  17.074  0.9637 -0.5371  0.3863
  206MPD1    C5 3186   3.124   4.038  17.155 -0.0999  0.1629  0.6380
  206MPD1     H 3187   2.987   4.408  17.167  2.3322  0.8769 -1.3259
  206MPD1    H1 3188   3.242   4.098  17.002  1.7721 -0.5083  1.1698
  206MPD1    H2 3189   2.988   4.016  17.320  2.5741 -1.1313  0.9387
  206MPD1    H3 3190   3.158   3.935  17.151  0.4154  0.4119 -1.2529
  206MPD1     N 3191   3.178   4.361  16.972  0.2020 -0.4058 -0.2882
  206MPD1    H5 3192   3.256   4.319  16.922 -0.5929 -2.3510  0.1163
  206MPD1    N1 3193   2.895   4.257  17.354 -0.5021 -0.1885  0.2350
  206MPD1    H6 3194   2.820   4.189  17.362 -1.4283  0.6617 -1.1434
  206MPD1    H7 3195   2.850   4.347  17.339 -1.4138 -0.6558  0.1169
  207MPD1     C 3196   0.649   1.956   9.917 -0.2991  0.3859  0.1547
  207MPD1    C1 3197   0.726   1.840   9.897  0.3885 -0.4324  0.2748
  207MPD1    C2 3198   0.843   1.843   9.976  0.5841  0.6480 -0.0092
  207MPD1    C3 3199   0.871   1.923  10.081 -0.6260 -0.1101  0.8810
  207MPD1    C4 3200   0.788   2.033  10.100 -1.1043  0.0298 -0.4466
  207MPD1    C5 3201   0.677   2.045  10.015 -0.2925 -0.2097  0.1696
  207MPD1     H 3202   0.918   1.772   9.943 -0.2171 -0.0025 -0.4247
  207MPD1    H1 3203   0.807   2.118  10.164 -0.2467  0.6557 -1.5351
  207MPD1    H2 3204   0.564   1.976   9.852  0.4843 -0.8044 -1.2299
  207MPD1    H3 3205   0.615   2.133  10.014 -1.2859 -0.9215 -0.2176
  207MPD1     N 3206   0.989   1.910  10.158 -0.3975  0.2928 -0.3282
  207MPD1    H5 3207   1.013   1.989  10.218  2.1736 -0.8085  0.1023
  207MPD1    N1 3208   0.724   1.751   9.783  0.3490 -0.4087 -0.2959
  207MPD1    H6 3209   0.632   1.737   9.742 -0.3029  1.8509  0.3990
  207MPD1    H7 3210   0.764   1.661   9.809 -3.1573 -1.1776  2.4468
  208MPD1     C 3211   3.910   0.954   1.250  0.4309 -0.1831  0.9120
  208MPD1    C1 3212   4.033   0.929   1.290  0.0937 -0.1826 -0.8460
  208MPD1    C2 3213   4.086   0.800   1.264  0.0827  0.3550 -0.1716
  208MPD1    C3 3214   4.009   0.700   1.211  0.7688 -0.8921 -0.6887
  208MPD1    C4 3215   3.872   0.729   1.189 -0.4387  0.3191 -0.4139
  208MPD1    C5 3216   3.824   0.856   1.202  1.3586 -0.7548  0.0294
  208MPD1     H 3217   4.191   0.779   1.279  0.1949 -0.3854 -1.9526
  208MPD1    H1 3218   3.812   0.661   1.129 -0.1239  0.1454 -0.5335
  208MPD1    H2 3219   3.876   1.057   1.256  0.7801  0.0316 -0.7288
  208MPD1    H3 3220   3.722   0.880   1.174  1.7092  0.3554 -0.2743
  208MPD1     N 3221   4.075   0.581   1.179  0.1487 -0.1181  0.2571
  208MPD1    H5 3222   4.176   0.589   1.190  0.0770  0.1179  0.7578
  208MPD1    N1 3223   4.121   1.029   1.337 -0.3053 -0.2368 -0.1997
  208MPD1    H6 3224   4.067   1.099   1.387 -3.1128 -1.3411 -1.6819
  208MPD1    H7 3225   4.202   0.997   1.390 -0.5183 -0.6927 -0.1461
  209MPD1     C 3226   0.743   0.857  11.186 -0.3936  0.3635 -0.5659
  209MPD1    C1 3227   0.816   0.858  11.070  0.3826 -1.6463 -0.1556
  209MPD1    C2 3228   0.927   0.938  11.072 -0.5356  0.4362 -0.2205
  209MPD1    C3 3229   0.968   1.004  11.182 -0.1969  0.2829  1.3847
  209MPD1    C4 3230   0.890   1.009  11.295  0.4324  0.4609 -0.6301
  209MPD1    C5 3231   0.775   0.934  11.295 -0.1130  0.2546  0.1474
  209MPD1     H 3232   0.987   0.934  10.982  2.3145  0.5092  1.6602
  209MPD1    H1 3233   0.920   1.065  11.383 -2.8386  2.4566 -0.7852
  209MPD1    H2 3234   0.653   0.796  11.188  0.7380 -1.3532 -1.7708
  209MPD1    H3 3235   0.708   0.946  11.380 -0.0343  0.0338  0.2424
  209MPD1     N 3236   1.092   1.072  11.172 -0.7748  0.1626 -0.3883
  209MPD1    H5 3237   1.136   1.059  11.082  0.2785  0.8641  0.0318
  209MPD1    N1 3238   0.783   0.792  10.953 -0.2198  0.6103 -0.2512
  209MPD1    H6 3239   0.859   0.787  10.885 -0.5479 -1.4408 -0.4695
  209MPD1    H7 3240   0.752   0.699  10.980  0.2511  0.2528 -0.9421
  210MPD1     C 3241   1.875   1.586  11.713 -0.0217  0.7115  0.6011
  210MPD1    C1 3242   1.881   1.452  11.678  0.5573  0.1926  0.4547
  210MPD1    C2 3243   1.792   1.396  11.589 -0.1880 -0.4327 -0.1115
  210MPD1    C3 3244   1.710   1.478  11.510 -0.1247 -0.1177 -0.6595
  210MPD1    C4 3245   1.711   1.615  11.536 -0.5822 -0.1694 -0.1188
  210MPD1    C5 3246   1.784   1.664  11.638  0.2893 -0.1130 -0.1270
  210MPD1     H 3247   1.800   1.291  11.564  1.3393 -0.4622  0.5357
  210MPD1    H1 3248   1.646   1.687  11.488 -1.1949 -0.1144  0.7902
  210MPD1    H2 3249   1.934   1.629  11.793 -2.1420 -1.2698  3.2394
  210MPD1    H3 3250   1.768   1.770  11.658  1.5500  0.8552 -4.2653
  210MPD1     N 3251   1.623   1.426  11.413 -0.2291 -0.6242 -0.4717
  210MPD1    H5 3252   1.573   1.495  11.359 -3.3965 -2.4083  0.1678
  210MPD1    N1 3253   1.961   1.363  11.761  0.5473  0.3398 -0.3767
  210MPD1    H6 3254   2.036   1.420  11.800  0.1939  0.1189  0.6262
  210MPD1    H7 3255   1.993   1.281  11.710 -1.1372 -0.6983  0.2452
  211MPD1     C 3256   4.009   1.035  15.710  0.7096 -0.0426  0.3233
  211MPD1    C1 3257   4.029   1.172  15.711 -0.4740 -0.1664  0.4887
  211MPD1    C2 3258   3.925   1.253  15.748 -0.4679  0.0563  0.1670
  211MPD1    C3 3259   3.796   1.199  15.753 -0.0094 -0.5100  0.5136
  211MPD1    C4 3260   3.778   1.064  15.726  0.1594 -0.3044  0.0879
  211MPD1    C5 3261   3.882   0.984  15.708 -0.1002  0.1081 -0.8387
  211MPD1     H 3262   3.930   1.358  15.773 -1.8213 -0.2004  1.5562
  211MPD1    H1 3263   3.685   1.009  15.730  0.0724 -0.0789  1.0452
  211MPD1    H2 3264   4.085   0.968  15.671  0.8462  0.6583 -0.6255
  211MPD1    H3 3265   3.867   0.878  15.687 -1.6838  0.0545  0.6338
  211MPD1     N 3266   3.699   1.295  15.796  0.5563 -0.0883  0.1989
  211MPD1    H5 3267   3.728   1.381  15.841  3.4655 -0.3248 -1.2162
  211MPD1    N1 3268   4.164   1.228  15.710 -0.5932  0.1964 -0.4355
  211MPD1    H6 3269   4.170   1.322  15.671 -0.1424 -0.3605 -1.7310
  211MPD1    H7 3270   4.224   1.169  15.652 -0.5887  0.8988 -1.1478
  212MPD1     C 3271   3.166   4.495  16.304  0.3630 -0.4228  0.4060
  212MPD1    C1 3272   3.077   4.563  16.371 -0.1836  0.2791 -0.7361
  212MPD1    C2 3273   3.022   4.499  16.486  0.5840  0.2507 -0.2188
  212MPD1    C3 3274   3.055   4.372  16.526  0.3745  0.3376 -0.4062
  212MPD1    C4 3275   3.141   4.300  16.440 -0.2756 -0.4048 -1.0370
  212MPD1    C5 3276   3.210   4.368  16.339 -0.8319  0.7705 -0.0974
  212MPD1     H 3277   2.942   4.547  16.542  2.3638  3.0600 -0.0678
  212MPD1    H1 3278   3.172   4.198  16.458 -0.8899 -0.4047  0.0059
  212MPD1    H2 3279   3.213   4.538  16.216  3.2261 -1.8339  1.2127
  212MPD1    H3 3280   3.292   4.326  16.282 -0.4811 -1.4479  2.0087
  212MPD1     N 3281   3.012   4.306  16.643  0.2647  0.0289 -0.9950
  212MPD1    H5 3282   3.063   4.223  16.672  0.1042  0.3458  0.1885
  212MPD1    N1 3283   3.012   4.678  16.316  0.2811 -0.0765  0.3137
  212MPD1    H6 3284   3.070   0.000  16.257 -0.4557 -0.5089 -0.8466
  212MPD1    H7 3285   2.979   0.006  16.387 -0.5381  1.3258 -1.3573
  213MPD1     C 3286   1.078   0.397  15.725  0.4312 -0.5309  0.3084
  213MPD1    C1 3287   1.173   0.388  15.632  0.0106  0.0808  0.3980
  213MPD1    C2 3288   1.119   0.403  15.501  0.0861  0.6367 -0.0571
  213MPD1    C3 3289   0.991   0.451  15.472  0.0594  0.3195  0.0716
  213MPD1    C4 3290   0.913   0.484  15.575 -0.0165 -0.4991 -0.1629
  213MPD1    C5 3291   0.958   0.461  15.702  0.4736  0.2809 -0.2382
  213MPD1     H 3292   1.182   0.376  15.417 -1.2637  0.9578 -1.1672
  213MPD1    H1 3293   0.811   0.518  15.562  0.9737  2.1326 -1.0744
  213MPD1    H2 3294   1.117   0.380  15.824  1.7748  0.7778  0.0110
  213MPD1    H3 3295   0.896   0.488  15.787 -0.4179  0.9037 -1.0985
  213MPD1     N 3296   0.952   0.458  15.341  0.1494 -0.1135  0.2133
  213MPD1    H5 3297   1.030   0.446  15.277 -0.4990 -2.3971 -0.1297
  213MPD1    N1 3298   1.282   0.295  15.651  0.1337  0.3043 -0.0964
  213MPD1    H6 3299   1.310   0.284  15.748 -1.3732  2.6156  0.6039
  213MPD1    H7 3300   1.356   0.285  15.582  0.3009 -1.8395  0.4008
  214MPD1     C 3301   0.209   4.709  15.140  0.0701  0.4931  0.0721
  214MPD1    C1 3302   0.191   0.062  15.038  0.0221 -0.6022  0.0242
  214MPD1    C2 3303   0.297   0.149  15.006  0.0740  0.3750  0.4373
  214MPD1    C3 3304   0.421   0.126  15.064 -0.1512 -0.2639 -0.1123
  214MPD1    C4 3305   0.436   0.028  15.154 -0.3169 -0.8424 -0.5825
  214MPD1    C5 3306   0.333   4.687  15.198  0.1816 -0.5471 -0.6719
  214MPD1     H 3307   0.279   0.228  14.934 -1.8307 -0.1857  0.2782
  214MPD1    H1 3308   0.535   0.002  15.190 -0.4186  0.8233  0.9331
  214MPD1    H2 3309   0.124   4.648  15.168  0.5785  0.0385  0.6331
  214MPD1    H3 3310   0.353   4.608  15.269  0.9890 -1.0894 -1.5054
  214MPD1     N 3311   0.546   0.201  15.035  0.3131  0.1588  0.4089
  214MPD1    H5 3312   0.629   0.195  15.092  0.3538 -2.5205  0.0761
  214MPD1    N1 3313   0.071   0.069  14.967 -0.0644 -0.3410 -0.1712
  214MPD1    H6 3314   0.049   0.168  14.962 -0.4242 -0.2880  2.5091
  214MPD1    H7 3315   0.000   0.027  15.027 -2.7246  1.5608 -1.9555
  215MPD1     C 3316   0.183   1.579  11.395  0.0573  0.3947 -0.4236
  215MPD1    C1 3317   0.249   1.551  11.507 -0.2487 -0.0149  0.2774
  215MPD1    C2 3318   0.378   1.608  11.520  0.0925  0.4083 -0.2531
  215MPD1    C3 3319   0.440   1.664  11.408  1.2270  0.3433  0.3917
  215MPD1    C4 3320   0.374   1.680  11.288  0.4195 -0.0279  0.3043
  215MPD1    C5 3321   0.244   1.640  11.286 -0.3546  0.0019 -0.0805
  215MPD1     H 3322   0.437   1.609  11.611  0.7695 -1.9459 -0.6474
  215MPD1    H1 3323   0.421   1.725  11.201 -1.0779  1.1562  0.0874
  215MPD1    H2 3324   0.079   1.553  11.382  0.7284 -3.2569  1.6524
  215MPD1    H3 3325   0.183   1.661  11.199 -1.5580  0.6480  0.9224
  215MPD1     N 3326   0.569   1.705  11.425 -0.0598 -0.4152 -0.6820
  215MPD1    H5 3327   0.609   1.709  11.518 -0.3694  2.4667 -0.6807
  215MPD1    N1 3328   0.183   1.511  11.628  0.1969 -0.6300 -0.0420
  215MPD1    H6 3329   0.158   1.596  11.678  1.9801 -0.4433  0.5321
  215MPD1    H7 3330   0.095   1.471  11.596 -0.0691 -0.5731  0.6016
  216MPD1     C 3331   2.968   0.036   0.025 -0.9581  0.1280 -0.2690
  216MPD1    C1 3332   3.011   4.693  17.669 -0.1814  0.0582 -0.1845
  216MPD1    C2 3333   2.986   4.559  17.689  0.0408 -0.3591 -0.7697
  216MPD1    C3 3334   2.966   4.499   0.062 -0.0501 -0.3309  0.1893
  216MPD1    C4 3335   2.946   4.585   0.170  0.1742 -0.1404 -0.2516
  216MPD1    C5 3336   2.943   4.720   0.151 -0.2476  0.4577 -0.1132
  216MPD1     H 3337   3.019   4.500  17.604  3.3318 -0.1682  0.3936
  216MPD1    H1 3338   2.944   4.555   0.274  3.2152  2.5099  0.5488
  216MPD1    H2 3339   2.944   0.140   0.008  0.7953  0.5192 -0.2895
  216MPD1    H3 3340   2.920   0.056   0.228 -2.1175  0.8392 -1.0312
  216MPD1     N 3341   2.979   4.357   0.069 -0.4732 -0.0358  0.1594
  216MPD1    H5 3342   3.002   4.305  17.732 -0.4584 -1.0758  0.8088
  216MPD1    N1 3343   3.037   4.736  17.535  0.1892 -0.3430  0.3411
  216MPD1    H6 3344   3.062   0.097  17.529 -0.8775 -0.1656 -1.2499
  216MPD1    H7 3345   3.112   4.684  17.489 -0.4806  0.7731 -2.0288
  217MPD1     C 3346   3.920   1.396   8.472 -0.2405 -0.8958  0.2735
  217MPD1    C1 3347   3.820   1.403   8.565 -0.1306  0.6411  0.5887
  217MPD1    C2 3348   3.792   1.300   8.655  0.6853  0.0936  0.2278
  217MPD1    C3 3349   3.858   1.181   8.638 -0.4956  0.3930  0.1038
  217MPD1    C4 3350   3.955   1.167   8.541 -0.9173  0.0964 -0.3139
  217MPD1    C5 3351   3.990   1.276   8.467 -1.1994 -0.4818 -0.4774
  217MPD1     H 3352   3.707   1.310   8.721 -0.1534 -1.7015 -0.5945
  217MPD1    H1 3353   4.017   1.078   8.533  0.7698  1.1575  1.0032
  217MPD1    H2 3354   3.941   1.469   8.395  0.8730 -0.9736  0.5023
  217MPD1    H3 3355   4.077   1.263   8.404 -1.2807 -1.2351 -0.4276
  217MPD1     N 3356   3.832   1.071   8.721 -0.0689 -0.6941  0.0100
  217MPD1    H5 3357   3.870   0.982   8.691 -2.6646 -1.5902 -0.5473
  217MPD1    N1 3358   3.766   1.535   8.584 -0.0462 -0.5240  0.2610
  217MPD1    H6 3359   3.667   1.523   8.602 -0.1457  0.8970  0.6330
  217MPD1    H7 3360   3.784   1.600   8.509  0.4689 -0.2865  0.5844
  218MPD1     C 3361   1.393   2.410  12.658  0.1391  0.2696 -0.1766
  218MPD1    C1 3362   1.461   2.301  12.598  1.2211  0.2773 -0.2596
  218MPD1    C2 3363   1.432   2.175  12.641 -0.2673 -0.8219 -0.7163
  218MPD1    C3 3364   1.315   2.154  12.713  0.7309 -0.0604  0.4034
  218MPD1    C4 3365   1.232   2.252  12.751  0.8703 -0.2587  0.0291
  218MPD1    C5 3366   1.278   2.386  12.725 -0.0153 -0.4917  0.1182
  218MPD1     H 3367   1.498   2.091  12.628 -0.2906 -0.7358 -1.3999
  218MPD1    H1 3368   1.143   2.240  12.812  1.3592 -1.0470  0.5745
  218MPD1    H2 3369   1.421   2.512  12.636 -0.8744  0.2362 -1.5875
  218MPD1    H3 3370   1.217   2.471  12.755  1.2623  0.5924 -0.3429
  218MPD1     N 3371   1.286   2.020  12.747  0.4520 -0.1866  0.1687
  218MPD1    H5 3372   1.342   1.954  12.694 -1.3543 -0.2297 -1.6969
  218MPD1    N1 3373   1.570   2.322  12.510 -0.1234 -0.2263  0.0407
  218MPD1    H6 3374   1.567   2.418  12.476  1.9174  0.4887  1.9284
  218MPD1    H7 3375   1.588   2.241  12.451  2.0828  0.4885 -0.2434
  219MPD1     C 3376   0.717   1.427  12.195 -0.2321  0.6940 -0.1799
  219MPD1    C1 3377   0.835   1.489  12.168 -0.1250 -0.4292 -0.4833
  219MPD1    C2 3378   0.900   1.557  12.279  0.4697 -0.0048  0.2948
  219MPD1    C3 3379   0.853   1.540  12.408 -0.0605  0.1465  0.5435
  219MPD1    C4 3380   0.732   1.476  12.428  0.3374  0.3023 -0.0956
  219MPD1    C5 3381   0.667   1.426  12.319 -0.6360 -0.0727  0.4032
  219MPD1     H 3382   0.992   1.611  12.261  0.2897  0.6263  1.2806
  219MPD1    H1 3383   0.683   1.469  12.524  0.2974  1.2427 -0.0455
  219MPD1    H2 3384   0.649   1.389  12.120 -0.0501  2.3157 -1.1644
  219MPD1    H3 3385   0.568   1.385  12.333 -2.3863  3.6757 -1.0679
  219MPD1     N 3386   0.918   1.595  12.521 -0.3677 -0.1927  0.1583
  219MPD1    H5 3387   0.884   1.574  12.614  0.8729  2.4305  1.1927
  219MPD1    N1 3388   0.864   1.514  12.034  0.1959 -0.9647  0.2526
  219MPD1    H6 3389   0.823   1.442  11.975 -0.8051  0.6950 -1.0623
  219MPD1    H7 3390   0.964   1.518  12.018  0.5353 -2.9804  1.9060
  220MPD1     C 3391   0.923   1.357   9.662  0.2550  0.1164 -0.8614
  220MPD1    C1 3392   1.013   1.440   9.723  0.4358  0.4036 -0.2807
  220MPD1    C2 3393   0.983   1.487   9.849  0.3690 -0.1779 -0.8803
  220MPD1    C3 3394   0.865   1.455   9.912 -0.0851 -0.3005  0.3094
  220MPD1    C4 3395   0.772   1.374   9.841 -0.1148 -0.0618 -0.7619
  220MPD1    C5 3396   0.800   1.322   9.717 -0.2299  1.0379 -0.3886
  220MPD1     H 3397   1.057   1.551   9.896  1.3525 -1.6990 -0.3428
  220MPD1    H1 3398   0.690   1.327   9.892  0.1640 -0.1777 -0.4209
  220MPD1    H2 3399   0.945   1.329   9.560  2.1840 -1.0253 -0.1079
  220MPD1    H3 3400   0.735   1.254   9.663  3.2646 -1.1375 -1.8752
  220MPD1     N 3401   0.849   1.506  10.043 -0.4331  0.5883 -0.2330
  220MPD1    H5 3402   0.921   1.573  10.066  0.7196 -0.2789 -1.3016
  220MPD1    N1 3403   1.124   1.482   9.660 -0.1726 -0.2572  0.1844
  220MPD1    H6 3404   1.203   1.473   9.724  2.1664  0.9235 -2.5571
  220MPD1    H7 3405   1.135   1.426   9.575 -0.9912 -0.9025  0.5016
  221MPD1     C 3406   2.906   1.319  16.935  0.6731 -0.0374  0.0901
  221MPD1    C1 3407   3.008   1.382  17.011 -0.7156 -0.1790 -0.0104
  221MPD1    C2 3408   3.133   1.364  16.971 -0.0641  0.1790 -0.2241
  221MPD1    C3 3409   3.171   1.266  16.882  0.0500  0.0514 -0.2978
  221MPD1    C4 3410   3.067   1.200  16.812  0.2012 -0.5544  0.0013
  221MPD1    C5 3411   2.939   1.238  16.838  0.2972  0.1283  0.1844
  221MPD1     H 3412   3.204   1.426  17.026 -0.4784  2.3658 -2.1440
  221MPD1    H1 3413   3.091   1.124  16.740 -0.6643  0.8859 -1.8046
  221MPD1    H2 3414   2.801   1.331  16.960  0.4713  2.0205 -1.7481
  221MPD1    H3 3415   2.861   1.174  16.800 -0.5565  2.1242 -1.3868
  221MPD1     N 3416   3.306   1.240  16.848 -0.0058 -0.2315 -0.6894
  221MPD1    H5 3417   3.328   1.154  16.800  0.5217 -1.5117  1.8457
  221MPD1    N1 3418   2.979   1.493  17.094 -0.1531  0.0069  0.0941
  221MPD1    H6 3419   2.896   1.476  17.150 -0.9984  0.8851 -0.8746
  221MPD1    H7 3420   3.050   1.502  17.165 -2.4204 -0.3718  2.4225
  222MPD1     C 3421   2.657   3.959  17.587  0.0491  0.1183  0.6096
  222MPD1    C1 3422   2.647   4.060  17.494 -0.1821  0.1372  0.0501
  222MPD1    C2 3423   2.633   4.188  17.543 -0.0816  0.1901  0.2182
  222MPD1    C3 3424   2.625   4.222  17.677 -0.2613  0.3431 -0.4517
  222MPD1    C4 3425   2.619   4.121   0.022 -0.2765 -0.0101 -0.1289
  222MPD1    C5 3426   2.640   3.989  17.717  0.4823  0.3348 -0.1683
  222MPD1     H 3427   2.650   4.274  17.478  1.0157 -2.4519 -2.9700
  222MPD1    H1 3428   2.626   4.137   0.129 -0.8628  2.5706 -0.4632
  222MPD1    H2 3429   2.683   3.857  17.562 -1.8857  0.0145 -0.9688
  222MPD1    H3 3430   2.646   3.914   0.047 -3.6218 -0.0455 -0.2731
  222MPD1     N 3431   2.629   4.355  17.733 -0.3098 -0.1963  0.1054
  222MPD1    H5 3432   2.605   4.352   0.085 -0.8891 -1.6917 -0.0711
  222MPD1    N1 3433   2.684   4.032  17.361 -0.7247  0.3356 -0.0375
  222MPD1    H6 3434   2.642   4.096  17.294 -0.0590  1.9972  1.1283
  222MPD1    H7 3435   2.646   3.941  17.336 -0.1614  0.4502 -1.3567
  223MPD1     C 3436   2.240   4.686   0.771  0.5377  0.2529  0.4169
  223MPD1    C1 3437   2.332   0.048   0.735  0.1162  0.3267  0.5348
  223MPD1    C2 3438   2.372   0.059   0.602  0.1892 -0.1936 -0.6078
  223MPD1    C3 3439   2.328   4.708   0.507  0.3011 -0.4114  0.1527
  223MPD1    C4 3440   2.222   4.623   0.541  0.3132  0.0732 -1.1999
  223MPD1    C5 3441   2.182   4.608   0.674  0.2666  0.4473 -1.3713
  223MPD1     H 3442   2.440   0.139   0.574 -1.1135  1.2375  0.3472
  223MPD1    H1 3443   2.167   4.574   0.461  0.7346 -0.2579 -1.2896
  223MPD1    H2 3444   2.217   4.662   0.874 -0.1113  1.8528  0.6494
  223MPD1    H3 3445   2.109   4.534   0.706  0.8159  0.4547 -0.1003
  223MPD1     N 3446   2.382   4.717   0.378  0.7161 -0.0293  0.6720
  223MPD1    H5 3447   2.457   0.048   0.379  1.3243 -0.6568 -3.2085
  223MPD1    N1 3448   2.396   0.125   0.838 -0.5138  0.5179  0.4441
  223MPD1    H6 3449   2.411   0.223   0.814  1.8380 -0.4024 -1.9025
  223MPD1    H7 3450   2.353   0.117   0.930 -0.1185  0.3532  0.6152
  224MPD1     C 3451   3.582   1.777   9.082 -0.1048 -0.2098  0.0969
  224MPD1    C1 3452   3.663   1.661   9.072 -0.5053 -0.1290 -0.0450
  224MPD1    C2 3453   3.762   1.639   9.162 -0.7556 -0.4196 -0.1021
  224MPD1    C3 3454   3.789   1.730   9.261 -0.0168  0.0463  0.3137
  224MPD1    C4 3455   3.713   1.844   9.275  0.4103  0.4205  0.1334
  224MPD1    C5 3456   3.614   1.865   9.180  0.1419 -0.1212  0.0766
  224MPD1     H 3457   3.823   1.550   9.149 -1.1998 -0.9396  1.4070
  224MPD1    H1 3458   3.726   1.907   9.361  0.3473  1.5163 -0.6591
  224MPD1    H2 3459   3.511   1.802   9.004 -1.6914  1.9066  2.2512
  224MPD1    H3 3460   3.548   1.951   9.176 -0.2667 -0.3979  1.0612
  224MPD1     N 3461   3.889   1.716   9.356 -0.0710  0.4559 -0.0282
  224MPD1    H5 3462   3.901   1.799   9.414 -3.8685 -0.4440  2.0638
  224MPD1    N1 3463   3.637   1.570   8.962 -0.5054  0.2870 -0.0781
  224MPD1    H6 3464   3.594   1.619   8.884  2.7808  0.3650 -1.8569
  224MPD1    H7 3465   3.711   1.514   8.919 -1.1943 -0.0492 -0.8162
  225MPD1     C 3466   1.570   2.567  12.200 -0.4808 -0.5659  0.1077
  225MPD1    C1 3467   1.533   2.601  12.327 -0.3519  0.2036  0.2179
  225MPD1    C2 3468   1.400   2.615  12.352 -0.1634 -1.1617 -0.0222
  225MPD1    C3 3469   1.306   2.582  12.253  0.0325 -0.1574  0.1489
  225MPD1    C4 3470   1.349   2.553  12.125 -0.1426 -0.1691  0.0110
  225MPD1    C5 3471   1.477   2.548  12.098  0.3434  0.2991  0.0287
  225MPD1     H 3472   1.361   2.647  12.448 -0.2498  0.5548 -0.6115
  225MPD1    H1 3473   1.281   2.536  12.042  0.0988 -1.4965  0.0893
  225MPD1    H2 3474   1.676   2.550  12.181 -0.3654  1.2846 -0.9238
  225MPD1    H3 3475   1.519   2.534  11.999 -2.1411  1.3800 -1.1749
  225MPD1     N 3476   1.167   2.586  12.290  0.5998  0.0586  0.5281
  225MPD1    H5 3477   1.148   2.636  12.376 -1.6905 -1.4855  0.9323
  225MPD1    N1 3478   1.625   2.602  12.431  0.7964  0.1746  0.4687
  225MPD1    H6 3479   1.718   2.625  12.397 -0.4662  1.1773 -2.3096
  225MPD1    H7 3480   1.593   2.662  12.507  0.6624 -0.6619  1.0733
  226MPD1     C 3481   4.442   3.328  10.338  0.1775 -0.3441 -0.6550
  226MPD1    C1 3482   4.386   3.345  10.210 -0.1861 -0.0371 -0.6090
  226MPD1    C2 3483   4.318   3.239  10.156 -0.2929 -0.1511 -1.0983
  226MPD1    C3 3484   4.302   3.121  10.227  0.0001  0.0564  0.7909
  226MPD1    C4 3485   4.343   3.123  10.359 -0.0839  0.1234  1.1119
  226MPD1    C5 3486   4.406   3.225  10.420 -0.2595 -0.5893  0.4471
  226MPD1     H 3487   4.270   3.243  10.059 -2.0828  0.8687 -0.1655
  226MPD1    H1 3488   4.330   3.034  10.421 -1.7419  0.1281  0.7903
  226MPD1    H2 3489   4.501   3.405  10.387 -0.3629  0.7513 -1.7248
  226MPD1    H3 3490   4.448   3.222  10.520  1.7629 -0.1227 -0.3814
  226MPD1     N 3491   4.236   3.017  10.163  0.0260  0.1426  0.5212
  226MPD1    H5 3492   4.187   3.033  10.076  0.3688  0.1021  0.3187
  226MPD1    N1 3493   4.429   3.450  10.124  0.3044 -0.6051  0.7247
  226MPD1    H6 3494   4.360   3.446  10.050  2.0931 -0.5841 -0.9675
  226MPD1    H7 3495   4.441   3.543  10.163 -2.1189 -1.0842  2.6187
  227MPD1     C 3496   3.314   2.777   9.839 -0.2250 -0.3106  0.2957
  227MPD1    C1 3497   3.398   2.693   9.774 -0.0965  0.1772  0.3212
  227MPD1    C2 3498   3.527   2.673   9.819 -0.4061  0.9313  0.2196
  227MPD1    C3 3499   3.590   2.760   9.907  1.3042  0.0490 -0.3972
  227MPD1    C4 3500   3.508   2.853   9.962 -0.3971 -0.1046 -0.4502
  227MPD1    C5 3501   3.375   2.855   9.937 -0.1695 -0.3084 -0.6093
  227MPD1     H 3502   3.589   2.602   9.765 -0.7691  0.6153  0.2137
  227MPD1    H1 3503   3.546   2.928  10.031  1.7786 -1.2007 -0.4431
  227MPD1    H2 3504   3.210   2.793   9.817 -0.4146 -0.7194  0.8782
  227MPD1    H3 3505   3.312   2.925   9.991 -0.8329 -0.4713 -1.1724
  227MPD1     N 3506   3.723   2.745   9.938 -0.0149 -0.8054  0.1040
  227MPD1    H5 3507   3.766   2.664   9.893 -1.9244 -0.6325 -2.0225
  227MPD1    N1 3508   3.348   2.600   9.679 -0.1272  0.3610 -0.0190
  227MPD1    H6 3509   3.418   2.549   9.626 -0.5018  1.2962 -1.4196
  227MPD1    H7 3510   3.276   2.626   9.612 -0.6500 -1.8747 -0.3240
  228MPD1     C 3511   2.456   0.109  12.928  0.1264 -0.2523 -0.2894
  228MPD1    C1 3512   2.350   0.103  12.840  0.4993  0.0537  0.4039
  228MPD1    C2 3513   2.229   0.062  12.893 -0.7685 -0.3474  0.1998
  228MPD1    C3 3514   2.226   0.001  13.021 -0.1980 -0.3211 -0.9711
  228MPD1    C4 3515   2.332   0.012  13.105 -0.1547 -1.0714  0.6311
  228MPD1    C5 3516   2.452   0.058  13.054  0.2740  0.0966  0.0111
  228MPD1     H 3517   2.144   0.058  12.826 -0.0880 -0.8569 -0.6435
  228MPD1    H1 3518   2.340   4.695  13.199  0.9441 -1.3590  0.3654
  228MPD1    H2 3519   2.557   0.129  12.894 -0.0292  1.5694  0.3263
  228MPD1    H3 3520   2.536   0.043  13.120 -1.3474 -0.2269  2.0258
  228MPD1     N 3521   2.104   4.681  13.062  0.1501  0.2933 -0.4574
  228MPD1    H5 3522   2.032   4.683  12.990 -1.2458  1.0481  0.9645
  228MPD1    N1 3523   2.367   0.164  12.712 -0.2388  0.5938  0.0122
  228MPD1    H6 3524   2.301   0.135  12.640  0.0231  2.6940 -1.0716
  228MPD1    H7 3525   2.459   0.178  12.672 -0.3606  0.8660 -0.1708
  229MPD1     C 3526   1.549   3.949  14.220 -0.2713 -0.7521  0.0738
  229MPD1    C1 3527   1.567   4.017  14.336  0.3319  0.3183 -0.6914
  229MPD1    C2 3528   1.638   3.950  14.436 -0.9528 -0.2322 -0.9023
  229MPD1    C3 3529   1.696   3.822  14.415 -0.7415 -1.1029  0.0342
  229MPD1    C4 3530   1.666   3.759  14.299 -0.0944  0.6532  0.0449
  229MPD1    C5 3531   1.595   3.828  14.202  0.2957 -0.6136  1.1965
  229MPD1     H 3532   1.645   3.996  14.534 -0.6711 -1.3021 -0.4118
  229MPD1    H1 3533   1.690   3.654  14.286  0.8847  1.0430 -1.3300
  229MPD1    H2 3534   1.476   3.989  14.150 -0.8705 -1.1647  0.4600
  229MPD1    H3 3535   1.562   3.777  14.111  1.0945  0.3406  0.3727
  229MPD1     N 3536   1.770   3.748  14.510  0.4557 -0.2936  0.1119
  229MPD1    H5 3537   1.796   3.656  14.477 -0.0109 -0.9959  1.6972
  229MPD1    N1 3538   1.493   4.137  14.364 -0.5671 -0.5368  0.3148
  229MPD1    H6 3539   1.542   4.194  14.433  0.2372  0.6440 -1.2388
  229MPD1    H7 3540   1.468   4.188  14.280 -0.6469 -2.2828 -0.7278
  230MPD1     C 3541   2.074   3.531  15.561 -0.4263  0.9517  0.3020
  230MPD1    C1 3542   2.181   3.531  15.476  0.2547  0.0179  0.5846
  230MPD1    C2 3543   2.176   3.555  15.334 -0.3836 -0.0126  0.5634
  230MPD1    C3 3544   2.050   3.592  15.292  0.6709 -0.7404 -0.1236
  230MPD1    C4 3545   1.947   3.618  15.388 -0.1071 -0.2082  0.1214
  230MPD1    C5 3546   1.956   3.585  15.519 -0.5603 -0.2810 -0.0466
  230MPD1     H 3547   2.263   3.538  15.272 -0.4925  0.8115  0.1901
  230MPD1    H1 3548   1.852   3.652  15.348 -0.3481  0.3181  1.1394
  230MPD1    H2 3549   2.088   3.510  15.666 -0.8570 -2.4824 -0.3386
  230MPD1    H3 3550   1.872   3.597  15.586 -1.2241  4.0692 -1.6720
  230MPD1     N 3551   2.028   3.604  15.147 -0.0893 -0.1720 -0.2540
  230MPD1    H5 3552   2.119   3.593  15.103 -0.6537  0.6259 -1.5923
  230MPD1    N1 3553   2.297   3.471  15.528 -0.3349 -0.4341  0.1482
  230MPD1    H6 3554   2.302   3.498  15.626 -1.5276  0.1332  0.0564
  230MPD1    H7 3555   2.379   3.518  15.491 -1.0616  0.3649 -0.4630
  231MPD1     C 3556   0.427   0.580  15.143  0.4790  0.3366 -0.3981
  231MPD1    C1 3557   0.377   0.602  15.011  0.1142  0.1293  0.5621
  231MPD1    C2 3558   0.441   0.696  14.935 -0.0608 -0.8693  0.1880
  231MPD1    C3 3559   0.550   0.772  14.980  0.4107  0.9851 -0.3379
  231MPD1    C4 3560   0.585   0.758  15.112 -0.0154  0.4177 -0.0975
  231MPD1    C5 3561   0.525   0.661  15.189  0.1199 -0.0211  0.4711
  231MPD1     H 3562   0.425   0.711  14.829  2.3391 -0.3312 -0.0772
  231MPD1    H1 3563   0.671   0.814  15.147 -0.5744  1.6832 -0.7657
  231MPD1    H2 3564   0.380   0.504  15.204  1.4246 -0.2974 -0.4737
  231MPD1    H3 3565   0.568   0.653  15.287  1.1295  1.2192  0.1254
  231MPD1     N 3566   0.614   0.853  14.881  0.8210  0.1362 -0.1804
  231MPD1    H5 3567   0.568   0.849  14.791  0.5863 -0.5050 -0.0339
  231MPD1    N1 3568   0.264   0.520  14.969  0.4291  0.3368  0.1124
  231MPD1    H6 3569   0.243   0.533  14.870  4.5626 -2.6192 -1.1002
  231MPD1    H7 3570   0.289   0.422  14.973 -1.3741 -0.0688  1.5179
  232MPD1     C 3571   1.732   1.907  17.176  0.3206  0.2868 -0.0961
  232MPD1    C1 3572   1.729   1.856  17.307  0.6419 -0.0635 -0.9688
  232MPD1    C2 3573   1.742   1.946  17.415 -0.0916  0.2668  0.2462
  232MPD1    C3 3574   1.753   2.086  17.391  0.3379  0.5832 -1.0150
  232MPD1    C4 3575   1.782   2.127  17.262 -0.0629 -0.0916 -0.4807
  232MPD1    C5 3576   1.765   2.037  17.157  0.6286 -0.6515 -0.3983
  232MPD1     H 3577   1.723   1.913  17.516 -0.8578 -1.2047 -0.3694
  232MPD1    H1 3578   1.807   2.232  17.254  0.2988 -0.1477 -0.1075
  232MPD1    H2 3579   1.719   1.845  17.087 -0.4207  2.3161 -1.4072
  232MPD1    H3 3580   1.767   2.078  17.057  0.8906 -0.5346 -0.3444
  232MPD1     N 3581   1.754   2.169  17.508 -0.4914 -0.7238  0.3356
  232MPD1    H5 3582   1.743   2.121  17.596  1.0961 -0.8409  0.4770
  232MPD1    N1 3583   1.693   1.721  17.318  0.4656  0.3975  0.8908
  232MPD1    H6 3584   1.742   1.678  17.397  3.3771 -0.0731 -1.1674
  232MPD1    H7 3585   1.706   1.668  17.232 -1.2758  0.0875  0.8209
  233MPD1     C 3586   3.014   1.593   1.852 -0.2121 -0.4963 -0.1287
  233MPD1    C1 3587   3.140   1.619   1.900 -0.1890 -0.2905  0.1712
  233MPD1    C2 3588   3.245   1.546   1.849 -0.9927  0.9285  0.4122
  233MPD1    C3 3589   3.224   1.455   1.747  0.1539  0.8013 -0.0298
  233MPD1    C4 3590   3.093   1.428   1.712 -1.1552  0.0204  0.1452
  233MPD1    C5 3591   2.986   1.494   1.766  0.3590  0.2393 -0.0296
  233MPD1     H 3592   3.340   1.564   1.899 -1.2702 -1.2529  1.7281
  233MPD1    H1 3593   3.081   1.343   1.645  1.4326 -0.4932  0.3438
  233MPD1    H2 3594   2.927   1.642   1.895  1.7403 -1.0077  4.3786
  233MPD1    H3 3595   2.883   1.476   1.736  0.1532  2.5988 -0.7815
  233MPD1     N 3596   3.325   1.368   1.699 -0.4645 -0.0997  0.7050
  233MPD1    H5 3597   3.293   1.290   1.642 -1.8821  1.3936 -0.5630
  233MPD1    N1 3598   3.159   1.705   2.014  0.1762 -0.2365 -0.0906
  233MPD1    H6 3599   3.251   1.748   2.020  0.9154 -2.0088  1.3392
  233MPD1    H7 3600   3.084   1.774   2.011 -0.2080 -0.5199  2.5723
  234MPD1     C 3601   0.510   0.224   9.713  0.0233  0.0809  0.6672
  234MPD1    C1 3602   0.458   0.305   9.810 -0.2615 -0.1949 -0.2803
  234MPD1    C2 3603   0.334   0.351   9.777 -0.0914  1.1940  0.2619
  234MPD1    C3 3604   0.267   0.337   9.657  0.5366  0.3853  0.3410
  234MPD1    C4 3605   0.324   0.259   9.561 -0.0128 -0.5980 -0.4091
  234MPD1    C5 3606   0.447   0.199   9.591 -0.2487 -0.0808  0.0913
  234MPD1     H 3607   0.294   0.419   9.852 -1.1690 -0.3215  1.0612
  234MPD1    H1 3608   0.274   0.264   9.464 -1.6990  2.1596  0.5802
  234MPD1    H2 3609   0.603   0.175   9.741 -0.2641 -0.6388  0.3489
  234MPD1    H3 3610   0.494   0.143   9.511  0.9749  0.6922  0.2810
  234MPD1     N 3611   0.158   0.420   9.633  0.2667 -0.4092  0.4459
  234MPD1    H5 3612   0.125   0.476   9.710 -2.1873  0.4374 -1.2188
  234MPD1    N1 3613   0.506   0.309   9.944 -0.5508  0.6296  0.1814
  234MPD1    H6 3614   0.467   0.391   9.989 -0.2596 -0.8368  3.0870
  234MPD1    H7 3615   0.606   0.310   9.958 -0.8177 -1.0177  2.2474
  235MPD1     C 3616   1.035   2.054  10.582  0.6950  0.8033 -0.3442
  235MPD1    C1 3617   1.059   2.149  10.484 -0.0630 -0.6172 -0.5944
  235MPD1    C2 3618   1.150   2.256  10.510  0.3613  0.4025  0.8211
  235MPD1    C3 3619   1.210   2.260  10.635 -0.6865 -0.6003  0.3355
  235MPD1    C4 3620   1.197   2.159  10.729  0.1044  0.5225  0.3754
  235MPD1    C5 3621   1.108   2.061  10.706 -0.1043  0.2042 -0.6472
  235MPD1     H 3622   1.171   2.328  10.432  0.7317 -0.6867 -0.0877
  235MPD1    H1 3623   1.255   2.159  10.821  0.2163  1.0153  0.3071
  235MPD1    H2 3624   0.979   1.964  10.559 -0.5427  1.1962  1.1048
  235MPD1    H3 3625   1.097   1.973  10.768 -0.2389  0.7681  0.1326
  235MPD1     N 3626   1.284   2.383  10.669 -1.1527 -0.2714 -0.5068
  235MPD1    H5 3627   1.296   2.448  10.592 -0.7328 -0.1249 -0.3144
  235MPD1    N1 3628   1.012   2.129  10.355 -0.1981  0.0535 -0.0254
  235MPD1    H6 3629   0.918   2.089  10.359 -0.3689  0.4095 -0.5966
  235MPD1    H7 3630   0.997   2.223  10.320 -1.6019 -0.1044  0.1521
  236MPD1     C 3631   0.824   4.261  10.086 -0.2627  0.3399  0.0461
  236MPD1    C1 3632   0.838   4.136  10.023  0.3095 -0.1252  0.1794
  236MPD1    C2 3633   0.852   4.027  10.107  0.0531  0.1672  0.3814
  236MPD1    C3 3634   0.875   4.042  10.244  1.2298  0.6044  0.4896
  236MPD1    C4 3635   0.883   4.167  10.296  0.1247  0.1172  0.1850
  236MPD1    C5 3636   0.849   4.279  10.221 -0.4826 -0.4278 -0.4221
  236MPD1     H 3637   0.846   3.927  10.067 -1.4963 -0.6913  2.7824
  236MPD1    H1 3638   0.890   4.186  10.403 -1.0802 -2.3990  0.6932
  236MPD1    H2 3639   0.794   4.349  10.031 -1.8092  0.5882  1.2754
  236MPD1    H3 3640   0.837   4.377  10.266  0.4722 -1.6238  2.3864
  236MPD1     N 3641   0.908   3.931  10.330  0.2132 -0.1308 -0.2506
  236MPD1    H5 3642   0.922   3.957  10.427  2.4521 -0.4350 -0.4888
  236MPD1    N1 3643   0.805   4.110   9.889  0.0568 -0.5880  0.8503
  236MPD1    H6 3644   0.832   4.015   9.865  1.8694  0.2747 -0.6074
  236MPD1    H7 3645   0.847   4.176   9.823  0.0886 -2.6920 -1.2329
  237MPD1     C 3646   0.880   2.277  15.370  0.3221 -0.2489 -0.1586
  237MPD1    C1 3647   0.766   2.264  15.447  0.2608  0.7068  0.2671
  237MPD1    C2 3648   0.689   2.148  15.432  0.5110 -0.2603 -0.3572
  237MPD1    C3 3649   0.720   2.049  15.335  0.3922 -0.4251  0.1470
  237MPD1    C4 3650   0.831   2.067  15.254 -0.5717  0.5390 -0.3137
  237MPD1    C5 3651   0.910   2.179  15.279 -0.2937 -0.7794 -0.0934
  237MPD1     H 3652   0.594   2.146  15.483  1.2374  1.3161  1.0624
  237MPD1    H1 3653   0.862   2.002  15.173  2.8410 -0.7335  2.0214
  237MPD1    H2 3654   0.941   2.366  15.364  1.3859 -0.9450  0.4514
  237MPD1    H3 3655   0.996   2.195  15.214 -0.3815 -0.3434 -0.1064
  237MPD1     N 3656   0.635   1.939  15.300  0.3590 -0.4198  0.3746
  237MPD1    H5 3657   0.666   1.868  15.235 -0.7779 -0.7915  0.2351
  237MPD1    N1 3658   0.724   2.378  15.512 -0.4426 -0.2386  0.1492
  237MPD1    H6 3659   0.802   2.440  15.533 -2.3741  1.9074  1.0705
  237MPD1    H7 3660   0.689   2.357  15.605 -0.1959  0.2350  0.3530
  238MPD1     C 3661   2.678   4.346  15.330  0.0698 -0.1573  0.1439
  238MPD1    C1 3662   2.698   4.469  15.268  0.0736  0.3715 -0.2177
  238MPD1    C2 3663   2.594   4.558  15.258 -0.1866 -0.7539  0.2474
  238MPD1    C3 3664   2.463   4.519  15.296  0.2730 -0.4210 -0.1185
  238MPD1    C4 3665   2.445   4.387  15.330 -1.2352 -0.6920  0.1937
  238MPD1    C5 3666   2.549   4.297  15.347  0.9645  0.1743  0.7908
  238MPD1     H 3667   2.602   4.650  15.201 -0.3311  0.3652  2.0338
  238MPD1    H1 3668   2.346   4.346  15.339 -1.4526  0.3032  2.3579
  238MPD1    H2 3669   2.757   4.274  15.346 -0.4956 -1.2196 -1.8017
  238MPD1    H3 3670   2.518   4.200  15.385 -0.2212  0.4724  0.6014
  238MPD1     N 3671   2.350   4.601  15.273 -0.7119 -0.2343  0.3592
  238MPD1    H5 3672   2.259   4.555  15.274 -0.5392 -0.5750  0.3663
  238MPD1    N1 3673   2.830   4.515  15.235  0.3504  0.9765  0.0697
  238MPD1    H6 3674   2.821   4.571  15.150 -2.8508  0.3753  0.0054
  238MPD1    H7 3675   2.885   4.432  15.218 -1.9497 -0.4488 -0.4707
  239MPD1     C 3676   2.406   1.189  15.340  0.2343  0.6701  0.0720
  239MPD1    C1 3677   2.527   1.198  15.267 -0.3435  1.1121  0.3222
  239MPD1    C2 3678   2.534   1.268  15.148 -0.0522 -0.5662  0.1504
  239MPD1    C3 3679   2.420   1.335  15.100 -0.3820 -0.6081  0.1660
  239MPD1    C4 3680   2.298   1.324  15.173  0.3076  0.3382 -0.7751
  239MPD1    C5 3681   2.297   1.252  15.292 -0.0714  0.5759  0.1379
  239MPD1     H 3682   2.631   1.274  15.100 -0.6858 -1.6794 -1.2586
  239MPD1    H1 3683   2.209   1.373  15.135 -0.9126 -0.5376  0.9549
  239MPD1    H2 3684   2.397   1.135  15.434  2.0858 -0.1156 -0.1837
  239MPD1    H3 3685   2.202   1.255  15.344 -0.3757 -0.0965 -0.3779
  239MPD1     N 3686   2.417   1.392  14.971 -0.2639 -0.5464 -0.0116
  239MPD1    H5 3687   2.331   1.428  14.933 -0.4615 -0.8994  0.0992
  239MPD1    N1 3688   2.645   1.146  15.327  0.1817 -0.0665 -0.1004
  239MPD1    H6 3689   2.620   1.082  15.402  1.1906  0.1218  0.3974
  239MPD1    H7 3690   2.701   1.100  15.255  0.8523 -0.9743  0.9949
  240MPD1     C 3691   1.985   1.208  13.998 -0.0409  0.9584 -0.2500
  240MPD1    C1 3692   1.852   1.198  14.039  0.1942  0.1563  0.6520
  240MPD1    C2 3693   1.830   1.144  14.167  0.2840 -0.6090  0.1119
  240MPD1    C3 3694   1.930   1.082  14.243  0.5345 -0.7977 -0.6377
  240MPD1    C4 3695   2.060   1.099  14.202  0.2481  0.0651 -0.3722
  240MPD1    C5 3696   2.082   1.153  14.077  0.0653  0.4498 -0.2138
  240MPD1     H 3697   1.732   1.143  14.213  0.7279  0.0555  1.0835
  240MPD1    H1 3698   2.147   1.075  14.261 -0.4543  1.4600  1.2399
  240MPD1    H2 3699   2.008   1.255  13.903 -1.5250  2.0871 -0.0527
  240MPD1    H3 3700   2.183   1.176  14.046  0.6642 -0.8168  0.8093
  240MPD1     N 3701   1.892   1.027  14.373  0.3120 -0.2588  0.2872
  240MPD1    H5 3702   1.798   1.034  14.410  0.8652  2.2520  1.2397
  240MPD1    N1 3703   1.756   1.269  13.962  0.0882 -0.0946 -0.6217
  240MPD1    H6 3704   1.660   1.239  13.978  0.0527  1.7053  2.5988
  240MPD1    H7 3705   1.781   1.270  13.863  0.2978 -1.5256 -0.5767
  241MPD1     C 3706   1.987   0.574  15.354  0.4053  1.4142  0.6049
  241MPD1    C1 3707   2.021   0.697  15.309  0.0874  0.2867  0.3430
  241MPD1    C2 3708   1.997   0.733  15.184  0.2910  0.3947  0.3016
  241MPD1    C3 3709   1.945   0.642  15.096  0.3880 -0.2339 -0.2266
  241MPD1    C4 3710   1.903   0.517  15.140  0.5807 -0.1980  0.0310
  241MPD1    C5 3711   1.925   0.482  15.275  0.2051  0.2723 -0.1442
  241MPD1     H 3712   2.009   0.839  15.163  2.5710  0.1533  0.4519
  241MPD1    H1 3713   1.861   0.442  15.073  3.5864 -0.4002 -1.6290
  241MPD1    H2 3714   2.013   0.548  15.457  1.1643 -3.7597 -0.9004
  241MPD1    H3 3715   1.891   0.388  15.318  0.1260  0.1550 -0.4686
  241MPD1     N 3716   1.922   0.660  14.954  0.4030 -0.0677  0.5711
  241MPD1    H5 3717   1.890   0.586  14.893  0.0431  2.0966 -1.8992
  241MPD1    N1 3718   2.098   0.781  15.395  0.6432 -0.1810 -0.2838
  241MPD1    H6 3719   2.082   0.760  15.493 -0.2755  1.1230 -0.1505
  241MPD1    H7 3720   2.108   0.881  15.375 -0.5363 -0.0269 -0.1137
  242MPD1     C 3721   1.008   3.754  16.325 -0.2822  0.0276 -1.2322
  242MPD1    C1 3722   0.951   3.793  16.209 -0.5392 -0.8822 -0.9229
  242MPD1    C2 3723   1.027   3.789  16.094 -1.1244  0.5639 -0.2300
  242MPD1    C3 3724   1.154   3.744  16.096 -0.0433  0.3318  1.0055
  242MPD1    C4 3725   1.211   3.700  16.210 -1.3933  0.5980 -0.0390
  242MPD1    C5 3726   1.138   3.706  16.323  0.5999  0.2005 -0.4680
  242MPD1     H 3727   0.989   3.835  16.004  2.3953  1.3338 -1.3404
  242MPD1    H1 3728   1.316   3.670  16.213 -1.1556  1.2033 -2.4156
  242MPD1    H2 3729   0.962   3.776  16.421  1.5267 -0.9474 -0.1430
  242MPD1    H3 3730   1.181   3.677  16.418 -0.1238 -0.6958 -0.4062
  242MPD1     N 3731   1.225   3.725  15.973 -0.3278 -0.9989  0.2355
  242MPD1    H5 3732   1.318   3.689  15.988 -0.3357 -1.1375 -0.0529
  242MPD1    N1 3733   0.835   3.878  16.212 -0.5296 -0.2456  0.6836
  242MPD1    H6 3734   0.784   3.875  16.124 -2.8377 -0.8563  2.0720
  242MPD1    H7 3735   0.770   3.846  16.282 -3.9999  2.6987 -1.1892
  243MPD1     C 3736   2.641   2.566  17.453 -0.5989 -0.5879 -0.6255
  243MPD1    C1 3737   2.740   2.527  17.542 -0.1313 -0.5740 -0.5540
  243MPD1    C2 3738   2.857   2.477  17.486  0.0982  1.1877 -0.1402
  243MPD1    C3 3739   2.890   2.477  17.354 -0.5541 -0.3836 -0.2639
  243MPD1    C4 3740   2.790   2.533  17.267  0.0103 -0.9251 -0.0794
  243MPD1    C5 3741   2.674   2.570  17.320  0.0798  0.1951  0.1713
  243MPD1     H 3742   2.922   2.429  17.557  0.0129  0.1419 -0.7618
  243MPD1    H1 3743   2.809   2.551  17.161 -1.0845  1.8436  0.2149
  243MPD1    H2 3744   2.548   2.604  17.493 -0.1731 -1.4480  1.1683
  243MPD1    H3 3745   2.591   2.599  17.257  1.7225  0.6844 -1.7636
  243MPD1     N 3746   3.018   2.428  17.315 -0.1542  0.3692 -0.5874
  243MPD1    H5 3747   3.076   2.384  17.385  0.4140  2.8674  0.4937
  243MPD1    N1 3748   2.705   2.497  17.675  0.2033 -0.2485  0.0957
  243MPD1    H6 3749   2.655   2.577  17.712  2.3251  1.0030  0.2347
  243MPD1    H7 3750   2.791   2.496  17.730 -0.7504  1.8647  1.5937
  244MPD1     C 3751   3.397   1.527  17.442  0.1205 -0.9434 -0.4002
  244MPD1    C1 3752   3.384   1.525  17.305  0.2887 -0.4169  0.3182
  244MPD1    C2 3753   3.359   1.641  17.234  0.0986  0.0736 -0.2805
  244MPD1    C3 3754   3.334   1.761  17.299 -0.2512 -0.1630  0.6865
  244MPD1    C4 3755   3.347   1.762  17.435 -0.7046  0.1530  0.7533
  244MPD1    C5 3756   3.385   1.648  17.506 -0.3434  0.4334  0.2496
  244MPD1     H 3757   3.351   1.645  17.126 -1.0617 -0.0972 -0.2071
  244MPD1    H1 3758   3.329   1.855  17.488 -0.5795  0.7389 -0.2087
  244MPD1    H2 3759   3.427   1.445  17.505  0.6433 -1.6004 -1.5055
  244MPD1    H3 3760   3.391   1.653  17.614  0.1752 -0.2392  0.2512
  244MPD1     N 3761   3.297   1.876  17.222 -0.1571  0.2294  0.0674
  244MPD1    H5 3762   3.285   1.867  17.121  1.6670  2.2728 -0.3351
  244MPD1    N1 3763   3.426   1.409  17.239 -0.2669 -0.2585  0.1744
  244MPD1    H6 3764   3.411   1.327  17.298 -0.1534 -1.5567 -1.6000
  244MPD1    H7 3765   3.376   1.390  17.152  0.9221  0.1154 -0.5829
  245MPD1     C 3766   0.185   2.732  14.069 -0.0025 -0.1590  0.3975
  245MPD1    C1 3767   0.312   2.761  14.123  0.5530 -0.3933 -0.2739
  245MPD1    C2 3768   0.355   2.891  14.126  0.5135 -0.1338  0.3662
  245MPD1    C3 3769   0.278   2.993  14.070  0.2799 -0.0789  0.0422
  245MPD1    C4 3770   0.159   2.954  14.001 -0.1878 -0.5242 -0.1888
  245MPD1    C5 3771   0.109   2.827  14.006 -0.0278  0.2391  0.1881
  245MPD1     H 3772   0.458   2.914  14.153  0.4322  0.0721  0.5072
  245MPD1    H1 3773   0.108   3.028  13.940 -0.1380 -0.4309 -0.1181
  245MPD1    H2 3774   0.156   2.627  14.065  2.0344 -0.7455  0.7405
  245MPD1    H3 3775   0.029   2.788  13.944  0.3147  1.8191 -1.2454
  245MPD1     N 3776   0.326   3.123  14.071  0.3901 -0.6153  0.3336
  245MPD1    H5 3777   0.420   3.122  14.109  1.3016 -0.8273 -1.9258
  245MPD1    N1 3778   0.370   2.656  14.196 -0.3039  0.2664 -0.9496
  245MPD1    H6 3779   0.361   2.561  14.160 -1.1144 -0.7134  1.8779
  245MPD1    H7 3780   0.470   2.671  14.210 -0.1499 -1.5197 -0.1767
  246MPD1     C 3781   1.273   1.088   9.962 -0.3476  0.4000 -0.7102
  246MPD1    C1 3782   1.278   1.045   9.825  0.1142 -0.1254 -0.0292
  246MPD1    C2 3783   1.313   0.913   9.792  0.0244  0.2048 -0.5370
  246MPD1    C3 3784   1.353   0.823   9.893  0.2705 -0.1296 -0.2979
  246MPD1    C4 3785   1.354   0.869  10.023  0.0125  0.2183  0.2927
  246MPD1    C5 3786   1.320   0.998  10.053 -0.0860 -0.4852 -0.0201
  246MPD1     H 3787   1.319   0.891   9.686 -0.2359  2.3352 -0.9974
  246MPD1    H1 3788   1.365   0.798  10.104  0.2727 -0.2840 -0.1778
  246MPD1    H2 3789   1.222   1.176   9.997 -0.1263  0.3502 -0.2674
  246MPD1    H3 3790   1.303   1.008  10.159  0.4719 -0.6473  0.0817
  246MPD1     N 3791   1.388   0.692   9.869 -0.1002  0.1389  0.1794
  246MPD1    H5 3792   1.367   0.662   9.775 -0.4911 -0.4915  0.4649
  246MPD1    N1 3793   1.230   1.131   9.719 -0.1787 -0.2477 -0.2115
  246MPD1    H6 3794   1.287   1.116   9.636  1.3548 -0.6513  0.9164
  246MPD1    H7 3795   1.248   1.227   9.747 -0.3190 -0.6070  1.0792
  247MPD1     C 3796   3.348   3.127  16.541  0.5900  0.0982  0.6403
  247MPD1    C1 3797   3.339   3.066  16.416  0.0660  0.8525 -0.5937
  247MPD1    C2 3798   3.461   3.020  16.367 -0.2154 -0.6173 -0.3666
  247MPD1    C3 3799   3.576   3.043  16.426  0.6991  0.1151 -0.1227
  247MPD1    C4 3800   3.583   3.110  16.549  0.0789 -0.0559 -0.0985
  247MPD1    C5 3801   3.469   3.146  16.608 -0.5347 -0.1834 -0.2513
  247MPD1     H 3802   3.461   2.965  16.274  0.5881 -1.8338  0.3487
  247MPD1    H1 3803   3.678   3.126  16.599 -0.6562  0.7184  1.0292
  247MPD1    H2 3804   3.261   3.160  16.596 -0.1104 -1.7943  0.6888
  247MPD1    H3 3805   3.475   3.185  16.709 -0.8893 -1.1085  0.1244
  247MPD1     N 3806   3.702   2.994  16.380 -0.1735 -0.5908 -0.4351
  247MPD1    H5 3807   3.781   3.036  16.428  0.2426 -1.2247 -0.5694
  247MPD1    N1 3808   3.218   3.020  16.366 -0.3198  0.6080 -0.1606
  247MPD1    H6 3809   3.146   3.080  16.406  0.1932  0.9434  0.2593
  247MPD1    H7 3810   3.215   3.024  16.264  1.4165 -1.0336 -0.2710
  248MPD1     C 3811   4.541   3.147  17.571  0.7701 -0.4592 -0.3568
  248MPD1    C1 3812   4.652   3.142  17.653  0.2382  0.4327  0.5294
  248MPD1    C2 3813   4.639   3.080   0.033  1.1377  0.2214  0.0733
  248MPD1    C3 3814   4.522   3.006   0.068 -0.0449 -0.0010  0.6479
  248MPD1    C4 3815   4.420   3.003  17.722  0.4197 -0.8518 -0.4563
  248MPD1    C5 3816   4.435   3.076  17.607  1.1168 -0.1640 -0.2222
  248MPD1     H 3817   4.718   3.094   0.105  1.4594 -1.1386 -0.0153
  248MPD1    H1 3818   4.334   2.940  17.744  1.8732 -2.1428  1.5043
  248MPD1    H2 3819   4.541   3.197  17.475 -2.8298 -0.2829 -0.2715
  248MPD1    H3 3820   4.348   3.070  17.542 -0.8297  0.9011  2.3081
  248MPD1     N 3821   4.523   2.944   0.193 -0.3658 -0.2700 -0.0776
  248MPD1    H5 3822   4.609   2.958   0.244  1.4263 -0.7401 -2.9592
  248MPD1    N1 3823   0.023   3.233  17.627 -0.1653 -0.1195 -0.0702
  248MPD1    H6 3824   0.025   3.256  17.528 -3.4186 -3.2463 -0.8714
  248MPD1    H7 3825   0.110   3.198  17.666  0.6801  1.7434 -0.2967
  249MPD1     C 3826   1.681   1.619  10.296 -0.6804 -0.3970 -0.0903
  249MPD1    C1 3827   1.795   1.655  10.366 -0.8320 -0.8132 -0.3426
  249MPD1    C2 3828   1.849   1.783  10.353 -0.3337  0.7945  0.2909
  249MPD1    C3 3829   1.791   1.873  10.262  0.1505  0.3253  0.0039
  249MPD1    C4 3830   1.680   1.837  10.188  0.5315  0.0936 -0.0278
  249MPD1    C5 3831   1.634   1.710  10.204  0.6249  0.7157 -0.0547
  249MPD1     H 3832   1.933   1.817  10.413  2.5543 -2.1132 -2.1273
  249MPD1    H1 3833   1.623   1.895  10.116 -0.7921 -0.8200  0.3014
  249MPD1    H2 3834   1.631   1.523  10.301  2.1802 -1.9756 -1.5050
  249MPD1    H3 3835   1.538   1.679  10.165  0.2677  1.6015  0.1236
  249MPD1     N 3836   1.835   2.005  10.268  0.1011  0.0469 -0.1878
  249MPD1    H5 3837   1.912   2.022  10.333  0.4169 -2.2698  0.0245
  249MPD1    N1 3838   1.855   1.578  10.466 -0.5753 -0.0676  0.3164
  249MPD1    H6 3839   1.855   1.478  10.449  3.3462  0.1239 -0.7220
  249MPD1    H7 3840   1.944   1.614  10.499 -2.1918  3.1608  1.2340
  250MPD2     C 3841   3.529   1.449  13.017  0.3851  0.4408 -0.0118
  250MPD2    C1 3842   3.514   1.527  12.912  0.2164  0.4727 -0.0926
  250MPD2    C2 3843   3.472   1.472  12.792 -0.9762  0.4397 -0.0885
  250MPD2    C3 3844   3.459   1.337  12.776  0.3139  0.4055 -0.3523
  250MPD2    C4 3845   3.485   1.254  12.880 -0.2038  0.5566 -0.1367
  250MPD2    C5 3846   3.508   1.314  13.003 -0.8024  0.0548  0.2101
  250MPD2     H 3847   3.461   1.537  12.706 -1.0810 -1.9028 -1.8570
  250MPD2    H1 3848   3.480   1.146  12.877 -1.2220  0.6697 -2.4172
  250MPD2    H2 3849   3.562   1.495  13.109  0.1072  0.6424 -0.0124
  250MPD2    H3 3850   3.524   1.254  13.092  0.5176  1.7402  1.1133
  250MPD2     N 3851   3.414   1.272  12.651 -0.4230  0.3516 -0.2412
  250MPD2    H5 3852   3.418   1.171  12.645 -1.1969  0.2877  0.3729
  250MPD2    N1 3853   3.533   1.665  12.938  0.1178  0.4827  0.5047
  250MPD2    H7 3854   3.579   1.692  13.024  0.5847 -0.6944  0.6192
  251TMC3    C1 3855   3.538   1.900  12.897 -1.2376  0.5565 -1.0107
  251TMC3    C2 3856   3.441   1.991  12.898 -0.1971  0.2937 -0.0417
  251TMC3    C3 3857   3.473   2.127  12.896 -0.2943 -0.2988 -0.4732
  251TMC3    C4 3858   3.669   1.932  12.893  0.6384 -0.2763  0.0264
  251TMC3    C5 3859   3.699   2.063  12.896  0.0280 -0.0570 -0.1259
  251TMC3    C6 3860   3.602   2.168  12.889  0.3736 -0.4457 -0.1600
  251TMC3     C 3861   3.494   1.768  12.854 -0.6751 -0.3996 -0.3293
  251TMC3     O 3862   3.405   1.754  12.771 -0.6439  0.1036  0.3740
  251TMC3     H 3863   3.344   1.955  12.929  0.1042 -0.7753 -0.3557
  251TMC3    H1 3864   3.747   1.857  12.897 -1.2109 -2.2405 -0.6931
  251TMC3    H2 3865   3.627   2.273  12.890  3.3239 -1.1551  2.3517
  251TMC3    C7 3866   3.830   2.089  12.927  0.3369  0.5926  0.1488
  251TMC3    C8 3867   3.365   2.227  12.916  1.0103 -0.0745  0.4908
  251TMC3    O1 3868   3.907   2.008  12.972 -0.9325  0.2995 -0.1317
  251TMC3    O2 3869   3.255   2.183  12.951 -0.2571 -0.4483 -0.5006
  252TMC3    C1 3870   2.959   3.572  10.060 -0.0410 -0.2629 -0.0254
  252TMC3    C2 3871   3.028   3.642   9.962 -0.1520 -0.5222  0.1326
  252TMC3    C3 3872   3.161   3.616   9.945 -0.3343  0.2916  0.8298
  252TMC3    C4 3873   3.011   3.460  10.118  0.0690  0.0243  0.1033
  252TMC3    C5 3874   3.140   3.432  10.092 -0.0821 -0.7867  0.4884
  252TMC3    C6 3875   3.218   3.506  10.012  0.5646 -0.2846 -0.3445
  252TMC3     C 3876   2.820   3.569  10.048  0.4822  0.0269  0.2233
  252TMC3     O 3877   2.769   3.458  10.063  0.2393  0.0376 -0.7317
  252TMC3     H 3878   2.980   3.706   9.889  0.6137  0.9802  0.9699
  252TMC3    H1 3879   2.952   3.395  10.180  0.9490 -0.8831  0.0001
  252TMC3    H2 3880   3.323   3.482   9.996  1.0865  2.6268 -1.1804
  252TMC3    C7 3881   3.212   3.321  10.154  0.4960  0.4219 -0.9327
  252TMC3    C8 3882   3.239   3.704   9.865 -0.4075 -0.7679  0.1806
  252TMC3    O1 3883   3.332   3.338  10.167  0.4498  0.3366  0.3715
  252TMC3    O2 3884   3.183   3.789   9.800 -0.1336 -0.2167 -0.1890
  253MPD2     C 3885   0.024   1.916  15.248 -0.1559  0.2846 -0.0513
  253MPD2    C1 3886   4.634   1.893  15.284  1.1597  0.3107  0.3212
  253MPD2    C2 3887   4.596   1.894  15.420 -0.3609 -0.0829  0.1343
  253MPD2    C3 3888   4.687   1.922  15.517 -0.3213 -0.9129 -0.0018
  253MPD2    C4 3889   0.078   1.949  15.482  0.1507  0.1666  0.5191
  253MPD2    C5 3890   0.116   1.945  15.345  0.4683 -0.2666  0.0581
  253MPD2     H 3891   4.494   1.868  15.447 -0.7439  0.8853 -0.3858
  253MPD2    H1 3892   0.150   1.974  15.559  0.8031 -2.7307  0.8532
  253MPD2    H2 3893   0.051   1.921  15.143 -1.3931 -0.0821 -0.3872
  253MPD2    H3 3894   0.217   1.978  15.323 -0.9420  2.5796 -2.1997
  253MPD2     N 3895   4.643   1.935  15.655  0.0196 -0.0289 -0.5807
  253MPD2    H5 3896   4.717   1.960  15.720 -0.6908  0.3991  0.0670
  253MPD2    N1 3897   4.532   1.863  15.189 -0.2838  0.5348 -0.2188
  253MPD2    H7 3898   4.441   1.849  15.231 -1.2858  0.4923 -2.3887
  254TMC3    C1 3899   4.503   1.887  15.842  0.4401  0.1573 -0.0881
  254TMC3    C2 3900   4.381   1.925  15.905 -0.1126 -0.0251  0.0370
  254TMC3    C3 3901   4.356   1.855  16.017 -0.3890  0.3518  0.8862
  254TMC3    C4 3902   4.583   1.787  15.890  0.4174 -0.3933  1.4518
  254TMC3    C5 3903   4.555   1.726  16.012 -0.7204  0.8595  0.0563
  254TMC3    C6 3904   4.439   1.761  16.067 -0.2096 -0.3574  0.0028
  254TMC3     C 3905   4.511   1.921  15.705  0.4019  0.4902 -0.2670
  254TMC3     O 3906   4.409   1.929  15.640 -0.4959 -0.6956  0.1716
  254TMC3     H 3907   4.325   2.009  15.865  0.1561  0.5240  0.8102
  254TMC3    H1 3908   4.669   1.753  15.833 -0.1757  1.4000 -0.4864
  254TMC3    H2 3909   4.425   1.721  16.167  0.3090 -0.4403  0.0395
  254TMC3    C7 3910   4.640   1.627  16.083 -1.0304  0.5455  0.3406
  254TMC3    C8 3911   4.250   1.897  16.109 -0.8529  0.0810 -0.1816
  254TMC3    O1 3912   4.587   1.538  16.153 -0.4567 -0.3224 -0.4457
  254TMC3    O2 3913   4.266   1.870  16.228 -0.1267  0.0062 -0.5407
  255MPD2     C 3914   2.778   4.620  10.042 -0.0088 -0.0323  0.1302
  255MPD2    C1 3915   2.833   0.001  10.088 -0.7085  0.5003 -0.3227
  255MPD2    C2 3916   2.937   0.066  10.017  0.3901 -0.1401 -0.2031
  255MPD2    C3 3917   2.981   0.009   9.904 -0.5410 -0.3405 -0.1048
  255MPD2    C4 3918   2.927   4.625   9.859  1.1761 -0.6203 -0.2005
  255MPD2    C5 3919   2.826   4.565   9.926  0.1799 -0.2532 -0.0965
  255MPD2     H 3920   2.991   0.153  10.052 -0.9612  0.6243 -0.0171
  255MPD2    H1 3921   2.962   4.592   9.762 -0.7203 -0.1973 -1.0417
  255MPD2    H2 3922   2.713   4.564  10.108  0.5417  0.3722  1.0051
  255MPD2    H3 3923   2.798   4.466   9.892 -0.5657 -0.6467  1.6649
  255MPD2     N 3924   3.084   0.077   9.825  0.6494 -0.2940  0.1871
  255MPD2    H5 3925   3.116   0.162   9.870  0.6406 -1.2215  1.9582
  255MPD2    N1 3926   2.783   0.063  10.201 -0.6910  0.4308 -0.5927
  255MPD2    H7 3927   2.694   0.033  10.241 -0.9678  0.3898 -1.2482
  256TMC3    C1 3928   2.755   0.223  10.378  0.1730 -0.4600  0.7551
  256TMC3    C2 3929   2.802   0.299  10.477 -0.1522  0.4296 -0.0058
  256TMC3    C3 3930   2.722   0.366  10.563  0.0365 -0.2440 -0.4060
  256TMC3    C4 3931   2.617   0.238  10.348  0.4091  0.2552 -0.1709
  256TMC3    C5 3932   2.536   0.315  10.433  0.1627  0.4412 -0.7961
  256TMC3    C6 3933   2.585   0.378  10.546  0.5038  0.5602 -0.5033
  256TMC3     C 3934   2.837   0.169  10.275 -0.3725 -0.1435 -0.3185
  256TMC3     O 3935   2.949   0.217  10.270  0.5614 -0.2628  0.0434
  256TMC3     H 3936   2.905   0.287  10.508 -0.0206  0.3182 -0.5032
  256TMC3    H1 3937   2.573   0.191  10.260  2.4864 -2.8506  0.4654
  256TMC3    H2 3938   2.523   0.442  10.608  0.6446 -0.1973  0.4273
  256TMC3    C7 3939   2.398   0.322  10.399  0.0865 -0.4110 -0.4054
  256TMC3    C8 3940   2.776   0.490  10.614  0.3221 -0.4616 -0.1747
  256TMC3    O1 3941   2.374   0.308  10.282 -0.0228  0.1918 -0.7941
  256TMC3    O2 3942   2.716   0.544  10.704  0.2558  0.4009 -0.1566
  257MPD2     C 3943   2.598   2.016  13.424  0.5951 -0.2922  0.4190
  257MPD2    C1 3944   2.531   1.940  13.337 -0.0408  0.0714  0.2631
  257MPD2    C2 3945   2.487   1.812  13.378 -0.9282  0.3662  0.0150
  257MPD2    C3 3946   2.531   1.759  13.497  0.2184  0.4724  0.4624
  257MPD2    C4 3947   2.608   1.843  13.577 -0.0101  0.0917  0.2322
  257MPD2    C5 3948   2.634   1.973  13.545  0.4752  0.0106 -0.8932
  257MPD2     H 3949   2.417   1.766  13.309  1.0203  0.2524 -1.8826
  257MPD2    H1 3950   2.640   1.813  13.677 -1.0500  1.6442  1.0337
  257MPD2    H2 3951   2.644   2.113  13.405  0.6236 -0.3510  0.1883
  257MPD2    H3 3952   2.701   2.034  13.605 -2.0257  0.1904  1.7139
  257MPD2     N 3953   2.491   1.634  13.541  0.2213  0.1272 -0.5525
  257MPD2    H5 3954   2.420   1.588  13.486 -1.2199  0.9738  0.5877
  257MPD2    N1 3955   2.500   2.000  13.209 -0.1660  0.2180 -0.3884
  257MPD2    H7 3956   2.555   2.078  13.177 -3.3154  1.6732 -2.1937
  258TMC3    C1 3957   2.492   1.428  13.664 -0.3879 -0.5033  0.9949
  258TMC3    C2 3958   2.468   1.365  13.554  0.1160  0.5190  0.4782
  258TMC3    C3 3959   2.437   1.234  13.565 -0.1066 -0.2258 -0.0333
  258TMC3    C4 3960   2.489   1.365  13.786 -0.3618  0.9421  0.1087
  258TMC3    C5 3961   2.445   1.235  13.799  0.5733  0.5701 -0.9255
  258TMC3    C6 3962   2.421   1.164  13.682  0.7409 -0.1247 -0.5058
  258TMC3     C 3963   2.529   1.565  13.661  0.1916  0.1239  0.5643
  258TMC3     O 3964   2.596   1.604  13.753  0.1240  0.5955  0.2931
  258TMC3     H 3965   2.488   1.412  13.459 -0.9647 -0.1537 -0.0790
  258TMC3    H1 3966   2.508   1.418  13.879 -2.3269  3.3369 -0.8539
  258TMC3    H2 3967   2.387   1.061  13.686  0.4670 -0.0400 -0.6267
  258TMC3    C7 3968   2.442   1.165  13.922  0.0479 -0.4208 -0.1111
  258TMC3    C8 3969   2.368   1.181  13.455 -0.7493  1.0700  0.1877
  258TMC3    O1 3970   2.368   1.073  13.911 -0.0773 -0.5414 -0.5797
  258TMC3    O2 3971   2.276   1.109  13.486  0.2251 -0.0084  0.2014
  259MPD2     C 3972   1.552   3.421   0.883 -0.1304 -0.2124  1.4316
  259MPD2    C1 3973   1.500   3.315   0.811  0.4712 -0.9107 -0.1631
  259MPD2    C2 3974   1.459   3.335   0.679 -0.3861 -0.1399  0.0734
  259MPD2    C3 3975   1.498   3.452   0.610 -0.3482  0.4178 -0.0837
  259MPD2    C4 3976   1.550   3.557   0.688  0.2343 -0.4716  0.0357
  259MPD2    C5 3977   1.577   3.542   0.825  0.2549  0.2867  0.0251
  259MPD2     H 3978   1.422   3.256   0.614 -3.3885  0.4810  1.0279
  259MPD2    H1 3979   1.571   3.657   0.650 -1.3581 -0.1590 -0.0469
  259MPD2    H2 3980   1.575   3.402   0.987 -0.3739  0.4461  1.6068
  259MPD2    H3 3981   1.625   3.626   0.875  0.5087 -0.5430  1.1802
  259MPD2     N 3982   1.487   3.455   0.471  0.1153 -0.2513  0.2766
  259MPD2    H5 3983   1.459   3.371   0.423 -1.1106  1.1762 -1.5269
  259MPD2    N1 3984   1.452   3.207   0.890  0.3537  0.4830  0.3683
  259MPD2    H7 3985   1.460   3.219   0.991  1.6036  1.6799  0.1235
  260TMC3    C1 3986   1.515   3.513   0.249  0.1333 -0.1264 -0.4227
  260TMC3    C2 3987   1.628   3.508   0.187  0.5248  0.1548  0.5266
  260TMC3    C3 3988   1.637   3.433   0.072 -0.2050  0.0260  0.3611
  260TMC3    C4 3989   1.405   3.436   0.204  0.4041  1.3407  0.1152
  260TMC3    C5 3990   1.420   3.363   0.090 -0.5945  0.1265  0.2026
  260TMC3    C6 3991   1.532   3.374   0.020 -0.0183 -0.1031 -0.2138
  260TMC3     C 3992   1.530   3.557   0.385 -1.0216 -0.0275 -0.1932
  260TMC3     O 3993   1.589   3.659   0.416 -0.3149  0.6761 -0.3925
  260TMC3     H 3994   1.719   3.546   0.231  2.0763 -1.4223 -1.3137
  260TMC3    H1 3995   1.315   3.422   0.262 -0.6674  0.8420 -1.6705
  260TMC3    H2 3996   1.544   3.333  17.667 -1.3730 -0.7372 -0.1226
  260TMC3    C7 3997   1.376   3.223   0.100  0.6532 -1.6780 -0.5279
  260TMC3    C8 3998   1.755   3.364   0.053 -0.4730 -0.0153  0.2286
  260TMC3    O1 3999   1.454   3.141   0.047 -0.2453 -0.1660  0.3412
  260TMC3    O2 4000   1.862   3.426   0.057  0.4570 -0.7563 -0.5230
  261MPD2     C 4001   2.724   1.217  12.314  0.2179 -0.0891  0.6317
  261MPD2    C1 4002   2.822   1.296  12.258  0.2420  0.0814  0.4024
  261MPD2    C2 4003   2.784   1.416  12.202 -0.2262  0.1883  0.3677
  261MPD2    C3 4004   2.647   1.441  12.182  0.4423 -0.3287  0.2064
  261MPD2    C4 4005   2.548   1.360  12.231 -0.1943 -0.2837 -0.7435
  261MPD2    C5 4006   2.593   1.241  12.289 -0.5769  0.6471  0.5778
  261MPD2     H 4007   2.853   1.481  12.148 -1.1586  0.7032 -0.1988
  261MPD2    H1 4008   2.444   1.392  12.234 -0.0202  0.0438  2.0060
  261MPD2    H2 4009   2.747   1.125  12.366 -0.4923  0.9399  2.7340
  261MPD2    H3 4010   2.514   1.177  12.328 -0.9820  0.2551 -0.8706
  261MPD2     N 4011   2.621   1.554  12.105 -0.3573 -0.2218 -0.0457
  261MPD2    H5 4012   2.699   1.619  12.105  0.2814 -0.9798 -0.1337
  261MPD2    N1 4013   2.963   1.268  12.274  0.2700 -0.0273 -0.2110
  261MPD2    H7 4014   3.034   1.333  12.241 -0.1787  0.3411 -0.4504
  262TMC3    C1 4015   2.549   1.679  11.939 -0.3667  0.1436  0.2298
  262TMC3    C2 4016   2.584   1.805  11.989  0.8620  0.0433 -0.4298
  262TMC3    C3 4017   2.583   1.912  11.905  0.0991 -0.1775  0.1026
  262TMC3    C4 4018   2.518   1.668  11.809  0.0131  0.0342 -0.1977
  262TMC3    C5 4019   2.505   1.782  11.728 -0.1036 -0.8941 -0.3338
  262TMC3    C6 4020   2.550   1.900  11.772  0.2598 -0.8657  0.0944
  262TMC3     C 4021   2.515   1.576  12.025 -0.4985 -0.3568 -0.0666
  262TMC3     O 4022   2.413   1.508  12.008  0.3413 -0.0358  0.0544
  262TMC3     H 4023   2.612   1.808  12.093 -0.4901  0.4637 -0.0831
  262TMC3    H1 4024   2.475   1.576  11.770 -1.0390  0.0565  0.9166
  262TMC3    H2 4025   2.592   1.972  11.704  0.0187 -0.5860  0.2437
  262TMC3    C7 4026   2.509   1.750  11.586  0.2671 -0.6800 -0.4855
  262TMC3    C8 4027   2.644   2.032  11.949 -0.6210 -0.3427 -0.4175
  262TMC3    O1 4028   2.494   1.630  11.555 -0.4716  0.7428 -0.1653
  262TMC3    O2 4029   2.684   2.110  11.861 -0.0059 -0.2356  0.1055
  263MPD2     C 4030   3.375   1.116  11.651 -0.2047 -0.4770 -0.6263
  263MPD2    C1 4031   3.493   1.102  11.570  0.9444 -0.1507 -0.5640
  263MPD2    C2 4032   3.501   1.156  11.442 -0.2294  0.2614 -0.3130
  263MPD2    C3 4033   3.386   1.217  11.391  0.4491  0.0011  1.1789
  263MPD2    C4 4034   3.271   1.229  11.466 -0.4650  0.7084 -0.2361
  263MPD2    C5 4035   3.266   1.184  11.596  0.0968  0.2765  0.9041
  263MPD2     H 4036   3.580   1.144  11.369 -0.1528  0.4397 -0.2585
  263MPD2    H1 4037   3.187   1.288  11.431  0.5110  2.4367  0.3325
  263MPD2    H2 4038   3.355   1.071  11.747  0.0635  1.3670  0.2926
  263MPD2    H3 4039   3.171   1.199  11.647  0.4623  2.7035  0.8549
  263MPD2     N 4040   3.395   1.284  11.266 -0.8720 -0.3083  0.4428
  263MPD2    H5 4041   3.477   1.278  11.206 -0.9864  1.6154  0.0663
  263MPD2    N1 4042   3.606   1.039  11.630  0.4389 -0.2732  0.3179
  263MPD2    H7 4043   3.609   1.056  11.730  2.0461  2.4070 -0.1758
  264TMC3    C1 4044   3.321   1.366  11.058  0.2594 -0.8412 -0.1802
  264TMC3    C2 4045   3.256   1.475  11.008  0.8557  0.1092  0.2190
  264TMC3    C3 4046   3.278   1.530  10.886 -0.7605  0.2385  0.3063
  264TMC3    C4 4047   3.436   1.326  10.999 -0.2982  0.6114  0.4696
  264TMC3    C5 4048   3.469   1.381  10.880  0.6200  0.0335 -0.0600
  264TMC3    C6 4049   3.391   1.483  10.827  0.5327 -0.1823 -0.6801
  264TMC3     C 4050   3.287   1.333  11.194 -0.1922 -0.0030  0.0970
  264TMC3     O 4051   3.173   1.354  11.228  1.0942  0.5600  0.0722
  264TMC3     H 4052   3.172   1.514  11.064 -0.9441 -3.1059 -0.2202
  264TMC3    H1 4053   3.494   1.244  11.039 -2.0413 -0.7951  0.1332
  264TMC3    H2 4054   3.423   1.520  10.730  1.9098 -1.1309 -0.5929
  264TMC3    C7 4055   3.612   1.416  10.875  0.0283  0.0160  0.1901
  264TMC3    C8 4056   3.256   1.671  10.891 -0.0766  0.1928 -0.3799
  264TMC3    O1 4057   3.679   1.359  10.788  0.7308 -0.2995 -0.1086
  264TMC3    O2 4058   3.155   1.714  10.949  0.7886  0.0451 -0.1277
  265MPD2     C 4059   0.721   1.499  15.292 -0.5953 -0.0463  0.0497
  265MPD2    C1 4060   0.835   1.582  15.287  0.7177  0.2263 -0.2895
  265MPD2    C2 4061   0.934   1.557  15.193  0.0311 -0.3992 -0.4769
  265MPD2    C3 4062   0.923   1.477  15.085 -0.2136  0.6602  0.0090
  265MPD2    C4 4063   0.810   1.402  15.080 -0.1912 -0.4274 -0.2033
  265MPD2    C5 4064   0.714   1.406  15.184 -0.9225  0.1813 -0.5543
  265MPD2     H 4065   1.021   1.620  15.211 -1.2686  1.0803  0.6290
  265MPD2    H1 4066   0.800   1.333  14.997 -0.5996  0.1705 -0.6544
  265MPD2    H2 4067   0.639   1.514  15.361 -2.3527 -0.5396 -1.9351
  265MPD2    H3 4068   0.626   1.343  15.173 -1.0001  0.6260 -2.5298
  265MPD2     N 4069   1.022   1.465  14.977  0.3289  0.0199 -0.0108
  265MPD2    H5 4070   1.022   1.386  14.913 -0.0583 -0.7345  0.9231
  265MPD2    N1 4071   0.857   1.679  15.389 -0.0484 -0.2855 -0.2016
  265MPD2    H7 4072   0.940   1.733  15.365  0.7094 -1.2300  0.2946
  266TMC3    C1 4073   0.824   1.811  15.582 -0.2031  0.4325 -0.1478
  266TMC3    C2 4074   0.954   1.838  15.579  0.0256  0.0451  0.2285
  266TMC3    C3 4075   1.004   1.939  15.659 -0.2758 -0.3508 -0.8438
  266TMC3    C4 4076   0.736   1.878  15.670  0.7925  0.0827  0.7964
  266TMC3    C5 4077   0.788   1.989  15.733  0.4204 -1.0018  0.3396
  266TMC3    C6 4078   0.923   2.022  15.732  0.2954 -0.1269  0.4868
  266TMC3     C 4079   0.774   1.711  15.496  0.4417  0.2444  0.1793
  266TMC3     O 4080   0.660   1.677  15.524 -0.2828 -0.2213  0.0984
  266TMC3     H 4081   1.022   1.765  15.536  1.1800  0.5812  1.1158
  266TMC3    H1 4082   0.631   1.848  15.668  2.2634 -5.1911  2.0241
  266TMC3    H2 4083   0.968   2.105  15.785  0.0273  0.2217  0.1664
  266TMC3    C7 4084   0.688   2.086  15.770  0.5901  0.3609 -0.6288
  266TMC3    C8 4085   1.149   1.940  15.666 -0.0281  0.0775 -0.1272
  266TMC3    O1 4086   0.574   2.043  15.768 -0.2129  0.4608 -0.2846
  266TMC3    O2 4087   1.201   1.898  15.566 -0.1890 -0.4879 -0.2310
  267MPD2     C 4088   3.089   3.773   0.906 -0.2748 -0.6308 -0.7069
  267MPD2    C1 4089   3.104   3.689   0.791  0.3959  0.0500  0.0354
  267MPD2    C2 4090   3.077   3.732   0.659 -0.3549 -0.1417 -0.7357
  267MPD2    C3 4091   3.022   3.861   0.644  0.6706  0.2339  0.1997
  267MPD2    C4 4092   2.991   3.928   0.760  0.8255 -0.3141  0.7290
  267MPD2    C5 4093   3.022   3.891   0.889  0.6055  0.6439 -0.1249
  267MPD2     H 4094   3.104   3.673   0.572 -1.2619 -0.3710 -0.8669
  267MPD2    H1 4095   2.937   4.022   0.748 -1.1185 -1.4196  0.8470
  267MPD2    H2 4096   3.117   3.742   1.006  0.3944  2.9213  0.2190
  267MPD2    H3 4097   3.001   3.952   0.976  1.5318  0.6516  0.0919
  267MPD2     N 4098   2.983   3.914   0.520  0.7275 -0.1944 -0.2489
  267MPD2    H5 4099   2.925   3.997   0.515  0.6073 -0.3360 -1.1698
  267MPD2    N1 4100   3.167   3.566   0.817  0.6578  0.4700 -0.9613
  267MPD2    H7 4101   3.177   3.539   0.914 -1.1227 -0.6478 -1.0877
  268TMC3    C1 4102   3.292   3.373   0.778 -0.1573 -0.6145  1.1795
  268TMC3    C2 4103   3.287   3.252   0.718  0.4866  0.8682 -0.1106
  268TMC3    C3 4104   3.322   3.141   0.791  0.0309 -0.6062 -0.1618
  268TMC3    C4 4105   3.340   3.391   0.906 -0.2972 -0.3708 -0.8279
  268TMC3    C5 4106   3.392   3.276   0.970  0.6970 -0.6252 -0.1884
  268TMC3    C6 4107   3.379   3.148   0.915  0.3024 -0.4426 -0.3936
  268TMC3     C 4108   3.208   3.480   0.723 -0.1070  0.3436 -0.3208
  268TMC3     O 4109   3.199   3.472   0.600  0.0021  0.7695  0.2461
  268TMC3     H 4110   3.261   3.247   0.613  0.3011 -0.6203 -0.0029
  268TMC3    H1 4111   3.359   3.489   0.949  0.6731 -1.4810  1.2982
  268TMC3    H2 4112   3.429   3.069   0.970  1.2698  0.0921 -0.5103
  268TMC3    C7 4113   3.456   3.276   1.103 -0.1692 -0.7252 -0.3689
  268TMC3    C8 4114   3.374   3.027   0.717 -0.0429  0.3060  0.0422
  268TMC3    O1 4115   3.473   3.172   1.162  0.1282  0.2853  0.1662
  268TMC3    O2 4116   3.454   2.953   0.782 -0.0828  0.0056  0.3387
  269MPD2     C 4117   3.828   2.299  15.691  0.1291  0.0678  0.0634
  269MPD2    C1 4118   3.699   2.311  15.730  0.1607 -0.4104  0.0186
  269MPD2    C2 4119   3.648   2.436  15.751 -0.4191 -0.2535 -0.4455
  269MPD2    C3 4120   3.728   2.547  15.752  0.4990 -0.1469 -0.0230
  269MPD2    C4 4121   3.858   2.534  15.709  0.0930  0.3198 -0.1713
  269MPD2    C5 4122   3.908   2.411  15.679 -0.2809 -0.3445 -0.6242
  269MPD2     H 4123   3.549   2.462  15.787 -0.3974 -0.3707 -0.2990
  269MPD2    H1 4124   3.916   2.624  15.690  0.7746  0.0189  0.5035
  269MPD2    H2 4125   3.868   2.205  15.654  0.2155  0.8135 -1.7299
  269MPD2    H3 4126   4.008   2.414  15.636 -0.7106 -1.5258 -1.7009
  269MPD2     N 4127   3.663   2.669  15.768 -0.7362 -0.1173 -0.0242
  269MPD2    H5 4128   3.563   2.671  15.784 -0.8484  0.7205 -0.8352
  269MPD2    N1 4129   3.617   2.195  15.745  0.1716 -0.1685  0.4684
  269MPD2    H7 4130   3.646   2.106  15.707  0.0289  0.3124 -0.7818
  270TMC3    C1 4131   3.424   2.064  15.773 -0.3777 -0.2219 -0.4774
  270TMC3    C2 4132   3.303   2.072  15.716  0.3199 -0.5431 -0.4212
  270TMC3    C3 4133   3.237   1.950  15.721 -0.2752 -0.1528  0.2769
  270TMC3    C4 4134   3.487   1.953  15.813 -0.0786 -0.2549  0.1433
  270TMC3    C5 4135   3.419   1.842  15.810 -0.0578  0.6802  0.3351
  270TMC3    C6 4136   3.287   1.833  15.775  0.0337 -0.3781 -0.8759
  270TMC3     C 4137   3.482   2.194  15.779  0.2899 -0.3748  0.3248
  270TMC3     O 4138   3.415   2.289  15.818 -0.1112 -0.1597  0.3665
  270TMC3     H 4139   3.263   2.162  15.672 -0.5239 -0.0920  1.2790
  270TMC3    H1 4140   3.579   1.953  15.870 -0.3091  0.7049  0.5156
  270TMC3    H2 4141   3.217   1.751  15.787  0.9548 -0.8001  1.8045
  270TMC3    C7 4142   3.500   1.736  15.747 -0.3830  0.0228 -0.5963
  270TMC3    C8 4143   3.126   1.940  15.630  1.1171 -0.2253  0.3674
  270TMC3    O1 4144   3.623   1.739  15.758 -0.6794  0.0012  0.0086
  270TMC3    O2 4145   3.025   1.884  15.664  0.4354  0.0276  0.4694
  271MPD2     C 4146   2.503   1.886  13.923  0.3965 -0.2060 -0.5525
  271MPD2    C1 4147   2.506   1.974  14.032  0.5755  1.3013 -0.2535
  271MPD2    C2 4148   2.399   2.057  14.055  0.2774 -0.5422 -0.2603
  271MPD2    C3 4149   2.282   2.044  13.978 -0.1573  0.3728 -0.8231
  271MPD2    C4 4150   2.287   1.961  13.864  0.4565 -0.0584  0.9255
  271MPD2    C5 4151   2.396   1.888  13.839 -0.8128  0.3772 -0.0225
  271MPD2     H 4152   2.403   2.123  14.141 -0.9749  0.3790 -0.9151
  271MPD2    H1 4153   2.199   1.937  13.805  0.5715  1.3427  0.1759
  271MPD2    H2 4154   2.581   1.811  13.911  1.2570  0.7733 -0.9925
  271MPD2    H3 4155   2.396   1.814  13.759  1.2476  0.4885 -0.1437
  271MPD2     N 4156   2.172   2.130  13.997  0.4516 -0.0303 -0.1899
  271MPD2    H5 4157   2.090   2.109  13.941  0.7632  0.4814 -0.8348
  271MPD2    N1 4158   2.617   1.978  14.116 -0.1199 -0.7549  0.0311
  271MPD2    H7 4159   2.600   2.036  14.197 -0.1469 -0.7414  0.0161
  272TMC3    C1 4160   2.824   1.928  14.208  0.4977  0.5317 -0.2010
  272TMC3    C2 4161   2.947   1.872  14.193  0.5736  0.4734  0.1524
  272TMC3    C3 4162   3.017   1.820  14.302  0.8666  0.4681  0.7595
  272TMC3    C4 4163   2.770   1.936  14.326 -0.7205  0.1532 -0.2616
  272TMC3    C5 4164   2.845   1.897  14.439  0.3939 -0.8820  0.1848
  272TMC3    C6 4165   2.971   1.845  14.428 -0.7962  0.1625  0.3878
  272TMC3     C 4166   2.738   1.920  14.094  0.1815  0.0306 -0.2283
  272TMC3     O 4167   2.781   1.873  13.989  0.1481  0.4162  0.5003
  272TMC3     H 4168   2.993   1.860  14.095 -0.5358 -1.4714 -0.1375
  272TMC3    H1 4169   2.677   1.987  14.346  0.2548  1.1388  1.8121
  272TMC3    H2 4170   3.033   1.824  14.514 -0.4997  1.0737  0.3902
  272TMC3    C7 4171   2.791   1.943  14.569  0.2822 -0.6883 -0.0045
  272TMC3    C8 4172   3.151   1.760  14.264  0.3877  0.1780  0.1010
  272TMC3    O1 4173   2.669   1.952  14.578  0.3057  0.2601  0.4416
  272TMC3    O2 4174   3.195   1.798  14.159 -0.2080  0.7680 -0.6696
  273MPD2     C 4175   4.072   4.697  11.699 -0.8822 -0.2617  0.2396
  273MPD2    C1 4176   4.177   0.045  11.697 -0.3922  0.4324  0.0088
  273MPD2    C2 4177   4.246   0.059  11.575 -0.0122 -0.1930 -0.0057
  273MPD2    C3 4178   4.197   0.014  11.458 -0.0732 -0.0164 -0.4722
  273MPD2    C4 4179   4.073   4.683  11.461 -0.0396  0.3538 -0.0557
  273MPD2    C5 4180   4.018   4.645  11.581  0.0439 -0.1398 -0.5111
  273MPD2     H 4181   4.338   0.117  11.567 -0.7445  0.6464 -2.2776
  273MPD2    H1 4182   4.037   4.646  11.366 -0.7288 -0.9768  0.7327
  273MPD2    H2 4183   4.012   4.668  11.785  0.9394  0.9598  1.9332
  273MPD2    H3 4184   3.930   4.581  11.585  0.4586 -0.6491  0.4630
  273MPD2     N 4185   4.269   0.015  11.336 -0.0067 -0.7560 -0.2030
  273MPD2    H5 4186   4.210   0.008  11.253 -1.4280  0.8738  0.6600
  273MPD2    N1 4187   4.229   0.094  11.822 -0.1716  0.2836  0.3578
  273MPD2    H7 4188   4.160   0.081  11.896 -0.3840 -1.9739 -0.2225
  274TMC3    C1 4189   4.442   0.134  11.237 -0.2177 -0.1894  0.0202
  274TMC3    C2 4190   4.408   0.141  11.108  0.3305 -0.3128 -0.0536
  274TMC3    C3 4191   4.447   0.249  11.036  0.1533 -0.1205  0.1541
  274TMC3    C4 4192   4.522   0.231  11.292 -0.1570 -0.2255  0.2040
  274TMC3    C5 4193   4.568   0.329  11.212 -0.4103  0.3496  0.5235
  274TMC3    C6 4194   4.528   0.350  11.084  0.4728 -0.2023 -0.1207
  274TMC3     C 4195   4.407   0.031  11.322 -0.9436  0.0097 -0.5491
  274TMC3     O 4196   4.488   0.007  11.413  0.3936  0.1226  0.1964
  274TMC3     H 4197   4.336   0.069  11.070 -1.1148  0.6157  0.9472
  274TMC3    H1 4198   4.559   0.220  11.393  0.3478 -0.1926  0.0251
  274TMC3    H2 4199   4.553   0.443  11.035 -0.3876  0.9540  1.6292
  274TMC3    C7 4200   4.616   0.445  11.281 -0.0036  0.1849 -0.4195
  274TMC3    C8 4201   4.383   0.269  10.911 -0.1792 -0.2718  0.2581
  274TMC3    O1 4202   4.722   0.497  11.249  0.8838  0.3048  0.1783
  274TMC3    O2 4203   4.283   0.205  10.891  0.6249 -0.0273  0.1395
  275MPD2     C 4204   4.211   3.168  14.386 -0.1193 -0.3551  0.4181
  275MPD2    C1 4205   4.196   3.025  14.392  0.0949  0.4043 -0.2981
  275MPD2    C2 4206   4.082   2.972  14.331 -0.1060 -0.3767  0.1791
  275MPD2    C3 4207   3.986   3.049  14.272  0.4878 -0.5660  0.2315
  275MPD2    C4 4208   4.010   3.187  14.264  0.0091 -0.0669 -0.2627
  275MPD2    C5 4209   4.121   3.246  14.318 -0.4038  0.6357 -1.0204
  275MPD2     H 4210   4.052   2.868  14.341  0.3192 -0.2454  2.8266
  275MPD2    H1 4211   3.941   3.255  14.215 -1.1691 -1.6266 -0.7595
  275MPD2    H2 4212   4.299   3.221  14.421 -0.0566 -0.2210  0.0664
  275MPD2    H3 4213   4.137   3.353  14.312 -2.9680  1.1107  0.1625
  275MPD2     N 4214   3.854   3.004  14.240  0.0021 -0.3087  0.2488
  275MPD2    H5 4215   3.797   3.081  14.208 -2.3046 -2.8109 -1.7048
  275MPD2    N1 4216   4.271   2.944  14.482  0.1985 -0.6991 -0.1549
  275MPD2    H7 4217   4.253   2.844  14.477  0.1808 -0.5792 -2.5011
  276TMC3    C1 4218   4.464   2.878  14.600  0.2584  0.4772  0.2852
  276TMC3    C2 4219   4.474   2.762  14.535 -0.0321  0.2377 -0.0116
  276TMC3    C3 4220   4.555   2.664  14.585  0.2974  0.7566 -0.3683
  276TMC3    C4 4221   4.534   2.902  14.715 -0.2055  0.4337 -0.1366
  276TMC3    C5 4222   4.615   2.804  14.762  0.1880  0.5777 -0.1071
  276TMC3    C6 4223   4.621   2.679  14.707 -0.4185  0.5618  0.2681
  276TMC3     C 4224   4.373   2.985  14.564 -0.1465 -0.4147 -0.1324
  276TMC3     O 4225   4.409   3.095  14.603 -0.0930 -0.2988 -0.2462
  276TMC3     H 4226   4.435   2.749  14.434  0.9191  2.0188 -0.6043
  276TMC3    H1 4227   4.525   2.997  14.767 -0.2170 -0.4405  1.4582
  276TMC3    H2 4228   4.668   2.598  14.763 -0.7609 -0.4726 -0.9278
  276TMC3    C7 4229   4.675   2.831  14.892 -0.6302 -1.1433 -0.1985
  276TMC3    C8 4230   4.532   2.529  14.550 -0.3156  0.5873  0.8070
  276TMC3    O1 4231   4.631   2.923  14.956 -0.0792 -0.0014 -0.6532
  276TMC3    O2 4232   4.603   2.445  14.606 -0.5214 -0.1136 -0.0006
  277MPD2     C 4233   1.608   2.107  13.529  0.3615 -0.5134  0.1118
  277MPD2    C1 4234   1.481   2.162  13.547  0.4548  0.4993  0.4015
  277MPD2    C2 4235   1.425   2.143  13.675  0.0584  0.0361 -1.0033
  277MPD2    C3 4236   1.487   2.059  13.764  0.0230  0.4973 -0.0600
  277MPD2    C4 4237   1.608   2.010  13.742  0.0467  0.3716 -0.4602
  277MPD2    C5 4238   1.672   2.033  13.622 -0.5033 -0.5417  0.1274
  277MPD2     H 4239   1.326   2.180  13.696  0.6273  0.8169  0.3156
  277MPD2    H1 4240   1.660   1.944  13.812 -0.7505 -0.3988 -0.5933
  277MPD2    H2 4241   1.649   2.125  13.430  1.1495 -0.9924  0.3507
  277MPD2    H3 4242   1.760   1.973  13.601  0.4772  0.7751  0.4202
  277MPD2     N 4243   1.406   2.024  13.879  0.3815 -0.3482 -1.2614
  277MPD2    H5 4244   1.314   2.066  13.876  0.3143 -0.4247 -0.2086
  277MPD2    N1 4245   1.419   2.239  13.444  0.4051 -0.0846 -0.6296
  277MPD2    H7 4246   1.453   2.237  13.348 -1.2157 -0.7292 -1.1995
  278TMC3    C1 4247   1.310   1.890  14.044 -0.8068  0.4847  0.6380
  278TMC3    C2 4248   1.281   1.766  14.064  0.3497  0.6796  0.3341
  278TMC3    C3 4249   1.153   1.723  14.087  0.0393 -0.5187 -0.2201
  278TMC3    C4 4250   1.212   1.982  14.035 -0.0585  0.8322  0.4280
  278TMC3    C5 4251   1.083   1.942  14.051  0.1299 -0.2643  0.4405
  278TMC3    C6 4252   1.048   1.811  14.079  0.2125  0.4463 -0.1850
  278TMC3     C 4253   1.424   1.914  13.960 -0.8328  0.1801 -0.0019
  278TMC3     O 4254   1.500   1.821  13.948 -0.1494 -0.1478 -0.2084
  278TMC3     H 4255   1.365   1.697  14.065  0.0489  0.3032 -1.4845
  278TMC3    H1 4256   1.229   2.088  14.016 -0.3779  1.0738  1.4537
  278TMC3    H2 4257   0.949   1.767  14.085  0.6786 -0.5336  0.1893
  278TMC3    C7 4258   0.987   2.013  13.974  0.4903 -0.0752  0.3699
  278TMC3    C8 4259   1.120   1.592  14.033 -0.3326  0.8665  0.2091
  278TMC3    O1 4260   1.031   2.077  13.880 -0.2135  0.3267  0.0561
  278TMC3    O2 4261   1.002   1.563  14.011 -1.2289 -0.3264  0.1781
  279MPD2     C 4262   4.667   1.356   0.146  0.3431 -0.3703  0.5822
  279MPD2    C1 4263   0.001   1.463   0.195 -0.4499 -0.2678  0.4382
  279MPD2    C2 4264   0.126   1.493   0.146 -0.3823 -0.1591 -0.2749
  279MPD2    C3 4265   0.182   1.416   0.041 -0.2544 -0.0301 -0.0831
  279MPD2    C4 4266   0.101   1.316  17.734 -0.4151  0.0876 -0.1107
  279MPD2    C5 4267   4.721   1.273   0.047 -0.3574 -0.3908  0.2594
  279MPD2     H 4268   0.185   1.573   0.189 -0.4111  0.0259 -0.5775
  279MPD2    H1 4269   0.123   1.256  17.646  0.5203 -1.3783  1.1295
  279MPD2    H2 4270   4.569   1.331   0.184 -0.5932  0.2116 -1.4246
  279MPD2    H3 4271   4.684   1.179   0.008  0.9559 -0.7370 -0.1753
  279MPD2     N 4272   0.293   1.459  17.713 -0.1103  0.3727 -0.2360
  279MPD2    H5 4273   0.293   1.429  17.616  0.5818 -1.4324  0.3318
  279MPD2    N1 4274   4.679   1.550   0.284 -0.4927  0.7743  0.1038
  279MPD2    H7 4275   4.598   1.524   0.339 -0.0192 -0.2896  0.2882
  280TMC3    C1 4276   4.654   1.763   0.403 -0.0442  0.4541  0.5406
  280TMC3    C2 4277   4.616   1.700   0.514 -0.4741  0.2849 -0.1793
  280TMC3    C3 4278   4.586   1.775   0.633 -0.6622  1.0830 -0.0702
  280TMC3    C4 4279   4.654   1.900   0.393 -0.2336  0.0376  0.2917
  280TMC3    C5 4280   4.616   1.971   0.505  0.6753 -0.5680 -0.4364
  280TMC3    C6 4281   4.581   1.910   0.623 -0.4929 -0.0029 -0.5219
  280TMC3     C 4282   4.704   1.691   0.286  0.9098 -0.1323  0.2252
  280TMC3     O 4283   0.032   1.754   0.206  0.7799  0.3220 -0.3871
  280TMC3     H 4284   4.604   1.593   0.522 -0.1545  0.0525 -2.6643
  280TMC3    H1 4285   4.687   1.949   0.302  2.3655  0.2637  1.3459
  280TMC3    H2 4286   4.553   1.966   0.711  0.3229 -0.3566 -0.0410
  280TMC3    C7 4287   4.602   2.118   0.494  0.2053  0.4610  0.0286
  280TMC3    C8 4288   4.478   1.720   0.712  0.1843 -0.6259  0.1882
  280TMC3    O1 4289   4.569   2.182   0.595  0.1598 -0.1317  0.5842
  280TMC3    O2 4290   4.381   1.796   0.724  0.9072  0.3040  0.2678
  281TMC3    C1 4291   3.956   2.513  13.568 -0.2490 -0.0193  0.6467
  281TMC3    C2 4292   4.058   2.459  13.498  0.1117 -0.3796 -0.5219
  281TMC3    C3 4293   4.059   2.326  13.471 -0.4366 -0.5386  0.3437
  281TMC3    C4 4294   3.848   2.443  13.606  0.1756 -0.2163 -0.6246
  281TMC3    C5 4295   3.849   2.307  13.582 -0.0675  0.2922  0.6183
  281TMC3    C6 4296   3.954   2.246  13.514  0.3348  0.2558  0.4457
  281TMC3     C 4297   3.990   2.630  13.654  0.4966  0.1173 -0.2781
  281TMC3     O 4298   4.111   2.645  13.677  0.1683 -0.5410  0.4102
  281TMC3     H 4299   4.152   2.508  13.473  1.1873 -2.1564  0.0170
  281TMC3    H1 4300   3.771   2.487  13.668 -2.8029 -2.8160 -2.4980
  281TMC3    H2 4301   3.950   2.138  13.503  3.6133  0.0692  1.1810
  281TMC3    C7 4302   3.739   2.220  13.625  0.2792 -0.3248 -0.8694
  281TMC3    C8 4303   4.079   2.294  13.332  0.1599 -0.6161 -0.2318
  281TMC3    O1 4304   3.623   2.265  13.619  0.0427  0.3309 -0.1854
  281TMC3    O2 4305   4.102   2.172  13.317 -0.1522 -0.5679  0.5125
  282MPD2     C 4306   1.037   3.341  15.382 -0.3544 -0.7211  0.4461
  282MPD2    C1 4307   0.947   3.442  15.424  0.5072 -0.2539 -0.2008
  282MPD2    C2 4308   0.879   3.519  15.329  0.2359 -0.3929 -0.6974
  282MPD2    C3 4309   0.898   3.499  15.198 -0.1649 -0.4668 -0.1010
  282MPD2    C4 4310   0.990   3.399  15.159  0.0143 -0.1334  0.0747
  282MPD2    C5 4311   1.054   3.320  15.249 -0.4259 -0.0813  0.0647
  282MPD2     H 4312   0.807   3.596  15.354  1.2366 -0.2375  1.7561
  282MPD2    H1 4313   1.011   3.381  15.055 -2.9587 -2.7383 -0.0518
  282MPD2    H2 4314   1.091   3.294  15.463 -0.8050 -0.6831  0.7650
  282MPD2    H3 4315   1.137   3.256  15.219 -0.3935  0.0629 -0.1559
  282MPD2     N 4316   0.818   3.578  15.109  0.0693  0.1291 -0.9350
  282MPD2    H5 4317   0.771   3.656  15.153  3.5645  1.8495 -0.2816
  282MPD2    N1 4318   0.920   3.470  15.558  0.2081 -0.6754 -0.8696
  282MPD2    H7 4319   0.875   3.560  15.574  1.6554 -0.0233 -0.4645
  283TMC3    C1 4320   0.816   3.406  15.756 -0.2399 -1.0210 -0.7748
  283TMC3    C2 4321   0.802   3.539  15.803  0.8550  0.1535  0.1051
  283TMC3    C3 4322   0.708   3.570  15.898  0.0549  0.0661  0.5294
  283TMC3    C4 4323   0.735   3.305  15.811  0.1945  0.9372  0.3614
  283TMC3    C5 4324   0.638   3.347  15.896  0.2552 -0.1585  0.0410
  283TMC3    C6 4325   0.622   3.477  15.948  0.1436  0.3657 -0.6864
  283TMC3     C 4326   0.921   3.379  15.658 -0.2053 -0.1182 -0.1787
  283TMC3     O 4327   0.964   3.264  15.653  0.3692  0.4351 -0.0239
  283TMC3     H 4328   0.883   3.606  15.776  0.6338 -0.6313 -2.4981
  283TMC3    H1 4329   0.751   3.205  15.774 -0.6655  0.1673  2.0992
  283TMC3    H2 4330   0.543   3.499  16.018 -0.9090  0.0848 -1.7705
  283TMC3    C7 4331   0.543   3.245  15.951  0.6927 -0.8198 -0.3533
  283TMC3    C8 4332   0.685   3.708  15.935  0.3608 -0.9034  0.6654
  283TMC3    O1 4333   0.478   3.283  16.042  0.0462  0.2532 -0.6924
  283TMC3    O2 4334   0.606   3.733  16.028 -0.5736 -0.1292 -0.3897
  284MPD2     C 4335   3.590   2.569  11.529 -0.5002  0.0158  0.3121
  284MPD2    C1 4336   3.685   2.513  11.617 -0.3435 -0.2587 -1.1111
  284MPD2    C2 4337   3.678   2.379  11.646  0.2339 -0.1094 -0.4097
  284MPD2    C3 4338   3.575   2.298  11.597  0.7992 -0.2855 -0.5333
  284MPD2    C4 4339   3.474   2.357  11.526  0.4583  0.2190 -0.1153
  284MPD2    C5 4340   3.483   2.491  11.487 -0.2009  0.1024  0.4786
  284MPD2     H 4341   3.752   2.337  11.713 -0.1534 -0.6293 -0.3047
  284MPD2    H1 4342   3.395   2.294  11.486  2.7554 -1.7876 -1.5139
  284MPD2    H2 4343   3.595   2.671  11.491  1.0254 -0.2834 -0.2826
  284MPD2    H3 4344   3.399   2.526  11.428  0.3186  1.0743  0.3271
  284MPD2     N 4345   3.583   2.160  11.629 -0.2052 -0.2991 -0.9571
  284MPD2    H5 4346   3.524   2.098  11.574  0.9131  0.8949 -3.4964
  284MPD2    N1 4347   3.807   2.574  11.664  0.4494  0.6969  0.0229
  284MPD2    H7 4348   3.861   2.535  11.741  0.0891  0.2116  0.0316
  285TMC3    C1 4349   3.981   2.729  11.665 -0.1067 -0.2511 -0.1688
  285TMC3    C2 4350   4.065   2.636  11.614  0.1497 -0.6609  0.2343
  285TMC3    C3 4351   4.196   2.663  11.581 -0.0686  0.5899 -0.3350
  285TMC3    C4 4352   4.018   2.856  11.658 -0.0720 -0.8355 -0.1348
  285TMC3    C5 4353   4.139   2.888  11.617  0.2471  0.0391  0.1901
  285TMC3    C6 4354   4.233   2.796  11.584  0.3383  0.2244  0.3268
  285TMC3     C 4355   3.839   2.700  11.639  0.0467 -0.2754 -0.4115
  285TMC3     O 4356   3.789   2.784  11.562  0.8268  0.0869  0.0870
  285TMC3     H 4357   4.036   2.533  11.599 -0.2277 -0.2522 -1.7284
  285TMC3    H1 4358   3.945   2.927  11.695 -0.8054 -0.7536 -1.7176
  285TMC3    H2 4359   4.325   2.831  11.539  0.1824  0.2709  0.0401
  285TMC3    C7 4360   4.191   3.017  11.669  0.1062 -0.0640 -0.9152
  285TMC3    C8 4361   4.252   2.575  11.474  0.0098 -0.7229  0.0321
  285TMC3    O1 4362   4.118   3.112  11.652  0.8014 -0.6153  0.2548
  285TMC3    O2 4363   4.194   2.471  11.466  0.5625  0.3825  0.1824
  286MPD2     C 4364   0.053   1.473   1.172  0.3113  0.4130 -0.1394
  286MPD2    C1 4365   4.685   1.397   1.127 -0.4050 -0.0640 -0.1814
  286MPD2    C2 4366   4.710   1.265   1.092  0.1201 -0.4331 -0.6387
  286MPD2    C3 4367   0.103   1.208   1.110  0.6082 -0.1556  0.4894
  286MPD2    C4 4368   0.201   1.281   1.166  0.5018  0.1782  0.0708
  286MPD2    C5 4369   0.171   1.410   1.201 -0.1397  0.3564 -0.2667
  286MPD2     H 4370   4.633   1.200   1.051 -1.5319  1.1449 -0.0407
  286MPD2    H1 4371   0.299   1.239   1.182  0.4438  0.1606  0.3837
  286MPD2    H2 4372   0.048   1.575   1.208  0.9966  0.2424  0.4306
  286MPD2    H3 4373   0.258   1.461   1.244 -0.8676  2.0674 -0.8282
  286MPD2     N 4374   0.130   1.073   1.074 -0.2634  0.2186  0.5263
  286MPD2    H5 4375   0.222   1.031   1.087 -0.7249 -0.2601  2.1916
  286MPD2    N1 4376   4.557   1.450   1.102  0.3970  0.2545 -0.0055
  286MPD2    H7 4377   4.484   1.384   1.078  0.5525  0.8710 -2.1488
  287TMC3    C1 4378   0.106   0.863   0.968 -0.5940 -0.3182 -0.7195
  287TMC3    C2 4379   0.024   0.786   0.896  0.6659 -0.1354  0.0978
  287TMC3    C3 4380   0.064   0.665   0.840  0.2537 -0.0518 -0.0377
  287TMC3    C4 4381   0.240   0.829   0.970 -0.0988 -0.2166  0.4788
  287TMC3    C5 4382   0.275   0.701   0.926 -0.3269 -0.1151  0.2525
  287TMC3    C6 4383   0.191   0.618   0.857 -0.5523 -0.3855 -0.0076
  287TMC3     C 4384   0.044   0.992   1.005 -0.3221 -0.3992 -0.8242
  287TMC3     O 4385   4.666   1.009   0.967 -0.4870  0.0822 -0.1914
  287TMC3     H 4386   4.662   0.821   0.871  0.9517  1.0774  0.6227
  287TMC3    H1 4387   0.319   0.888   1.016 -0.0795  0.9835 -1.1028
  287TMC3    H2 4388   0.209   0.515   0.831  1.4395 -0.8417  3.1510
  287TMC3    C7 4389   0.414   0.657   0.938  0.4097 -0.3889  0.0292
  287TMC3    C8 4390   4.721   0.624   0.724  0.6206  0.3022  0.2686
  287TMC3    O1 4391   0.477   0.697   1.033  0.4058  0.5979 -0.5674
  287TMC3    O2 4392   4.683   0.509   0.713 -0.3644 -0.0774 -0.3964
  288TMC3    C1 4393   1.864   1.421  14.319  0.0337 -0.7270  0.2879
  288TMC3    C2 4394   1.727   1.413  14.323  0.5051  0.2362  0.5208
  288TMC3    C3 4395   1.668   1.497  14.235 -0.0164 -0.4801  0.1471
  288TMC3    C4 4396   1.937   1.515  14.247  0.1462 -0.2252  0.1530
  288TMC3    C5 4397   1.867   1.571  14.145  0.2514 -0.7395 -0.7355
  288TMC3    C6 4398   1.736   1.564  14.136 -0.7451  0.3715  0.1798
  288TMC3     C 4399   1.929   1.366  14.436 -0.0648  0.7012 -0.0113
  288TMC3     O 4400   1.856   1.306  14.514 -0.1484  0.5920  0.1845
  288TMC3     H 4401   1.670   1.357  14.395  2.1680  0.4454  1.9824
  288TMC3    H1 4402   2.042   1.535  14.265  0.5466 -2.6964  0.5700
  288TMC3    H2 4403   1.686   1.641  14.078 -1.0814 -0.0287 -0.0594
  288TMC3    C7 4404   1.940   1.624  14.039 -0.7606  0.1060  0.7868
  288TMC3    C8 4405   1.540   1.558  14.270  0.9605  0.4080 -0.0955
  288TMC3    O1 4406   2.048   1.667  14.071  0.2331  0.5465  0.1713
  288TMC3    O2 4407   1.528   1.680  14.272 -0.1015 -0.5398  0.4102
  289MPD2     C 4408   1.475   0.376  14.644 -1.5184  0.2750 -0.0583
  289MPD2    C1 4409   1.475   0.492  14.573  0.6008  0.4436  0.4523
  289MPD2    C2 4410   1.380   0.517  14.476 -0.0960  0.3334 -0.3530
  289MPD2    C3 4411   1.274   0.435  14.456  0.0783  0.2342  0.0519
  289MPD2    C4 4412   1.264   0.321  14.532 -0.0990  0.6356  0.6675
  289MPD2    C5 4413   1.372   0.294  14.619 -0.1639 -0.1568 -0.6860
  289MPD2     H 4414   1.392   0.600  14.406  2.4231  0.4433  0.1958
  289MPD2    H1 4415   1.198   0.238  14.511 -1.8473  1.6029  2.3003
  289MPD2    H2 4416   1.554   0.344  14.711 -1.9224 -1.8797 -0.6163
  289MPD2    H3 4417   1.365   0.194  14.660 -0.7155  0.0792 -0.2102
  289MPD2     N 4418   1.167   0.458  14.364  0.2079  0.6112  0.4795
  289MPD2    H5 4419   1.095   0.387  14.355  0.2768  0.4698  1.0843
  289MPD2    N1 4420   1.581   0.576  14.607  0.2744 -0.2373  0.4345
  289MPD2    H7 4421   1.651   0.546  14.675  0.5450 -0.5174  0.0290
  290TMC3    C1 4422   1.041   0.564  14.186 -0.3012 -0.0857  0.2537
  290TMC3    C2 4423   1.010   0.687  14.126 -0.2470 -0.1620  0.7765
  290TMC3    C3 4424   0.930   0.676  14.009  0.3168 -0.4996 -0.6818
  290TMC3    C4 4425   1.007   0.443  14.126 -0.3939  0.5141  0.2825
  290TMC3    C5 4426   0.924   0.442  14.021  0.7381  0.2069  0.1691
  290TMC3    C6 4427   0.892   0.558  13.957  0.7641 -0.4045 -0.4241
  290TMC3     C 4428   1.150   0.570  14.285  0.2593  0.3343  0.4013
  290TMC3     O 4429   1.213   0.679  14.291  0.2029  0.1235 -0.8009
  290TMC3     H 4430   1.034   0.785  14.165  1.0699  0.3732 -1.3929
  290TMC3    H1 4431   1.046   0.347  14.155 -0.6089  0.8041  1.5383
  290TMC3    H2 4432   0.822   0.555  13.875 -0.1081  0.5790  0.2856
  290TMC3    C7 4433   0.887   0.317  13.965 -0.3418  0.4707  0.0678
  290TMC3    C8 4434   0.876   0.792  13.949 -0.0764  0.1750  0.2137
  290TMC3    O1 4435   0.861   0.310  13.845 -0.5837 -0.6886  0.5929
  290TMC3    O2 4436   0.847   0.789  13.833 -0.0121  0.2727  0.6424
  291MPD2     C 4437   0.354   0.199   0.150 -0.0816  0.0375  0.1309
  291MPD2    C1 4438   0.466   0.147   0.219  0.5106 -0.6096 -0.2392
  291MPD2    C2 4439   0.556   0.237   0.272 -0.1448 -0.4947  0.6182
  291MPD2    C3 4440   0.545   0.371   0.256 -0.3716 -0.4841  0.2833
  291MPD2    C4 4441   0.433   0.418   0.199  0.2318 -0.9831 -0.0554
  291MPD2    C5 4442   0.343   0.336   0.142 -0.7711 -0.4186 -0.1286
  291MPD2     H 4443   0.635   0.205   0.339  0.3807  1.2738  0.8332
  291MPD2    H1 4444   0.423   0.525   0.186 -2.2603 -1.1414  0.7305
  291MPD2    H2 4445   0.276   0.136   0.110 -0.5344  0.7422 -0.0915
  291MPD2    H3 4446   0.264   0.385   0.087  1.6729  2.4978 -1.0076
  291MPD2     N 4447   0.640   0.464   0.310 -0.0797  0.7632  0.6631
  291MPD2    H5 4448   0.614   0.562   0.314 -0.7600  0.5612  1.0766
  291MPD2    N1 4449   0.482   0.009   0.244  0.5153  0.3394  0.1485
  291MPD2    H7 4450   0.574   4.727   0.282  0.4104 -0.4183  0.0270
  292TMC3    C1 4451   0.461   4.520   0.234  0.6882  0.3813  1.0394
  292TMC3    C2 4452   0.524   4.506   0.351  0.0774 -0.5975 -0.3891
  292TMC3    C3 4453   0.597   4.390   0.375 -0.6431  0.2589  0.5905
  292TMC3    C4 4454   0.484   4.441   0.125 -0.5212  0.4630  0.5295
  292TMC3    C5 4455   0.568   4.339   0.149 -0.0803 -0.3818  0.1239
  292TMC3    C6 4456   0.620   4.301   0.272 -0.8749  0.1980  0.0722
  292TMC3     C 4457   0.393   4.648   0.213  0.1506  0.1863  0.0561
  292TMC3     O 4458   0.282   4.651   0.157  0.3993 -0.1161 -0.3152
  292TMC3     H 4459   0.513   4.588   0.421 -0.0726 -0.3542 -0.6957
  292TMC3    H1 4460   0.433   4.450   0.030  1.4912 -0.3762 -0.6357
  292TMC3    H2 4461   0.690   4.218   0.278 -0.4000  0.5904 -0.0550
  292TMC3    C7 4462   0.630   4.279   0.037 -0.6384 -0.1451 -0.6735
  292TMC3    C8 4463   0.669   4.379   0.500  0.0830 -0.1606  1.5126
  292TMC3    O1 4464   0.666   4.164   0.052 -0.8251 -0.5722  0.2834
  292TMC3    O2 4465   0.781   4.330   0.497 -0.6761  0.2346 -0.0531
  293MPD2     C 4466   2.677   1.654  12.909  0.3321  0.5032  0.3263
  293MPD2    C1 4467   2.583   1.627  13.002  0.8941  0.1999 -0.3783
  293MPD2    C2 4468   2.627   1.627  13.136 -0.6748 -0.8366  0.5704
  293MPD2    C3 4469   2.750   1.675  13.164 -1.0081 -1.0077 -0.2364
  293MPD2    C4 4470   2.840   1.699  13.061  0.1169 -0.0248  0.7659
  293MPD2    C5 4471   2.805   1.688  12.933 -0.1921 -0.2009  0.0627
  293MPD2     H 4472   2.548   1.597  13.204  0.9657  1.0516  3.2877
  293MPD2    H1 4473   2.948   1.703  13.073  0.3369  0.5542 -1.2781
  293MPD2    H2 4474   2.644   1.654  12.806  2.2274  0.2341 -0.2662
  293MPD2    H3 4475   2.885   1.702  12.861  0.5579  0.6216  1.0593
  293MPD2     N 4476   2.793   1.666  13.297  0.3981 -0.1094  0.1135
  293MPD2    H5 4477   2.728   1.618  13.358  2.2816  0.6022  2.7286
  293MPD2    N1 4478   2.457   1.595  12.953 -0.4193  0.4812 -0.4506
  293MPD2    H7 4479   2.439   1.595  12.853 -1.6008  2.4249 -0.2319
  294TMC3    C1 4480   2.236   1.538  12.952  0.0497 -0.4302 -0.1441
  294TMC3    C2 4481   2.238   1.573  12.821 -0.4800 -0.3414 -0.5918
  294TMC3    C3 4482   2.121   1.541  12.738 -0.2559  0.2090 -1.5966
  294TMC3    C4 4483   2.126   1.479  13.005  0.3685 -0.3945 -0.1981
  294TMC3    C5 4484   2.018   1.450  12.926  0.1161  0.0020  0.4651
  294TMC3    C6 4485   2.012   1.488  12.795  0.1028 -0.2325 -0.3654
  294TMC3     C 4486   2.346   1.567  13.040  0.6890  0.8628 -0.2809
  294TMC3     O 4487   2.334   1.549  13.161  0.4059  0.0396 -0.2813
  294TMC3     H 4488   2.318   1.632  12.778  0.1627 -0.1347  0.9076
  294TMC3    H1 4489   2.127   1.444  13.108 -1.4091  1.1495  0.3326
  294TMC3    H2 4490   1.918   1.467  12.744 -1.1735 -0.5292  2.1019
  294TMC3    C7 4491   1.977   1.308  12.939 -0.2539  0.8331 -0.1108
  294TMC3    C8 4492   2.149   1.529  12.597 -1.1133 -0.5523  0.4954
  294TMC3    O1 4493   1.928   1.266  13.042  0.1781 -0.4227 -0.1215
  294TMC3    O2 4494   2.247   1.589  12.555 -0.4237 -0.0619 -0.0260
  295MPD2     C 4495   3.336   0.616   0.750 -0.4317 -0.1626  0.3799
  295MPD2    C1 4496   3.209   0.615   0.704  0.1865 -0.2071  0.1867
  295MPD2    C2 4497   3.113   0.551   0.774  0.3326  0.2212  0.1298
  295MPD2    C3 4498   3.139   0.461   0.876 -0.3059 -1.0217  0.2897
  295MPD2    C4 4499   3.272   0.448   0.912 -0.1637 -0.5602  0.3338
  295MPD2    C5 4500   3.372   0.513   0.840  0.0107 -0.6413 -0.0779
  295MPD2     H 4501   3.018   0.549   0.722 -0.1105  1.2400  0.9002
  295MPD2    H1 4502   3.310   0.373   0.980  1.4622 -0.7154 -0.7495
  295MPD2    H2 4503   3.421   0.663   0.703 -0.4563 -0.0488  0.4504
  295MPD2    H3 4504   3.475   0.494   0.864  0.2365 -0.0948 -0.6048
  295MPD2     N 4505   3.045   0.387   0.947  0.5688  0.4065 -0.0659
  295MPD2    H5 4506   3.081   0.335   1.027 -1.9931 -0.4433  0.5320
  295MPD2    N1 4507   3.172   0.676   0.581 -0.1723 -0.1357  0.0143
  295MPD2    H7 4508   3.075   0.668   0.553 -0.5077 -0.2251  1.2101
  296TMC3    C1 4509   2.836   0.299   1.016  0.1993  0.4314  0.4106
  296TMC3    C2 4510   2.710   0.337   1.032 -1.1903  0.4125 -0.0145
  296TMC3    C3 4511   2.626   0.250   1.101  0.8910 -0.6716 -0.1761
  296TMC3    C4 4512   2.884   0.176   1.054 -0.3080 -0.8499  0.5835
  296TMC3    C5 4513   2.794   0.088   1.105 -0.4677 -0.0396 -0.0028
  296TMC3    C6 4514   2.658   0.123   1.129  0.5005 -0.4774  0.1002
  296TMC3     C 4515   2.910   0.385   0.920  0.3160 -0.0612 -0.0648
  296TMC3     O 4516   2.843   0.407   0.820  0.2908  0.3985 -0.0136
  296TMC3     H 4517   2.695   0.442   1.009 -0.8821  0.9373  2.1673
  296TMC3    H1 4518   2.981   0.139   1.022 -0.1234 -2.5718  3.0641
  296TMC3    H2 4519   2.592   0.059   1.187  0.3138  0.6200  1.0927
  296TMC3    C7 4520   2.867   4.721   1.171  0.0443 -1.2442 -0.0712
  296TMC3    C8 4521   2.517   0.315   1.178 -0.0686 -0.8659  0.5031
  296TMC3    O1 4522   2.989   4.713   1.169  0.1462  0.3143  0.1390
  296TMC3    O2 4523   2.458   0.245   1.265 -0.9050 -0.4060  0.1912
  297MPD2     C 4524   0.197   1.925  16.226  0.3092 -0.2755  0.2132
  297MPD2    C1 4525   0.188   2.055  16.193 -0.6295  0.0670 -0.1326
  297MPD2    C2 4526   0.301   2.133  16.203 -0.7276 -0.1017  0.0554
  297MPD2    C3 4527   0.428   2.087  16.235 -0.1759  0.0284  0.1795
  297MPD2    C4 4528   0.437   1.950  16.281 -0.1769  0.9876 -0.1386
  297MPD2    C5 4529   0.317   1.874  16.269 -0.5033 -0.1283  0.0584
  297MPD2     H 4530   0.303   2.237  16.173 -0.2978 -0.6600 -1.8720
  297MPD2    H1 4531   0.534   1.917  16.316 -1.3171 -2.5752 -0.3225
  297MPD2    H2 4532   0.114   1.857  16.213  0.6537 -0.5543 -0.5562
  297MPD2    H3 4533   0.321   1.770  16.299 -0.7746  0.1920  1.2272
  297MPD2     N 4534   0.540   2.169  16.222  0.1218  0.3866  0.1216
  297MPD2    H5 4535   0.513   2.266  16.208  0.4548  0.1172 -2.3728
  297MPD2    N1 4536   0.068   2.118  16.155  0.0537  0.0381  0.0526
  297MPD2    H7 4537   0.081   2.205  16.104 -2.0756  0.5279  0.3655
  298TMC3    C1 4538   4.590   2.148  16.084 -0.4087 -0.6645 -0.3642
  298TMC3    C2 4539   4.642   2.225  15.982  0.1144 -0.1694  0.3220
  298TMC3    C3 4540   4.564   2.329  15.936  0.4583  0.2533 -0.6724
  298TMC3    C4 4541   4.466   2.179  16.137 -0.1804  0.0737 -0.6234
  298TMC3    C5 4542   4.391   2.281  16.092  0.1696 -0.1201 -0.2769
  298TMC3    C6 4543   4.441   2.359  15.993  0.2554  0.1577 -0.2272
  298TMC3     C 4544   4.678   2.073  16.167  0.0426 -0.2454 -0.5681
  298TMC3     O 4545   4.632   1.971  16.221 -0.6504 -0.0549 -0.5543
  298TMC3     H 4546   0.005   2.202  15.950 -0.0376 -0.2591 -0.0905
  298TMC3    H1 4547   4.423   2.117  16.215  0.8866  0.5065  0.3131
  298TMC3    H2 4548   4.394   2.446  15.949  1.4641  0.0296 -1.7858
  298TMC3    C7 4549   4.281   2.325  16.171  0.0805  0.2211 -0.0994
  298TMC3    C8 4550   4.620   2.399  15.827 -0.0464 -0.5729 -0.1688
  298TMC3    O1 4551   4.270   2.286  16.287 -0.5001  0.3905  0.1110
  298TMC3    O2 4552   4.737   2.365  15.809  0.0069 -0.3443 -0.6148
  299MPD2     C 4553   0.353   2.091  10.798  0.3075 -0.0204  0.5233
  299MPD2    C1 4554   0.466   2.086  10.714  0.3366 -0.7807  0.5916
  299MPD2    C2 4555   0.442   2.055  10.581  0.3099  0.1500 -0.3125
  299MPD2    C3 4556   0.319   2.015  10.539  0.4449 -0.1948  0.3284
  299MPD2    C4 4557   0.208   2.021  10.625 -0.2913  0.5075  0.4030
  299MPD2    C5 4558   0.226   2.063  10.747 -0.3065  0.4209 -0.2727
  299MPD2     H 4559   0.525   2.040  10.513 -0.7802 -0.6238 -1.4701
  299MPD2    H1 4560   0.108   1.988  10.598 -0.4567  2.0982 -0.9554
  299MPD2    H2 4561   0.357   2.118  10.903 -1.7834  1.3392  0.2548
  299MPD2    H3 4562   0.143   2.069  10.816 -1.8031 -2.4495 -1.8141
  299MPD2     N 4563   0.290   1.977  10.407  0.4254 -0.1966 -0.0841
  299MPD2    H5 4564   0.191   1.975  10.384  0.5527 -1.0357 -0.5623
  299MPD2    N1 4565   0.590   2.122  10.765 -0.3622  0.1158 -0.5417
  299MPD2    H7 4566   0.590   2.150  10.863  0.9332 -1.0358 -0.1983
  300TMC3    C1 4567   0.315   1.952  10.175  0.3174 -0.1670  0.9276
  300TMC3    C2 4568   0.314   2.082  10.121 -0.0010  0.5504 -0.7248
  300TMC3    C3 4569   0.196   2.149  10.114 -1.1074 -1.1906  0.1864
  300TMC3    C4 4570   0.195   1.876  10.181  0.6466 -0.6286  0.0636
  300TMC3    C5 4571   0.085   1.955  10.185 -0.1843 -0.3404 -0.0270
  300TMC3    C6 4572   0.083   2.085  10.151 -0.3220  1.0403 -0.0949
  300TMC3     C 4573   0.384   1.966  10.305  0.3010 -0.7856 -0.0369
  300TMC3     O 4574   0.507   1.988  10.300  0.1765 -0.1322  0.1861
  300TMC3     H 4575   0.404   2.143  10.124  0.5320 -0.2894  0.3581
  300TMC3    H1 4576   0.188   1.778  10.227 -0.2463 -0.8657 -0.5840
  300TMC3    H2 4577   4.722   2.132  10.151 -1.4946 -1.3660 -1.6729
  300TMC3    C7 4578   4.700   1.882  10.185  0.0966  0.3074 -0.5880
  300TMC3    C8 4579   0.211   2.293  10.145  0.3116 -0.5246 -0.0122
  300TMC3    O1 4580   4.708   1.782  10.116  0.1480  0.3646  0.2759
  300TMC3    O2 4581   0.314   2.335  10.194 -0.4891 -0.2168 -0.7382
  301MPD2     C 4582   2.905   3.434   1.779  0.0593  0.7477  0.0931
  301MPD2    C1 4583   2.816   3.390   1.688  0.1217 -0.4539 -0.4968
  301MPD2    C2 4584   2.831   3.275   1.611 -0.3355 -0.0805 -0.2082
  301MPD2    C3 4585   2.951   3.205   1.629 -0.6071  0.6409 -0.6028
  301MPD2    C4 4586   3.042   3.242   1.726 -0.0108 -0.3683 -0.0566
  301MPD2    C5 4587   3.023   3.353   1.798 -0.3453 -0.1521  0.3011
  301MPD2     H 4588   2.755   3.237   1.544 -0.1033 -0.6290 -0.1553
  301MPD2    H1 4589   3.142   3.198   1.726 -0.4112 -1.2643 -2.8196
  301MPD2    H2 4590   2.898   3.525   1.839  0.4328  0.2592  0.8823
  301MPD2    H3 4591   3.102   3.387   1.863 -0.9595  0.3376  0.7981
  301MPD2     N 4592   2.978   3.090   1.552 -1.1706 -0.2750  0.2962
  301MPD2    H5 4593   3.050   3.029   1.588  0.0572  1.1973  0.3424
  301MPD2    N1 4594   2.700   3.452   1.661 -0.4072  0.0162  0.0800
  301MPD2    H7 4595   2.642   3.420   1.584 -0.2089 -0.3151  0.0662
  302TMC3    C1 4596   2.932   2.921   1.389  0.2477  0.1113 -0.3841
  302TMC3    C2 4597   3.047   2.862   1.438 -0.0648 -0.6549  0.4748
  302TMC3    C3 4598   3.058   2.726   1.443  0.6173 -0.1840  0.0145
  302TMC3    C4 4599   2.822   2.848   1.347  0.4838  0.3765  0.0938
  302TMC3    C5 4600   2.830   2.714   1.366 -0.3671 -0.0845 -0.1221
  302TMC3    C6 4601   2.947   2.653   1.408  0.0839  0.1522 -0.0258
  302TMC3     C 4602   2.900   3.048   1.441 -0.2420  0.1010  0.1939
  302TMC3     O 4603   2.820   3.114   1.377  0.0673 -0.3611  0.0762
  302TMC3     H 4604   3.128   2.927   1.466 -2.1806  2.3734 -0.4870
  302TMC3    H1 4605   2.734   2.897   1.306 -1.3964 -1.7185  1.6082
  302TMC3    H2 4606   2.955   2.546   1.393  3.5272  0.6256 -1.4140
  302TMC3    C7 4607   2.729   2.632   1.298  0.3259 -0.1596 -0.1238
  302TMC3    C8 4608   3.178   2.652   1.476 -0.1390 -0.2582  0.7058
  302TMC3    O1 4609   2.768   2.531   1.239  0.3365 -0.2154 -0.2129
  302TMC3    O2 4610   3.287   2.702   1.456  0.4111  0.2409 -0.0600
  303MPD2     C 4611   2.757   1.572  10.451 -0.5057 -0.7192  0.8721
  303MPD2    C1 4612   2.663   1.478  10.480 -0.5398 -0.1234 -0.1031
  303MPD2    C2 4613   2.536   1.503  10.432  0.1132  0.1176 -0.3286
  303MPD2    C3 4614   2.507   1.618  10.359 -0.5376 -0.6366 -0.2568
  303MPD2    C4 4615   2.606   1.706  10.334  0.1047 -0.2933 -0.0624
  303MPD2    C5 4616   2.735   1.681  10.379 -0.6327 -0.3872 -0.2070
  303MPD2     H 4617   2.463   1.424  10.424 -1.3155  1.1736  2.3390
  303MPD2    H1 4618   2.595   1.792  10.269 -1.3798  0.9338  1.8281
  303MPD2    H2 4619   2.859   1.546  10.479  0.2931  2.4918  0.8600
  303MPD2    H3 4620   2.821   1.742  10.353  0.8195 -1.7828  1.3561
  303MPD2     N 4621   2.382   1.639  10.297  0.6505 -0.5926 -0.1952
  303MPD2    H5 4622   2.386   1.707  10.222 -0.7211  0.1826  0.4285
  303MPD2    N1 4623   2.698   1.359  10.548 -0.3480  0.4907 -0.1090
  303MPD2    H7 4624   2.797   1.349  10.568 -0.0090  0.3914 -1.9048
  304TMC3    C1 4625   2.650   1.158  10.642  0.1963  0.3857  0.5647
  304TMC3    C2 4626   2.550   1.091  10.713  0.0667  0.5257 -0.2233
  304TMC3    C3 4627   2.551   0.949  10.707  0.8312  0.0267  0.7960
  304TMC3    C4 4628   2.728   1.098  10.551 -0.6534 -0.4267  0.3507
  304TMC3    C5 4629   2.725   0.960  10.544  0.8132 -0.0919 -0.1688
  304TMC3    C6 4630   2.644   0.891  10.628  0.4303 -0.0754 -0.2219
  304TMC3     C 4631   2.600   1.280  10.602  0.3280 -0.9339 -0.1986
  304TMC3     O 4632   2.487   1.313  10.638  0.3174  0.4288 -0.2003
  304TMC3     H 4633   2.487   1.138  10.788 -1.4224 -2.9951  0.7309
  304TMC3    H1 4634   2.786   1.156  10.480  0.9669 -1.9052  0.4599
  304TMC3    H2 4635   2.670   0.788  10.651 -0.8504 -0.9875 -2.7725
  304TMC3    C7 4636   2.722   0.898  10.420 -0.1293 -0.2716 -0.0777
  304TMC3    C8 4637   2.422   0.880  10.708  0.3033 -0.6118  0.0162
  304TMC3    O1 4638   2.660   0.791  10.419 -0.0279  0.5585 -0.0424
  304TMC3    O2 4639   2.338   0.908  10.792  0.0205 -0.1973  0.0979
  305MPD2     C 4640   1.051   4.223  14.169 -0.6402  0.0103 -0.2654
  305MPD2    C1 4641   1.093   4.089  14.162  0.3762  0.3740  0.1307
  305MPD2    C2 4642   1.072   4.023  14.040 -0.4545  0.2165 -0.7915
  305MPD2    C3 4643   1.021   4.084  13.922 -0.6476  0.5375  0.6127
  305MPD2    C4 4644   0.993   4.222  13.930 -0.3798 -0.1152 -0.2458
  305MPD2    C5 4645   1.003   4.281  14.055 -0.5938  0.0043 -1.1634
  305MPD2     H 4646   1.122   3.928  14.028 -1.6196 -0.4346 -0.5567
  305MPD2    H1 4647   0.973   4.272  13.836 -3.3943  0.6489  0.8238
  305MPD2    H2 4648   1.044   4.274  14.265  0.0111 -0.8680  0.2554
  305MPD2    H3 4649   0.976   4.386  14.059  1.7044  0.5993 -1.5906
  305MPD2     N 4650   1.018   4.024  13.797 -0.0265  0.5509  0.3563
  305MPD2    H5 4651   1.009   4.076  13.710 -1.1979 -3.8337 -2.1346
  305MPD2    N1 4652   1.141   4.020  14.276  0.3222  0.0150 -0.0612
  305MPD2    H7 4653   1.169   4.079  14.353 -0.6574 -0.2991  0.5355
  306TMC3    C1 4654   1.217   3.855  14.421 -0.2134  0.3095 -0.0989
  306TMC3    C2 4655   1.315   3.756  14.429  0.1327  0.0409 -0.4877
  306TMC3    C3 4656   1.355   3.714  14.551 -0.1513  0.8103 -0.1313
  306TMC3    C4 4657   1.166   3.919  14.530  0.1990 -0.4655 -0.2927
  306TMC3    C5 4658   1.209   3.868  14.652  0.3840 -0.4981 -0.2750
  306TMC3    C6 4659   1.300   3.765  14.666 -0.3896  0.3794  0.2165
  306TMC3     C 4660   1.175   3.886  14.290 -0.1956  0.2224  0.5244
  306TMC3     O 4661   1.176   3.798  14.203 -0.0373 -0.2926 -0.3336
  306TMC3     H 4662   1.348   3.700  14.342  0.5530 -1.6729  0.7763
  306TMC3    H1 4663   1.086   3.993  14.527  0.1390 -0.5077  0.1528
  306TMC3    H2 4664   1.327   3.719  14.760  0.1905 -1.5390 -0.8924
  306TMC3    C7 4665   1.124   3.901  14.776 -0.4802  0.6246 -0.0759
  306TMC3    C8 4666   1.434   3.588  14.548  0.6930 -0.0769 -0.0926
  306TMC3    O1 4667   1.017   3.952  14.742  0.2223 -0.3581  0.3559
  306TMC3    O2 4668   1.473   3.545  14.441 -0.0136 -0.0079 -0.5959
  307MPD2     C 4669   3.869   1.260   0.535  0.0600 -0.1738 -0.2664
  307MPD2    C1 4670   3.817   1.395   0.526 -0.5464 -0.4479 -0.6917
  307MPD2    C2 4671   3.728   1.442   0.627  0.4566  0.0455  0.4061
  307MPD2    C3 4672   3.709   1.368   0.741  0.3196 -0.4698  0.8339
  307MPD2    C4 4673   3.754   1.236   0.752 -0.1577  0.1036 -0.0283
  307MPD2    C5 4674   3.836   1.190   0.650  0.3834  0.6102  0.6695
  307MPD2     H 4675   3.683   1.539   0.608  0.9653 -0.1167 -1.6253
  307MPD2    H1 4676   3.742   1.170   0.837 -3.4930  0.5047 -0.2070
  307MPD2    H2 4677   3.930   1.218   0.456  2.1522  0.0772  1.2032
  307MPD2    H3 4678   3.877   1.091   0.666 -1.1640  0.0218  1.0048
  307MPD2     N 4679   3.638   1.410   0.849 -0.2285  0.5301 -0.8771
  307MPD2    H5 4680   3.605   1.341   0.916 -0.8313 -1.2250 -2.9604
  307MPD2    N1 4681   3.857   1.481   0.423  0.1265  0.0925  0.1301
  307MPD2    H7 4682   3.818   1.574   0.437  0.3274  0.1882  0.0443
  308TMC3    C1 4683   3.259   1.517   0.991  0.2855  0.4923  0.3499
  308TMC3    C2 4684   3.245   1.625   1.073 -0.5582 -0.2326  0.3941
  308TMC3    C3 4685   3.355   1.701   1.092  0.0130 -0.0838  0.7078
  308TMC3    C4 4686   3.380   1.475   0.944 -0.1135 -0.1663  0.1140
  308TMC3    C5 4687   3.486   1.562   0.952 -0.2982 -0.1657 -0.3107
  308TMC3    C6 4688   3.472   1.677   1.024  0.0510 -0.0653  0.2470
  308TMC3     C 4689   3.136   1.483   0.926 -0.6865 -0.4051 -0.0029
  308TMC3     O 4690   3.129   1.361   0.907  0.1618  0.9605 -0.4985
  308TMC3     H 4691   3.150   1.661   1.110 -0.7073  1.0120 -1.2120
  308TMC3    H1 4692   3.379   1.395   0.871 -2.5252 -1.7062  1.8264
  308TMC3    H2 4693   3.550   1.752   1.032 -0.0867  0.0312  0.7346
  308TMC3    C7 4694   3.605   1.546   0.865 -0.0402  0.2882  0.2303
  308TMC3    C8 4695   3.324   1.833   1.149  0.2426  0.1678 -0.0879
  308TMC3    O1 4696   3.646   1.650   0.810 -0.2118 -0.5187  0.0059
  308TMC3    O2 4697   3.237   1.839   1.237  0.0169 -0.3846 -0.4445
  309MPD2     C 4698   2.876   2.063  17.231  0.3672  0.8071 -0.2881
  309MPD2    C1 4699   2.795   2.100  17.138 -0.2188  0.3219  0.4150
  309MPD2    C2 4700   2.672   2.153  17.170  0.2628 -0.8724 -0.1379
  309MPD2    C3 4701   2.642   2.183  17.301 -0.9035  0.5388  0.5116
  309MPD2    C4 4702   2.736   2.159  17.394  0.2832 -0.3166  0.1656
  309MPD2    C5 4703   2.851   2.092  17.362 -0.0014  0.5939  0.0352
  309MPD2     H 4704   2.595   2.179  17.097  1.2142 -0.3871 -0.9640
  309MPD2    H1 4705   2.718   2.179  17.498  0.3458 -0.6336  0.2383
  309MPD2    H2 4706   2.962   2.000  17.210 -0.3343 -0.0742 -0.5547
  309MPD2    H3 4707   2.925   2.063  17.435 -0.0691 -0.1988 -0.2103
  309MPD2     N 4708   2.524   2.249  17.342  0.8492 -0.7033  0.2290
  309MPD2    H5 4709   2.506   2.253  17.441  0.2258 -0.2820  0.1011
  309MPD2    N1 4710   2.823   2.089  16.998 -0.1215  0.4862  0.4760
  309MPD2    H7 4711   2.752   2.118  16.932  1.3354 -0.1691 -1.3688
  310TMC3    C1 4712   2.957   2.064  16.807 -0.4216  0.7138 -0.7426
  310TMC3    C2 4713   2.873   2.153  16.746  0.9920  0.1091  0.3224
  310TMC3    C3 4714   2.862   2.157  16.612 -0.5045  0.4563  0.2129
  310TMC3    C4 4715   3.045   1.992  16.730 -0.0589  0.2138  0.9559
  310TMC3    C5 4716   3.019   1.987  16.598  0.6665  0.1161 -0.5047
  310TMC3    C6 4717   2.932   2.069  16.539 -0.6166  0.9608 -0.2390
  310TMC3     C 4718   2.934   2.030  16.953  0.0998 -0.0298 -0.4239
  310TMC3     O 4719   3.023   1.964  17.005 -0.5571  0.1740 -0.0041
  310TMC3     H 4720   2.819   2.228  16.802  0.4208  0.0549 -0.1517
  310TMC3    H1 4721   3.128   1.942  16.779 -0.6372 -1.4761  0.2392
  310TMC3    H2 4722   2.907   2.069  16.433 -1.2941 -0.2928 -0.0757
  310TMC3    C7 4723   3.125   1.940  16.505 -0.2048 -1.0070  0.6454
  310TMC3    C8 4724   2.767   2.243  16.543  0.9070  0.8836 -0.7368
  310TMC3    O1 4725   3.095   1.940  16.389  0.6888  0.2954  0.1698
  310TMC3    O2 4726   2.767   2.240  16.421  0.9506  0.4961  0.0840
  311MPD2     C 4727   0.290   3.266  12.871  1.2076  0.1943  0.1051
  311MPD2    C1 4728   0.231   3.392  12.871  0.2662  0.4776  0.1137
  311MPD2    C2 4729   0.112   3.405  12.935  0.4925 -0.0710 -1.1089
  311MPD2    C3 4730   0.048   3.296  12.992 -0.6799  0.4085  0.0727
  311MPD2    C4 4731   0.103   3.169  12.982 -0.1650 -0.3667  0.0306
  311MPD2    C5 4732   0.230   3.161  12.932  0.2752  0.5200  0.2499
  311MPD2     H 4733   0.074   3.506  12.946  0.3701 -0.3738  1.2337
  311MPD2    H1 4734   0.063   3.072  13.012 -1.9035  1.2588  2.9638
  311MPD2    H2 4735   0.385   3.236  12.828  0.6666  1.0404 -1.6578
  311MPD2    H3 4736   0.284   3.067  12.935 -2.1553 -0.9280 -1.5634
  311MPD2     N 4737   4.664   3.319  13.059  0.4628  0.1540  0.5947
  311MPD2    H5 4738   4.633   3.415  13.066  1.3921  0.4422  0.7695
  311MPD2    N1 4739   0.293   3.512  12.817 -0.8342  0.7253 -0.0614
  311MPD2    H7 4740   0.242   3.599  12.815  0.9105  1.7232 -1.3965
  312TMC3    C1 4741   4.469   3.269  13.160 -0.0251 -0.0628 -0.0854
  312TMC3    C2 4742   4.347   3.212  13.127  0.2423 -0.1227  0.2164
  312TMC3    C3 4743   4.228   3.279  13.146  0.1765  1.0200  0.5068
  312TMC3    C4 4744   4.466   3.400  13.219 -0.2851  0.0720 -0.1157
  312TMC3    C5 4745   4.343   3.455  13.235  0.7131  0.1985  0.6538
  312TMC3    C6 4746   4.223   3.402  13.208 -0.2772  0.3538  0.2823
  312TMC3     C 4747   4.595   3.217  13.111 -0.3213  0.1443  0.1118
  312TMC3     O 4748   4.615   3.097  13.116 -0.5978  0.0749  0.2206
  312TMC3     H 4749   4.343   3.113  13.083 -2.1719 -0.2940  0.7970
  312TMC3    H1 4750   4.559   3.447  13.250  0.7266 -0.8932 -1.7217
  312TMC3    H2 4751   4.135   3.460  13.235 -1.1519 -1.0169  0.3913
  312TMC3    C7 4752   4.337   3.596  13.253  0.2303 -0.0075 -0.1935
  312TMC3    C8 4753   4.125   3.243  13.051  0.5946  0.2049  0.0493
  312TMC3    O1 4754   4.240   3.650  13.207  0.0942 -0.5638 -0.0384
  312TMC3    O2 4755   4.147   3.139  12.995 -0.1854  0.0946 -1.1316
  313MPD2     C 4756   3.979   2.767  11.262  0.6076  0.3786  0.1982
  313MPD2    C1 4757   4.089   2.841  11.234 -0.6059 -0.4574  0.2044
  313MPD2    C2 4758   4.184   2.788  11.151  0.5892 -0.0855  0.2958
  313MPD2    C3 4759   4.168   2.667  11.085  0.4296  0.1689 -0.0797
  313MPD2    C4 4760   4.045   2.605  11.108  0.2113 -0.3471 -0.0336
  313MPD2    C5 4761   3.950   2.657  11.196 -0.6745  0.0310 -0.2913
  313MPD2     H 4762   4.273   2.847  11.131  0.9944 -0.9019 -0.2735
  313MPD2    H1 4763   4.017   2.514  11.057 -0.0631 -1.2014  1.6305
  313MPD2    H2 4764   3.906   2.798  11.335  0.0527  0.3040 -0.3296
  313MPD2    H3 4765   3.860   2.600  11.217  0.3106 -1.8298 -1.0719
  313MPD2     N 4766   4.270   2.637  10.994  0.0990 -0.4039 -1.2142
  313MPD2    H5 4767   4.353   2.696  10.994 -0.2845  0.1190  0.4521
  313MPD2    N1 4768   4.113   2.976  11.275  0.6552 -0.7642 -0.3056
  313MPD2    H7 4769   4.195   3.029  11.247  2.7624 -3.1587  1.3821
  314TMC3    C1 4770   4.065   3.188  11.323  1.2601  0.3291  0.7581
  314TMC3    C2 4771   4.200   3.206  11.333  0.7288 -0.1904  0.1061
  314TMC3    C3 4772   4.267   3.279  11.240  0.3353  0.5234  0.0577
  314TMC3    C4 4773   3.999   3.249  11.214 -0.7418 -0.1491  0.3022
  314TMC3    C5 4774   4.068   3.312  11.117  0.1465 -0.4097 -0.0902
  314TMC3    C6 4775   4.200   3.337  11.133  0.1911  0.6493 -0.1138
  314TMC3     C 4776   4.024   3.057  11.334 -0.1538 -0.2563 -0.9322
  314TMC3     O 4777   3.907   3.033  11.364 -0.2082 -0.0022 -0.5019
  314TMC3     H 4778   4.257   3.167  11.416  1.4885  3.0122  1.0715
  314TMC3    H1 4779   3.894   3.228  11.199 -0.2636 -2.1050 -0.3599
  314TMC3    H2 4780   4.263   3.369  11.050  1.1838 -0.4286  0.2203
  314TMC3    C7 4781   4.030   3.259  10.988 -0.4645  0.5185  0.1844
  314TMC3    C8 4782   4.395   3.343  11.275  0.2659 -0.2875 -0.1180
  314TMC3    O1 4783   3.970   3.153  10.999 -0.1980  0.4026  0.2250
  314TMC3    O2 4784   4.419   3.445  11.210 -0.0600  0.1447  0.0446
  315MPD2     C 4785   3.877   2.554   0.314 -0.8613 -0.7152  0.2297
  315MPD2    C1 4786   3.976   2.456   0.317  0.0794 -0.0425  0.0597
  315MPD2    C2 4787   4.060   2.451   0.208 -0.1549 -0.2943  0.1152
  315MPD2    C3 4788   4.046   2.535   0.104 -0.0555 -0.5282  0.2295
  315MPD2    C4 4789   3.946   2.625   0.098 -0.6022  0.1566 -0.2083
  315MPD2    C5 4790   3.866   2.639   0.209  0.0681 -0.4481 -0.1700
  315MPD2     H 4791   4.153   2.397   0.213  0.1986  0.3378  0.3986
  315MPD2    H1 4792   3.936   2.700   0.020 -0.1659  0.3362 -0.0908
  315MPD2    H2 4793   3.811   2.569   0.399 -0.1086  0.3874  0.6142
  315MPD2    H3 4794   3.784   2.710   0.206  1.2300  0.9050  0.4823
  315MPD2     N 4795   4.158   2.540   0.015  0.1947  0.9736  1.0255
  315MPD2    H5 4796   4.236   2.475   0.028  1.2272  2.0670  0.2939
  315MPD2    N1 4797   4.005   2.367   0.430 -0.3717 -0.4033  0.3261
  315MPD2    H7 4798   4.070   2.290   0.416 -1.0610 -1.0039  0.4073
  316TMC3    C1 4799   4.316   2.633  17.618  0.4262 -0.0624  0.2526
  316TMC3    C2 4800   4.423   2.637  17.706 -0.4113 -0.4536 -0.1205
  316TMC3    C3 4801   4.542   2.690  17.668  0.4862 -0.1918 -0.4201
  316TMC3    C4 4802   4.331   2.682  17.490  0.2682 -0.8823  0.0909
  316TMC3    C5 4803   4.452   2.722  17.456  0.7342 -0.3305  0.1917
  316TMC3    C6 4804   4.560   2.731  17.537 -0.3010  0.4176 -0.3868
  316TMC3     C 4805   4.183   2.650  17.671 -0.7617 -0.2328  1.0382
  316TMC3     O 4806   4.103   2.734  17.632 -0.4472 -0.6184  0.1213
  316TMC3     H 4807   4.397   2.627   0.064 -0.4175 -0.0718 -0.0844
  316TMC3    H1 4808   4.245   2.716  17.433  0.8319  2.3052  1.1358
  316TMC3    H2 4809   4.656   2.771  17.506  1.0018 -1.7358  0.8538
  316TMC3    C7 4810   4.483   2.747  17.314  0.2512  0.3981 -0.3322
  316TMC3    C8 4811   4.653   2.651   0.002 -0.3925 -0.1946  0.8267
  316TMC3    O1 4812   4.597   2.780  17.291  0.0408  0.7407  0.1325
  316TMC3    O2 4813   0.011   2.725   0.019  0.6230 -0.1823 -0.1057
  317MPD2     C 4814   1.162   0.732  13.296 -0.3985  0.4676  0.1323
  317MPD2    C1 4815   1.216   0.618  13.237 -0.1254  0.0458 -0.4809
  317MPD2    C2 4816   1.306   0.547  13.309  0.6803  0.5210  0.0954
  317MPD2    C3 4817   1.355   0.592  13.428 -0.3649 -0.2689  0.5338
  317MPD2    C4 4818   1.309   0.706  13.484 -0.2296 -0.3824  0.3664
  317MPD2    C5 4819   1.214   0.778  13.413 -0.3971  0.4937 -0.6603
  317MPD2     H 4820   1.349   0.460  13.260 -1.1394 -0.6323  0.5461
  317MPD2    H1 4821   1.339   0.743  13.581  1.2544  0.2493 -0.3365
  317MPD2    H2 4822   1.102   0.807  13.246 -2.1333  0.3324  1.9989
  317MPD2    H3 4823   1.178   0.877  13.439 -0.2559  0.3309  0.1282
  317MPD2     N 4824   1.439   0.508  13.504 -0.3192 -0.7417 -0.2750
  317MPD2    H5 4825   1.452   0.417  13.461  3.3078 -0.9095  1.1968
  317MPD2    N1 4826   1.189   0.580  13.103 -1.0752 -0.1759  0.5421
  317MPD2    H7 4827   1.219   0.488  13.071 -0.7151  0.2328 -0.2800
  318TMC3    C1 4828   1.531   0.430  13.699  0.3203 -0.2362 -0.7995
  318TMC3    C2 4829   1.470   0.309  13.678 -0.1679  0.9038 -0.8695
  318TMC3    C3 4830   1.509   0.197  13.749 -0.2637  0.0921  0.2620
  318TMC3    C4 4831   1.624   0.445  13.797 -0.1677 -0.4401  0.0362
  318TMC3    C5 4832   1.674   0.330  13.855 -0.5348 -0.1090 -0.5100
  318TMC3    C6 4833   1.616   0.206  13.839  0.2206  0.4600 -0.0731
  318TMC3     C 4834   1.504   0.543  13.622 -0.2339 -0.3508 -0.3696
  318TMC3     O 4835   1.524   0.654  13.670  0.5657 -0.2258 -0.1498
  318TMC3     H 4836   1.381   0.309  13.617 -1.7414  1.9492  1.4575
  318TMC3    H1 4837   1.658   0.545  13.819  1.4795 -0.7290 -1.1972
  318TMC3    H2 4838   1.640   0.116  13.895  4.2107  1.9010  0.5515
  318TMC3    C7 4839   1.789   0.345  13.943  0.3087 -0.1920  0.5874
  318TMC3    C8 4840   1.438   0.072  13.726 -0.2167  0.1340  0.0906
  318TMC3    O1 4841   1.840   0.451  13.971  0.0359 -0.3235  0.2573
  318TMC3    O2 4842   1.448   4.728  13.815 -0.1440 -0.1950  0.2055
  319MPD2     C 4843   2.181   1.822  16.363 -0.4339 -0.4155  0.3338
  319MPD2    C1 4844   2.079   1.762  16.430 -0.2115 -0.4181 -0.4780
  319MPD2    C2 4845   1.981   1.695  16.356 -0.8014 -1.2196  0.1883
  319MPD2    C3 4846   1.991   1.672  16.223 -0.6384 -0.0513 -0.5939
  319MPD2    C4 4847   2.101   1.719  16.159 -0.4482  0.2382 -0.0636
  319MPD2    C5 4848   2.188   1.802  16.227 -0.0770 -0.2023  0.1715
  319MPD2     H 4849   1.912   1.630  16.408 -0.7204 -1.9979 -0.6565
  319MPD2    H1 4850   2.127   1.713  16.054 -0.1325  0.6034 -0.0037
  319MPD2    H2 4851   2.257   1.880  16.414 -2.6165  0.8993  2.0989
  319MPD2    H3 4852   2.265   1.853  16.170  1.7165 -1.9852  0.9928
  319MPD2     N 4853   1.906   1.601  16.141  0.5554  0.9510  0.2080
  319MPD2    H5 4854   1.934   1.576  16.047 -1.7787 -0.4485 -0.1193
  319MPD2    N1 4855   2.070   1.761  16.573  0.6357  0.2250 -0.1841
  319MPD2    H7 4856   2.003   1.698  16.616 -1.0154  1.2159 -1.3135
  320TMC3    C1 4857   1.725   1.485  16.069  0.5971  0.3019 -0.0922
  320TMC3    C2 4858   1.700   1.561  15.958  0.0594  0.3997 -0.1272
  320TMC3    C3 4859   1.648   1.503  15.851  0.0084  0.2868 -0.7048
  320TMC3    C4 4860   1.691   1.353  16.085  1.3426  0.7904 -0.6371
  320TMC3    C5 4861   1.626   1.299  15.974 -0.3458 -0.4109 -0.4224
  320TMC3    C6 4862   1.615   1.366  15.855 -0.3449  0.0001  0.3476
  320TMC3     C 4863   1.783   1.557  16.170 -0.2815  0.2483  0.3582
  320TMC3     O 4864   1.722   1.550  16.276  0.5221 -0.2175  0.6313
  320TMC3     H 4865   1.725   1.667  15.962  1.0259  0.1914 -0.7272
  320TMC3    H1 4866   1.712   1.300  16.177 -3.3203 -0.9634 -0.5814
  320TMC3    H2 4867   1.575   1.313  15.769 -2.2770  2.3696 -0.2321
  320TMC3    C7 4868   1.621   1.158  15.955  0.2687  0.4526 -0.6847
  320TMC3    C8 4869   1.624   1.579  15.731  0.5231 -0.1636  0.2417
  320TMC3    O1 4870   1.529   1.109  15.892  0.5670 -0.5013  0.0510
  320TMC3    O2 4871   1.689   1.679  15.716 -0.0642 -0.5650 -0.2839
  321TMC3    C1 4872   2.116   1.801  16.794  0.7326  0.8769  0.3732
  321TMC3    C2 4873   2.101   1.669  16.835  0.3356 -0.5159  0.2241
  321TMC3    C3 4874   2.062   1.666  16.964  0.4307  0.8270  0.2969
  321TMC3    C4 4875   2.086   1.917  16.866 -0.3679 -0.5349  0.3083
  321TMC3    C5 4876   2.037   1.909  16.991  0.5335  0.6827 -0.8947
  321TMC3    C6 4877   2.023   1.778  17.032 -0.1381  0.1846  0.6454
  321TMC3     C 4878   2.155   1.824  16.654 -0.1358 -0.4733 -0.1997
  321TMC3     O 4879   2.244   1.910  16.633 -0.0526  0.1550  0.3882
  321TMC3     H 4880   2.136   1.586  16.775  0.9845  0.2772 -0.4952
  321TMC3    H1 4881   2.101   2.011  16.816 -0.8070 -0.5034  0.2449
  321TMC3    H2 4882   1.977   1.763  17.129 -0.5212 -0.1662  0.4128
  321TMC3    C7 4883   2.118   1.978  17.083  0.7441  0.1577  0.7887
  321TMC3    C8 4884   2.112   1.564  17.048 -0.4834 -0.2044  0.0371
  321TMC3    O1 4885   2.230   2.008  17.036 -0.2816  0.2053  0.2548
  321TMC3    O2 4886   2.115   1.575  17.169 -0.0210  0.1139  0.3618
  322MPD2     C 4887   0.880   3.471  13.788 -0.1318 -0.5057  0.8454
  322MPD2    C1 4888   0.896   3.361  13.872 -0.3736 -0.0467  0.4133
  322MPD2    C2 4889   0.885   3.233  13.815  0.5202  0.0419  0.1094
  322MPD2    C3 4890   0.872   3.212  13.678 -0.4074  0.8797 -0.8565
  322MPD2    C4 4891   0.852   3.324  13.602 -0.0051 -0.0216  0.2970
  322MPD2    C5 4892   0.853   3.449  13.654  0.2556  0.2812  0.2177
  322MPD2     H 4893   0.896   3.149  13.883  0.1691 -0.0594  0.0411
  322MPD2    H1 4894   0.830   3.312  13.497 -2.6160  0.9996  0.7160
  322MPD2    H2 4895   0.905   3.571  13.821  0.5690 -1.5569  3.5553
  322MPD2    H3 4896   0.846   3.532  13.584  1.7982  0.6549  0.5024
  322MPD2     N 4897   0.896   3.092  13.613 -0.0922 -0.1956  0.6252
  322MPD2    H5 4898   0.912   3.018  13.681 -0.1493 -1.5071 -0.8185
  322MPD2    N1 4899   0.939   3.397  14.005  0.3287 -0.0614 -0.5751
  322MPD2    H7 4900   0.942   3.495  14.031  2.9419  0.6835 -3.6459
  323TMC3    C1 4901   1.044   3.357  14.211 -0.0108 -0.7397  0.3059
  323TMC3    C2 4902   1.137   3.450  14.169 -0.6802  0.6448 -0.1762
  323TMC3    C3 4903   1.263   3.446  14.220  0.0056  0.0270  0.2218
  323TMC3    C4 4904   1.079   3.269  14.313  0.0376  0.0214  0.2016
  323TMC3    C5 4905   1.209   3.260  14.363  0.6380  0.6039  0.2844
  323TMC3    C6 4906   1.306   3.350  14.311 -0.5514  0.3183  0.2982
  323TMC3     C 4907   0.971   3.298  14.100 -0.9227  0.5351 -0.3979
  323TMC3     O 4908   0.979   3.178  14.082 -0.0615  0.1970 -0.3735
  323TMC3     H 4909   1.123   3.530  14.097 -1.9838  1.3376  0.8440
  323TMC3    H1 4910   1.008   3.188  14.329 -0.6429  0.5147 -0.3014
  323TMC3    H2 4911   1.408   3.343  14.347 -0.2451 -1.9140 -1.0530
  323TMC3    C7 4912   1.247   3.148  14.443 -0.1450 -0.4554  0.7219
  323TMC3    C8 4913   1.363   3.490  14.125  0.4733 -0.3312  0.0904
  323TMC3    O1 4914   1.186   3.041  14.441  0.0415  0.4986 -0.1232
  323TMC3    O2 4915   1.463   3.416  14.130 -0.0250 -0.0212  0.4629
  324MPD2     C 4916   3.182   4.257  14.210  0.0081  0.5720  0.1010
  324MPD2    C1 4917   3.154   4.161  14.308 -0.3334  0.2787 -0.0412
  324MPD2    C2 4918   3.023   4.117  14.322  0.0763  0.2765  0.4558
  324MPD2    C3 4919   2.929   4.142  14.232  0.3723  0.4482 -0.4726
  324MPD2    C4 4920   2.963   4.223  14.123 -0.0793 -0.0005  0.0242
  324MPD2    C5 4921   3.085   4.289  14.112 -0.5969  0.1909  0.3645
  324MPD2     H 4922   2.998   4.072  14.417  0.8341  1.4272  1.2023
  324MPD2    H1 4923   2.893   4.238  14.042 -0.0417 -3.0392 -0.5668
  324MPD2    H2 4924   3.276   4.310  14.200  0.2271  0.0190 -0.8239
  324MPD2    H3 4925   3.107   4.364  14.037 -3.6489  0.0429 -0.6614
  324MPD2     N 4926   2.798   4.095  14.234 -0.0843 -0.5616 -0.0366
  324MPD2    H5 4927   2.740   4.124  14.155 -0.1887 -0.3764  0.1090
  324MPD2    N1 4928   3.255   4.106  14.390  0.6362 -0.6169  0.2639
  324MPD2    H7 4929   3.226   4.048  14.468 -2.2603  1.0686  0.4144
  325TMC3    C1 4930   2.595   4.037  14.323 -0.1137  0.5694 -0.2977
  325TMC3    C2 4931   2.527   4.000  14.211  0.2317 -0.1365  0.4803
  325TMC3    C3 4932   2.388   3.998  14.218 -0.6659  0.1011 -0.0563
  325TMC3    C4 4933   2.526   4.070  14.437  0.1239 -0.2372 -0.0500
  325TMC3    C5 4934   2.387   4.079  14.439  0.5120  0.2138 -0.0917
  325TMC3    C6 4935   2.316   4.046  14.326 -0.0420  0.1939  1.0159
  325TMC3     C 4936   2.741   4.027  14.332  0.3277 -0.2118  0.0828
  325TMC3     O 4937   2.789   4.002  14.447 -0.0029 -0.4470  0.5833
  325TMC3     H 4938   2.580   3.958  14.126 -0.8658  2.0229 -1.2644
  325TMC3    H1 4939   2.591   4.094  14.521 -1.0592 -2.0504  1.3876
  325TMC3    H2 4940   2.208   4.050  14.329 -0.0256  2.0943 -0.5159
  325TMC3    C7 4941   2.311   4.127  14.555 -0.0913 -0.0355 -0.2058
  325TMC3    C8 4942   2.310   3.957  14.107  0.3839 -0.3702  0.0671
  325TMC3    O1 4943   2.191   4.114  14.551 -0.3496 -0.3268  0.2169
  325TMC3    O2 4944   2.365   3.968  13.997  0.0192 -0.0523 -1.0440
  326MPD2     C 4945   3.599   0.580  10.909 -0.5675  0.8487  0.1254
  326MPD2    C1 4946   3.709   0.550  10.842 -0.2369 -0.5182 -0.0029
  326MPD2    C2 4947   3.828   0.585  10.899 -0.6673  0.1641  0.5372
  326MPD2    C3 4948   3.840   0.646  11.025 -0.3022  0.9274 -0.3009
  326MPD2    C4 4949   3.722   0.672  11.092 -0.5554  0.4937  0.0761
  326MPD2    C5 4950   3.605   0.634  11.037  0.3387  0.1491  0.2565
  326MPD2     H 4951   3.922   0.560  10.851 -1.6196 -1.2660 -0.5963
  326MPD2    H1 4952   3.715   0.715  11.191  0.0223 -0.2490  0.4401
  326MPD2    H2 4953   3.499   0.561  10.870  0.1986 -2.8893  0.0423
  326MPD2    H3 4954   3.512   0.654  11.089  0.5611 -0.4038  0.8558
  326MPD2     N 4955   3.964   0.685  11.082  0.1129 -0.2471 -0.4007
  326MPD2    H5 4956   3.955   0.748  11.161 -1.0493 -2.7078  1.4693
  326MPD2    N1 4957   3.729   0.476  10.724 -0.2405  0.0084 -0.2708
  326MPD2    H7 4958   3.825   0.455  10.701 -0.5942 -2.4071  0.4577
  327TMC3    C1 4959   3.680   0.430  10.495 -0.7259  0.2643  0.4966
  327TMC3    C2 4960   3.605   0.493  10.401 -0.3275 -0.0181  0.2194
  327TMC3    C3 4961   3.671   0.573  10.313  0.6880 -0.1582  0.5877
  327TMC3    C4 4962   3.815   0.432  10.496 -0.0622 -0.3509 -0.6076
  327TMC3    C5 4963   3.876   0.509  10.400  0.4808 -0.2728 -0.6584
  327TMC3    C6 4964   3.805   0.580  10.309 -0.3303  0.5649 -0.0734
  327TMC3     C 4965   3.628   0.471  10.628  0.4810 -0.2016 -0.2799
  327TMC3     O 4966   3.520   0.528  10.628  0.3798 -0.1453  0.2733
  327TMC3     H 4967   3.497   0.498  10.411 -0.3737 -0.8415  0.1168
  327TMC3    H1 4968   3.870   0.368  10.565 -1.0249 -1.2238 -0.6562
  327TMC3    H2 4969   3.850   0.641  10.232  1.0779 -0.9859 -0.4920
  327TMC3    C7 4970   4.014   0.541  10.421 -1.1911 -0.6532 -0.3350
  327TMC3    C8 4971   3.625   0.707  10.307 -0.0947  0.5461  0.1938
  327TMC3    O1 4972   4.054   0.623  10.340 -0.3064  0.5125 -0.1742
  327TMC3    O2 4973   3.674   0.779  10.222  0.0236 -0.1873 -0.1277
  328MPD2     C 4974   1.787   0.170  17.276 -0.2554 -0.5290  0.7488
  328MPD2    C1 4975   1.715   0.056  17.263  0.3686  0.9393 -0.2465
  328MPD2    C2 4976   1.685   0.014  17.138  0.5660 -0.6816  0.1704
  328MPD2    C3 4977   1.706   0.097  17.028 -0.9119 -0.1729  0.0363
  328MPD2    C4 4978   1.767   0.221  17.047 -0.3747 -0.4353  0.0074
  328MPD2    C5 4979   1.820   0.242  17.172 -0.3308 -0.1819  0.6532
  328MPD2     H 4980   1.633   4.656  17.131 -1.4376  0.4145  0.2565
  328MPD2    H1 4981   1.780   0.298  16.971 -1.1861 -0.8135 -0.5150
  328MPD2    H2 4982   1.822   0.192  17.377  0.2075  0.1887  0.4349
  328MPD2    H3 4983   1.882   0.331  17.185 -1.3914  0.5789  0.5010
  328MPD2     N 4984   1.657   0.068  16.898 -0.0734 -0.0761 -0.1039
  328MPD2    H5 4985   1.647   0.146  16.834 -0.9739 -0.3815 -0.3383
  328MPD2    N1 4986   1.691   4.704  17.376  0.5752  0.7693 -0.2763
  328MPD2    H7 4987   1.696   0.006  17.470  3.7769 -2.3352  0.8541
  329TMC3    C1 4988   1.588   4.532  17.491  0.5917  0.2517  0.0581
  329TMC3    C2 4989   1.502   4.624  17.541 -0.6159  0.5256 -0.8423
  329TMC3    C3 4990   1.378   4.596  17.570  0.1576  0.1341  0.3586
  329TMC3    C4 4991   1.542   4.400  17.480 -0.1626 -0.0123  0.4655
  329TMC3    C5 4992   1.409   4.373  17.519  0.8870  0.0509  0.1462
  329TMC3    C6 4993   1.320   4.469  17.556  0.2085  0.3521 -0.4571
  329TMC3     C 4994   1.653   4.575  17.371  0.2955  0.6998 -0.0147
  329TMC3     O 4995   1.646   4.487  17.283  0.4084  0.2420  0.0887
  329TMC3     H 4996   1.520   4.731  17.536  0.5065  0.3936  0.2761
  329TMC3    H1 4997   1.592   4.314  17.437  0.6319  2.1784 -2.9756
  329TMC3    H2 4998   1.213   4.458  17.542  0.3493  0.2684 -1.4612
  329TMC3    C7 4999   1.365   4.231  17.535  0.0222 -0.3388 -0.5390
  329TMC3    C8 5000   1.285   4.708  17.534  0.7002 -0.1156 -0.7989
  329TMC3    O1 5001   1.439   4.138  17.507  0.5582 -0.3422  0.0456
  329TMC3    O2 5002   1.200   4.682  17.451 -0.3817  0.1034  0.9317
  330TMC3    C1 5003   3.378   4.578   9.276  0.2701 -0.9367  0.0141
  330TMC3    C2 5004   3.372   4.540   9.404  0.8540  0.0967 -0.4068
  330TMC3    C3 5005   3.478   4.472   9.457 -0.0206 -0.3325 -0.4915
  330TMC3    C4 5006   3.474   4.529   9.193  0.6157 -0.7642  0.3672
  330TMC3    C5 5007   3.574   4.462   9.248 -0.2339  0.1058  0.1974
  330TMC3    C6 5008   3.576   4.434   9.381  0.5349  0.2318 -0.5719
  330TMC3     C 5009   3.264   4.652   9.212 -0.1021  0.2636  0.5794
  330TMC3     O 5010   3.292   4.733   9.123 -0.0226 -0.5829  0.2377
  330TMC3     H 5011   3.294   4.591   9.459  0.7600 -1.9293  1.3220
  330TMC3    H1 5012   3.477   4.577   9.096  0.0811  0.4457  0.9493
  330TMC3    H2 5013   3.656   4.370   9.415  2.1579  1.9167 -1.2493
  330TMC3    C7 5014   3.679   4.405   9.165  0.4924 -0.0219 -0.4885
  330TMC3    C8 5015   3.477   4.433   9.600  0.4549  0.0524  0.4199
  330TMC3    O1 5016   3.777   4.351   9.216 -0.0429  0.0981 -0.5652
  330TMC3    O2 5017   3.360   4.439   9.640  0.2956  0.0926  0.0063
  331MPD2     C 5018   2.379   3.393  13.060 -0.6290  0.0605 -0.0282
  331MPD2    C1 5019   2.337   3.421  12.931  0.3219  0.4182 -0.1184
  331MPD2    C2 5020   2.293   3.316  12.858  0.0131 -1.3784  0.0037
  331MPD2    C3 5021   2.310   3.181  12.895  0.0312  0.7945  0.0928
  331MPD2    C4 5022   2.344   3.155  13.024  0.4689 -0.2067 -0.6302
  331MPD2    C5 5023   2.368   3.263  13.106  0.6494  0.0024 -0.5140
  331MPD2     H 5024   2.253   3.333  12.759  0.5014  1.1019  0.2448
  331MPD2    H1 5025   2.355   3.051  13.054  0.8862 -1.0068 -3.5038
  331MPD2    H2 5026   2.399   3.477  13.126  0.5379  0.4384 -0.8791
  331MPD2    H3 5027   2.398   3.238  13.207  0.9759  1.0098 -0.3655
  331MPD2     N 5028   2.299   3.082  12.794  0.1054 -0.8009  0.5984
  331MPD2    H5 5029   2.275   3.106  12.698  0.0777  0.0443  0.8178
  331MPD2    N1 5030   2.343   3.547  12.874 -0.2178 -1.0830  0.1258
  331MPD2    H7 5031   2.398   3.615  12.925 -0.3287  0.6050 -2.0301
  332TMC3    C1 5032   2.369   2.874  12.686  0.0749  0.4867 -0.7153
  332TMC3    C2 5033   2.409   2.955  12.582 -0.3603  0.1276  0.6786
  332TMC3    C3 5034   2.498   2.896  12.492 -0.5480 -0.3269 -0.1800
  332TMC3    C4 5035   2.418   2.746  12.706 -0.3217 -0.1978 -0.0614
  332TMC3    C5 5036   2.506   2.698  12.610  0.1135  0.1022 -0.1685
  332TMC3    C6 5037   2.552   2.774  12.504 -0.2806  0.0735  0.1511
  332TMC3     C 5038   2.330   2.943  12.809 -0.4304 -0.0866  0.2898
  332TMC3     O 5039   2.342   2.872  12.912  0.6836  0.5275  0.3705
  332TMC3     H 5040   2.378   3.057  12.565  1.6826  0.5184 -0.7782
  332TMC3    H1 5041   2.387   2.686  12.791  1.6159 -1.7074 -0.4324
  332TMC3    H2 5042   2.626   2.736  12.435  0.0562  0.6237  0.2095
  332TMC3    C7 5043   2.597   2.596  12.665 -0.8031 -0.0310 -0.0804
  332TMC3    C8 5044   2.538   2.980  12.385  0.0460 -0.4884  0.3662
  332TMC3    O1 5045   2.553   2.489  12.704  0.2305 -0.1971  0.0182
  332TMC3    O2 5046   2.547   3.100  12.401 -0.0046  0.3396 -0.5299
  333MPD2     C 5047   2.331   3.804  11.128  0.2212 -0.3888  0.0735
  333MPD2    C1 5048   2.422   3.713  11.095  0.8069 -0.2335  0.0352
  333MPD2    C2 5049   2.443   3.603  11.175 -0.1932 -0.6764 -0.0230
  333MPD2    C3 5050   2.371   3.587  11.291  0.2340 -0.1518  0.3713
  333MPD2    C4 5051   2.270   3.673  11.318  0.2820  0.0505  0.2068
  333MPD2    C5 5052   2.247   3.778  11.235 -0.0043 -0.2071 -0.8308
  333MPD2     H 5053   2.501   3.519  11.141  3.1220  1.8084 -0.5173
  333MPD2    H1 5054   2.210   3.667  11.408 -0.3912 -2.1958 -0.4185
  333MPD2    H2 5055   2.311   3.886  11.060  2.5627  0.0336 -0.1064
  333MPD2    H3 5056   2.165   3.846  11.255  0.7820  0.6062 -0.4139
  333MPD2     N 5057   2.409   3.479  11.370 -0.9259  0.2062  0.0028
  333MPD2    H5 5058   2.483   3.430  11.321  1.2015  2.1235  1.3213
  333MPD2    N1 5059   2.505   3.743  10.987 -0.2428 -0.4867  0.0939
  333MPD2    H7 5060   2.486   3.832  10.944  2.4483  1.1278  2.2365
  334TMC3    C1 5061   2.675   3.735  10.819 -0.1416  0.8771 -0.4233
  334TMC3    C2 5062   2.778   3.653  10.778  0.2539 -0.3381  0.5851
  334TMC3    C3 5063   2.896   3.718  10.742 -0.0169 -0.2934 -0.0584
  334TMC3    C4 5064   2.681   3.869  10.803  0.3153 -0.6311  0.1395
  334TMC3    C5 5065   2.796   3.922  10.751  0.1781  0.0656 -0.2734
  334TMC3    C6 5066   2.906   3.850  10.732 -0.4875 -0.4734 -0.2997
  334TMC3     C 5067   2.602   3.671  10.930 -0.4217 -0.1727  0.4299
  334TMC3     O 5068   2.639   3.559  10.967 -0.4719  0.1621 -0.2050
  334TMC3     H 5069   2.776   3.545  10.783  1.4427 -0.4424 -1.6165
  334TMC3    H1 5070   2.607   3.928  10.855 -0.7179  0.6731 -2.7983
  334TMC3    H2 5071   2.998   3.901  10.706 -0.7891  0.1412 -0.1714
  334TMC3    C7 5072   2.801   4.064  10.708  0.6154  0.3238  0.0861
  334TMC3    C8 5073   3.013   3.649  10.792  0.2328 -0.1462  0.9841
  334TMC3    O1 5074   2.900   4.098  10.642  0.5395  0.5616  0.3910
  334TMC3    O2 5075   3.000   3.549  10.852 -0.1702  0.1396  0.0255
  335TMC3    C1 5076   2.352   0.457   0.092 -0.7849  0.4161  0.7979
  335TMC3    C2 5077   2.305   0.378  17.739  1.1485 -0.1616 -0.4565
  335TMC3    C3 5078   2.377   0.379  17.618  0.2066  0.2508 -1.1938
  335TMC3    C4 5079   2.452   0.550   0.074 -0.0688 -0.5726 -0.2484
  335TMC3    C5 5080   2.513   0.558  17.695  0.8300 -0.0112  0.4134
  335TMC3    C6 5081   2.479   0.470  17.601 -0.0054  1.2894  0.6851
  335TMC3     C 5082   2.300   0.433   0.221 -0.6355  0.3882  0.9190
  335TMC3     O 5083   2.268   0.320   0.254 -0.3474 -0.3823  0.3449
  335TMC3     H 5084   2.228   0.302  17.742  2.1345 -1.1867 -1.0752
  335TMC3    H1 5085   2.490   0.618   0.149  0.5261 -0.8822 -0.2700
  335TMC3    H2 5086   2.536   0.469  17.509 -0.0188 -0.8380  0.7058
  335TMC3    C7 5087   2.573   0.685  17.644 -0.3428 -0.0123 -0.5000
  335TMC3    C8 5088   2.337   0.308  17.495 -0.5445 -0.6417 -0.0507
  335TMC3    O1 5089   2.570   0.695  17.522 -0.1995 -0.1178 -0.6447
  335TMC3    O2 5090   2.396   0.348  17.393 -0.4644  0.0794 -0.1003
  336MPD2     C 5091   1.986   2.711  16.528  0.5652  0.2021  0.5097
  336MPD2    C1 5092   2.006   2.719  16.389 -0.5192 -0.3818  0.5551
  336MPD2    C2 5093   2.041   2.606  16.321  0.2910  0.4510  0.2060
  336MPD2    C3 5094   2.053   2.481  16.389  0.5613 -0.4275  0.3797
  336MPD2    C4 5095   2.014   2.470  16.521  0.0942 -0.7726  0.1658
  336MPD2    C5 5096   1.981   2.584  16.595  0.4862  0.3209 -0.3510
  336MPD2     H 5097   2.054   2.614  16.213  2.0761  2.6666  0.5795
  336MPD2    H1 5098   2.012   2.377  16.577 -0.0739  0.3481  2.0355
  336MPD2    H2 5099   1.953   2.790  16.594  1.9291  1.7887 -0.7025
  336MPD2    H3 5100   1.971   2.592  16.702 -1.2309  1.8061 -0.6117
  336MPD2     N 5101   2.108   2.372  16.328  0.1335 -0.0965 -0.3817
  336MPD2    H5 5102   2.113   2.286  16.380 -2.6092 -1.3267 -2.1254
  336MPD2    N1 5103   1.986   2.847  16.321  0.1423 -0.3776  0.2967
  336MPD2    H7 5104   2.012   2.857  16.223  1.8744 -1.2275  0.6663
  337TMC3    C1 5105   1.889   3.045  16.262 -0.3733  0.5760 -0.0614
  337TMC3    C2 5106   1.809   2.980  16.172  0.0031 -0.1176  0.3372
  337TMC3    C3 5107   1.703   3.044  16.114  0.0774  0.2894  0.0210
  337TMC3    C4 5108   1.855   3.175  16.294 -0.0699  0.3086 -0.6834
  337TMC3    C5 5109   1.752   3.242  16.243 -0.1248 -0.9586 -0.7051
  337TMC3    C6 5110   1.673   3.180  16.152 -0.6694 -0.6143  0.5310
  337TMC3     C 5111   1.942   2.963  16.375  0.1590  0.2476  0.8447
  337TMC3     O 5112   1.924   2.996  16.490 -0.5987  0.0527 -0.4034
  337TMC3     H 5113   1.839   2.889  16.122  0.4668  1.2212 -1.8475
  337TMC3    H1 5114   1.930   3.214  16.362  1.5589 -2.4608 -0.8744
  337TMC3    H2 5115   1.583   3.233  16.125 -1.5903 -1.4878  1.9277
  337TMC3    C7 5116   1.724   3.376  16.284  0.4867  0.5618 -0.5831
  337TMC3    C8 5117   1.590   2.952  16.101  0.3051  0.3823  0.5620
  337TMC3    O1 5118   1.656   3.449  16.212 -0.2046 -0.3322  0.0425
  337TMC3    O2 5119   1.599   2.840  16.155 -0.8888  0.0737  0.0246
  338MPD2     C 5120   2.257   2.123   1.148 -0.1185  0.0686  0.2556
  338MPD2    C1 5121   2.208   2.166   1.025  0.2524 -0.8700 -0.9810
  338MPD2    C2 5122   2.069   2.152   1.011  0.1137 -0.6149 -1.1312
  338MPD2    C3 5123   1.976   2.116   1.104  0.4694  0.0956  0.1239
  338MPD2    C4 5124   2.024   2.078   1.228 -0.0825 -0.2236  0.5682
  338MPD2    C5 5125   2.161   2.082   1.244 -0.1145  0.0611  0.7080
  338MPD2     H 5126   2.028   2.183   0.915  0.3381  2.4171 -0.2542
  338MPD2    H1 5127   1.969   2.030   1.308 -1.2405  0.4911  0.2163
  338MPD2    H2 5128   2.364   2.106   1.154 -0.1957 -0.3201  0.5266
  338MPD2    H3 5129   2.203   2.038   1.333  2.6255  1.2355 -0.0119
  338MPD2     N 5130   1.838   2.117   1.077 -0.2236  0.3350  0.1652
  338MPD2    H5 5131   1.801   2.171   0.999 -1.7902 -0.6403  0.2407
  338MPD2    N1 5132   2.288   2.185   0.910 -0.5114 -0.1707  0.2088
  338MPD2    H7 5133   2.232   2.184   0.825 -0.6376 -0.1094  0.2908
  339TMC3    C1 5134   1.600   2.080   1.101  0.1815 -0.1541 -0.0392
  339TMC3    C2 5135   1.501   1.994   1.135 -0.0088  0.0343  0.2876
  339TMC3    C3 5136   1.389   1.989   1.059  0.2506 -0.1830  0.4321
  339TMC3    C4 5137   1.582   2.170   1.006  0.1867  0.2155 -0.1203
  339TMC3    C5 5138   1.464   2.173   0.938 -0.1909 -0.1943 -0.4314
  339TMC3    C6 5139   1.372   2.074   0.957 -0.9994  0.0097  0.0350
  339TMC3     C 5140   1.738   2.066   1.156 -0.6309 -0.0576 -0.3679
  339TMC3     O 5141   1.748   2.005   1.265  0.4484 -0.0437 -0.2188
  339TMC3     H 5142   1.520   1.930   1.220  0.8735  0.1182  0.1517
  339TMC3    H1 5143   1.646   2.257   1.002 -4.0511  3.2122 -2.4954
  339TMC3    H2 5144   1.300   2.049   0.879 -1.4439  1.5486 -0.0562
  339TMC3    C7 5145   1.461   2.234   0.809 -0.2242  0.4046 -0.2148
  339TMC3    C8 5146   1.273   1.907   1.099  0.1444  0.2258 -0.1026
  339TMC3    O1 5147   1.570   2.260   0.763 -0.3753  0.1609 -0.0569
  339TMC3    O2 5148   1.182   1.913   1.017 -0.2705 -0.2759 -0.7327
  340MPD2     C 5149   1.940   0.142  10.539 -0.1836 -0.4544 -0.5981
  340MPD2    C1 5150   1.991   0.173  10.414 -0.5463 -0.1003  0.5719
  340MPD2    C2 5151   2.117   0.228  10.396  0.0815  0.2353  0.0150
  340MPD2    C3 5152   2.185   0.271  10.509  0.1662  0.1589 -0.2846
  340MPD2    C4 5153   2.134   0.246  10.634 -0.3047  0.1440 -0.6614
  340MPD2    C5 5154   2.017   0.176  10.646  0.3719  0.1288 -0.2824
  340MPD2     H 5155   2.155   0.242  10.296  0.6238  0.8751  0.3099
  340MPD2    H1 5156   2.196   0.269  10.720 -0.6416  0.6228 -0.5430
  340MPD2    H2 5157   1.852   0.081  10.552  1.2216 -2.5513 -0.8265
  340MPD2    H3 5158   1.988   0.148  10.746  1.4021 -4.5198 -1.2721
  340MPD2     N 5159   2.316   0.326  10.507 -0.1289 -0.0220  0.3300
  340MPD2    H5 5160   2.354   0.340  10.600  1.1684  0.5509 -0.2912
  340MPD2    N1 5161   1.925   0.114  10.303  0.1747  0.1384  0.3138
  340MPD2    H7 5162   1.844   0.057  10.325  1.3366 -1.0223  1.5159
  341TMC3    C1 5163   1.953   0.009  10.092  0.3917 -0.4876 -0.1054
  341TMC3    C2 5164   1.952   4.624  10.156 -0.8451  0.0611 -0.2746
  341TMC3    C3 5165   2.011   4.514  10.090  0.3004  0.1977 -0.8738
  341TMC3    C4 5166   2.018   0.021   9.972  0.0168 -0.0415  0.2240
  341TMC3    C5 5167   2.078   4.650   9.915  0.2023  0.0126  0.4753
  341TMC3    C6 5168   2.071   4.522   9.967 -0.2904  0.2303  0.5122
  341TMC3     C 5169   1.963   0.130  10.175  0.2143  0.0847  0.0847
  341TMC3     O 5170   2.010   0.231  10.121  0.2685  0.2950 -0.2450
  341TMC3     H 5171   1.901   4.606  10.250 -1.0662 -1.2258 -0.6482
  341TMC3    H1 5172   2.032   0.117   9.924  1.4277 -1.2522 -1.7712
  341TMC3    H2 5173   2.109   4.431   9.921  2.3911  1.8702 -0.4997
  341TMC3    C7 5174   2.100   4.666   9.771  0.3438  0.5527 -0.5727
  341TMC3    C8 5175   2.004   4.386  10.158 -0.2257  0.7356 -0.1833
  341TMC3    O1 5176   2.150   0.034   9.737  0.1049  0.3609  0.4597
  341TMC3    O2 5177   1.930   4.383  10.255 -0.2887  0.5071 -0.8994
  342MPD2     C 5178   0.566   3.349  17.604 -0.1549  0.3797 -0.3573
  342MPD2    C1 5179   0.641   3.307  17.496 -0.6911 -0.2428 -0.0071
  342MPD2    C2 5180   0.719   3.397  17.434  0.3906 -0.2204 -0.3517
  342MPD2    C3 5181   0.718   3.536  17.474  0.4992  0.0274 -0.2292
  342MPD2    C4 5182   0.641   3.573  17.584 -0.4273 -0.5652 -0.5497
  342MPD2    C5 5183   0.559   3.481  17.641  0.4520 -0.4042  0.2420
  342MPD2     H 5184   0.779   3.370  17.348  0.3760  0.4487 -0.5660
  342MPD2    H1 5185   0.641   3.677  17.615  1.0029 -0.3086 -1.4081
  342MPD2    H2 5186   0.504   3.282  17.663  0.3630 -0.2677 -0.5392
  342MPD2    H3 5187   0.497   3.521  17.720  2.0107  1.1788  0.6893
  342MPD2     N 5188   0.810   3.632  17.423 -0.9380 -0.4620 -0.5528
  342MPD2    H5 5189   0.816   3.720  17.472 -1.7147 -0.2589 -0.8230
  342MPD2    N1 5190   0.644   3.175  17.446  0.8474 -0.3029  0.0827
  342MPD2    H7 5191   0.697   3.159  17.361  0.0450  1.4113 -0.7520
  343TMC3    C1 5192   0.595   2.943  17.437  0.4513 -0.0291 -0.5113
  343TMC3    C2 5193   0.676   2.930  17.328 -0.4686  0.0880 -1.2653
  343TMC3    C3 5194   0.694   2.804  17.275 -0.4562 -0.7964 -0.2609
  343TMC3    C4 5195   0.526   2.834  17.486 -0.2433 -0.1513 -0.0189
  343TMC3    C5 5196   0.535   2.722  17.423  0.4878 -0.4639 -0.2984
  343TMC3    C6 5197   0.611   2.702  17.309  0.0527  0.1217 -0.4213
  343TMC3     C 5198   0.585   3.065  17.510  0.1584  0.8864  1.0224
  343TMC3     O 5199   0.529   3.061  17.616  0.5109 -0.0074  0.1540
  343TMC3     H 5200   0.739   3.014  17.301  1.1917 -1.1996 -1.3922
  343TMC3    H1 5201   0.466   2.838  17.576  0.9734  2.0905  0.6782
  343TMC3    H2 5202   0.600   2.612  17.251  0.0826  1.0908 -1.9225
  343TMC3    C7 5203   0.460   2.611  17.476 -1.0016 -0.3205  0.5662
  343TMC3    C8 5204   0.776   2.805  17.153 -0.0852 -0.2640 -0.4204
  343TMC3    O1 5205   0.431   2.522  17.400 -0.5258 -1.1253 -0.1301
  343TMC3    O2 5206   0.794   2.915  17.102 -0.5411  0.2890 -0.5056
  344MPD2     C 5207   1.055   2.632  10.350 -0.7081 -0.3884  0.2434
  344MPD2    C1 5208   1.032   2.651  10.482 -0.0335  0.1004 -0.4319
  344MPD2    C2 5209   1.060   2.776  10.538  0.1759 -0.1334  0.3903
  344MPD2    C3 5210   1.096   2.884  10.451 -0.4628 -0.1394  0.1732
  344MPD2    C4 5211   1.118   2.859  10.315  0.4392 -0.3394  0.6862
  344MPD2    C5 5212   1.099   2.732  10.270  1.4305 -0.3524 -0.6088
  344MPD2     H 5213   1.030   2.796  10.641 -0.9146  1.4628 -0.2451
  344MPD2    H1 5214   1.153   2.933  10.244 -1.9439  0.1586  0.0399
  344MPD2    H2 5215   1.032   2.539  10.299 -1.2078  0.0765 -0.3790
  344MPD2    H3 5216   1.109   2.705  10.166 -0.4676 -3.0472 -0.1008
  344MPD2     N 5217   1.129   3.014  10.501 -0.2149 -0.8411 -0.2898
  344MPD2    H5 5218   1.163   3.076  10.429  0.3731 -2.9986 -1.8641
  344MPD2    N1 5219   1.000   2.537  10.574 -0.2727 -0.0618 -0.0687
  344MPD2    H7 5220   0.995   2.447  10.527  0.5398  0.3553 -0.9691
  345TMC3    C1 5221   1.150   3.195  10.649 -0.2144  0.7302  0.0032
  345TMC3    C2 5222   1.173   3.238  10.775  0.0342 -0.1096 -0.0844
  345TMC3    C3 5223   1.248   3.349  10.794  0.1415 -0.2624  0.0015
  345TMC3    C4 5224   1.196   3.275  10.539  0.4205  0.7074  0.4783
  345TMC3    C5 5225   1.255   3.399  10.562 -0.0263 -0.0888  0.1956
  345TMC3    C6 5226   1.288   3.431  10.696  0.3024 -0.8110 -0.1015
  345TMC3     C 5227   1.096   3.061  10.623 -0.2774 -0.6655  0.9229
  345TMC3     O 5228   1.050   3.002  10.717 -0.2350  0.2973  0.4952
  345TMC3     H 5229   1.154   3.167  10.855 -1.3821 -0.5500 -0.8222
  345TMC3    H1 5230   1.163   3.247  10.440  0.4731 -1.8155  1.1653
  345TMC3    H2 5231   1.332   3.527  10.723 -0.3696 -0.8169  1.0404
  345TMC3    C7 5232   1.245   3.504  10.459 -0.4928  0.3399 -0.2986
  345TMC3    C8 5233   1.272   3.397  10.933 -0.1212  0.6854 -0.7589
  345TMC3    O1 5234   1.271   3.616  10.501 -0.5238  0.1320 -0.0298
  345TMC3    O2 5235   1.183   3.372  11.016  0.0735 -0.0816  0.2618
  346MPD2     C 5236   1.256   4.666  14.728 -0.2635 -0.1828  0.2472
  346MPD2    C1 5237   1.354   4.608  14.654 -0.6339  0.0494 -0.0578
  346MPD2    C2 5238   1.455   4.543  14.722  0.4863  0.0027  0.4131
  346MPD2    C3 5239   1.470   4.551  14.863 -0.0732  0.6257 -0.0196
  346MPD2    C4 5240   1.379   4.629  14.930 -0.4635  0.1896 -0.4321
  346MPD2    C5 5241   1.276   4.681  14.860  0.3581  0.8273 -0.9611
  346MPD2     H 5242   1.515   4.475  14.663  0.2071 -0.5206  0.7331
  346MPD2    H1 5243   1.391   4.662  15.032 -0.1209  0.3008 -0.5068
  346MPD2    H2 5244   1.169   4.717  14.688  1.1380  0.3689 -2.0919
  346MPD2    H3 5245   1.201   0.002  14.913  1.6145  2.4085 -0.9213
  346MPD2     N 5246   1.566   4.474  14.927 -0.2213 -0.2867 -0.3444
  346MPD2    H5 5247   1.626   4.419  14.867  1.7948  0.1432  1.2612
  346MPD2    N1 5248   1.350   4.588  14.513 -0.1956  0.5352  0.9935
  346MPD2    H7 5249   1.430   4.539  14.473 -1.5298 -0.7909 -0.0317
  347TMC3    C1 5250   1.670   4.357  15.111  0.9643  0.0219  0.5890
  347TMC3    C2 5251   1.802   4.365  15.063  0.1648  0.4652 -0.0300
  347TMC3    C3 5252   1.903   4.344  15.152 -0.0882  0.0869  0.1282
  347TMC3    C4 5253   1.642   4.329  15.241  0.3478 -0.2590  0.6029
  347TMC3    C5 5254   1.751   4.299  15.320 -0.2537  0.0939  0.8578
  347TMC3    C6 5255   1.881   4.306  15.283 -0.4770  0.8850 -0.1517
  347TMC3     C 5256   1.568   4.449  15.062  0.1882 -0.5446 -0.3550
  347TMC3     O 5257   1.499   4.510  15.148  0.3967 -0.6117  0.3187
  347TMC3     H 5258   1.818   4.427  14.975 -0.5502 -0.4635 -0.8114
  347TMC3    H1 5259   1.542   4.320  15.280  0.0764 -0.4081 -0.1380
  347TMC3    H2 5260   1.959   4.266  15.346 -0.1556 -0.2727 -1.2731
  347TMC3    C7 5261   1.723   4.252  15.462 -0.1634  0.0167  0.3595
  347TMC3    C8 5262   2.043   4.360  15.118 -0.2822  0.1214 -0.0069
  347TMC3    O1 5263   1.604   4.230  15.492 -0.0347 -0.0365 -0.2265
  347TMC3    O2 5264   2.119   4.397  15.205 -0.0667 -0.2177 -0.2265
  348MPD2     C 5265   4.450   3.876  12.201  0.1403 -0.0767  0.1152
  348MPD2    C1 5266   4.531   3.990  12.199 -0.0881 -0.4006  0.0622
  348MPD2    C2 5267   4.496   4.104  12.130  0.3986 -0.4361 -0.1340
  348MPD2    C3 5268   4.379   4.108  12.058 -0.7041 -0.0838 -0.1291
  348MPD2    C4 5269   4.300   3.996  12.059 -0.3444 -0.0444 -0.2639
  348MPD2    C5 5270   4.330   3.885  12.133 -0.2648  0.4528  0.2201
  348MPD2     H 5271   4.568   4.184  12.121  0.8470 -0.8387 -0.0986
  348MPD2    H1 5272   4.204   3.989  12.009  0.7795 -0.1156 -2.3961
  348MPD2    H2 5273   4.476   3.783  12.250 -1.3670  1.0487  3.0746
  348MPD2    H3 5274   4.257   3.804  12.125  1.0354 -0.8435  1.4184
  348MPD2     N 5275   4.349   4.224  11.978  0.2907  0.0711  0.0444
  348MPD2    H5 5276   4.412   4.304  11.973  1.5158 -1.0436 -2.2423
  348MPD2    N1 5277   4.659   3.994  12.268  0.4094 -0.0466  0.7516
  348MPD2    H7 5278   4.718   4.073  12.244  1.6876 -1.5177 -0.9117
  349TMC3    C1 5279   0.124   3.914  12.357 -0.2866  0.3469  0.2444
  349TMC3    C2 5280   0.182   3.794  12.400  0.3057 -0.2962  0.1826
  349TMC3    C3 5281   0.268   3.735  12.314  0.1718  0.5377  0.0729
  349TMC3    C4 5282   0.169   3.978  12.250  0.0429 -0.2169 -0.1812
  349TMC3    C5 5283   0.238   3.904  12.150  0.6546 -0.0295  0.2744
  349TMC3    C6 5284   0.291   3.779  12.190  0.8788 -0.3088 -0.5142
  349TMC3     C 5285   4.717   3.890  12.338 -0.4367  0.5389 -1.1808
  349TMC3     O 5286   4.669   3.781  12.361  0.1474  0.2797  0.0013
  349TMC3     H 5287   0.160   3.746  12.495  1.2718 -1.0236  0.0407
  349TMC3    H1 5288   0.147   4.083  12.238  2.5420  0.2747 -0.4283
  349TMC3    H2 5289   0.349   3.725  12.116  1.9906 -2.9653  2.2906
  349TMC3    C7 5290   0.163   3.900  12.021  0.1428  0.2298 -0.5569
  349TMC3    C8 5291   0.343   3.616  12.361  0.1585  0.2238 -0.5996
  349TMC3    O1 5292   0.123   3.793  11.982  0.2150  0.0737 -0.3645
  349TMC3    O2 5293   0.302   3.563  12.463  0.6424 -0.0053 -0.2040
  350MPD2     C 5294   3.751   2.704  10.382 -1.0266  0.3562 -0.3440
  350MPD2    C1 5295   3.822   2.590  10.340 -0.5004  0.9475 -0.4749
  350MPD2    C2 5296   3.954   2.586  10.377 -0.4065 -0.8698 -0.1971
  350MPD2    C3 5297   4.008   2.698  10.437  0.3103  0.3478 -0.4527
  350MPD2    C4 5298   3.937   2.816  10.461  0.2114 -0.6825  0.3902
  350MPD2    C5 5299   3.809   2.813  10.435 -0.1494 -0.2744  0.9358
  350MPD2     H 5300   4.004   2.493  10.351  1.4278 -0.8195  3.1410
  350MPD2    H1 5301   3.971   2.909  10.504  0.4638 -0.2655 -0.7001
  350MPD2    H2 5302   3.646   2.720  10.363 -0.7816  0.4153 -1.6725
  350MPD2    H3 5303   3.755   2.907  10.448 -1.1482 -0.7011 -0.0964
  350MPD2     N 5304   4.141   2.677  10.483 -0.2514  0.0529  0.5663
  350MPD2    H5 5305   4.187   2.596  10.442  2.5190  2.3985 -0.9492
  350MPD2    N1 5306   3.757   2.483  10.270 -0.1479 -0.0638 -0.1738
  350MPD2    H7 5307   3.812   2.403  10.240  0.7202  1.1846 -1.8779
  351TMC3    C1 5308   3.572   2.331  10.240 -0.5788 -0.1133  0.3456
  351TMC3    C2 5309   3.653   2.237  10.193 -0.6416 -0.7526 -0.4981
  351TMC3    C3 5310   3.601   2.114  10.176  0.0744 -0.2338  0.0097
  351TMC3    C4 5311   3.435   2.305  10.274 -0.8631 -0.4012 -0.4243
  351TMC3    C5 5312   3.395   2.172  10.261  0.5749 -0.8819  0.2585
  351TMC3    C6 5313   3.476   2.080  10.209 -0.3848  0.1145  0.3639
  351TMC3     C 5314   3.621   2.468  10.258  0.2566  0.8965  0.6313
  351TMC3     O 5315   3.536   2.535  10.316 -0.0610 -0.2208  0.4071
  351TMC3     H 5316   3.760   2.247  10.176 -0.2308 -1.5586  1.5738
  351TMC3    H1 5317   3.367   2.387  10.294 -0.1808 -0.1319  0.8068
  351TMC3    H2 5318   3.444   1.977  10.207 -0.6376  0.1940  0.3469
  351TMC3    C7 5319   3.246   2.151  10.280  0.2817 -0.8074  1.1064
  351TMC3    C8 5320   3.695   2.011  10.141  0.6798 -0.3043 -0.1137
  351TMC3    O1 5321   3.182   2.239  10.344 -0.3609 -0.8252 -0.1549
  351TMC3    O2 5322   3.764   2.050  10.049  0.4589  0.8796  0.4471
  352MPD2     C 5323   2.392   4.289   1.298 -0.2463 -0.4189  0.0316
  352MPD2    C1 5324   2.280   4.227   1.343 -0.8534  0.4079  0.4017
  352MPD2    C2 5325   2.293   4.118   1.425  0.7550 -0.0883 -0.5530
  352MPD2    C3 5326   2.418   4.070   1.460  0.4528  0.1482 -0.5187
  352MPD2    C4 5327   2.534   4.130   1.402  0.7755  0.1123 -0.3133
  352MPD2    C5 5328   2.514   4.245   1.330  0.5856  0.5152  1.0420
  352MPD2     H 5329   2.197   4.074   1.452  0.9807 -0.7023 -0.7418
  352MPD2    H1 5330   2.634   4.091   1.415  1.1266  1.2024  0.2042
  352MPD2    H2 5331   2.384   4.376   1.234 -2.8022 -1.8103 -1.5452
  352MPD2    H3 5332   2.606   4.295   1.301  1.2383 -0.6723  1.0327
  352MPD2     N 5333   2.430   3.956   1.539  0.3867  0.4071  0.4111
  352MPD2    H5 5334   2.520   3.909   1.537 -0.3556 -1.0144  0.4681
  352MPD2    N1 5335   2.148   4.257   1.304  0.1631 -0.6659 -0.3822
  352MPD2    H7 5336   2.067   4.211   1.346 -0.2945  2.0905  1.7785
  353TMC3    C1 5337   2.359   3.755   1.640  0.3310  0.0721 -0.1921
  353TMC3    C2 5338   2.488   3.731   1.681  0.4399 -0.6107 -0.2145
  353TMC3    C3 5339   2.520   3.600   1.680 -0.1400  0.3362 -0.2008
  353TMC3    C4 5340   2.265   3.662   1.618  0.6285  0.1457  0.2585
  353TMC3    C5 5341   2.301   3.529   1.631  0.3315 -0.5485  0.0336
  353TMC3    C6 5342   2.431   3.494   1.649  0.4492 -0.4654 -0.2060
  353TMC3     C 5343   2.324   3.888   1.590 -0.1488  0.2235  0.5122
  353TMC3     O 5344   2.211   3.926   1.614  0.4154 -0.3219  0.0923
  353TMC3     H 5345   2.566   3.805   1.695 -0.6449  0.0858  2.1524
  353TMC3    H1 5346   2.167   3.693   1.582  0.8631  1.0645  0.4290
  353TMC3    H2 5347   2.457   3.388   1.651  1.1255 -0.3170 -1.7111
  353TMC3    C7 5348   2.204   3.429   1.585  0.3139 -0.7810 -0.0089
  353TMC3    C8 5349   2.658   3.570   1.714  0.0126 -0.3062 -0.4154
  353TMC3    O1 5350   2.252   3.328   1.531  0.1654  0.9094  0.1359
  353TMC3    O2 5351   2.716   3.654   1.779  0.2263  0.0789 -0.0579
  354TMC3    C1 5352   3.717   0.547  13.668  0.2110  0.5588 -0.9486
  354TMC3    C2 5353   3.698   0.680  13.648  0.9844 -0.5253 -0.3429
  354TMC3    C3 5354   3.707   0.723  13.524 -0.8833 -0.9635 -0.1435
  354TMC3    C4 5355   3.741   0.458  13.565 -0.1422 -0.7893  0.6422
  354TMC3    C5 5356   3.771   0.509  13.443 -0.0734  0.0850  0.4175
  354TMC3    C6 5357   3.754   0.641  13.421  0.1460 -0.0740  0.0432
  354TMC3     C 5358   3.718   0.498  13.803  0.2574  0.1636  0.4139
  354TMC3     O 5359   3.752   0.384  13.836  0.2950 -0.4071 -0.7373
  354TMC3     H 5360   3.661   0.753  13.719  1.8538 -2.3934  2.0547
  354TMC3    H1 5361   3.753   0.353  13.588 -0.5333 -0.9089  0.3170
  354TMC3    H2 5362   3.746   0.684  13.322  2.3254  1.8901  0.7161
  354TMC3    C7 5363   3.825   0.419  13.339  0.4539  0.3313 -0.6542
  354TMC3    C8 5364   3.685   0.863  13.501  0.0059  0.3618 -0.8803
  354TMC3    O1 5365   3.829   0.303  13.368  0.6335 -0.2640 -0.2983
  354TMC3    O2 5366   3.620   0.917  13.588  0.2324  0.5922 -0.0079
  355MPD2     C 5367   4.584   1.085  12.431  0.2087 -0.2531 -0.1754
  355MPD2    C1 5368   4.544   1.126  12.306 -0.0953  0.0032  0.3435
  355MPD2    C2 5369   4.618   1.228  12.246 -0.5401  0.1638  0.4284
  355MPD2    C3 5370   4.720   1.292  12.312  1.0098  0.1597 -0.3150
  355MPD2    C4 5371   0.015   1.260  12.443 -0.0737 -0.8616  0.1921
  355MPD2    C5 5372   4.691   1.149  12.500 -0.9445  0.2899  0.0760
  355MPD2     H 5373   4.575   1.264  12.153 -0.9407  1.4769  1.1242
  355MPD2    H1 5374   0.082   1.324  12.499  0.0076  0.3749 -1.3084
  355MPD2    H2 5375   4.550   0.990  12.469  1.4697 -1.5841 -2.3901
  355MPD2    H3 5376   4.717   1.121  12.602  1.3002  3.2425  0.3298
  355MPD2     N 5377   0.036   1.412  12.268  0.6313 -0.1598  0.2816
  355MPD2    H5 5378   0.092   1.457  12.339  1.0954  0.3202 -0.3962
  355MPD2    N1 5379   4.423   1.084  12.249  0.3802 -0.7304 -0.7762
  355MPD2    H7 5380   4.395   0.995  12.289  1.4408 -1.0086 -0.6372
  356TMC3    C1 5381   0.047   1.596  12.125 -0.0838  0.2579 -0.1987
  356TMC3    C2 5382   0.048   1.643  11.995  0.3354  0.8071  0.1067
  356TMC3    C3 5383   0.102   1.769  11.983  0.4739  0.2860  0.0691
  356TMC3    C4 5384   0.074   1.674  12.235 -0.2151  0.0425 -0.0647
  356TMC3    C5 5385   0.114   1.807  12.217 -0.6167  0.7297 -0.1488
  356TMC3    C6 5386   0.125   1.857  12.090  0.1275 -0.2680  0.0304
  356TMC3     C 5387   0.010   1.461  12.140 -0.6240  0.4273 -0.5717
  356TMC3     O 5388   4.698   1.409  12.041  0.2233  0.1041 -0.3714
  356TMC3     H 5389   0.034   1.572  11.915  1.4905  2.3949 -1.5162
  356TMC3    H1 5390   0.059   1.635  12.336 -0.9447 -1.4921 -0.7675
  356TMC3    H2 5391   0.158   1.959  12.074 -0.8149 -0.2796 -1.8947
  356TMC3    C7 5392   0.159   1.876  12.330  0.3390  0.1341 -0.5580
  356TMC3    C8 5393   0.133   1.809  11.853 -0.6756 -0.3222  0.0638
  356TMC3    O1 5394   0.143   1.813  12.436  0.3352  0.1303 -0.1728
  356TMC3    O2 5395   0.088   1.748  11.761 -0.1714  0.2517  0.7390
  357MPD2     C 5396   4.281   1.539   1.454  0.2423  0.5403 -0.0013
  357MPD2    C1 5397   4.278   1.407   1.480  0.1924  0.4321  0.1379
  357MPD2    C2 5398   4.161   1.337   1.499 -0.2947 -0.2074 -0.2853
  357MPD2    C3 5399   4.040   1.404   1.488 -0.2941  0.4839  0.1140
  357MPD2    C4 5400   4.046   1.542   1.469 -0.1717  0.0267 -0.3144
  357MPD2    C5 5401   4.164   1.605   1.446  0.3085 -0.5365  0.4727
  357MPD2     H 5402   4.166   1.229   1.510  2.3623  0.0294  0.9007
  357MPD2    H1 5403   3.957   1.604   1.475 -0.8017 -0.7184 -2.2051
  357MPD2    H2 5404   4.373   1.587   1.422  1.4182 -1.0775  0.8915
  357MPD2    H3 5405   4.176   1.711   1.432  1.3278 -1.3213 -4.3005
  357MPD2     N 5406   3.904   1.352   1.512 -0.3361  0.2683 -0.0212
  357MPD2    H5 5407   3.824   1.413   1.520  0.5751  1.4133  0.3476
  357MPD2    N1 5408   4.398   1.337   1.502  0.0018 -0.1374 -0.1859
  357MPD2    H7 5409   4.382   1.239   1.523  0.5246 -0.6050 -1.9059
  358TMC3    C1 5410   4.634   1.284   1.482  0.1990 -0.7959  0.0181
  358TMC3    C2 5411   4.603   1.154   1.450  0.6081  0.1626 -0.0131
  358TMC3    C3 5412   4.697   1.059   1.458  0.6650 -1.0700  0.6628
  358TMC3    C4 5413   0.028   1.318   1.506  0.0837  0.1983 -0.6844
  358TMC3    C5 5414   0.122   1.219   1.520  0.3286  0.6619 -0.0991
  358TMC3    C6 5415   0.080   1.088   1.509 -0.4713  0.4626 -0.0774
  358TMC3     C 5416   4.527   1.387   1.472  0.5631 -0.2332  0.7002
  358TMC3     O 5417   4.572   1.499   1.449  0.2165  0.3890 -0.1605
  358TMC3     H 5418   4.507   1.120   1.413  0.7353  2.0829 -2.0788
  358TMC3    H1 5419   0.053   1.418   1.539  0.0850 -1.0147  2.9260
  358TMC3    H2 5420   0.160   1.016   1.497 -0.0600  0.5387  2.0602
  358TMC3    C7 5421   0.263   1.253   1.534 -0.0499 -0.6661 -0.6215
  358TMC3    C8 5422   4.678   0.931   1.393 -0.0029 -0.3575 -0.4572
  358TMC3    O1 5423   0.322   1.151   1.558 -0.4099  0.7037  0.6040
  358TMC3    O2 5424   4.564   0.914   1.346  0.4720 -0.1909  0.5385
  359MPD2     C 5425   4.428   4.426  12.365 -0.3539  0.2623  0.1576
  359MPD2    C1 5426   4.332   4.487  12.284  0.3676 -0.2291 -0.9524
  359MPD2    C2 5427   4.216   4.420  12.260 -0.4694  0.0633  0.4262
  359MPD2    C3 5428   4.198   4.290  12.307  0.2635 -0.2981 -0.0657
  359MPD2    C4 5429   4.291   4.237  12.391 -0.1275  0.0980 -0.1854
  359MPD2    C5 5430   4.403   4.303  12.418 -0.4510 -0.7056 -0.4811
  359MPD2     H 5431   4.140   4.464  12.197 -0.8693 -1.6262 -0.2833
  359MPD2    H1 5432   4.286   4.135  12.427  1.2760 -0.2952 -1.0878
  359MPD2    H2 5433   4.521   4.474  12.391  1.0543 -1.9376 -0.8636
  359MPD2    H3 5434   4.484   4.267  12.481 -0.4338 -0.1434 -0.1804
  359MPD2     N 5435   4.082   4.205  12.283 -0.5159 -0.6954  0.2551
  359MPD2    H5 5436   4.091   4.123  12.342 -1.7650  0.2064  1.6817
  359MPD2    N1 5437   4.333   4.622  12.255 -0.2235  0.2045  0.1828
  359MPD2    H7 5438   4.244   4.661  12.227  0.6594  2.6137  0.7121
  360TMC3    C1 5439   4.411   0.099  12.195 -1.0233 -0.2960  0.4259
  360TMC3    C2 5440   4.498   0.197  12.225 -0.1069  0.1271 -0.2006
  360TMC3    C3 5441   4.508   0.309  12.149 -0.0843 -0.0803  0.3757
  360TMC3    C4 5442   4.344   0.094  12.079  0.1841 -0.0177  0.2306
  360TMC3    C5 5443   4.360   0.202  11.995  0.0526 -0.0292  0.3398
  360TMC3    C6 5444   4.433   0.318  12.033  0.3249  0.7941  0.2824
  360TMC3     C 5445   4.442   4.705  12.252  0.1556 -0.0685 -0.1935
  360TMC3     O 5446   4.557   4.676  12.262 -0.7790 -0.2763 -0.1469
  360TMC3     H 5447   4.545   0.188  12.323 -0.7543 -1.3756 -0.0253
  360TMC3    H1 5448   4.294   0.004  12.045 -0.5849  0.4497  0.1244
  360TMC3    H2 5449   4.457   0.392  11.957 -0.1787 -2.6353 -3.2228
  360TMC3    C7 5450   4.337   0.179  11.854  0.0786 -0.2657 -0.1265
  360TMC3    C8 5451   4.623   0.391  12.164 -0.2750  0.9472  0.5791
  360TMC3    O1 5452   4.379   0.264  11.776  0.0697 -0.2879 -0.3861
  360TMC3    O2 5453   4.603   0.496  12.100  0.0854 -0.1133  0.3688
  361MPD2     C 5454   1.444   4.049  17.092  0.3651  0.1173 -0.4616
  361MPD2    C1 5455   1.416   3.935  17.018 -0.4070 -0.7784  0.6602
  361MPD2    C2 5456   1.510   3.831  17.013 -0.0967 -0.6339 -0.4322
  361MPD2    C3 5457   1.624   3.839  17.093  0.3328 -0.4830  0.4876
  361MPD2    C4 5458   1.652   3.956  17.157  0.0398 -0.5090  0.7042
  361MPD2    C5 5459   1.558   4.058  17.164 -0.9771 -0.1881  1.3780
  361MPD2     H 5460   1.494   3.746  16.947  1.1659 -3.3817  2.8240
  361MPD2    H1 5461   1.744   3.969  17.213  0.0448  0.5769  0.4272
  361MPD2    H2 5462   1.367   4.123  17.108  0.0399 -0.0030 -1.4611
  361MPD2    H3 5463   1.573   4.145  17.226  1.4689 -0.3140  0.9486
  361MPD2     N 5464   1.712   3.731  17.105 -0.5904 -0.2022  0.1219
  361MPD2    H5 5465   1.790   3.742  17.170  0.1057  1.0391 -0.9128
  361MPD2    N1 5466   1.301   3.907  16.949  0.2068  0.3639  0.2419
  361MPD2    H7 5467   1.293   3.812  16.914 -0.1696  1.7482 -3.4359
  362TMC3    C1 5468   1.086   3.944  16.855  1.2201 -0.2949  0.1562
  362TMC3    C2 5469   1.052   3.815  16.871  0.3376  0.4390  0.0453
  362TMC3    C3 5470   0.935   3.765  16.830 -0.1695  0.0779  0.7180
  362TMC3    C4 5471   1.009   4.023  16.772  0.5635 -0.0492 -0.2489
  362TMC3    C5 5472   0.893   3.974  16.723 -0.3774  0.2892  0.4385
  362TMC3    C6 5473   0.853   3.846  16.753 -0.1265  0.0476  0.1053
  362TMC3     C 5474   1.204   4.002  16.915 -0.5567 -0.1204  0.3353
  362TMC3     O 5475   1.200   4.128  16.932 -0.0079 -0.0387 -0.4157
  362TMC3     H 5476   1.117   3.749  16.927  1.1613 -0.0858 -1.5600
  362TMC3    H1 5477   1.036   4.127  16.760  2.6741 -0.4667  0.6524
  362TMC3    H2 5478   0.755   3.803  16.734  0.0741  0.4623 -1.8500
  362TMC3    C7 5479   0.814   4.061  16.645 -0.4774 -0.2816  0.1709
  362TMC3    C8 5480   0.868   3.669  16.909 -0.0216 -0.4145  0.3557
  362TMC3    O1 5481   0.837   4.181  16.667  0.2305 -0.7651  0.1657
  362TMC3    O2 5482   0.907   3.553  16.901 -0.4347 -0.3041  0.0393
  363TMC3    C1 5483   0.183   1.986   9.743  0.6521  0.2041 -0.3256
  363TMC3    C2 5484   0.178   1.849   9.748 -0.1608 -0.0717  0.9884
  363TMC3    C3 5485   0.065   1.798   9.797  0.1002 -0.0357 -0.4906
  363TMC3    C4 5486   0.088   2.067   9.790 -0.7136  0.1931 -0.3365
  363TMC3    C5 5487   4.706   2.008   9.828 -0.0807 -0.1157 -1.0150
  363TMC3    C6 5488   4.699   1.872   9.836 -0.6271 -0.8452  0.2524
  363TMC3     C 5489   0.313   2.045   9.708  0.1270  0.2663 -0.7326
  363TMC3     O 5490   0.398   1.977   9.651  0.2206 -0.2334 -0.0999
  363TMC3     H 5491   0.263   1.789   9.718 -0.7745 -0.9388  1.0091
  363TMC3    H1 5492   0.089   2.175   9.779  0.5075  0.3119  0.9951
  363TMC3    H2 5493   4.625   1.820   9.895  0.7339 -1.1971  1.6668
  363TMC3    C7 5494   4.605   2.091   9.892 -0.2116  0.6916  0.4889
  363TMC3    C8 5495   0.054   1.649   9.798 -0.4314 -0.1405  0.2746
  363TMC3    O1 5496   4.637   2.207   9.902  0.6340 -0.1097  0.0936
  363TMC3    O2 5497   4.685   1.595   9.763  0.4861  0.5895  0.0793
  364MPD2     C 5498   3.492   1.114  10.593 -0.0017 -0.1778 -0.2994
  364MPD2    C1 5499   3.539   1.110  10.461  0.2542  1.3634  0.0598
  364MPD2    C2 5500   3.556   0.983  10.404  0.6260 -0.6964 -0.5810
  364MPD2    C3 5501   3.531   0.864  10.470  0.0900 -0.7178  0.8967
  364MPD2    C4 5502   3.466   0.879  10.592 -0.1623  0.3679  0.4153
  364MPD2    C5 5503   3.463   0.996  10.660  0.3227 -0.1818 -0.0214
  364MPD2     H 5504   3.585   0.978  10.299 -0.2948  1.3733 -0.9360
  364MPD2    H1 5505   3.434   0.793  10.650 -0.1874 -0.0380 -0.2031
  364MPD2    H2 5506   3.457   1.208  10.634  0.3518 -0.0184 -0.3602
  364MPD2    H3 5507   3.407   1.001  10.753 -0.5395  0.5406 -0.5736
  364MPD2     N 5508   3.548   0.737  10.420 -0.0201  0.4609  0.1583
  364MPD2    H5 5509   3.521   0.654  10.471  0.6536 -0.5358 -1.1159
  364MPD2    N1 5510   3.547   1.232  10.387 -0.0851  0.2848  0.5388
  364MPD2    H7 5511   3.523   1.316  10.438 -2.1420  0.1017 -0.1429
  365TMC3    C1 5512   3.552   1.380  10.206  0.3615 -0.0820  0.5407
  365TMC3    C2 5513   3.576   1.408  10.075 -0.4685 -0.1731  0.2837
  365TMC3    C3 5514   3.536   1.529  10.025  0.1790 -0.0778  0.0293
  365TMC3    C4 5515   3.457   1.452  10.277  0.1717 -0.0440  0.9814
  365TMC3    C5 5516   3.408   1.565  10.216  0.0403  0.1860 -0.0337
  365TMC3    C6 5517   3.449   1.608  10.090  0.2975 -0.8732 -0.2133
  365TMC3     C 5518   3.585   1.247  10.256 -0.2289  0.0135 -0.5402
  365TMC3     O 5519   3.632   1.165  10.176 -0.1533  0.2917  0.6714
  365TMC3     H 5520   3.634   1.339  10.014  0.5387  1.3882 -0.5216
  365TMC3    H1 5521   3.438   1.436  10.383 -1.1084 -3.1619  0.2634
  365TMC3    H2 5522   3.410   1.702  10.053 -1.7279 -0.0994  3.7798
  365TMC3    C7 5523   3.312   1.657  10.281  0.3820  0.3692  0.8131
  365TMC3    C8 5524   3.557   1.562   9.884  0.5666  0.1417  0.3827
  365TMC3    O1 5525   3.317   1.775  10.248  0.3266 -0.2903 -0.1025
  365TMC3    O2 5526   3.489   1.660   9.846  0.4503  0.2473 -0.4643
  366MPD2     C 5527   1.614   2.064  15.013  0.1099  0.9755 -0.4250
  366MPD2    C1 5528   1.729   2.142  15.035  0.4855  0.4684  0.0990
  366MPD2    C2 5529   1.846   2.071  15.042  0.4540 -0.4298 -0.1480
  366MPD2    C3 5530   1.851   1.936  15.040 -0.1658  0.6611 -0.1146
  366MPD2    C4 5531   1.736   1.862  15.018  0.0455 -1.0114 -0.4148
  366MPD2    C5 5532   1.618   1.928  15.001 -0.0574 -0.9426 -0.0033
  366MPD2     H 5533   1.942   2.118  15.060 -0.6646  1.1482  1.7801
  366MPD2    H1 5534   1.747   1.755  15.004  1.0825 -1.0465  0.7360
  366MPD2    H2 5535   1.513   2.104  15.012 -0.2385  0.1503  1.0457
  366MPD2    H3 5536   1.529   1.868  14.989 -0.2486 -0.6895  0.1599
  366MPD2     N 5537   1.982   1.887  15.051 -0.6942 -0.1073 -0.7167
  366MPD2    H5 5538   2.052   1.961  15.056 -0.1713 -0.7712  2.0012
  366MPD2    N1 5539   1.726   2.285  15.048  0.0260  0.0235  0.0801
  366MPD2    H7 5540   1.818   2.327  15.045 -0.3004  0.9377  3.2927
  367TMC3    C1 5541   1.661   2.509  15.067  0.0989 -0.3008 -0.0969
  367TMC3    C2 5542   1.763   2.532  15.157  0.1075  0.1846 -0.5179
  367TMC3    C3 5543   1.767   2.642  15.227  0.1818 -0.6443  0.1227
  367TMC3    C4 5544   1.572   2.609  15.034 -0.2873  0.5080  0.4249
  367TMC3    C5 5545   1.573   2.718  15.110  0.6661 -0.4657 -0.0821
  367TMC3    C6 5546   1.660   2.732  15.210 -0.2948  0.0911 -0.6232
  367TMC3     C 5547   1.623   2.374  15.029  0.3687  0.0591  0.1019
  367TMC3     O 5548   1.508   2.350  14.990  0.4781  0.3115  0.0353
  367TMC3     H 5549   1.826   2.455  15.200  0.1067 -0.3898 -1.5557
  367TMC3    H1 5550   1.500   2.585  14.957  0.8648 -1.6754  0.0169
  367TMC3    H2 5551   1.660   2.823  15.269  0.7084  0.1298 -0.6717
  367TMC3    C7 5552   1.443   2.780  15.136 -0.5339  0.6256 -0.3844
  367TMC3    C8 5553   1.842   2.644  15.354  0.5541  0.3101 -0.0394
  367TMC3    O1 5554   1.426   2.823  15.249 -0.4795  0.4771 -0.6099
  367TMC3    O2 5555   1.922   2.556  15.377 -0.3207 -0.2186 -0.3801
  368MPD2     C 5556   2.613   4.084  13.186 -0.0395  0.6376 -0.0705
  368MPD2    C1 5557   2.688   4.189  13.158 -0.0516 -0.2090 -0.5543
  368MPD2    C2 5558   2.822   4.189  13.174 -0.0888  0.1533 -0.1792
  368MPD2    C3 5559   2.884   4.074  13.212  0.4070  0.5977 -0.3161
  368MPD2    C4 5560   2.808   3.964  13.249 -0.0168  0.0709  0.2545
  368MPD2    C5 5561   2.667   3.970  13.244  0.2155  0.3963  0.4262
  368MPD2     H 5562   2.880   4.278  13.152  1.3781 -0.7749 -0.0662
  368MPD2    H1 5563   2.852   3.873  13.287 -0.2410 -1.4511 -3.0944
  368MPD2    H2 5564   2.505   4.087  13.184 -0.0766 -1.3149 -0.4811
  368MPD2    H3 5565   2.603   3.891  13.283 -0.2187  0.1348 -0.8095
  368MPD2     N 5566   3.028   4.053  13.220 -0.4546 -0.0647  0.1571
  368MPD2    H5 5567   3.058   3.960  13.247 -0.5693  0.9422  3.7032
  368MPD2    N1 5568   2.605   4.292  13.116 -0.0441  0.2455 -0.2086
  368MPD2    H7 5569   2.507   4.265  13.123  0.2167 -0.9778 -1.2576
  369TMC3    C1 5570   2.526   4.482  13.011 -0.3887  0.4321  0.9280
  369TMC3    C2 5571   2.556   4.523  12.882 -0.0042 -0.4847 -0.2604
  369TMC3    C3 5572   2.462   4.505  12.782  0.3925  0.5213  0.3502
  369TMC3    C4 5573   2.403   4.422  13.047  0.1261  1.1100 -0.0270
  369TMC3    C5 5574   2.308   4.415  12.946 -0.0406 -0.6271 -1.2819
  369TMC3    C6 5575   2.334   4.451  12.816 -0.3365 -0.2932 -1.1601
  369TMC3     C 5576   2.641   4.418  13.070  0.2567 -0.5770 -0.1665
  369TMC3     O 5577   2.752   4.469  13.068  0.1002 -0.3589  0.4171
  369TMC3     H 5578   2.657   4.553  12.857 -0.4796  1.8493  0.5658
  369TMC3    H1 5579   2.379   4.415  13.153 -2.7497  1.2235 -0.6786
  369TMC3    H2 5580   2.272   4.413  12.736 -1.4263 -0.6277 -0.1652
  369TMC3    C7 5581   2.235   4.297  12.978  0.6545  0.2640  0.5287
  369TMC3    C8 5582   2.506   4.529  12.645  0.8114  0.4795 -0.1538
  369TMC3    O1 5583   2.287   4.219  13.057  0.1355  0.4948 -0.5218
  369TMC3    O2 5584   2.625   4.538  12.639  0.1017  0.5065 -0.0303
  370TMC3    C1 5585   2.358   4.730  16.392  0.2180  0.6570  0.0103
  370TMC3    C2 5586   2.272   4.658  16.470 -0.1849 -0.2509 -0.4574
  370TMC3    C3 5587   2.227   4.537  16.425 -0.1318  0.7018  0.2493
  370TMC3    C4 5588   2.403   4.675  16.275 -0.0112  0.7610  0.2263
  370TMC3    C5 5589   2.357   4.553  16.235  0.0065 -0.6138 -0.1654
  370TMC3    C6 5590   2.278   4.477  16.313  0.7328  0.1876  0.1154
  370TMC3     C 5591   2.456   0.087  16.457  0.5412 -0.0049  0.5513
  370TMC3     O 5592   2.473   0.065  16.577  0.9808 -0.2913  0.4375
  370TMC3     H 5593   2.232   4.722  16.547  0.3069  0.9354 -1.1778
  370TMC3    H1 5594   2.476   4.731  16.218 -0.7226  2.0790  0.6119
  370TMC3    H2 5595   2.227   4.387  16.279 -0.3188  0.1500  1.7818
  370TMC3    C7 5596   2.418   4.507  16.114 -0.5884  0.0015  0.3009
  370TMC3    C8 5597   2.187   4.444  16.528  0.0402  0.1302 -0.1045
  370TMC3    O1 5598   2.449   4.595  16.039 -0.0156 -0.2506  0.4917
  370TMC3    O2 5599   2.191   4.325  16.500 -0.3382 -0.1361 -0.2754
  371TMC3    C1 5600   3.657   2.897  15.714 -0.0661  0.0890  0.0651
  371TMC3    C2 5601   3.522   2.884  15.691 -0.5969 -0.0064 -0.2537
  371TMC3    C3 5602   3.456   3.005  15.659  0.3873  0.1751 -0.2131
  371TMC3    C4 5603   3.722   3.015  15.703 -0.8650 -0.0741 -0.5828
  371TMC3    C5 5604   3.653   3.126  15.663  0.0371  0.1359  0.1676
  371TMC3    C6 5605   3.525   3.120  15.649  0.0785  0.0600 -0.1784
  371TMC3     C 5606   3.732   2.789  15.768  0.2876 -0.6033  0.1784
  371TMC3     O 5607   3.842   2.819  15.814  0.3860  0.5912 -0.2955
  371TMC3     H 5608   3.462   2.795  15.708  1.2209 -1.0268  0.9031
  371TMC3    H1 5609   3.830   3.013  15.715 -0.6020  1.3418 -2.6277
  371TMC3    H2 5610   3.481   3.210  15.607 -0.4215  0.7308  1.7745
  371TMC3    C7 5611   3.727   3.247  15.624 -0.0359  0.0484 -0.5226
  371TMC3    C8 5612   3.315   3.006  15.628  0.0350  0.0115  0.1297
  371TMC3    O1 5613   3.666   3.352  15.621  0.0144 -0.5944  0.9163
  371TMC3    O2 5614   3.266   2.901  15.589 -0.2869 -0.1644 -0.0300
  372MPD2     C 5615   2.784   4.500  13.428 -0.1815 -0.7164 -0.0054
  372MPD2    C1 5616   2.905   4.440  13.444 -0.2405 -0.0430  0.3761
  372MPD2    C2 5617   2.904   4.306  13.478  0.0703  0.1550  0.4890
  372MPD2    C3 5618   2.785   4.252  13.536 -0.2409  0.1445  0.8330
  372MPD2    C4 5619   2.663   4.312  13.511 -0.0495 -0.0496  0.2713
  372MPD2    C5 5620   2.670   4.436  13.456  0.1290 -0.2544 -0.2789
  372MPD2     H 5621   3.000   4.255  13.476  0.7658  1.5192 -1.0653
  372MPD2    H1 5622   2.572   4.261  13.540 -1.4764  4.0751  2.9845
  372MPD2    H2 5623   2.762   4.597  13.383  3.0677  0.5837  1.2131
  372MPD2    H3 5624   2.576   4.485  13.435  0.8820  0.9657 -0.7780
  372MPD2     N 5625   2.788   4.128  13.596 -0.0588 -0.4819  0.7722
  372MPD2    H5 5626   2.876   4.078  13.591 -0.1366 -0.5427 -0.0664
  372MPD2    N1 5627   3.026   4.494  13.397 -0.0458 -0.7536  0.1857
  372MPD2    H7 5628   3.109   4.439  13.413  1.2686  0.9670 -0.6634
  373TMC3    C1 5629   2.668   3.938  13.666  0.2060 -0.1252 -0.2883
  373TMC3    C2 5630   2.577   3.879  13.747 -0.0592 -0.8624  0.3761
  373TMC3    C3 5631   2.569   3.742  13.749 -0.2247 -0.4635  0.2636
  373TMC3    C4 5632   2.752   3.864  13.592 -0.9921 -0.2840  0.2840
  373TMC3    C5 5633   2.716   3.732  13.578 -0.3180 -0.0516 -0.3528
  373TMC3    C6 5634   2.624   3.668  13.651 -0.5290 -0.4314  0.2051
  373TMC3     C 5635   2.679   4.080  13.659  0.4105  0.2634  0.5010
  373TMC3     O 5636   2.591   4.136  13.720  1.0794  0.8697  0.3847
  373TMC3     H 5637   2.512   3.932  13.816  3.1682  2.4058  0.8677
  373TMC3    H1 5638   2.827   3.903  13.524 -1.0263 -0.8547 -0.0893
  373TMC3    H2 5639   2.623   3.560  13.662 -0.5527 -0.4380  0.1361
  373TMC3    C7 5640   2.813   3.662  13.491 -0.2528  0.8984  0.3349
  373TMC3    C8 5641   2.441   3.694  13.797  0.0284 -0.1066  0.5569
  373TMC3    O1 5642   2.921   3.717  13.463 -0.7588  0.0775 -0.4517
  373TMC3    O2 5643   2.351   3.696  13.711 -0.3327 -0.8155  0.4862
  374TMC3    C1 5644   3.648   4.707   9.777 -0.8355  0.3348  0.4358
  374TMC3    C2 5645   3.776   4.694   9.817 -0.3576  0.0079 -0.1571
  374TMC3    C3 5646   3.877   4.717   9.729 -0.5265  0.6604 -0.1728
  374TMC3    C4 5647   3.615   0.012   9.654  0.7835 -0.5996 -0.2707
  374TMC3    C5 5648   3.715   0.037   9.571 -0.2547  0.1762  0.1498
  374TMC3    C6 5649   3.842   0.013   9.599  0.7051 -0.7161  0.5954
  374TMC3     C 5650   3.547   4.722   9.879  0.4606 -0.0413 -0.5552
  374TMC3     O 5651   3.433   4.702   9.838 -0.1046  0.5598 -0.4189
  374TMC3     H 5652   3.808   4.653   9.912  0.6101  1.8998  0.3264
  374TMC3    H1 5653   3.514   0.030   9.618  1.1709  2.1356 -0.0189
  374TMC3    H2 5654   3.914   0.055   9.530  0.0245 -0.5032  0.0122
  374TMC3    C7 5655   3.683   0.060   9.430 -0.4570 -0.2989 -0.2943
  374TMC3    C8 5656   4.011   0.002   9.767 -0.0720 -0.2482  0.0157
  374TMC3    O1 5657   3.583   0.128   9.401  0.2664  0.1167 -0.8343
  374TMC3    O2 5658   4.080   0.047   9.676  0.1343  0.3570  0.1315
  375MPD2     C 5659   3.560   0.852  17.086  0.4146 -0.0664  0.5682
  375MPD2    C1 5660   3.437   0.824  17.029 -0.2303 -0.2581 -0.4533
  375MPD2    C2 5661   3.436   0.717  16.938 -0.0190  0.5007  0.0323
  375MPD2    C3 5662   3.550   0.643  16.916  0.1393 -0.0431  1.0703
  375MPD2    C4 5663   3.666   0.674  16.976  1.1517  0.0322 -0.4586
  375MPD2    C5 5664   3.669   0.777  17.064 -0.0118 -0.4269 -0.2361
  375MPD2     H 5665   3.343   0.682  16.894  0.6576  0.7842 -1.6006
  375MPD2    H1 5666   3.760   0.621  16.968  0.6030 -1.4741  2.9932
  375MPD2    H2 5667   3.565   0.912  17.176 -0.1707 -0.8016  1.0919
  375MPD2    H3 5668   3.764   0.794  17.113  0.0052 -1.1526 -0.0287
  375MPD2     N 5669   3.553   0.537  16.827 -0.2829  0.1617  0.4569
  375MPD2    H5 5670   3.639   0.483  16.818 -0.4991  0.0479 -0.9006
  375MPD2    N1 5671   3.312   0.881  17.060 -0.6025 -0.2652 -0.7199
  375MPD2    H7 5672   3.233   0.851  17.004 -2.5224  3.3087  0.0674
  376TMC3    C1 5673   3.497   0.395  16.645  0.1237 -0.2733  0.1147
  376TMC3    C2 5674   3.577   0.302  16.704 -0.2440 -0.0948  0.6307
  376TMC3    C3 5675   3.610   0.188  16.629 -0.9077  0.0345  0.3420
  376TMC3    C4 5676   3.460   0.382  16.515 -0.6825  0.1470 -0.5841
  376TMC3    C5 5677   3.487   0.261  16.450  0.2905 -0.0169 -0.0266
  376TMC3    C6 5678   3.555   0.156  16.510 -0.9484 -0.0396 -0.2405
  376TMC3     C 5679   3.464   0.514  16.723 -0.4176  0.0656 -0.2844
  376TMC3     O 5680   3.372   0.580  16.682 -0.0981 -0.2023 -0.8256
  376TMC3     H 5681   3.608   0.298  16.807  3.2539 -4.1223 -0.5732
  376TMC3    H1 5682   3.384   0.452  16.481 -0.1973  0.2711 -1.4145
  376TMC3    H2 5683   3.582   0.063  16.461  0.2000  0.3882 -0.4136
  376TMC3    C7 5684   3.441   0.247  16.317 -0.1241 -0.7093  0.1629
  376TMC3    C8 5685   3.722   0.112  16.680 -0.1538  0.1578 -0.6305
  376TMC3    O1 5686   3.423   0.349  16.253  0.1807 -0.4299 -0.2351
  376TMC3    O2 5687   3.734   0.078  16.796  0.3311 -0.3923  0.7100
  377MPD2     C 5688   1.570   4.558  12.007 -0.1033 -0.3260  0.3853
  377MPD2    C1 5689   1.615   4.493  12.119 -0.0786 -0.0277  0.0144
  377MPD2    C2 5690   1.534   4.509  12.232 -0.0067  0.2849  0.6346
  377MPD2    C3 5691   1.406   4.569  12.225 -0.0613 -0.5256  0.3438
  377MPD2    C4 5692   1.379   4.640  12.114 -0.1989  0.3116 -0.3772
  377MPD2    C5 5693   1.458   4.631  12.006 -0.3148 -0.3985 -0.4388
  377MPD2     H 5694   1.565   4.465  12.326  2.2861  0.5079  0.0037
  377MPD2    H1 5695   1.288   4.698  12.101 -0.4881  0.3212  1.6525
  377MPD2    H2 5696   1.643   4.562  11.926  0.7381 -1.9023  1.0828
  377MPD2    H3 5697   1.424   4.683  11.917 -0.2453 -3.0122 -1.9977
  377MPD2     N 5698   1.328   4.599  12.343 -0.4632 -0.7443  0.5351
  377MPD2    H5 5699   1.234   4.634  12.326 -0.2762 -0.4517  0.0835
  377MPD2    N1 5700   1.744   4.434  12.123 -0.5654  0.9447 -0.0673
  377MPD2    H7 5701   1.802   4.448  12.041  0.8259 -0.4237  0.6767
  378TMC3    C1 5702   2.131   4.255  12.122  0.2827 -0.6253 -0.6648
  378TMC3    C2 5703   2.006   4.315  12.116 -0.2286 -0.1968  0.6852
  378TMC3    C3 5704   1.952   4.366  12.233  0.4494 -0.7320  0.3295
  378TMC3    C4 5705   2.199   4.226  12.238 -0.1203  0.2024 -0.6447
  378TMC3    C5 5706   2.134   4.279  12.349  0.8808  0.1926  0.4770
  378TMC3    C6 5707   2.010   4.335  12.350  0.2174 -0.2553  0.8140
  378TMC3     C 5708   2.196   4.233  11.997  0.3758 -0.3950 -0.2096
  378TMC3     O 5709   2.129   4.278  11.903 -0.0965 -0.3346  0.4582
  378TMC3     H 5710   1.953   4.316  12.021  0.5852 -2.1289  0.2125
  378TMC3    H1 5711   2.295   4.177  12.239 -0.5902 -0.7880 -2.4378
  378TMC3    H2 5712   1.980   4.374  12.446 -0.8233 -1.7018  1.0653
  378TMC3    C7 5713   2.181   4.253  12.485 -0.0642 -0.1433  0.0639
  378TMC3    C8 5714   1.807   4.390  12.234 -0.4825 -0.7029 -0.5332
  378TMC3    O1 5715   2.103   4.235  12.580 -0.7840 -1.0673 -0.3748
  378TMC3    O2 5716   1.762   4.356  12.343 -0.4383  0.1450  0.7490
  379MPD2     C 5717   2.357   2.568  16.522  0.6048 -0.3525 -0.3140
  379MPD2    C1 5718   2.451   2.542  16.428  0.0665  0.0859  0.2672
  379MPD2    C2 5719   2.555   2.451  16.454 -0.7766 -0.6299  0.7060
  379MPD2    C3 5720   2.567   2.397  16.581 -0.3147  0.1022  0.0942
  379MPD2    C4 5721   2.474   2.425  16.672  0.7787  0.5837 -0.2518
  379MPD2    C5 5722   2.368   2.509  16.648 -0.7570 -0.6223  0.6584
  379MPD2     H 5723   2.626   2.436  16.373  0.4005  0.9421  1.4512
  379MPD2    H1 5724   2.483   2.392  16.775 -2.3522 -2.0932 -0.8322
  379MPD2    H2 5725   2.269   2.630  16.505  0.1615 -0.7389  0.5889
  379MPD2    H3 5726   2.295   2.526  16.727 -0.1568 -0.7148  1.2267
  379MPD2     N 5727   2.669   2.304  16.620  0.4480 -0.7882  0.1565
  379MPD2    H5 5728   2.666   2.275  16.718 -3.3094  1.7506  0.7754
  379MPD2    N1 5729   2.426   2.595  16.303  0.4223 -0.1584 -0.3033
  379MPD2    H7 5730   2.349   2.662  16.300  1.2970  1.0376  3.4545
  380TMC3    C1 5731   2.456   2.653  16.066 -1.1091  0.3457  0.0960
  380TMC3    C2 5732   2.529   2.631  15.950  0.3457  0.3995 -0.5991
  380TMC3    C3 5733   2.481   2.676  15.832 -0.3064  0.4819  0.4351
  380TMC3    C4 5734   2.327   2.705  16.056  0.0792 -0.1254  0.6938
  380TMC3    C5 5735   2.276   2.723  15.939 -0.1505 -0.4410  0.0417
  380TMC3    C6 5736   2.351   2.717  15.823  0.2101 -0.4064 -0.5252
  380TMC3     C 5737   2.498   2.572  16.183  0.6883 -0.3613 -0.1195
  380TMC3     O 5738   2.575   2.487  16.163  0.1845  0.0713 -0.2168
  380TMC3     H 5739   2.624   2.579  15.957  0.3002  0.9448  3.9834
  380TMC3    H1 5740   2.270   2.722  16.147  0.6320 -0.7301  1.1527
  380TMC3    H2 5741   2.308   2.759  15.732  2.0446  0.4067 -1.0095
  380TMC3    C7 5742   2.136   2.761  15.931 -0.5124 -0.4999  0.3148
  380TMC3    C8 5743   2.569   2.694  15.715  0.7785 -0.6629 -0.4677
  380TMC3    O1 5744   2.082   2.802  16.033  0.2822  0.3826  0.2167
  380TMC3    O2 5745   2.525   2.756  15.621 -0.2067 -0.5208  0.1739
  381TMC3    C1 5746   2.202   3.712  16.203  0.0460  0.2976  0.3573
  381TMC3    C2 5747   2.304   3.799  16.197 -0.1554 -0.3105  0.2990
  381TMC3    C3 5748   2.331   3.869  16.312  0.0316  0.1333 -0.6755
  381TMC3    C4 5749   2.115   3.704  16.305  0.0599  0.3333  0.9203
  381TMC3    C5 5750   2.136   3.781  16.414  0.4830 -0.4757  0.0104
  381TMC3    C6 5751   2.237   3.872  16.415  0.0810 -0.3462 -0.0211
  381TMC3     C 5752   2.205   3.606  16.109  0.4131 -0.0503 -0.0195
  381TMC3     O 5753   2.314   3.560  16.086  0.1757 -0.3028 -0.2215
  381TMC3     H 5754   2.357   3.799  16.102  0.6263 -0.9462  0.7464
  381TMC3    H1 5755   2.047   3.620  16.318  0.2751 -0.0310 -0.3515
  381TMC3    H2 5756   2.264   3.921  16.508  0.1778 -0.4613  0.0118
  381TMC3    C7 5757   2.108   3.731  16.547 -1.3857 -0.4685  0.5816
  381TMC3    C8 5758   2.439   3.962  16.295  0.0434  0.7075 -0.3975
  381TMC3    O1 5759   2.132   3.610  16.567 -0.2303 -0.4825  0.2911
  381TMC3    O2 5760   2.525   3.931  16.211 -0.7295  0.2239 -0.1746
  382MPD2     C 5761   1.679   1.136  16.893 -0.5973  0.8494 -0.8730
  382MPD2    C1 5762   1.592   1.140  17.001 -0.0487 -0.0203 -0.7999
  382MPD2    C2 5763   1.565   1.024  17.073 -0.4553  0.5628 -0.0016
  382MPD2    C3 5764   1.607   0.902  17.027 -0.1702 -0.1157  0.1012
  382MPD2    C4 5765   1.683   0.902  16.914 -0.3400  0.0078  0.2498
  382MPD2    C5 5766   1.730   1.017  16.850 -1.1842 -0.2088  0.8669
  382MPD2     H 5767   1.502   1.023  17.161  1.0275 -0.3182  1.0419
  382MPD2    H1 5768   1.724   0.811  16.872 -2.1650 -0.1903 -1.1334
  382MPD2    H2 5769   1.713   1.231  16.853 -0.8493  1.2044 -0.2290
  382MPD2    H3 5770   1.808   1.027  16.776 -1.3481  1.3829  0.8979
  382MPD2     N 5771   1.569   0.784  17.095 -0.2723 -0.2249 -0.2201
  382MPD2    H5 5772   1.512   0.801  17.177 -1.1926 -0.7498 -0.7454
  382MPD2    N1 5773   1.523   1.252  17.049  0.4500 -0.1088  0.4516
  382MPD2    H7 5774   1.475   1.256  17.138 -0.1216  1.0374  0.0786
  383TMC3    C1 5775   1.535   0.546  17.127  0.1739  0.3134  0.3434
  383TMC3    C2 5776   1.503   0.429  17.060 -0.6107 -0.5210 -0.1190
  383TMC3    C3 5777   1.469   0.321  17.138  0.1237 -0.6204  0.4127
  383TMC3    C4 5778   1.539   0.556  17.263 -0.3125 -0.4780  0.4352
  383TMC3    C5 5779   1.515   0.439  17.332 -0.0165 -0.0351  0.6601
  383TMC3    C6 5780   1.479   0.319  17.278  0.1212  0.1582 -0.9742
  383TMC3     C 5781   1.569   0.655  17.039  0.6782  0.5318  1.0400
  383TMC3     O 5782   1.601   0.622  16.927 -0.0496 -0.1713 -0.2890
  383TMC3     H 5783   1.496   0.415  16.952  2.2268 -3.0681  0.0175
  383TMC3    H1 5784   1.559   0.655  17.302 -0.3042  0.9782 -3.3196
  383TMC3    H2 5785   1.450   0.233  17.339 -0.4242 -0.5767 -2.2665
  383TMC3    C7 5786   1.549   0.434  17.472 -0.0660 -0.1185 -0.5791
  383TMC3    C8 5787   1.370   0.239  17.081  0.7992  0.2366  0.0907
  383TMC3    O1 5788   1.560   0.318  17.520 -0.2928 -0.4538  0.2559
  383TMC3    O2 5789   1.322   0.271  16.973 -0.5602 -0.3128  0.0772
  384MPD2     C 5790   3.302   2.445  12.294  0.0786  0.2080  0.0424
  384MPD2    C1 5791   3.338   2.318  12.265 -0.0328  0.3334  0.9477
  384MPD2    C2 5792   3.305   2.269  12.141  0.0355 -0.3403 -0.2613
  384MPD2    C3 5793   3.225   2.340  12.062  0.5311  0.6562 -0.0073
  384MPD2    C4 5794   3.185   2.469  12.094  0.0648  0.3123 -0.2859
  384MPD2    C5 5795   3.227   2.523  12.208 -0.3143  0.3905  0.0446
  384MPD2     H 5796   3.351   2.178  12.104  2.7929  0.8541  0.2374
  384MPD2    H1 5797   3.131   2.534  12.026  1.6589  0.9224 -0.9666
  384MPD2    H2 5798   3.326   2.497  12.386  2.5625 -0.5039 -0.1992
  384MPD2    H3 5799   3.208   2.620  12.250  0.7377 -0.2648  2.0243
  384MPD2     N 5800   3.193   2.287  11.931  0.5072 -0.2927 -0.5552
  384MPD2    H5 5801   3.230   2.193  11.915 -2.1636 -1.5823  0.9262
  384MPD2    N1 5802   3.404   2.240  12.354 -1.1609 -0.1707 -0.1971
  384MPD2    H7 5803   3.426   2.147  12.318  2.5683  0.4981  0.3742
  385TMC3    C1 5804   3.099   2.217  11.746 -0.4566 -0.8700 -0.3758
  385TMC3    C2 5805   2.982   2.150  11.733 -0.2893  0.2718  0.3920
  385TMC3    C3 5806   2.997   2.026  11.679 -0.0629 -0.0152  0.1018
  385TMC3    C4 5807   3.221   2.162  11.726 -0.2650 -0.4340  0.1486
  385TMC3    C5 5808   3.232   2.041  11.690  0.6097  0.1655 -0.7276
  385TMC3    C6 5809   3.122   1.966  11.659  0.0559  0.1107  0.3658
  385TMC3     C 5810   3.097   2.326  11.843  0.6576 -0.1612 -0.2146
  385TMC3     O 5811   3.023   2.423  11.832  0.4513  0.0987  0.2257
  385TMC3     H 5812   2.893   2.190  11.781 -0.5271  0.7694 -0.4688
  385TMC3    H1 5813   3.304   2.231  11.734 -1.3088  0.7203  1.1162
  385TMC3    H2 5814   3.116   1.860  11.638  1.1112  0.4154 -1.4499
  385TMC3    C7 5815   3.316   1.985  11.792  0.0561 -0.5675  0.5506
  385TMC3    C8 5816   2.915   1.928  11.738  0.3846 -0.8975 -0.1454
  385TMC3    O1 5817   3.358   2.069  11.872  0.0023  0.0794 -0.1634
  385TMC3    O2 5818   2.936   1.899  11.853  0.4428  0.2784  0.2115
  386TMC3    C1 5819   3.783   4.010  11.354 -0.4760  0.2647  0.4286
  386TMC3    C2 5820   3.747   4.069  11.232  0.0204  0.1383 -0.6392
  386TMC3    C3 5821   3.618   4.124  11.221  0.9906  0.4354 -0.2978
  386TMC3    C4 5822   3.701   4.007  11.461 -0.3825  0.5833 -0.0124
  386TMC3    C5 5823   3.574   4.061  11.443  1.0264  0.5342  0.2580
  386TMC3    C6 5824   3.533   4.120  11.322  0.2540  0.3033  0.0878
  386TMC3     C 5825   3.902   3.928  11.354  0.2351  1.4207 -0.0695
  386TMC3     O 5826   3.991   3.960  11.279 -0.1333 -0.5242  0.2080
  386TMC3     H 5827   3.810   4.063  11.144  1.0740  0.4260  0.0916
  386TMC3    H1 5828   3.740   3.979  11.558 -1.7083 -1.3776 -0.0559
  386TMC3    H2 5829   3.436   4.169  11.322  0.4575  0.7112  1.1473
  386TMC3    C7 5830   3.478   4.068  11.547 -0.5772  0.6453 -0.8683
  386TMC3    C8 5831   3.566   4.167  11.095 -0.3404 -0.0695  0.3397
  386TMC3    O1 5832   3.523   4.113  11.651 -0.3441  0.2289  0.3421
  386TMC3    O2 5833   3.636   4.249  11.037 -0.1750 -0.3869  0.3500
  387MPD2     C 5834   1.042   0.189   9.827  0.3617 -0.1465 -0.4864
  387MPD2    C1 5835   1.130   0.154   9.928  0.3517 -0.5973 -0.0754
  387MPD2    C2 5836   1.174   0.027   9.948  0.7230  0.0785 -0.2293
  387MPD2    C3 5837   1.143   4.663   9.856 -0.1266  0.9000 -0.5190
  387MPD2    C4 5838   1.068   4.699   9.747 -0.3275  0.0258  0.0622
  387MPD2    C5 5839   1.018   0.089   9.733 -0.4391  0.9374  0.3937
  387MPD2     H 5840   1.244   0.009  10.029 -0.6973 -2.2120  0.4912
  387MPD2    H1 5841   1.042   4.629   9.668 -0.4376  1.0043 -0.7637
  387MPD2    H2 5842   1.005   0.288   9.805 -0.7527 -0.0941  1.6676
  387MPD2    H3 5843   0.953   0.121   9.651 -0.4113  0.1782  0.0777
  387MPD2     N 5844   1.197   4.537   9.898  0.5463  0.1598 -0.4322
  387MPD2    H5 5845   1.270   4.527   9.967 -1.4906  2.5799  2.0751
  387MPD2    N1 5846   1.175   0.253  10.020 -0.2518 -0.5368  0.1832
  387MPD2    H7 5847   1.248   0.218  10.081  1.4848  0.1859 -1.4866
  388TMC3    C1 5848   1.172   0.431  10.176  0.2065  0.6181  0.8988
  388TMC3    C2 5849   1.136   0.563  10.203  0.3066  0.1582  0.3078
  388TMC3    C3 5850   1.175   0.601  10.328 -0.9234  0.3972 -0.1008
  388TMC3    C4 5851   1.216   0.335  10.263  0.2462  0.1025 -0.0462
  388TMC3    C5 5852   1.252   0.378  10.386 -0.2094 -0.0205 -0.0242
  388TMC3    C6 5853   1.235   0.511  10.419 -0.0716 -0.4125  0.0424
  388TMC3     C 5854   1.132   0.382  10.039  0.9149 -0.1476  0.3224
  388TMC3     O 5855   1.058   0.455   9.976 -0.2280 -0.0901 -0.6440
  388TMC3     H 5856   1.115   0.628  10.119  0.7132  1.1843  1.0048
  388TMC3    H1 5857   1.218   0.229  10.242 -0.5410  0.2256 -0.7233
  388TMC3    H2 5858   1.262   0.540  10.520  1.0722 -1.4494  0.0270
  388TMC3    C7 5859   1.277   0.278  10.488  0.4483 -0.2149 -0.4813
  388TMC3    C8 5860   1.158   0.740  10.372 -0.5430  1.3543  0.2637
  388TMC3    O1 5861   1.226   0.289  10.599  0.2131  0.2017  0.5531
  388TMC3    O2 5862   1.240   0.785  10.451  0.6089 -0.2090 -0.0557
  389MPD2     C 5863   0.438   2.777  11.382  0.2525 -0.0893  0.3093
  389MPD2    C1 5864   0.330   2.745  11.297 -0.1906  0.0738  0.5525
  389MPD2    C2 5865   0.251   2.641  11.340  0.1124 -0.5001  0.2583
  389MPD2    C3 5866   0.251   2.594  11.470 -0.4700  0.0981  0.0718
  389MPD2    C4 5867   0.356   2.635  11.551 -0.2971 -1.0843 -0.1298
  389MPD2    C5 5868   0.437   2.731  11.504 -0.5040 -0.5597 -0.4373
  389MPD2     H 5869   0.174   2.601  11.274  0.5251  2.0139 -1.7396
  389MPD2    H1 5870   0.367   2.598  11.653 -0.3227 -0.3562  0.1354
  389MPD2    H2 5871   0.509   2.856  11.358  0.0816 -0.2866 -0.8662
  389MPD2    H3 5872   0.513   2.763  11.573 -0.0419 -1.2487 -0.6233
  389MPD2     N 5873   0.175   2.486  11.505  0.0313 -0.0172  0.0141
  389MPD2    H5 5874   0.159   2.469  11.604 -0.2043 -0.5179 -0.1085
  389MPD2    N1 5875   0.335   2.790  11.172  0.0384 -0.0406 -0.4130
  389MPD2    H7 5876   0.409   2.854  11.148  0.6057 -1.1850 -1.7514
  390TMC3    C1 5877   0.036   2.299  11.477 -0.1679 -0.4097 -0.6714
  390TMC3    C2 5878   0.025   2.296  11.615 -0.0033  1.0158 -0.5743
  390TMC3    C3 5879   4.683   2.195  11.661  0.0866 -0.4379 -0.0901
  390TMC3    C4 5880   4.692   2.226  11.391 -0.3788 -0.0497 -0.2781
  390TMC3    C5 5881   4.601   2.151  11.444 -0.3422 -0.2049 -0.3563
  390TMC3    C6 5882   4.591   2.134  11.578 -0.2204  0.2859  0.5396
  390TMC3     C 5883   0.128   2.392  11.415  0.1773 -0.4906  0.4218
  390TMC3     O 5884   0.142   2.373  11.297  0.0723  0.1130 -0.7035
  390TMC3     H 5885   0.099   2.334  11.685  0.6448 -0.7795 -0.2647
  390TMC3    H1 5886   4.701   2.229  11.283  2.1034 -0.0489 -0.0712
  390TMC3    H2 5887   4.517   2.062  11.612  0.3227 -0.8891 -0.7716
  390TMC3    C7 5888   4.523   2.074  11.354  0.2580 -0.3775  0.3389
  390TMC3    C8 5889   4.658   2.196  11.805  0.1920  0.6340  0.2002
  390TMC3    O1 5890   4.570   2.036  11.246  0.4392  0.3711  0.1130
  390TMC3    O2 5891   4.722   2.280  11.870  0.2843  0.4571  0.3350
  391MPD2     C 5892   3.995   4.304  11.235  0.2694 -0.1837  0.4923
  391MPD2    C1 5893   4.132   4.338  11.254 -0.5564  0.2025 -0.3630
  391MPD2    C2 5894   4.204   4.403  11.150 -0.1606 -0.1656 -0.3585
  391MPD2    C3 5895   4.149   4.408  11.023 -0.3427 -0.5245 -0.8327
  391MPD2    C4 5896   4.015   4.371  11.007 -0.3486  0.6319  0.3189
  391MPD2    C5 5897   3.947   4.322  11.114 -0.0121 -0.0300 -0.4877
  391MPD2     H 5898   4.305   4.438  11.163 -0.7566  1.1528  0.7385
  391MPD2    H1 5899   3.958   4.382  10.916  0.8080 -1.0112 -0.5949
  391MPD2    H2 5900   3.933   4.255  11.308 -0.1304  0.6251  0.6900
  391MPD2    H3 5901   3.846   4.284  11.110  0.1987 -0.7772  1.6050
  391MPD2     N 5902   4.231   4.462  10.923  0.2797  0.1530  0.0622
  391MPD2    H5 5903   4.327   4.487  10.945  0.1468 -1.6825  2.6798
  391MPD2    N1 5904   4.174   4.332  11.389  0.1757  0.3889 -0.1041
  391MPD2    H7 5905   4.110   4.292  11.457  2.3661 -0.9926  1.1202
  392TMC3    C1 5906   4.294   4.516  10.698 -0.7390 -0.5990 -0.0705
  392TMC3    C2 5907   4.272   4.506  10.560 -0.5182  0.1313 -0.0307
  392TMC3    C3 5908   4.354   4.566  10.476  0.1537 -0.0861 -0.2307
  392TMC3    C4 5909   4.382   4.613  10.744 -0.3359  0.1858 -0.8296
  392TMC3    C5 5910   4.453   4.684  10.655 -0.1522 -0.5886  0.3227
  392TMC3    C6 5911   4.448   4.655  10.526  0.2900 -0.3661 -0.7210
  392TMC3     C 5912   4.190   4.471  10.792  0.8270 -0.1110 -0.2999
  392TMC3     O 5913   4.077   4.466  10.739  0.5425 -0.2575 -0.7647
  392TMC3     H 5914   4.203   4.429  10.527 -0.4836  0.5091 -0.9771
  392TMC3    H1 5915   4.392   4.640  10.849 -0.5477 -0.4754 -0.6355
  392TMC3    H2 5916   4.504   4.712  10.452  1.1866 -0.1185  0.1377
  392TMC3    C7 5917   4.570   0.031  10.699 -0.1542  0.4082 -0.4607
  392TMC3    C8 5918   4.299   4.576  10.342 -0.1191  0.2168 -0.2012
  392TMC3    O1 5919   4.632   4.724  10.795  0.0019  0.4879 -0.3245
  392TMC3    O2 5920   4.196   4.516  10.325  0.3857 -0.0546  0.3268
  393TMC3    C1 5921   3.368   2.517  10.670  0.0803  0.1232  0.4113
  393TMC3    C2 5922   3.240   2.473  10.652  0.3296  0.1171  0.2302
  393TMC3    C3 5923   3.227   2.342  10.650 -0.4647 -0.1449 -0.9251
  393TMC3    C4 5924   3.475   2.431  10.672  0.5155 -0.2742 -0.2872
  393TMC3    C5 5925   3.461   2.295  10.665  0.7543 -0.1078  0.0809
  393TMC3    C6 5926   3.334   2.247  10.651  0.5839  0.4844  0.4245
  393TMC3     C 5927   3.389   2.659  10.673  0.0688 -1.1488 -0.2265
  393TMC3     O 5928   3.307   2.731  10.626  0.0935  0.2453  0.1686
  393TMC3     H 5929   3.159   2.544  10.663 -0.1423 -0.3783 -0.0757
  393TMC3    H1 5930   3.574   2.472  10.655  1.1734 -2.1955 -1.1610
  393TMC3    H2 5931   3.319   2.139  10.655  1.9954  0.2229 -1.7993
  393TMC3    C7 5932   3.576   2.215  10.621 -0.3786 -0.0893 -0.2111
  393TMC3    C8 5933   3.092   2.283  10.641 -0.1480  0.2439  0.4990
  393TMC3    O1 5934   3.546   2.117  10.548 -0.4588  0.0124  0.1261
  393TMC3    O2 5935   3.085   2.166  10.682  0.2913  0.2449  0.0640
  394TMC3    C1 5936   0.284   2.812  10.944 -0.6872  0.9025 -0.1016
  394TMC3    C2 5937   0.186   2.787  10.855  0.1245 -0.3565  0.3054
  394TMC3    C3 5938   0.213   2.771  10.724  0.3063 -0.8813 -0.4105
  394TMC3    C4 5939   0.415   2.815  10.901 -0.1667  0.1230 -0.2422
  394TMC3    C5 5940   0.439   2.807  10.764 -0.5934  0.2117 -0.1526
  394TMC3    C6 5941   0.340   2.792  10.674  0.8907  0.0587 -0.0670
  394TMC3     C 5942   0.244   2.762  11.075 -0.1453 -0.8787 -0.4339
  394TMC3     O 5943   0.131   2.707  11.078  0.0446 -0.3512  0.3505
  394TMC3     H 5944   0.085   2.774  10.891 -0.6082  1.0072 -1.2375
  394TMC3    H1 5945   0.496   2.818  10.974 -0.3515 -2.4941  0.1057
  394TMC3    H2 5946   0.356   2.795  10.567 -2.3383 -0.0322 -0.5547
  394TMC3    C7 5947   0.556   2.879  10.719  0.0658  0.7737  0.4054
  394TMC3    C8 5948   0.110   2.734  10.637  0.5483 -0.9031  0.4646
  394TMC3    O1 5949   0.591   2.970  10.788 -0.3407 -0.5233 -0.0457
  394TMC3    O2 5950   4.735   2.761  10.666  0.5287  0.5488 -0.1511
  395TMC3    C1 5951   0.414   4.685  14.694 -0.4460  0.7368  1.3421
  395TMC3    C2 5952   0.279   4.713  14.670 -0.5620  0.6237 -0.6674
  395TMC3    C3 5953   0.264   0.083  14.590 -0.0858  0.0019 -0.0158
  395TMC3    C4 5954   0.522   0.014  14.640  1.1371  0.1831  0.0988
  395TMC3    C5 5955   0.499   0.120  14.559 -0.1537 -0.0682 -0.0409
  395TMC3    C6 5956   0.369   0.158  14.536  0.0613  0.0414 -0.0379
  395TMC3     C 5957   0.448   4.587  14.791  0.2933  0.9357 -0.0516
  395TMC3     O 5958   0.562   4.548  14.801 -0.0856  0.1282  0.4619
  395TMC3     H 5959   0.193   4.658  14.707 -1.3982  1.1276 -1.8784
  395TMC3    H1 5960   0.623   4.720  14.665  0.5388 -0.4656  1.7552
  395TMC3    H2 5961   0.340   0.253  14.491  1.8491 -0.3475 -2.0125
  395TMC3    C7 5962   0.598   0.220  14.529  0.6128  0.0301 -0.1638
  395TMC3    C8 5963   0.131   0.152  14.609  0.4684  0.1463 -0.2137
  395TMC3    O1 5964   0.686   0.243  14.608 -0.1802  0.3634 -0.5420
  395TMC3    O2 5965   0.129   0.272  14.610 -0.2242 -0.1625  0.0369
  396MPD2     C 5966   4.423   0.868  17.060  0.2789 -0.3065 -0.0934
  396MPD2    C1 5967   4.465   0.788  16.957 -0.1071  0.0858  0.3110
  396MPD2    C2 5968   4.567   0.831  16.878 -0.5947  0.5085  0.2450
  396MPD2    C3 5969   4.633   0.951  16.902 -0.1872  0.1656  0.4277
  396MPD2    C4 5970   4.590   1.037  17.006 -0.1691 -0.0309 -0.6066
  396MPD2    C5 5971   4.489   0.985  17.094  0.3939  0.4474  0.2974
  396MPD2     H 5972   4.602   0.774  16.792  1.1398 -2.7179  3.0913
  396MPD2    H1 5973   4.641   1.129  17.035  1.2885 -0.4372 -1.8533
  396MPD2    H2 5974   4.336   0.830  17.111 -1.0918  1.7036 -0.9376
  396MPD2    H3 5975   4.461   1.043  17.182  0.2772  0.4502  0.2578
  396MPD2     N 5976   0.000   0.985  16.816 -0.7005 -0.0930  0.1288
  396MPD2    H5 5977   0.030   0.917  16.747 -2.6555 -0.5862 -0.2361
  396MPD2    N1 5978   4.400   0.668  16.937 -0.0205 -0.2341 -0.4196
  396MPD2    H7 5979   4.328   0.645  17.004  0.0175  0.3186 -0.1923
  397TMC3    C1 5980   4.372   0.438  16.871  0.1463 -1.2911  0.7822
  397TMC3    C2 5981   4.414   0.346  16.778  0.1362 -0.2218 -0.2761
  397TMC3    C3 5982   4.332   0.245  16.748 -0.9110  0.3502  0.6936
  397TMC3    C4 5983   4.237   0.439  16.901  0.4251  0.4268 -0.4643
  397TMC3    C5 5984   4.159   0.332  16.877  0.1187  0.5036  0.9039
  397TMC3    C6 5985   4.211   0.229  16.809  0.3300 -0.4911 -0.2941
  397TMC3     C 5986   4.427   0.567  16.841  0.3047 -0.3821 -0.1688
  397TMC3     O 5987   4.504   0.571  16.748  0.2220  0.1280  0.3021
  397TMC3     H 5988   4.522   0.336  16.766 -0.0401 -2.2640 -0.1766
  397TMC3    H1 5989   4.197   0.508  16.975  0.3128  1.8067 -1.8138
  397TMC3    H2 5990   4.143   0.145  16.800 -0.9210  0.6343 -1.3506
  397TMC3    C7 5991   4.051   0.314  16.969  0.0738 -0.5488  0.4487
  397TMC3    C8 5992   4.401   0.122  16.700  0.1518  0.5857  0.1725
  397TMC3    O1 5993   3.952   0.260  16.931 -0.0955  0.0603 -0.2242
  397TMC3    O2 5994   4.377   0.020  16.767 -0.3236  0.2118  0.0980
  398MPD2     C 5995   2.733   2.198   0.459 -0.0408  0.7928  0.0530
  398MPD2    C1 5996   2.852   2.127   0.446 -0.2766 -0.6354 -0.3667
  398MPD2    C2 5997   2.971   2.192   0.470 -0.4799  0.9841  0.5603
  398MPD2    C3 5998   2.978   2.329   0.506 -0.6970 -0.3537 -0.7269
  398MPD2    C4 5999   2.856   2.388   0.542 -0.3542 -0.0552  0.8624
  398MPD2    C5 6000   2.738   2.326   0.507  0.4198 -0.3142 -0.3223
  398MPD2     H 6001   3.065   2.140   0.455  0.3390  2.8209 -0.6310
  398MPD2    H1 6002   2.851   2.490   0.580 -0.4133  0.4011 -0.3535
  398MPD2    H2 6003   2.634   2.157   0.447 -0.1067  0.4014  1.8385
  398MPD2    H3 6004   2.650   2.389   0.514 -0.3740 -1.3695 -0.8143
  398MPD2     N 6005   3.104   2.384   0.525 -0.2267  0.0777  0.2017
  398MPD2    H5 6006   3.181   2.321   0.502  0.6324  0.8040  1.1067
  398MPD2    N1 6007   2.854   1.995   0.410 -0.4451  0.1800 -0.1344
  398MPD2    H7 6008   2.938   1.939   0.405 -0.3137  0.4305 -0.7949
  399TMC3    C1 6009   2.766   1.795   0.317 -0.0927 -0.5961  0.5587
  399TMC3    C2 6010   2.830   1.709   0.399 -0.7085  0.5837 -0.0547
  399TMC3    C3 6011   2.835   1.575   0.366 -0.2003  0.2710  1.0587
  399TMC3    C4 6012   2.695   1.744   0.212 -0.2048 -0.0830  0.4707
  399TMC3    C5 6013   2.692   1.611   0.190  0.0017  0.5315  0.5414
  399TMC3    C6 6014   2.768   1.522   0.258 -1.3151  0.3287  0.3247
  399TMC3     C 6015   2.748   1.938   0.345  0.6282 -0.3884  0.2261
  399TMC3     O 6016   2.647   1.992   0.301 -1.0223  0.5474 -0.0788
  399TMC3     H 6017   2.889   1.756   0.476  0.8850 -0.2329 -0.7862
  399TMC3    H1 6018   2.623   1.810   0.165  1.5646 -0.1500 -2.3015
  399TMC3    H2 6019   2.784   1.421   0.223  1.8471  0.8873  0.1512
  399TMC3    C7 6020   2.607   1.556   0.085 -0.0565  0.2079 -0.5962
  399TMC3    C8 6021   2.908   1.486   0.454  0.4948  0.4415  0.2007
  399TMC3    O1 6022   2.625   1.444   0.044 -0.4057  0.1286 -0.1514
  399TMC3    O2 6023   2.977   1.542   0.538 -0.0802  0.0078  0.0180
  400TMC3    C1 6024   1.477   4.697  16.776  0.0301  0.7812  0.6701
  400TMC3    C2 6025   1.429   4.576  16.730 -0.2548  0.1357 -0.2466
  400TMC3    C3 6026   1.301   4.561  16.690  0.9611 -0.6786 -0.1988
  400TMC3    C4 6027   1.397   0.070  16.769 -0.2256  0.0114  0.6015
  400TMC3    C5 6028   1.270   0.059  16.711 -0.3359  0.7449 -0.4183
  400TMC3    C6 6029   1.222   4.672  16.681  0.2312  0.3397 -0.0967
  400TMC3     C 6030   1.592   4.685  16.871 -0.1066  0.7357 -0.7243
  400TMC3     O 6031   1.631   4.572  16.902 -0.3827  0.4895  0.0452
  400TMC3     H 6032   1.483   4.483  16.737 -0.2411  0.2023  0.6202
  400TMC3    H1 6033   1.428   0.163  16.815  1.0174  0.3805 -0.9918
  400TMC3    H2 6034   1.128   4.656  16.629 -0.5168  1.2306  0.9735
  400TMC3    C7 6035   1.224   0.167  16.633 -0.1719 -0.7018 -0.0553
  400TMC3    C8 6036   1.277   4.473  16.577  0.9034  0.2184  0.6448
  400TMC3    O1 6037   1.166   0.143  16.529 -0.3441 -0.4710 -0.0304
  400TMC3    O2 6038   1.168   4.420  16.579  0.9549  0.3158  0.3628
  401MPD2     C 6039   4.287   4.144   1.007 -0.0028  1.3854 -0.0397
  401MPD2    C1 6040   4.361   4.057   1.089 -0.0174 -0.9107 -0.3431
  401MPD2    C2 6041   4.294   3.947   1.141  0.2038  0.7804 -0.3385
  401MPD2    C3 6042   4.165   3.927   1.109 -0.4675  0.5294  0.7043
  401MPD2    C4 6043   4.092   4.017   1.039  0.0112  0.1106  0.9526
  401MPD2    C5 6044   4.158   4.125   0.989  1.2436 -0.5276  0.3704
  401MPD2     H 6045   4.350   3.874   1.198 -2.1161 -1.2799 -0.6895
  401MPD2    H1 6046   3.988   3.998   1.016  0.0965 -0.9795  1.4848
  401MPD2    H2 6047   4.330   4.224   0.948  0.0249  1.7152  0.4190
  401MPD2    H3 6048   4.097   4.191   0.929  1.9866  0.2008  0.4268
  401MPD2     N 6049   4.111   3.803   1.150 -0.5012 -0.3019 -0.0551
  401MPD2    H5 6050   4.173   3.728   1.181 -0.6352 -0.3164  0.1771
  401MPD2    N1 6051   4.492   4.080   1.133  0.1535  0.4658 -0.2076
  401MPD2    H7 6052   4.538   4.022   1.203 -1.3522  0.2384  0.5805
  402TMC3    C1 6053   3.969   3.624   1.187  0.1095 -0.0199 -0.4252
  402TMC3    C2 6054   4.056   3.580   1.283  0.1117  0.5581 -0.3299
  402TMC3    C3 6055   4.057   3.446   1.310  0.5981 -0.0630 -0.7100
  402TMC3    C4 6056   3.878   3.540   1.127  0.6204  0.1813 -0.0973
  402TMC3    C5 6057   3.886   3.406   1.148  0.4985 -0.1764 -0.2614
  402TMC3    C6 6058   3.981   3.357   1.230  0.3291 -0.2096  0.4329
  402TMC3     C 6059   3.977   3.760   1.136  0.3155  0.1454  0.3864
  402TMC3     O 6060   3.885   3.809   1.070 -0.1905  0.0127  0.4903
  402TMC3     H 6061   4.118   3.651   1.336  1.1703 -1.1992  0.8250
  402TMC3    H1 6062   3.818   3.581   1.047 -3.3132 -2.5265  1.4131
  402TMC3    H2 6063   3.997   3.251   1.240 -0.3241 -0.4061 -0.6456
  402TMC3    C7 6064   3.842   3.323   1.042 -0.1458  0.0466  0.3943
  402TMC3    C8 6065   4.168   3.387   1.380 -0.6201 -0.4368 -0.6398
  402TMC3    O1 6066   3.736   3.368   0.990  0.1591  0.2557 -0.4687
  402TMC3    O2 6067   4.182   3.269   1.348  0.0756 -0.4192 -0.3412
  403MPD2     C 6068   2.836   2.186  13.940 -0.0440  0.5542 -0.0588
  403MPD2    C1 6069   2.951   2.144  13.879  0.1547  0.8995 -0.4119
  403MPD2    C2 6070   3.057   2.232  13.872 -0.4831  0.2684 -0.2665
  403MPD2    C3 6071   3.048   2.365  13.919  0.0485 -0.6378 -0.6543
  403MPD2    C4 6072   2.934   2.404  13.990  0.0251 -0.0783  0.2988
  403MPD2    C5 6073   2.832   2.315  13.991  0.2066 -0.8700 -0.4561
  403MPD2     H 6074   3.146   2.198  13.821  0.2484  1.5710  0.1458
  403MPD2    H1 6075   2.918   2.499  14.039 -1.4130  0.3386 -0.9960
  403MPD2    H2 6076   2.749   2.124  13.954  1.3170 -0.9503  1.6899
  403MPD2    H3 6077   2.741   2.333  14.046  0.0254  1.0518 -1.4159
  403MPD2     N 6078   3.169   2.437  13.899  0.1421  0.1298 -0.5461
  403MPD2    H5 6079   3.237   2.384  13.846 -0.1766 -1.4533  0.6317
  403MPD2    N1 6080   2.944   2.019  13.816  0.2106  0.0999 -0.0107
  403MPD2    H7 6081   2.871   1.956  13.845 -0.1752  1.8384  2.7187
  404TMC3    C1 6082   2.994   1.854  13.669 -0.0484 -0.1770  0.6613
  404TMC3    C2 6083   2.946   1.760  13.759  0.4716  0.3078 -0.0160
  404TMC3    C3 6084   2.885   1.649  13.705  0.3934 -0.0896  0.9191
  404TMC3    C4 6085   2.985   1.839  13.535 -0.8593  1.0279 -0.2257
  404TMC3    C5 6086   2.912   1.736  13.485 -0.4221  0.0402 -0.0883
  404TMC3    C6 6087   2.866   1.638  13.566  1.2140  0.1218 -0.1828
  404TMC3     C 6088   3.031   1.977  13.723  0.3171  0.2543  0.3332
  404TMC3     O 6089   3.117   2.040  13.663 -0.4237  0.2259  0.2139
  404TMC3     H 6090   2.978   1.782  13.860  2.1929  3.0886 -1.1702
  404TMC3    H1 6091   3.029   1.915  13.471  2.3527 -0.6501 -0.0236
  404TMC3    H2 6092   2.823   1.547  13.526 -1.7154  1.2401  0.4331
  404TMC3    C7 6093   2.902   1.732  13.341  0.3550  0.1225 -0.2320
  404TMC3    C8 6094   2.886   1.539  13.791 -0.5343 -0.5561 -0.0154
  404TMC3    O1 6095   2.985   1.805  13.286 -0.7983 -0.0854  0.0442
  404TMC3    O2 6096   2.953   1.437  13.768 -0.1534 -0.0900  0.0542
  405MPD2     C 6097   3.196   3.546  15.101 -0.7406  0.2025  0.4038
  405MPD2    C1 6098   3.288   3.472  15.032 -0.3143 -0.4514  0.5103
  405MPD2    C2 6099   3.256   3.416  14.907 -0.2393 -0.0537  0.4048
  405MPD2    C3 6100   3.142   3.454  14.836  0.9468 -0.3816  0.5501
  405MPD2    C4 6101   3.058   3.537  14.905 -1.0302 -0.2103  0.2715
  405MPD2    C5 6102   3.078   3.577  15.032  0.3338  0.2994 -0.3090
  405MPD2     H 6103   3.343   3.368  14.863 -0.9432 -0.5008 -0.5038
  405MPD2    H1 6104   2.968   3.575  14.857 -0.9767  1.7019  1.6876
  405MPD2    H2 6105   3.209   3.583  15.202  1.5563  2.0905 -0.5883
  405MPD2    H3 6106   3.005   3.642  15.080 -1.0396 -1.5138  0.0509
  405MPD2     N 6107   3.132   3.418  14.703 -0.1935 -0.5012 -0.2327
  405MPD2    H5 6108   3.191   3.347  14.663  0.6356 -1.6245  3.0133
  405MPD2    N1 6109   3.409   3.426  15.084  0.0235 -0.6684 -0.5350
  405MPD2    H7 6110   3.456   3.354  15.030 -1.1513 -0.6147 -1.6136
  406TMC3    C1 6111   3.061   3.442  14.250  0.4587 -0.1220  0.4217
  406TMC3    C2 6112   3.195   3.429  14.221 -1.0289  0.0632 -0.2629
  406TMC3    C3 6113   3.284   3.424  14.327 -0.0879  0.0691  0.1905
  406TMC3    C4 6114   3.016   3.471  14.373 -0.0265 -0.1280  0.1689
  406TMC3    C5 6115   3.102   3.457  14.473 -0.2969  0.1948  0.1487
  406TMC3    C6 6116   3.236   3.442  14.456  0.2747 -0.9089  0.3311
  406TMC3     C 6117   2.973   3.430  14.138 -0.3424 -0.4803 -0.7701
  406TMC3     O 6118   3.007   3.476  14.031 -0.6184 -0.4168  0.6020
  406TMC3     H 6119   3.234   3.417  14.121  0.5533 -0.8205  0.4531
  406TMC3    H1 6120   2.908   3.472  14.389 -0.4377  1.3589 -2.6205
  406TMC3    H2 6121   3.306   3.456  14.537 -0.9181 -0.8959  1.3677
  406TMC3    C7 6122   3.053   3.488  14.607 -0.3293  0.0940  0.2218
  406TMC3    C8 6123   3.426   3.394  14.307 -0.3542 -0.0282 -0.3907
  406TMC3    O1 6124   2.965   3.572  14.621  0.4500  0.7558  0.0781
  406TMC3    O2 6125   3.484   3.393  14.198 -1.0817 -0.0899 -0.1458
  407MPD2     C 6126   0.588   4.578   9.728 -0.1567  0.4367  0.3395
  407MPD2    C1 6127   0.725   4.552   9.754 -0.2095 -0.0682  0.1975
  407MPD2    C2 6128   0.777   4.579   9.877 -0.0624  0.2949  0.3545
  407MPD2    C3 6129   0.711   4.653   9.970  1.1370 -0.2440  0.2991
  407MPD2    C4 6130   0.589   4.704   9.927  0.3846  0.0166  0.7730
  407MPD2    C5 6131   0.522   4.663   9.812  0.6395 -0.1041  0.4311
  407MPD2     H 6132   0.880   4.556   9.901  0.2361  1.5067  0.2210
  407MPD2    H1 6133   0.533   0.040   9.983 -1.0250 -1.3640  1.1874
  407MPD2    H2 6134   0.535   4.560   9.636  1.4765 -0.8551 -0.3707
  407MPD2    H3 6135   0.431   4.708   9.774  0.0379 -1.4818  0.2793
  407MPD2     N 6136   0.771   4.706  10.080 -0.0302 -0.3697  0.4376
  407MPD2    H5 6137   0.710   0.031  10.132 -1.4850  0.3283 -2.1353
  407MPD2    N1 6138   0.801   4.498   9.655 -0.4410 -0.4234 -0.0166
  407MPD2    H7 6139   0.896   4.472   9.681 -0.3991  0.5640  0.7677
  408TMC3    C1 6140   0.872   4.462   9.448 -0.5583 -0.5273  0.3912
  408TMC3    C2 6141   0.964   4.369   9.494 -0.3540 -0.3757  0.3735
  408TMC3    C3 6142   1.093   4.360   9.442  0.1421 -0.1594 -0.3268
  408TMC3    C4 6143   0.912   4.549   9.344 -0.4868 -0.1281  0.6692
  408TMC3    C5 6144   1.037   4.542   9.288 -0.1962  0.9328  0.1147
  408TMC3    C6 6145   1.125   4.445   9.334 -0.1749 -0.0447 -0.2102
  408TMC3     C 6146   0.759   4.496   9.524  0.7739  0.2778 -0.0642
  408TMC3     O 6147   0.664   4.540   9.462 -0.0106 -0.1511  0.0633
  408TMC3     H 6148   0.933   4.297   9.569 -1.7948  1.2472  1.3443
  408TMC3    H1 6149   0.849   4.636   9.323  1.5924  0.7396 -2.0246
  408TMC3    H2 6150   1.222   4.444   9.285  0.5948 -0.4581  1.3168
  408TMC3    C7 6151   1.106   4.665   9.298 -0.3105 -0.1948  0.0799
  408TMC3    C8 6152   1.198   4.320   9.529  0.3817 -0.4443  0.6265
  408TMC3    O1 6153   1.219   4.648   9.344  0.0940  0.0598 -0.4746
  408TMC3    O2 6154   1.182   4.224   9.607 -0.1064  0.0858  0.9699
  409MPD2     C 6155   0.234   4.059  16.803  0.4545 -0.2653 -0.5448
  409MPD2    C1 6156   0.267   4.155  16.900 -0.0413 -0.0359 -0.4396
  409MPD2    C2 6157   0.339   4.262  16.860  0.3563  0.5392  0.4101
  409MPD2    C3 6158   0.382   4.284  16.731  0.1594  0.0259  0.9536
  409MPD2    C4 6159   0.336   4.201  16.632  0.6669  0.0800 -0.2804
  409MPD2    C5 6160   0.268   4.089  16.671  0.4857  0.2128  0.3911
  409MPD2     H 6161   0.368   4.334  16.936 -1.6787  0.9602  0.8022
  409MPD2    H1 6162   0.364   4.219  16.529 -0.0880 -1.0124 -0.6757
  409MPD2    H2 6163   0.178   3.966  16.812  1.3777 -0.8650 -1.0518
  409MPD2    H3 6164   0.249   4.018  16.591  1.5101 -1.2766  1.4539
  409MPD2     N 6165   0.473   4.391  16.693  0.4830  0.2332 -0.1112
  409MPD2    H5 6166   0.473   4.422  16.596 -2.4289  0.6988  0.0409
  409MPD2    N1 6167   0.238   4.146  17.035  0.2532 -0.2882  0.3443
  409MPD2    H7 6168   0.284   4.206  17.103 -0.9835 -0.2784  1.1877
  410TMC3    C1 6169   0.652   4.544  16.739 -0.0643  0.2209  0.0498
  410TMC3    C2 6170   0.752   4.586  16.823  0.6353 -0.3121 -0.3320
  410TMC3    C3 6171   0.823   4.699  16.785  0.2114  0.0915  0.2533
  410TMC3    C4 6172   0.640   4.595  16.611 -0.9827  1.3430 -0.4382
  410TMC3    C5 6173   0.717   4.704  16.576 -0.7622 -0.2539  0.4033
  410TMC3    C6 6174   0.802   0.024  16.664 -0.0767  0.1970  0.0506
  410TMC3     C 6175   0.559   4.443  16.788  0.1845  0.0402 -0.3817
  410TMC3     O 6176   0.580   4.413  16.903  0.7711  0.4867  0.4188
  410TMC3     H 6177   0.766   4.542  16.921  0.4004  1.4065  0.4686
  410TMC3    H1 6178   0.576   4.549  16.537  1.0604 -2.2748 -0.0044
  410TMC3    H2 6179   0.854   0.118  16.650 -0.7407  0.8465  1.9761
  410TMC3    C7 6180   0.729   4.729  16.441 -0.8126 -0.2382  0.1696
  410TMC3    C8 6181   0.931   0.007  16.867 -0.8718  0.1965 -0.0124
  410TMC3    O1 6182   0.731   4.634  16.367 -0.2870 -0.4705  0.1539
  410TMC3    O2 6183   0.936   0.121  16.908  0.1629  0.0063 -0.1806
  411MPD2     C 6184   0.541   0.983  14.227 -0.2482 -0.5182 -0.2629
  411MPD2    C1 6185   0.485   0.975  14.359  1.1038 -0.5602  0.2514
  411MPD2    C2 6186   0.392   0.879  14.396  0.1909 -1.9398  0.0252
  411MPD2    C3 6187   0.355   0.795  14.295  0.0491 -0.4370  0.4751
  411MPD2    C4 6188   0.415   0.794  14.175 -0.0350 -0.1097 -0.3258
  411MPD2    C5 6189   0.505   0.891  14.133  0.5528 -0.1872  0.2408
  411MPD2     H 6190   0.346   0.878  14.494 -0.2281 -1.0263 -0.1619
  411MPD2    H1 6191   0.371   0.732  14.097  0.6789 -1.8476  0.6390
  411MPD2    H2 6192   0.608   1.058  14.185  0.6598 -0.9141  0.4870
  411MPD2    H3 6193   0.543   0.892  14.032  1.5935 -1.7443  0.6225
  411MPD2     N 6194   0.260   0.687  14.316  0.5405 -0.4958  0.5585
  411MPD2    H5 6195   0.243   0.621  14.241 -0.8429 -0.8901  1.2293
  411MPD2    N1 6196   0.535   1.079  14.442  0.2558  0.6912 -0.4586
  411MPD2    H7 6197   0.606   1.135  14.396  2.9780 -2.3816  0.0205
  412TMC3    C1 6198   0.073   0.568  14.391 -0.2924 -0.0393  0.1982
  412TMC3    C2 6199   4.704   0.601  14.309  0.0358  0.1270 -0.0214
  412TMC3    C3 6200   4.680   0.527  14.197 -0.1195 -0.1669 -0.4938
  412TMC3    C4 6201   0.149   0.458  14.360  0.4860 -0.2083  0.5070
  412TMC3    C5 6202   0.114   0.371  14.257 -0.6167  0.4595  0.2845
  412TMC3    C6 6203   0.009   0.412  14.175  1.1322  0.1234 -0.6024
  412TMC3     C 6204   0.169   0.677  14.420  0.3365 -0.5517 -0.4276
  412TMC3     O 6205   0.176   0.739  14.527 -0.2474 -0.1778  0.2806
  412TMC3     H 6206   4.655   0.698  14.314  1.3906  0.8896 -1.3547
  412TMC3    H1 6207   0.240   0.439  14.415 -1.8075 -4.6845  2.7313
  412TMC3    H2 6208   0.002   0.369  14.076 -3.5387  0.7811 -0.5305
  412TMC3    C7 6209   0.228   0.349  14.164  0.6700 -0.2794  0.4594
  412TMC3    C8 6210   4.682   0.621  14.087 -0.1823  0.7109 -0.0484
  412TMC3    O1 6211   0.285   0.456  14.139  0.2260 -0.5209 -0.0172
  412TMC3    O2 6212   4.599   0.705  14.082 -0.3628 -0.6459  0.1985
  413MPD2     C 6213   1.827   3.792  15.954  0.1636 -0.2394 -0.4104
  413MPD2    C1 6214   1.807   3.785  15.822  0.0314 -0.1305  1.1981
  413MPD2    C2 6215   1.905   3.821  15.736 -0.2036 -0.2385  0.5330
  413MPD2    C3 6216   2.029   3.857  15.789  0.2077  0.6309 -0.5753
  413MPD2    C4 6217   2.053   3.855  15.924  0.5627  0.2280 -0.5385
  413MPD2    C5 6218   1.945   3.830  16.005  0.0873  0.8084 -0.2623
  413MPD2     H 6219   1.889   3.826  15.628  0.0275  0.8469  0.5476
  413MPD2    H1 6220   2.142   3.893  15.972 -0.4450  0.8602  0.8258
  413MPD2    H2 6221   1.741   3.781  16.019  0.9435  0.2238  0.7126
  413MPD2    H3 6222   1.957   3.831  16.113  0.8015  0.1240 -0.3328
  413MPD2     N 6223   2.132   3.919  15.704 -0.1047 -0.5067 -0.0653
  413MPD2    H5 6224   2.095   3.939  15.611  1.5902 -0.5557 -0.7418
  413MPD2    N1 6225   1.674   3.751  15.788  0.8655  0.1042  0.0908
  413MPD2    H7 6226   1.616   3.736  15.870  4.4814  0.4754  2.7333
  414TMC3    C1 6227   2.345   3.986  15.621  0.0109  0.3627 -0.2305
  414TMC3    C2 6228   2.455   3.902  15.600  0.1970  0.5611 -0.2383
  414TMC3    C3 6229   2.440   3.834  15.483 -0.0039  0.2950 -0.2907
  414TMC3    C4 6230   2.258   4.026  15.516  0.0486  0.4011 -0.4448
  414TMC3    C5 6231   2.263   3.960  15.393 -0.4169  0.2198  0.3895
  414TMC3    C6 6232   2.350   3.851  15.389 -0.2439  0.0995  0.4823
  414TMC3     C 6233   2.267   3.927  15.727  0.5870  0.3127  0.0053
  414TMC3     O 6234   2.326   3.880  15.823  0.4568  0.3022  0.2449
  414TMC3     H 6235   2.524   3.879  15.679 -1.8401  0.1008  1.4177
  414TMC3    H1 6236   2.197   4.112  15.539 -0.6031 -0.3885  0.7437
  414TMC3    H2 6237   2.359   3.783  15.306  0.0792 -0.0165  0.6117
  414TMC3    C7 6238   2.139   3.956  15.331  0.6231 -0.2655 -0.2422
  414TMC3    C8 6239   2.536   3.735  15.447  0.2608  0.5238  0.3883
  414TMC3    O1 6240   2.046   3.974  15.407 -0.4744 -1.0299  0.6580
  414TMC3    O2 6241   2.496   3.635  15.386 -0.3107  0.5174 -0.1887
  415TMC3    C1 6242   2.154   1.625  10.238  0.3672 -0.2429 -0.0195
  415TMC3    C2 6243   2.163   1.759  10.205 -0.4616 -0.0422  0.3179
  415TMC3    C3 6244   2.077   1.807  10.106  1.1402 -0.1460 -0.1344
  415TMC3    C4 6245   2.086   1.530  10.170 -0.3003  0.3018  0.0414
  415TMC3    C5 6246   2.007   1.578  10.069  0.1715  0.1947  0.5420
  415TMC3    C6 6247   2.000   1.714  10.036  0.0860 -0.7306 -0.8549
  415TMC3     C 6248   2.264   1.572  10.317 -0.8079 -0.3707  0.1453
  415TMC3     O 6249   2.249   1.473  10.386 -0.1330 -0.1776  0.2636
  415TMC3     H 6250   2.211   1.830  10.271  2.2450  0.2466 -1.9508
  415TMC3    H1 6251   2.075   1.430  10.211 -3.5543  0.6360 -0.0277
  415TMC3    H2 6252   1.943   1.746   9.950 -0.2645  0.3215 -0.2334
  415TMC3    C7 6253   1.950   1.488   9.973  0.5998  1.3278 -0.0101
  415TMC3    C8 6254   2.102   1.923  10.034 -0.1260 -0.5229 -0.4663
  415TMC3    O1 6255   1.880   1.535   9.885  0.4592  0.5619 -0.6910
  415TMC3    O2 6256   2.019   1.958   9.954  0.2579  0.2898  0.2189
  416MPD2     C 6257   4.483   0.798  11.614 -0.7833 -0.7055 -0.0014
  416MPD2    C1 6258   4.358   0.740  11.563  0.1466 -0.2724 -0.3541
  416MPD2    C2 6259   4.375   0.646  11.462 -0.5473  0.0724 -0.5557
  416MPD2    C3 6260   4.506   0.608  11.427  1.0109 -0.1371  0.3158
  416MPD2    C4 6261   4.624   0.672  11.464 -0.0453  0.2675  0.3268
  416MPD2    C5 6262   4.609   0.762  11.568  0.5680 -0.0410 -0.3867
  416MPD2     H 6263   4.293   0.591  11.416 -1.9095  1.6232  0.0305
  416MPD2    H1 6264   4.725   0.641  11.441  0.0347 -0.1607  1.2593
  416MPD2    H2 6265   4.479   0.867  11.698 -0.5410 -1.0123  0.2672
  416MPD2    H3 6266   4.699   0.810  11.604  1.0302 -0.7697 -0.5779
  416MPD2     N 6267   4.509   0.491  11.348  0.0027  0.0963 -0.2421
  416MPD2    H5 6268   4.423   0.439  11.335 -0.1102  0.2177  0.0272
  416MPD2    N1 6269   4.229   0.781  11.610 -0.1101  0.2608  0.7085
  416MPD2    H7 6270   4.222   0.845  11.688 -0.4953  1.2113 -0.1070
  417TMC3    C1 6271   4.008   0.795  11.650 -0.2299  0.2902  0.0771
  417TMC3    C2 6272   4.024   0.825  11.781 -0.9978 -0.0893  0.3237
  417TMC3    C3 6273   3.935   0.904  11.840 -0.2048  0.0203 -0.2177
  417TMC3    C4 6274   3.915   0.858  11.575 -0.3754  0.3320 -0.2027
  417TMC3    C5 6275   3.826   0.941  11.637  0.0687  0.2486  0.0521
  417TMC3    C6 6276   3.841   0.968  11.770  0.7927 -0.2221 -0.2110
  417TMC3     C 6277   4.107   0.737  11.565 -0.2657  0.2942  0.3423
  417TMC3     O 6278   4.084   0.676  11.459 -0.4934 -0.3346 -0.2064
  417TMC3     H 6279   4.084   0.759  11.843 -0.0861  0.0934 -0.3805
  417TMC3    H1 6280   3.905   0.844  11.468 -0.1905 -1.1088 -0.0277
  417TMC3    H2 6281   3.766   1.018  11.829  1.4428  1.2369 -0.6158
  417TMC3    C7 6282   3.712   0.985  11.559 -0.7718  0.3519  0.5436
  417TMC3    C8 6283   3.932   0.923  11.985 -0.0001 -0.5876  0.6848
  417TMC3    O1 6284   3.704   0.947  11.443  0.0797 -0.1761 -0.0704
  417TMC3    O2 6285   3.840   0.989  12.029 -0.6834  0.0093 -0.0093
  418TMC3    C1 6286   3.449   2.461   0.442  0.0444 -0.3676 -0.4783
  418TMC3    C2 6287   3.329   2.524   0.438 -0.3652  0.1572 -0.3733
  418TMC3    C3 6288   3.267   2.548   0.553  0.4201  0.4972  0.4009
  418TMC3    C4 6289   3.504   2.418   0.561 -0.5807  0.6205  0.8279
  418TMC3    C5 6290   3.440   2.451   0.678  0.5785  0.5735 -0.3423
  418TMC3    C6 6291   3.318   2.518   0.675 -0.0314  0.1007 -0.6946
  418TMC3     C 6292   3.521   2.435   0.316 -0.3239 -0.1081 -0.1284
  418TMC3     O 6293   3.477   2.492   0.220 -0.3002 -0.1613  0.1775
  418TMC3     H 6294   3.279   2.549   0.346 -2.8919 -0.1301  0.9215
  418TMC3    H1 6295   3.599   2.367   0.565 -0.6041  0.3391 -2.3072
  418TMC3    H2 6296   3.260   2.541   0.763 -1.3098 -3.2305 -0.6979
  418TMC3    C7 6297   3.459   2.350   0.784  0.5727 -0.3965  0.2423
  418TMC3    C8 6298   3.128   2.513   0.556  0.2861 -0.7693  1.4782
  418TMC3    O1 6299   3.513   2.245   0.744  0.4594  0.0254 -0.2109
  418TMC3    O2 6300   3.050   2.606   0.578 -0.7741 -0.0800  0.4797
  419MPD2     C 6301   1.590   0.512  12.645 -0.5353 -0.0159  0.1894
  419MPD2    C1 6302   1.562   0.645  12.628  0.3602 -0.2022  0.7823
  419MPD2    C2 6303   1.551   0.730  12.739  0.2330  0.3021  0.3391
  419MPD2    C3 6304   1.550   0.673  12.868 -0.4340 -1.1740 -0.0695
  419MPD2    C4 6305   1.585   0.541  12.875  0.3518  0.1572 -0.3020
  419MPD2    C5 6306   1.611   0.462  12.769 -0.7126 -0.2562  0.0439
  419MPD2     H 6307   1.538   0.838  12.734 -2.3858  0.0702  2.1167
  419MPD2    H1 6308   1.583   0.484  12.968 -0.2464 -2.2907 -1.8093
  419MPD2    H2 6309   1.584   0.435  12.569 -1.6910  2.4523 -2.2067
  419MPD2    H3 6310   1.632   0.358  12.791 -0.0468  0.1193  1.1961
  419MPD2     N 6311   1.519   0.757  12.979  0.5691 -0.4825 -0.3968
  419MPD2    H5 6312   1.499   0.852  12.951 -1.5856 -1.0428 -0.7487
  419MPD2    N1 6313   1.540   0.704  12.499  0.6240 -0.0264 -0.6633
  419MPD2    H7 6314   1.514   0.802  12.501  1.4370  0.1615  0.5019
  420TMC3    C1 6315   1.513   0.853  13.203 -0.2231  0.9814  0.6090
  420TMC3    C2 6316   1.397   0.918  13.190  0.2718  0.0468 -0.0197
  420TMC3    C3 6317   1.382   1.026  13.274  0.1407 -0.2138 -0.1466
  420TMC3    C4 6318   1.608   0.886  13.292  0.0108  0.6882 -0.0299
  420TMC3    C5 6319   1.580   0.981  13.382 -0.1832 -0.2365  0.3607
  420TMC3    C6 6320   1.469   1.059  13.377  0.1204  0.2136  0.7846
  420TMC3     C 6321   1.544   0.738  13.113  0.1300  0.0423 -0.1620
  420TMC3     O 6322   1.626   0.657  13.155  0.0396 -0.6946  0.2124
  420TMC3     H 6323   1.329   0.887  13.113  0.5251  0.2700 -0.3336
  420TMC3    H1 6324   1.688   0.814  13.306 -0.1911  0.0941 -1.9016
  420TMC3    H2 6325   1.455   1.140  13.447 -0.2047 -1.4330  2.6309
  420TMC3    C7 6326   1.654   0.982  13.517  0.5431  0.5904 -0.1786
  420TMC3    C8 6327   1.282   1.130  13.244 -0.5941  0.2107  1.0088
  420TMC3    O1 6328   1.600   1.003  13.625  0.3870  0.0890  0.3670
  420TMC3    O2 6329   1.295   1.249  13.278 -0.0109 -0.4246 -0.0083
  421TMC3    C1 6330   3.321   2.616  13.917  0.1865  0.0131 -0.3471
  421TMC3    C2 6331   3.325   2.756  13.926 -0.6823 -0.0069 -0.5074
  421TMC3    C3 6332   3.451   2.813  13.916  0.7517  0.1871 -0.4685
  421TMC3    C4 6333   3.432   2.539  13.890 -0.3685 -0.0319  0.2030
  421TMC3    C5 6334   3.557   2.605  13.890 -0.7731  0.0417  0.3121
  421TMC3    C6 6335   3.560   2.742  13.889 -0.4606 -0.4154  0.1366
  421TMC3     C 6336   3.193   2.557  13.961  0.5258 -0.0099 -0.2278
  421TMC3     O 6337   3.112   2.638  14.011  0.3912 -0.1741 -0.4440
  421TMC3     H 6338   3.237   2.819  13.931 -0.1860  0.7242 -0.9107
  421TMC3    H1 6339   3.424   2.432  13.875 -1.3473  0.2115 -0.9554
  421TMC3    H2 6340   3.649   2.800  13.867 -1.8081  1.6005  0.0234
  421TMC3    C7 6341   3.678   2.527  13.916  0.3812 -0.5432 -0.0437
  421TMC3    C8 6342   3.455   2.956  13.918 -0.2221  0.0978  0.1742
  421TMC3    O1 6343   3.783   2.586  13.931  0.5042  0.0309  0.2808
  421TMC3    O2 6344   3.537   3.018  13.986 -0.0046  0.3069  0.2615
  422TMC3    C1 6345   0.637   3.758  12.624  0.2531  0.0582 -0.5052
  422TMC3    C2 6346   0.556   3.869  12.627  0.5232  0.7530  0.4879
  422TMC3    C3 6347   0.436   3.860  12.689  0.0434 -0.4660 -0.3642
  422TMC3    C4 6348   0.590   3.633  12.664  0.5568 -0.5804  0.7504
  422TMC3    C5 6349   0.462   3.631  12.704 -0.3625  0.2858  0.2382
  422TMC3    C6 6350   0.380   3.740  12.712 -0.1337 -0.3025  0.3214
  422TMC3     C 6351   0.766   3.764  12.553  0.2391 -0.3176 -0.3785
  422TMC3     O 6352   0.781   3.870  12.492  0.6899  0.2430  0.0904
  422TMC3     H 6353   0.593   3.961  12.583  3.5365 -1.1363 -0.8924
  422TMC3    H1 6354   0.660   3.551  12.676  1.3275  0.0073  0.2220
  422TMC3    H2 6355   0.274   3.737  12.735 -0.3495 -0.1009 -0.6480
  422TMC3    C7 6356   0.417   3.506  12.761  0.9497 -0.2605 -0.1705
  422TMC3    C8 6357   0.363   3.978  12.711 -0.3212  0.4477 -0.4618
  422TMC3    O1 6358   0.507   3.422  12.764 -0.6858 -0.4299 -0.1992
  422TMC3    O2 6359   0.246   3.978  12.673 -0.4870 -0.5464 -0.0216
  423MPD2     C 6360   1.747   4.584   0.623  0.3022  0.6358 -0.8911
  423MPD2    C1 6361   1.830   4.479   0.668 -0.1382 -0.2633  0.0672
  423MPD2    C2 6362   1.904   4.416   0.573  0.1521  0.0020  0.4573
  423MPD2    C3 6363   1.894   4.457   0.438  0.6613  0.6882 -0.0705
  423MPD2    C4 6364   1.812   4.560   0.397  0.5625 -0.3630  0.8969
  423MPD2    C5 6365   1.736   4.618   0.493 -0.1106 -0.3979  0.5535
  423MPD2     H 6366   1.962   4.331   0.605  0.0593  0.3596  1.6018
  423MPD2    H1 6367   1.801   4.595   0.295  0.9504 -1.5189  0.4651
  423MPD2    H2 6368   1.676   4.627   0.693  1.1658 -1.5929  1.3682
  423MPD2    H3 6369   1.674   4.704   0.469 -0.6544 -0.9304  0.0813
  423MPD2     N 6370   1.981   4.398   0.341  0.3733 -0.2363  0.0621
  423MPD2    H5 6371   1.965   4.422   0.244 -2.0176 -1.5665  0.1295
  423MPD2    N1 6372   1.833   4.434   0.801  0.6473  0.0259  0.4498
  423MPD2    H7 6373   1.904   4.368   0.832 -0.8547 -2.2598 -1.0335
  424TMC3    C1 6374   1.802   4.421   1.040 -0.6204  0.7314 -0.5499
  424TMC3    C2 6375   1.936   4.413   1.064  0.1063 -0.8207 -0.7136
  424TMC3    C3 6376   1.972   4.381   1.192  0.1266 -0.0582 -0.0048
  424TMC3    C4 6377   1.709   4.394   1.135  1.0298 -0.1608 -0.5892
  424TMC3    C5 6378   1.752   4.355   1.257 -0.6489  0.1938  0.2816
  424TMC3    C6 6379   1.882   4.343   1.288 -0.1505  0.4773  0.3965
  424TMC3     C 6380   1.752   4.469   0.910 -0.8298  0.2556 -0.1003
  424TMC3     O 6381   1.658   4.545   0.909 -0.0423 -0.3543  0.0805
  424TMC3     H 6382   2.013   4.443   0.993 -0.1921  0.2935 -0.5684
  424TMC3    H1 6383   1.608   4.418   1.104  0.5641 -1.1474  0.1564
  424TMC3    H2 6384   1.907   4.317   1.390  0.4348  0.7171  0.3157
  424TMC3    C7 6385   1.661   4.338   1.364  0.2018 -0.3848  0.2130
  424TMC3    C8 6386   2.113   4.349   1.208 -0.0001 -0.2003 -0.6165
  424TMC3    O1 6387   1.697   4.264   1.450  0.0920  0.0082  0.3135
  424TMC3    O2 6388   2.189   4.407   1.132 -0.0911  0.8749  0.3132
  425MPD2     C 6389   1.663   3.280  17.430 -0.8555 -0.3705 -0.4757
  425MPD2    C1 6390   1.554   3.240  17.356 -0.2828  0.2811 -0.6286
  425MPD2    C2 6391   1.460   3.340  17.330 -0.0856  0.0045 -0.6810
  425MPD2    C3 6392   1.484   3.474  17.358  0.3119 -0.1200 -0.0445
  425MPD2    C4 6393   1.600   3.504  17.416 -0.6632 -1.0767 -0.6728
  425MPD2    C5 6394   1.689   3.406  17.450  0.7807  0.4702  0.0593
  425MPD2     H 6395   1.369   3.323  17.275  0.6426  0.0869 -1.9073
  425MPD2    H1 6396   1.627   3.607  17.433 -0.6149 -0.8564 -2.0813
  425MPD2    H2 6397   1.736   3.207  17.462 -0.8189 -0.7238 -1.3845
  425MPD2    H3 6398   1.789   3.420  17.489  0.6325  1.1100  0.2036
  425MPD2     N 6399   1.386   3.562  17.316  0.1781  0.3614 -0.3190
  425MPD2    H5 6400   1.312   3.520  17.260 -1.2680  0.4191  1.5639
  425MPD2    N1 6401   1.534   3.104  17.336  0.5403  0.0201  0.7595
  425MPD2    H7 6402   1.606   3.036  17.359  0.0410 -0.4380  0.9792
  426TMC3    C1 6403   1.423   2.911  17.287 -0.0271 -0.1203 -0.2703
  426TMC3    C2 6404   1.480   2.882  17.167 -0.3456 -0.4094  0.3408
  426TMC3    C3 6405   1.443   2.764  17.100 -0.4954 -0.8382 -0.3279
  426TMC3    C4 6406   1.331   2.833  17.348 -0.2393 -0.4928  0.0235
  426TMC3    C5 6407   1.291   2.721  17.272 -0.3375 -0.3083  0.4127
  426TMC3    C6 6408   1.345   2.682  17.153  0.3584 -0.0278  0.5776
  426TMC3     C 6409   1.408   3.051  17.307 -0.4177  0.3680  0.3046
  426TMC3     O 6410   1.295   3.097  17.318  0.0432  0.7442  0.4457
  426TMC3     H 6411   1.559   2.945  17.129 -1.4867 -0.3843 -1.9391
  426TMC3    H1 6412   1.300   2.865  17.447 -1.5956  0.6028 -0.7381
  426TMC3    H2 6413   1.302   2.596  17.104  1.5437 -0.6561  0.6480
  426TMC3    C7 6414   1.175   2.643  17.306  0.3460 -0.1072  0.8462
  426TMC3    C8 6415   1.455   2.760  16.955 -0.1952 -0.2166 -0.6667
  426TMC3    O1 6416   1.161   2.527  17.272  0.4870 -0.8809  0.1196
  426TMC3    O2 6417   1.462   2.647  16.908 -0.5116 -0.3435  0.1566
  427MPD2     C 6418   4.367   1.156  14.765  0.4483  0.1433  0.4538
  427MPD2    C1 6419   4.293   1.088  14.864 -0.5115 -0.4631 -0.5733
  427MPD2    C2 6420   4.166   1.125  14.891  0.2091 -0.2496 -0.1372
  427MPD2    C3 6421   4.110   1.241  14.845 -0.0010 -0.0472 -0.8920
  427MPD2    C4 6422   4.192   1.322  14.773 -0.0856  0.1393  0.2902
  427MPD2    C5 6423   4.315   1.278  14.728 -0.2033 -0.6290 -0.3558
  427MPD2     H 6424   4.102   1.052  14.939  2.1274 -1.5865  0.3854
  427MPD2    H1 6425   4.162   1.421  14.740 -0.9801  0.1221  1.0647
  427MPD2    H2 6426   4.465   1.133  14.724 -1.7588 -2.6117 -3.2814
  427MPD2    H3 6427   4.381   1.334  14.662 -1.3795  0.4918 -0.5593
  427MPD2     N 6428   3.976   1.289  14.857 -0.2495 -0.3152  0.0145
  427MPD2    H5 6429   3.960   1.385  14.829  2.6371  0.0581 -0.3095
  427MPD2    N1 6430   4.348   0.975  14.926 -0.3298 -0.4136  0.2083
  427MPD2    H7 6431   4.446   0.951  14.912  0.0946  1.1318  0.5875
  428TMC3    C1 6432   4.367   0.790  15.071 -0.3768  0.5020  0.1703
  428TMC3    C2 6433   4.319   0.669  15.106  0.5552  0.2041  0.1096
  428TMC3    C3 6434   4.387   0.591  15.199  0.0573 -0.6738 -0.3543
  428TMC3    C4 6435   4.494   0.834  15.111 -0.2349 -0.1646  0.1350
  428TMC3    C5 6436   4.549   0.751  15.206 -0.7573 -0.0875 -0.1553
  428TMC3    C6 6437   4.504   0.632  15.249  0.0773 -0.0746 -0.2946
  428TMC3     C 6438   4.281   0.882  15.003 -0.2087 -0.2999  0.2470
  428TMC3     O 6439   4.162   0.863  15.014  0.8511 -0.5292 -0.1356
  428TMC3     H 6440   4.220   0.638  15.073  0.2186  0.5062  0.8269
  428TMC3    H1 6441   4.530   0.935  15.100 -0.2348 -0.3062 -1.2389
  428TMC3    H2 6442   4.549   0.576  15.330  0.4750 -0.8151 -1.0161
  428TMC3    C7 6443   4.674   0.803  15.253 -0.5377  0.6870  1.0845
  428TMC3    C8 6444   4.362   0.452  15.216  0.3589 -0.0750  0.5097
  428TMC3    O1 6445   4.717   0.759  15.360  0.5514  0.7102 -0.4925
  428TMC3    O2 6446   4.460   0.389  15.257  0.1516 -0.0109 -0.2586
  429MPD2     C 6447   0.710   0.740  17.615 -0.2332  0.1188  0.3302
  429MPD2    C1 6448   0.782   0.652  17.543  0.0397 -0.3963 -0.2079
  429MPD2    C2 6449   0.865   0.696  17.447  0.2507  0.6629 -0.0352
  429MPD2    C3 6450   0.886   0.829  17.438  0.0427  0.2892 -0.0492
  429MPD2    C4 6451   0.813   0.918  17.508  0.4220 -0.6614 -0.2570
  429MPD2    C5 6452   0.722   0.874  17.602 -0.4306  0.1389 -0.9647
  429MPD2     H 6453   0.932   0.631  17.391 -0.8230 -1.6428  1.3944
  429MPD2    H1 6454   0.813   1.021  17.474  2.1031  0.0571  1.9372
  429MPD2    H2 6455   0.645   0.709  17.697 -0.2224  1.1503  0.7373
  429MPD2    H3 6456   0.658   0.941  17.659 -0.4345 -1.5030  0.9381
  429MPD2     N 6457   0.961   0.857  17.326  0.4619  0.3850  0.3967
  429MPD2    H5 6458   1.005   0.776  17.285 -0.3896 -0.3811  1.0085
  429MPD2    N1 6459   0.779   0.512  17.571 -0.5084 -0.3714  0.5853
  429MPD2    H7 6460   0.839   0.450  17.518 -0.3297 -1.3326  1.9003
  430TMC3    C1 6461   1.063   0.966  17.141  0.4359 -0.4453  0.0444
  430TMC3    C2 6462   1.053   1.063  17.046 -0.1299 -0.5367 -0.2228
  430TMC3    C3 6463   1.130   1.048  16.936 -0.2758 -0.0254 -0.2645
  430TMC3    C4 6464   1.153   0.863  17.131 -0.3248 -0.4636 -0.4749
  430TMC3    C5 6465   1.223   0.847  17.015  0.8780  0.1527 -0.4721
  430TMC3    C6 6466   1.212   0.944  16.917 -0.1671  0.3767 -0.4725
  430TMC3     C 6467   0.977   0.979  17.258  0.0117 -0.7541  0.3281
  430TMC3     O 6468   0.918   1.085  17.275 -0.6257 -0.0814  0.0360
  430TMC3     H 6469   0.985   1.147  17.056  1.7505  1.1838 -1.8367
  430TMC3    H1 6470   1.165   0.779  17.198 -0.5368  0.7388  1.0661
  430TMC3    H2 6471   1.291   0.948  16.842  0.8023 -0.7005  0.4946
  430TMC3    C7 6472   1.210   0.720  16.947 -0.4489 -0.7060 -0.6856
  430TMC3    C8 6473   1.069   1.087  16.812  0.4297  0.0012 -0.4818
  430TMC3    O1 6474   1.236   0.624  17.013 -0.7127  0.2680 -0.0121
  430TMC3    O2 6475   1.080   1.001  16.723  0.1192  0.0219 -0.1296
  431MPD2     C 6476   2.163   1.437  12.313  0.0461  0.3153  0.0130
  431MPD2    C1 6477   2.081   1.379  12.408  0.2881  0.5475 -0.2771
  431MPD2    C2 6478   2.010   1.264  12.376  0.0380  0.3978 -0.7577
  431MPD2    C3 6479   2.013   1.199  12.257  0.1467 -0.1576 -0.1415
  431MPD2    C4 6480   2.105   1.249  12.167  0.3275 -0.6368  0.5003
  431MPD2    C5 6481   2.175   1.370  12.193 -0.2194 -0.4396 -0.5245
  431MPD2     H 6482   1.956   1.214  12.456  1.1340  0.4606  0.0321
  431MPD2    H1 6483   2.129   1.198  12.075 -2.2097  0.3329 -0.7049
  431MPD2    H2 6484   2.216   1.530  12.335 -1.4028  1.2261 -0.3745
  431MPD2    H3 6485   2.239   1.415  12.118 -1.7181  3.7161  0.6839
  431MPD2     N 6486   1.919   1.096  12.223  0.6164 -0.1194  0.2464
  431MPD2    H5 6487   1.923   1.067  12.126 -1.0066  0.4367  0.0144
  431MPD2    N1 6488   2.070   1.432  12.538  0.0418 -0.4398  0.6779
  431MPD2    H7 6489   1.994   1.398  12.596 -1.2168  0.4335 -0.4481
  432TMC3    C1 6490   1.753   0.936  12.247  0.7089 -0.5905 -0.0338
  432TMC3    C2 6491   1.801   0.875  12.131  1.0907  0.1427 -0.0962
  432TMC3    C3 6492   1.738   0.761  12.087  0.1018  0.2133 -0.1355
  432TMC3    C4 6493   1.666   0.866  12.327  0.5592  0.3079 -1.1182
  432TMC3    C5 6494   1.618   0.746  12.285 -0.1004 -0.4272  1.0071
  432TMC3    C6 6495   1.643   0.690  12.166 -0.0693 -0.3157 -0.3400
  432TMC3     C 6496   1.826   1.045  12.306  0.3137  0.1385  0.5852
  432TMC3     O 6497   1.778   1.091  12.408 -0.4592 -0.3796 -0.3209
  432TMC3     H 6498   1.884   0.909  12.071  0.6019  2.0388  0.3159
  432TMC3    H1 6499   1.652   0.907  12.426 -2.5574  2.9771 -2.6645
  432TMC3    H2 6500   1.616   0.588  12.142  0.9881 -1.0805  1.7474
  432TMC3    C7 6501   1.580   0.651  12.387  0.0784  0.3162  0.0003
  432TMC3    C8 6502   1.820   0.674  11.997  0.5325  0.5793 -0.2521
  432TMC3    O1 6503   1.595   0.535  12.357  0.3417 -0.7147 -0.0223
  432TMC3    O2 6504   1.939   0.709  11.984 -0.0434  0.5405  0.3481
  433MPD2     C 6505   0.916   0.209  11.464  0.0057 -0.1709 -0.0782
  433MPD2    C1 6506   0.787   0.162  11.472  0.5047 -0.9788  0.3246
  433MPD2    C2 6507   0.737   0.140  11.596 -0.1959  0.4375 -0.1250
  433MPD2    C3 6508   0.813   0.171  11.706 -0.0826 -0.0613  0.0893
  433MPD2    C4 6509   0.938   0.225  11.694  0.1967 -0.4818 -0.0124
  433MPD2    C5 6510   0.990   0.244  11.570  0.4447  0.3135  0.1062
  433MPD2     H 6511   0.638   0.097  11.604  1.5404 -3.6294 -0.3583
  433MPD2    H1 6512   0.995   0.245  11.784 -1.3875 -0.5533  1.0139
  433MPD2    H2 6513   0.968   0.235  11.372 -0.0545 -1.6166 -0.5202
  433MPD2    H3 6514   1.089   0.289  11.566  0.5406  0.1284  0.3876
  433MPD2     N 6515   0.756   0.120  11.827  1.2559  0.4063 -0.3261
  433MPD2    H5 6516   0.675   0.059  11.827  2.2248 -0.8927 -1.0997
  433MPD2    N1 6517   0.714   0.142  11.351 -0.0485 -0.6068 -0.3631
  433MPD2    H7 6518   0.765   0.147  11.264  0.7973 -1.5624  0.0756
  434TMC3    C1 6519   0.547   0.007  11.235  0.7174  0.2499 -0.7752
  434TMC3    C2 6520   0.534   4.619  11.276 -0.4149  0.1227  0.1340
  434TMC3    C3 6521   0.552   4.521  11.179  0.2164 -0.3266  0.4368
  434TMC3    C4 6522   0.568   0.040  11.100 -0.6522  0.4219  0.7703
  434TMC3    C5 6523   0.597   4.677  11.008  0.3859 -0.1154 -0.4119
  434TMC3    C6 6524   0.584   4.550  11.049 -0.1889  0.4473 -0.6689
  434TMC3     C 6525   0.583   0.097  11.343  0.0723  0.3772  0.5899
  434TMC3     O 6526   0.503   0.091  11.435  0.4198  0.3637 -0.5480
  434TMC3     H 6527   0.514   4.602  11.381  0.3684 -0.2365  0.2222
  434TMC3    H1 6528   0.573   0.145  11.076 -1.5575  0.4471  0.6938
  434TMC3    H2 6529   0.626   4.469  10.991  0.3353  1.2231 -1.3710
  434TMC3    C7 6530   0.583   4.716  10.867 -0.0341 -0.1443 -0.2827
  434TMC3    C8 6531   0.612   4.403  11.229 -0.2448 -0.0933  0.1272
  434TMC3    O1 6532   0.534   0.086  10.861 -0.3341  0.0440 -0.1401
  434TMC3    O2 6533   0.682   4.407  11.329  0.7272 -0.2323 -0.0015
  435MPD2     C 6534   2.593   4.707  15.609  0.3029 -1.0893 -0.2391
  435MPD2    C1 6535   2.568   4.694  15.748 -0.3657  0.1627  0.2292
  435MPD2    C2 6536   2.675   4.678  15.832 -0.0078  0.0723  0.5479
  435MPD2    C3 6537   2.806   4.660  15.798 -0.0906  0.6227  0.6819
  435MPD2    C4 6538   2.828   4.671  15.663  0.4767  0.0014 -0.4298
  435MPD2    C5 6539   2.728   4.706  15.570 -0.4922 -0.5210  0.4180
  435MPD2     H 6540   2.657   4.684  15.939  0.6541 -1.2004  0.7260
  435MPD2    H1 6541   2.926   4.675  15.616  0.1227  0.7736 -1.1045
  435MPD2    H2 6542   2.521   0.012  15.539  1.9330 -0.7453 -1.7176
  435MPD2    H3 6543   2.754   4.721  15.466  2.1819 -3.3563  0.6542
  435MPD2     N 6544   2.902   4.628  15.899  0.2280  0.4536  0.2042
  435MPD2    H5 6545   2.859   4.612  15.990  0.7445  1.5423  0.6376
  435MPD2    N1 6546   2.445   4.729  15.808 -0.2350 -0.4855 -0.0094
  435MPD2    H7 6547   2.446   4.710  15.908 -0.3787  0.6933  0.2143
  436TMC3    C1 6548   2.120   0.104  16.024  0.3712  0.1159  0.1815
  436TMC3    C2 6549   2.232   0.086  15.942  0.1230  0.1927 -0.0600
  436TMC3    C3 6550   2.213   0.009  15.833 -0.0087  0.1896 -0.6588
  436TMC3    C4 6551   2.008   0.037  16.002  0.6535 -0.1779 -0.9262
  436TMC3    C5 6552   1.993   4.700  15.885 -0.1501 -0.6219 -0.5118
  436TMC3    C6 6553   2.099   4.691  15.797  0.3639  0.6833  0.2219
  436TMC3     C 6554   2.148   0.170  16.152  0.0985 -0.2916  0.3686
  436TMC3     O 6555   2.262   0.178  16.195 -0.3961 -0.0819  0.2102
  436TMC3     H 6556   2.327   0.127  15.973  0.4731 -1.2510  0.7341
  436TMC3    H1 6557   1.924   0.049  16.069  1.5424  0.7643  0.0402
  436TMC3    H2 6558   2.094   4.642  15.701  1.4636  1.8971 -0.4388
  436TMC3    C7 6559   1.866   4.660  15.828  0.5224  0.0725  1.1351
  436TMC3    C8 6560   2.328   0.006  15.743 -0.2817  0.2949 -0.0862
  436TMC3    O1 6561   1.873   4.598  15.727 -0.3610 -0.3186 -0.2757
  436TMC3    O2 6562   2.304   0.033  15.626  0.0758  0.1871  0.0267
  437TMC3    C1 6563   1.685   1.430  12.354  0.1865 -0.8472  0.0352
  437TMC3    C2 6564   1.628   1.364  12.251 -0.1380 -0.2199 -0.0381
  437TMC3    C3 6565   1.673   1.385  12.126  0.1694  0.7433 -0.6040
  437TMC3    C4 6566   1.795   1.506  12.337  0.2997 -0.5062 -0.4194
  437TMC3    C5 6567   1.834   1.536  12.210 -0.6223  0.1060 -0.7020
  437TMC3    C6 6568   1.769   1.484  12.103  0.1149 -0.5903 -0.3238
  437TMC3     C 6569   1.655   1.397  12.498  0.1239 -0.2528 -0.0598
  437TMC3     O 6570   1.751   1.382  12.573  0.5560  0.3219 -0.1192
  437TMC3     H 6571   1.555   1.284  12.261 -0.3813  0.2168  1.6959
  437TMC3    H1 6572   1.831   1.557  12.425  0.1628 -0.3181 -0.4710
  437TMC3    H2 6573   1.803   1.515  12.005 -1.6401 -0.6895 -0.9620
  437TMC3    C7 6574   1.913   1.659  12.193 -0.3379 -0.1303  0.4111
  437TMC3    C8 6575   1.610   1.317  12.013 -0.0239  0.3948 -0.0067
  437TMC3    O1 6576   1.914   1.700  12.076  0.7310  0.8571 -0.0369
  437TMC3    O2 6577   1.574   1.201  12.031 -0.2181 -0.0297 -0.0589
  438MPD2     C 6578   3.578   2.498  17.092  0.3475  0.2302 -0.5273
  438MPD2    C1 6579   3.617   2.366  17.110  0.6750  0.7187  0.4510
  438MPD2    C2 6580   3.587   2.305  17.230  0.6236  0.2132 -0.4002
  438MPD2    C3 6581   3.534   2.382  17.332  0.5499  0.1321  0.0359
  438MPD2    C4 6582   3.521   2.519  17.314 -0.3994 -0.7026  0.2347
  438MPD2    C5 6583   3.540   2.579  17.194 -0.3072 -0.2012  0.0695
  438MPD2     H 6584   3.598   2.198  17.234 -1.2440  0.1498  2.8122
  438MPD2    H1 6585   3.483   2.579  17.397 -0.3645  0.0115 -0.2688
  438MPD2    H2 6586   3.605   2.548  17.000 -0.1459  0.4663 -0.5409
  438MPD2    H3 6587   3.518   2.684  17.181 -1.4029 -0.6085 -1.3125
  438MPD2     N 6588   3.501   2.325  17.460 -0.0289 -0.2095 -0.4075
  438MPD2    H5 6589   3.453   2.384  17.526  2.9923  0.4810  1.1424
  438MPD2    N1 6590   3.691   2.293  17.009 -0.0486 -0.9037  0.3762
  438MPD2    H7 6591   3.717   2.200  17.041  0.6594 -1.1159 -0.8339
  439TMC3    C1 6592   3.818   2.240  16.829  0.6954  0.1864  0.9174
  439TMC3    C2 6593   3.816   2.203  16.698 -0.0448  0.1655 -0.4877
  439TMC3    C3 6594   3.912   2.123  16.653 -0.0761  0.6642  0.4037
  439TMC3    C4 6595   3.918   2.200  16.919  0.2979  0.1460 -0.0751
  439TMC3    C5 6596   4.022   2.128  16.868 -0.3289 -0.4552  0.1892
  439TMC3    C6 6597   4.016   2.078  16.734 -0.1856 -0.0566  0.8332
  439TMC3     C 6598   3.730   2.337  16.886 -0.2285  0.6455  1.2084
  439TMC3     O 6599   3.715   2.444  16.830  0.0132 -0.0036 -0.4417
  439TMC3     H 6600   3.739   2.228  16.626  0.4813  2.4712 -0.2776
  439TMC3    H1 6601   3.915   2.219  17.026 -0.6510  0.7881 -0.2211
  439TMC3    H2 6602   4.089   2.007  16.696 -2.2615 -1.1022 -1.1641
  439TMC3    C7 6603   4.143   2.113  16.944  0.6395  0.1880 -0.2345
  439TMC3    C8 6604   3.901   2.065  16.521 -0.1200 -0.3840  0.1924
  439TMC3    O1 6605   4.131   2.133  17.066 -0.6705  0.5505 -0.3699
  439TMC3    O2 6606   3.930   1.945  16.516  0.0835 -0.5534  0.7049
  440MPD2     C 6607   2.454   3.427  14.586 -0.3624  0.1315 -0.0633
  440MPD2    C1 6608   2.407   3.414  14.711  0.6516 -0.0878 -0.6401
  440MPD2    C2 6609   2.488   3.343  14.798 -0.4541  0.2021  0.6725
  440MPD2    C3 6610   2.620   3.301  14.772 -0.2942 -0.3250  0.1273
  440MPD2    C4 6611   2.666   3.322  14.643 -0.0092  0.4728  0.4036
  440MPD2    C5 6612   2.576   3.376  14.554  0.3605 -0.3671  0.3917
  440MPD2     H 6613   2.444   3.325  14.895 -1.4902  1.2604  0.4077
  440MPD2    H1 6614   2.761   3.286  14.605 -0.6350 -1.9343  1.0597
  440MPD2    H2 6615   2.402   3.469  14.501 -1.9000 -1.2219  0.2237
  440MPD2    H3 6616   2.602   3.390  14.449  2.3505 -1.6134  0.7184
  440MPD2     N 6617   2.719   3.247  14.859  0.0375  0.9721  0.9982
  440MPD2    H5 6618   2.812   3.225  14.824 -0.5280 -0.5517  0.4432
  440MPD2    N1 6619   2.282   3.470  14.754  0.6087 -0.4102 -0.4333
  440MPD2    H7 6620   2.268   3.445  14.852  1.1616  1.0803  0.0282
  441TMC3    C1 6621   2.802   3.132  15.036 -0.4335 -0.3209  0.0785
  441TMC3    C2 6622   2.885   3.228  15.083  0.2588 -0.1980 -0.2242
  441TMC3    C3 6623   2.972   3.195  15.182  0.4501 -0.6270  0.5974
  441TMC3    C4 6624   2.780   3.023  15.106  0.6930 -0.2512  0.7318
  441TMC3    C5 6625   2.871   2.988  15.199  0.2185 -0.1949  0.6136
  441TMC3    C6 6626   2.978   3.065  15.223 -0.7860  0.1577 -0.4405
  441TMC3     C 6627   2.684   3.173  14.970 -0.0521 -0.0569 -0.7934
  441TMC3     O 6628   2.577   3.157  15.024 -0.0973 -0.7383  0.1830
  441TMC3     H 6629   2.891   3.327  15.039 -0.3214 -0.2123 -0.3438
  441TMC3    H1 6630   2.700   2.959  15.071  1.3066 -1.1098  0.9134
  441TMC3    H2 6631   3.051   3.037  15.299  1.5243  3.8566 -1.3016
  441TMC3    C7 6632   2.832   2.875  15.285  0.7078  0.0732  0.1044
  441TMC3    C8 6633   3.014   3.300  15.266  0.6887 -0.0778  0.8911
  441TMC3    O1 6634   2.721   2.834  15.291  0.2415 -0.1265  0.2179
  441TMC3    O2 6635   3.130   3.315  15.304  0.0285 -0.1094  0.1613
  442MPD2     C 6636   1.051   2.958  16.578  0.1245 -0.0424 -0.4582
  442MPD2    C1 6637   0.915   2.929  16.563 -0.1706 -0.0677 -0.2919
  442MPD2    C2 6638   0.885   2.812  16.498  0.1120 -0.2906 -0.7196
  442MPD2    C3 6639   0.983   2.717  16.451 -0.4124  0.4447  0.9727
  442MPD2    C4 6640   1.114   2.745  16.483  0.0415  0.5444  0.0736
  442MPD2    C5 6641   1.145   2.863  16.540 -0.3233  0.0181 -0.4330
  442MPD2     H 6642   0.781   2.786  16.482 -0.4112  0.8552  0.8688
  442MPD2    H1 6643   1.183   2.667  16.451 -1.9885 -0.9930 -0.5667
  442MPD2    H2 6644   1.089   3.046  16.629  0.2410 -0.5491  0.3377
  442MPD2    H3 6645   1.248   2.885  16.565 -0.7340  1.2226  0.1793
  442MPD2     N 6646   0.947   2.597  16.374 -0.4316 -1.0228 -0.1980
  442MPD2    H5 6647   1.024   2.533  16.359 -0.3068 -1.0992  0.7708
  442MPD2    N1 6648   0.814   2.991  16.635  0.3133  0.8532 -0.1566
  442MPD2    H7 6649   0.724   2.947  16.619 -0.2034  1.5189  0.8710
  443TMC3    C1 6650   0.690   3.166  16.737  0.0114 -0.6093 -0.2162
  443TMC3    C2 6651   0.672   3.298  16.738 -0.3238  0.3199  0.9688
  443TMC3    C3 6652   0.571   3.340  16.816 -0.5091  0.1051  0.5119
  443TMC3    C4 6653   0.626   3.084  16.824 -0.4377 -0.0147 -0.6436
  443TMC3    C5 6654   0.539   3.136  16.914 -0.4362  0.4959 -0.4649
  443TMC3    C6 6655   0.506   3.269  16.905 -0.1038  0.6582  0.2088
  443TMC3     C 6656   0.822   3.123  16.688  0.3184  0.8167  0.0749
  443TMC3     O 6657   0.914   3.200  16.685 -0.5144 -0.3660 -0.2740
  443TMC3     H 6658   0.706   3.368  16.662 -1.3782 -0.1382  0.0863
  443TMC3    H1 6659   0.658   2.983  16.846  0.6537  0.2918 -0.8367
  443TMC3    H2 6660   0.420   3.308  16.958 -0.0832  1.5916 -0.4337
  443TMC3    C7 6661   0.467   3.041  16.992  0.0012 -0.1199  0.5250
  443TMC3    C8 6662   0.505   3.456  16.751 -0.2926  0.0571  0.4679
  443TMC3    O1 6663   0.456   2.927  16.943  0.2958  0.5770  0.2040
  443TMC3    O2 6664   0.572   3.549  16.711  0.7123  0.8720 -0.2572
  444MPD2     C 6665   0.998   2.765  16.961  0.0725 -0.1965 -0.3013
  444MPD2    C1 6666   0.927   2.665  17.019 -0.4392 -0.2806  0.3051
  444MPD2    C2 6667   0.967   2.537  16.985  0.0480  0.2402  0.2312
  444MPD2    C3 6668   1.070   2.511  16.894 -0.1483  0.8399 -0.8582
  444MPD2    C4 6669   1.137   2.618  16.844  0.8096  0.0411 -0.0743
  444MPD2    C5 6670   1.103   2.745  16.874  0.5572 -0.0198 -0.1046
  444MPD2     H 6671   0.922   2.451  17.035 -0.0571  1.5553  2.3939
  444MPD2    H1 6672   1.220   2.608  16.775  1.0327 -0.6888  0.3041
  444MPD2    H2 6673   0.984   2.867  16.996  1.2863  0.2282 -1.0559
  444MPD2    H3 6674   1.165   2.825  16.835  1.0605  1.1012  2.9917
  444MPD2     N 6675   1.097   2.375  16.852  0.0011 -0.5366 -0.3255
  444MPD2    H5 6676   1.074   2.297  16.913  0.8470 -0.1438  0.4895
  444MPD2    N1 6677   0.828   2.684  17.121 -0.3866 -0.3135 -0.5047
  444MPD2    H7 6678   0.797   2.608  17.181  1.1166  0.3203  1.0914
  445TMC3    C1 6679   1.239   2.205  16.738 -0.4056  0.1549 -0.0756
  445TMC3    C2 6680   1.151   2.110  16.768 -0.1406  0.6541 -0.3994
  445TMC3    C3 6681   1.169   1.983  16.716 -0.2569  0.0153  0.0273
  445TMC3    C4 6682   1.349   2.183  16.661 -0.4010  0.3119  0.0842
  445TMC3    C5 6683   1.369   2.057  16.621  0.3265 -0.1144 -0.7945
  445TMC3    C6 6684   1.287   1.955  16.652 -0.5544 -0.2387 -0.6991
  445TMC3     C 6685   1.172   2.344  16.738 -0.1764  0.4621  0.3130
  445TMC3     O 6686   1.179   2.410  16.637  0.1553 -0.5498 -0.3252
  445TMC3     H 6687   1.047   2.132  16.789 -0.2790  1.1091 -1.5471
  445TMC3    H1 6688   1.409   2.269  16.635 -0.7091  1.0103  1.7029
  445TMC3    H2 6689   1.309   1.852  16.628 -2.4758 -0.6357 -0.7939
  445TMC3    C7 6690   1.474   2.044  16.529  1.2311  0.0172 -0.3145
  445TMC3    C8 6691   1.096   1.871  16.783 -0.4532  0.3211 -0.2215
  445TMC3    O1 6692   1.574   2.115  16.541 -0.7376 -0.4251 -0.1658
  445TMC3    O2 6693   1.098   1.760  16.733 -0.1932  0.0632 -0.0829
  446MPD2     C 6694   0.402   4.231  11.765  0.0774  0.4660 -0.1190
  446MPD2    C1 6695   0.412   4.229  11.628 -0.5955  0.4643 -0.3515
  446MPD2    C2 6696   0.499   4.321  11.569 -0.2037  0.8074 -0.6244
  446MPD2    C3 6697   0.597   4.387  11.647  0.5049 -0.2083 -0.2959
  446MPD2    C4 6698   0.584   4.385  11.783  0.0828  0.5745 -0.4874
  446MPD2    C5 6699   0.475   4.320  11.839  0.4290 -0.2520 -0.0372
  446MPD2     H 6700   0.496   4.339  11.462  1.5759 -1.9818 -1.1533
  446MPD2    H1 6701   0.654   4.435  11.849  0.9692 -0.3142 -0.7543
  446MPD2    H2 6702   0.320   4.174  11.808  0.6680 -0.7033 -0.5573
  446MPD2    H3 6703   0.462   4.326  11.946 -1.5321  2.5509 -0.4323
  446MPD2     N 6704   0.702   4.461  11.581  0.3301  0.0590 -0.1483
  446MPD2    H5 6705   0.699   4.457  11.480  0.5702  2.8561 -0.2821
  446MPD2    N1 6706   0.332   4.156  11.544 -0.0527 -0.3318 -0.1825
  446MPD2    H7 6707   0.323   4.189  11.448 -0.8110  0.4049  0.1376
  447TMC3    C1 6708   0.924   4.546  11.562 -0.1989 -0.4653 -0.1140
  447TMC3    C2 6709   0.906   4.594  11.437  0.1216 -0.3911 -0.1867
  447TMC3    C3 6710   1.010   4.658  11.382 -0.0522 -0.8055  0.7611
  447TMC3    C4 6711   1.044   4.542  11.613  0.2012 -0.0531 -0.5586
  447TMC3    C5 6712   1.145   4.611  11.552 -0.4615 -0.0191 -0.1687
  447TMC3    C6 6713   1.126   4.682  11.438  0.3851 -0.0912 -0.0049
  447TMC3     C 6714   0.815   4.510  11.645  0.5139 -0.3465  0.0445
  447TMC3     O 6715   0.839   4.518  11.761 -0.0212  0.6579 -0.3445
  447TMC3     H 6716   0.809   4.605  11.391  0.1970 -0.2762 -0.3177
  447TMC3    H1 6717   1.054   4.475  11.698  0.8685  0.0591 -0.5450
  447TMC3    H2 6718   1.199   4.733  11.375  0.2434  1.7419  1.3262
  447TMC3    C7 6719   1.277   4.555  11.575  0.4303 -0.6299 -0.0554
  447TMC3    C8 6720   1.001   4.659  11.235  0.2989 -0.1390 -0.4292
  447TMC3    O1 6721   1.286   4.435  11.604 -0.5472  0.0909  0.2366
  447TMC3    O2 6722   1.065   0.005  11.175 -0.2023  0.2323  0.0018
  448TMC3    C1 6723   3.355   3.228  17.575  0.8865 -0.2101  0.0976
  448TMC3    C2 6724   3.347   3.186  17.445  0.1679  0.7484 -0.2975
  448TMC3    C3 6725   3.295   3.060  17.421  0.4387 -0.4334 -0.6436
  448TMC3    C4 6726   3.325   3.138  17.673  0.5139 -0.6964 -0.1117
  448TMC3    C5 6727   3.291   3.011  17.652 -0.1898 -0.0327 -0.7522
  448TMC3    C6 6728   3.280   2.965  17.519  0.1539 -0.0194 -0.0690
  448TMC3     C 6729   3.346   3.374  17.598  0.7252  0.1287  0.3034
  448TMC3     O 6730   3.304   3.409  17.706 -0.0055 -0.9267 -0.8600
  448TMC3     H 6731   3.345   3.261  17.367 -0.2192 -0.9327 -1.9024
  448TMC3    H1 6732   3.320   3.181   0.025  2.6177  0.1241 -0.3533
  448TMC3    H2 6733   3.249   2.863  17.498  2.0861 -1.0659  2.1813
  448TMC3    C7 6734   3.327   2.912   0.005 -0.8438 -0.5239  0.9497
  448TMC3    C8 6735   3.303   3.026  17.282  0.0786 -0.0359 -0.2574
  448TMC3    O1 6736   3.402   2.830  17.697  0.5192 -0.0806  0.6440
  448TMC3    O2 6737   3.390   3.083  17.218 -0.0655  0.8196 -0.1619
  449MPD2     C 6738   0.682   2.982  13.975  0.1251  0.8061  0.3551
  449MPD2    C1 6739   0.627   2.908  13.871 -0.1195 -0.7884  0.3446
  449MPD2    C2 6740   0.645   2.769  13.863  0.4177  0.2929  0.2802
  449MPD2    C3 6741   0.703   2.704  13.964  0.3100 -0.7029  0.9678
  449MPD2    C4 6742   0.758   2.775  14.067  0.2822  0.6146  0.6874
  449MPD2    C5 6743   0.761   2.916  14.064  0.1022 -0.1386  0.3562
  449MPD2     H 6744   0.592   2.711  13.788 -0.1747  0.1960  0.7804
  449MPD2    H1 6745   0.805   2.734  14.155 -2.3065 -0.4435  1.5825
  449MPD2    H2 6746   0.683   3.090  13.975 -1.0217  0.8527 -4.4849
  449MPD2    H3 6747   0.809   2.984  14.133  1.4901  0.2336 -0.9784
  449MPD2     N 6748   0.682   2.562  13.968 -0.2922 -0.2213  0.5342
  449MPD2    H5 6749   0.624   2.518  13.897 -1.7333  2.0283  0.3436
  449MPD2    N1 6750   0.551   2.966  13.769 -0.2378  1.1265  0.4439
  449MPD2    H7 6751   0.517   2.899  13.700  0.6830 -0.3488  1.4235
  450TMC3    C1 6752   0.425   3.109  13.640 -0.5373  0.1873  0.0961
  450TMC3    C2 6753   0.505   3.140  13.541  0.1173  0.3625  0.3152
  450TMC3    C3 6754   0.512   3.058  13.437 -0.0293  0.0524 -0.2311
  450TMC3    C4 6755   0.326   3.006  13.627 -0.4221 -0.3452 -0.1747
  450TMC3    C5 6756   0.324   2.937  13.512 -0.1078  0.3551  0.3332
  450TMC3    C6 6757   0.421   2.957  13.417  0.5257  0.0034 -0.3947
  450TMC3     C 6758   0.521   3.098  13.752  0.1189 -0.2428 -0.1421
  450TMC3     O 6759   0.546   3.200  13.817  0.2823 -0.0137 -0.0300
  450TMC3     H 6760   0.587   3.210  13.552  0.4138 -0.1599  1.4138
  450TMC3    H1 6761   0.265   2.965  13.707 -1.4250 -0.1043 -0.8322
  450TMC3    H2 6762   0.420   2.889  13.332  0.4605  1.0716 -1.2440
  450TMC3    C7 6763   0.323   2.799  13.547 -0.4937 -0.2051 -0.4861
  450TMC3    C8 6764   0.635   3.062  13.353 -0.2489  0.4685  0.2219
  450TMC3    O1 6765   0.431   2.745  13.544 -0.2547 -0.0738 -0.2672
  450TMC3    O2 6766   0.711   3.152  13.367  0.2358  0.2118 -0.5029
  451MPD2     C 6767   1.947   0.945   1.162  0.1749 -0.1600  0.2506
  451MPD2    C1 6768   1.877   1.001   1.054 -0.8592 -0.1078 -0.3583
  451MPD2    C2 6769   1.859   0.932   0.934 -0.0384  0.3606  0.0435
  451MPD2    C3 6770   1.903   0.804   0.916  0.0848  0.2503  0.0733
  451MPD2    C4 6771   1.972   0.749   1.024  0.8358 -0.3398 -0.7400
  451MPD2    C5 6772   2.003   0.821   1.135 -0.4205 -0.5275  0.1259
  451MPD2     H 6773   1.803   0.979   0.853  0.1344  1.6229  0.6584
  451MPD2    H1 6774   2.026   0.656   1.021  1.4668 -0.0328  1.1649
  451MPD2    H2 6775   1.968   1.002   1.252  1.2318  0.1127 -0.1602
  451MPD2    H3 6776   2.067   0.777   1.210 -1.0787  2.5562  2.5004
  451MPD2     N 6777   1.897   0.734   0.799  0.1570  0.5562  0.2179
  451MPD2    H5 6778   1.901   0.633   0.812  0.0369  0.5181 -0.0369
  451MPD2    N1 6779   1.821   1.132   1.071 -0.4663  0.2866 -0.4927
  451MPD2    H7 6780   1.819   1.171   1.165  0.6298 -1.7978  0.3845
  452TMC3    C1 6781   1.868   0.683   0.575 -0.9142 -0.6360  0.3143
  452TMC3    C2 6782   1.829   0.559   0.606 -0.0417  0.2072 -0.0773
  452TMC3    C3 6783   1.852   0.460   0.516 -1.1905 -0.6563 -0.1687
  452TMC3    C4 6784   1.919   0.713   0.451  0.0787  0.4087 -0.6052
  452TMC3    C5 6785   1.920   0.612   0.356 -0.3571 -0.1840 -0.2830
  452TMC3    C6 6786   1.893   0.481   0.389  0.1425  0.0409  0.0609
  452TMC3     C 6787   1.879   0.791   0.671  0.5439 -0.9591  0.0511
  452TMC3     O 6788   1.879   0.908   0.632 -0.6162 -1.0010 -0.5266
  452TMC3     H 6789   1.791   0.528   0.702 -1.1473  0.6263 -0.3794
  452TMC3    H1 6790   1.970   0.806   0.432  0.8934  0.0766 -0.0683
  452TMC3    H2 6791   1.910   0.396   0.323 -0.9414  1.1627 -1.6710
  452TMC3    C7 6792   1.988   0.642   0.232 -0.5121 -0.2344 -0.3001
  452TMC3    C8 6793   1.777   0.330   0.537 -0.2992 -0.8747  0.5059
  452TMC3    O1 6794   2.064   0.735   0.215 -0.3245  0.2605 -0.5155
  452TMC3    O2 6795   1.750   0.260   0.441 -0.5386 -0.3442 -0.2110
  453TMC3    C1 6796   3.078   2.890  12.040 -0.2270 -0.2961  0.5087
  453TMC3    C2 6797   2.997   2.813  12.120 -0.4684  0.4587  0.3658
  453TMC3    C3 6798   2.928   2.706  12.071 -0.3305 -0.4988  0.1434
  453TMC3    C4 6799   3.093   2.865  11.906 -0.5473  0.5848 -1.3338
  453TMC3    C5 6800   3.016   2.767  11.857 -1.1805  0.3003 -0.8235
  453TMC3    C6 6801   2.938   2.680  11.935  0.2694 -0.0510 -0.8951
  453TMC3     C 6802   3.194   2.939  12.108 -0.0930  0.1352  0.1810
  453TMC3     O 6803   3.196   3.013  12.204  0.3324  0.5508 -0.6300
  453TMC3     H 6804   2.986   2.839  12.225 -2.4214  1.1594 -0.0100
  453TMC3    H1 6805   3.166   2.925  11.853  1.7670  1.2168  2.5116
  453TMC3    H2 6806   2.878   2.602  11.889 -1.4462 -0.2600  1.6856
  453TMC3    C7 6807   3.010   2.761  11.717 -0.2300 -0.3397  0.4999
  453TMC3    C8 6808   2.850   2.619  12.162 -0.3710 -0.6224 -0.4409
  453TMC3    O1 6809   3.015   2.869  11.657 -0.2387  0.0905 -0.5282
  453TMC3    O2 6810   2.858   2.652  12.281 -0.1150  0.2439  0.0435
  454MPD2     C 6811   1.993   2.301  15.612 -0.4291 -0.1166  0.0632
  454MPD2    C1 6812   1.864   2.346  15.644  0.3599 -0.0340  0.4765
  454MPD2    C2 6813   1.831   2.411  15.764  0.4565  0.2494 -0.9721
  454MPD2    C3 6814   1.934   2.419  15.855  0.2964  0.2852 -0.0880
  454MPD2    C4 6815   2.060   2.371  15.821 -0.2353  0.3124  0.5769
  454MPD2    C5 6816   2.091   2.310  15.703 -0.3289 -0.0018 -0.8007
  454MPD2     H 6817   1.725   2.424  15.784  0.3699 -1.9319  0.0637
  454MPD2    H1 6818   2.143   2.393  15.888  0.5877  2.8440 -1.2962
  454MPD2    H2 6819   2.016   2.254  15.517  1.4868 -0.6131  0.7666
  454MPD2    H3 6820   2.191   2.281  15.671  0.5190  1.2067  0.8004
  454MPD2     N 6821   1.916   2.469  15.988 -1.0876 -0.4888  0.2642
  454MPD2    H5 6822   1.989   2.443  16.054 -1.3640  1.6989  1.4371
  454MPD2    N1 6823   1.752   2.322  15.560 -0.4711 -0.2079  0.4641
  454MPD2    H7 6824   1.667   2.372  15.585  0.6099  1.3205  1.0758
  455TMC3    C1 6825   1.765   2.479  16.159  0.4455 -0.1883 -0.1998
  455TMC3    C2 6826   1.706   2.566  16.248  0.9657  0.1121  0.0298
  455TMC3    C3 6827   1.595   2.531  16.315 -0.1865  0.3777  0.2355
  455TMC3    C4 6828   1.727   2.346  16.159  0.0343  0.0323 -0.1731
  455TMC3    C5 6829   1.608   2.318  16.223  0.9261  0.1114 -0.3898
  455TMC3    C6 6830   1.552   2.407  16.307 -0.0034  0.4564 -0.3356
  455TMC3     C 6831   1.798   2.532  16.028  1.1023 -0.6401 -0.1839
  455TMC3     O 6832   1.720   2.593  15.959  0.5129  0.2186  0.1230
  455TMC3     H 6833   1.747   2.666  16.258 -0.4957  0.6504  0.5469
  455TMC3    H1 6834   1.793   2.271  16.117  0.3821  0.8029 -1.0232
  455TMC3    H2 6835   1.477   2.377  16.378 -0.4741  1.8744 -0.2320
  455TMC3    C7 6836   1.512   2.254  16.137  0.4972 -0.1664 -0.2610
  455TMC3    C8 6837   1.566   2.604  16.441 -0.7595  0.4120 -0.2350
  455TMC3    O1 6838   1.395   2.252  16.171 -0.2276 -0.3022 -0.3018
  455TMC3    O2 6839   1.544   2.540  16.542 -0.2960  0.4909 -0.1462
  456MPD2     C 6840   4.042   2.568  16.056  0.3115 -0.1782  0.4265
  456MPD2    C1 6841   4.110   2.501  16.154  0.6422  0.1986 -1.0547
  456MPD2    C2 6842   4.059   2.506  16.286  0.2697  0.5764 -0.3753
  456MPD2    C3 6843   3.941   2.574  16.310 -0.4855 -0.2832  0.0424
  456MPD2    C4 6844   3.872   2.631  16.206 -0.0373  0.1810 -0.0422
  456MPD2    C5 6845   3.918   2.623  16.074 -0.4268  0.2494 -0.4577
  456MPD2     H 6846   4.099   2.453  16.372 -1.5450  1.5417  1.0679
  456MPD2    H1 6847   3.779   2.684  16.215  0.9075  1.5874  1.3576
  456MPD2    H2 6848   4.096   2.586  15.963 -0.5999 -3.3676 -0.7241
  456MPD2    H3 6849   3.860   2.672  15.996 -1.7782  1.8653  1.5728
  456MPD2     N 6850   3.900   2.586  16.440 -0.4583 -0.4602  0.2173
  456MPD2    H5 6851   3.953   2.539  16.512  1.6571  0.8923 -0.4788
  456MPD2    N1 6852   4.222   2.426  16.106  0.1051  0.0081 -0.0778
  456MPD2    H7 6853   4.246   2.441  16.009  1.2323  0.2730  0.2445
  457TMC3    C1 6854   3.773   2.682  16.620  0.2622  0.7358 -0.2938
  457TMC3    C2 6855   3.661   2.761  16.655  0.5214 -0.2935  0.3365
  457TMC3    C3 6856   3.677   2.862  16.746  0.4279  0.3643 -0.2081
  457TMC3    C4 6857   3.899   2.696  16.668  0.7631  0.6781 -0.1589
  457TMC3    C5 6858   3.907   2.801  16.752 -0.0012 -0.4693  0.2299
  457TMC3    C6 6859   3.803   2.884  16.789  0.1288 -0.2354 -0.6504
  457TMC3     C 6860   3.777   2.633  16.482  0.4405 -0.3907  0.4764
  457TMC3     O 6861   3.681   2.673  16.417  0.4056 -0.1896  0.0232
  457TMC3     H 6862   3.564   2.743  16.612 -0.4674  0.1435  2.3614
  457TMC3    H1 6863   3.972   2.616  16.663  1.3062  1.1387  0.3642
  457TMC3    H2 6864   3.819   2.966  16.858  1.2285  0.8470 -2.2098
  457TMC3    C7 6865   4.003   2.790  16.862 -0.0067  0.6752 -0.3682
  457TMC3    C8 6866   3.576   2.901  16.841 -0.9151 -0.1225  0.4348
  457TMC3    O1 6867   3.963   2.816  16.975 -0.1815 -0.3442 -0.3691
  457TMC3    O2 6868   3.606   2.989  16.921  0.0055  0.3086 -0.7537
  458MPD2     C 6869   2.110   2.090  12.356 -0.5664  0.0568 -0.4718
  458MPD2    C1 6870   2.111   2.003  12.464 -0.2195  0.2468 -0.6724
  458MPD2    C2 6871   2.043   1.880  12.453  0.7592 -0.7022  0.0867
  458MPD2    C3 6872   1.989   1.851  12.333  0.5034 -0.3582 -0.2949
  458MPD2    C4 6873   1.976   1.942  12.235  0.2602  0.2166  0.0419
  458MPD2    C5 6874   2.040   2.066  12.243  0.1016  0.0596  0.3691
  458MPD2     H 6875   2.052   1.811  12.536 -1.3809 -3.0720 -1.6750
  458MPD2    H1 6876   1.920   1.928  12.143  0.8420 -1.8462  0.0200
  458MPD2    H2 6877   2.142   2.191  12.379  3.8917 -0.9969 -1.8757
  458MPD2    H3 6878   2.030   2.143  12.168 -0.7954  1.2690  1.7366
  458MPD2     N 6879   1.944   1.720  12.315 -0.2506 -0.2216 -0.2160
  458MPD2    H5 6880   1.934   1.658  12.395 -5.4811  0.9398 -0.0006
  458MPD2    N1 6881   2.189   2.031  12.582  0.5043  0.1742  0.2554
  458MPD2    H7 6882   2.251   2.111  12.580 -1.0304  1.3845  0.6620
  459TMC3    C1 6883   2.303   1.996  12.776 -0.0550  0.1253 -0.0665
  459TMC3    C2 6884   2.416   2.050  12.712  0.5360  0.3542  0.4707
  459TMC3    C3 6885   2.521   2.067  12.787  0.3921 -0.1357 -0.1418
  459TMC3    C4 6886   2.300   1.975  12.915  0.2496 -0.3399  0.0036
  459TMC3    C5 6887   2.409   2.007  12.987 -0.4288 -0.1443  0.2549
  459TMC3    C6 6888   2.520   2.050  12.923  0.1273  0.3573 -0.1819
  459TMC3     C 6889   2.185   1.962  12.697 -0.1021 -0.1635  0.0164
  459TMC3     O 6890   2.086   1.903  12.737 -0.6771  0.2209 -0.5273
  459TMC3     H 6891   2.425   2.069  12.606 -1.2024 -0.4772  0.1731
  459TMC3    H1 6892   2.206   1.943  12.958  0.3494  0.8072  1.0927
  459TMC3    H2 6893   2.611   2.061  12.981 -0.2211 -1.1077  0.6288
  459TMC3    C7 6894   2.401   1.963  13.126 -0.5457  0.3278  0.1485
  459TMC3    C8 6895   2.646   2.039  12.733 -0.0433  0.9318  0.0768
  459TMC3    O1 6896   2.306   1.892  13.149 -0.3306 -0.2605  0.1773
  459TMC3    O2 6897   2.746   2.075  12.797 -0.0125 -0.2991  0.5399
  460MPD2     C 6898   0.866   4.372  11.051  0.1477  0.2252 -0.4809
  460MPD2    C1 6899   0.907   4.500  11.067  0.0316  0.8685  0.0713
  460MPD2    C2 6900   0.927   4.582  10.957 -0.1496 -0.0707 -0.2876
  460MPD2    C3 6901   0.916   4.536  10.828  0.2363 -0.3356 -0.1456
  460MPD2    C4 6902   0.860   4.410  10.813 -0.1753  0.2177  0.1863
  460MPD2    C5 6903   0.836   4.335  10.925  0.0474  0.7108  0.0105
  460MPD2     H 6904   0.934   4.689  10.969  1.0078  0.1772 -3.0888
  460MPD2    H1 6905   0.842   4.375  10.712 -1.8198  2.6918 -0.3880
  460MPD2    H2 6906   0.840   4.306  11.133  1.4943 -2.9837 -2.6387
  460MPD2    H3 6907   0.812   4.232  10.903  1.3138  0.4652 -0.2759
  460MPD2     N 6908   0.932   4.631  10.718  0.1509  0.0585  0.6981
  460MPD2    H5 6909   0.961   4.727  10.733  3.6769 -1.0987  1.4661
  460MPD2    N1 6910   0.931   4.545  11.199  0.2017 -0.2827 -0.6246
  460MPD2    H7 6911   0.910   4.478  11.273 -0.3482  0.2582 -0.2888
  461TMC3    C1 6912   0.946   4.698  10.487  0.0912 -0.1628  0.0474
  461TMC3    C2 6913   0.969   4.657  10.358 -0.2329  0.2821  0.1741
  461TMC3    C3 6914   0.915   4.735  10.265 -0.0710  0.0955 -0.2421
  461TMC3    C4 6915   0.900   0.085  10.522  0.2402  0.7376  0.2111
  461TMC3    C5 6916   0.874   0.172  10.420  0.0919  0.1942 -0.2874
  461TMC3    C6 6917   0.874   0.127  10.290  0.2099  0.0956 -0.2890
  461TMC3     C 6918   0.931   4.591  10.581  0.1507  0.3421  0.6220
  461TMC3     O 6919   0.930   4.479  10.536 -0.0884 -0.0364  0.1936
  461TMC3     H 6920   1.012   4.563  10.327  2.0334  0.9537  1.2589
  461TMC3    H1 6921   0.862   0.108  10.621 -1.6923 -0.3703 -0.2619
  461TMC3    H2 6922   0.847   0.190  10.206 -0.0015 -0.7336 -0.8406
  461TMC3    C7 6923   0.846   0.313  10.445 -0.6895  0.5929 -0.0609
  461TMC3    C8 6924   0.898   4.672  10.132 -0.5894 -0.6371  0.2916
  461TMC3    O1 6925   0.774   0.368  10.364  0.4820 -0.4779 -0.0734
  461TMC3    O2 6926   0.973   4.581  10.104 -0.2910 -0.1676 -0.0332
  462TMC3    C1 6927   0.851   0.782   0.281  0.3406  0.1233  0.1081
  462TMC3    C2 6928   0.959   0.761   0.196 -0.0826 -0.2265 -0.8094
  462TMC3    C3 6929   1.019   0.635   0.191 -0.9917  0.4601 -0.4322
  462TMC3    C4 6930   0.791   0.673   0.340  0.6000  1.4064  0.4857
  462TMC3    C5 6931   0.854   0.555   0.343 -0.3179 -0.6222 -0.9986
  462TMC3    C6 6932   0.958   0.533   0.267  0.4742 -0.3640  0.8801
  462TMC3     C 6933   0.787   0.914   0.287 -0.4260  0.0658 -0.2664
  462TMC3     O 6934   0.692   0.921   0.361  0.1822  0.0119  0.4404
  462TMC3     H 6935   0.992   0.842   0.132 -0.6461  2.1239  1.8567
  462TMC3    H1 6936   0.720   0.694   0.419 -3.6949 -0.7691 -2.8105
  462TMC3    H2 6937   1.010   0.438   0.278  0.7194 -0.4061 -0.6494
  462TMC3    C7 6938   0.773   0.434   0.338  0.2282 -0.2258  0.1699
  462TMC3    C8 6939   1.079   0.605   0.062  0.0825  0.3832 -0.0310
  462TMC3    O1 6940   0.824   0.325   0.315 -0.7609  0.2525 -0.3840
  462TMC3    O2 6941   1.069   0.692  17.728  0.5711 -0.2695 -0.7756
  463MPD2     C 6942   2.434   3.556   2.044  0.4949  0.2394  0.0650
  463MPD2    C1 6943   2.309   3.612   2.006  0.4735 -0.0564  0.0676
  463MPD2    C2 6944   2.293   3.748   1.995 -0.6302  0.4509  0.4324
  463MPD2    C3 6945   2.392   3.841   2.004 -0.1264 -0.3811 -0.4507
  463MPD2    C4 6946   2.514   3.786   2.031  0.3702 -0.3894 -0.2711
  463MPD2    C5 6947   2.524   3.653   2.057  0.0918 -0.3734 -0.1331
  463MPD2     H 6948   2.197   3.784   1.959 -0.3068  1.3582  0.4635
  463MPD2    H1 6949   2.603   3.846   2.042 -1.4285  2.1706  0.1686
  463MPD2    H2 6950   2.460   3.451   2.057  0.1494  0.3154  1.3621
  463MPD2    H3 6951   2.625   3.618   2.076  0.4194  0.2194 -0.7933
  463MPD2     N 6952   2.378   3.974   1.977  0.2342  0.2075  0.4918
  463MPD2    H5 6953   2.454   4.039   1.995 -0.4228  0.4272  2.5071
  463MPD2    N1 6954   2.196   3.534   1.968  0.5265 -0.3333  0.1799
  463MPD2    H7 6955   2.106   3.580   1.958  0.3716 -0.4480  1.0899
  464TMC3    C1 6956   2.079   3.334   1.919  0.1818 -0.0981 -0.7608
  464TMC3    C2 6957   1.965   3.412   1.944  0.1976 -0.5514  0.2835
  464TMC3    C3 6958   1.847   3.356   1.906  0.0871 -0.0438 -0.5690
  464TMC3    C4 6959   2.080   3.216   1.851  0.3618  0.4252 -0.1677
  464TMC3    C5 6960   1.960   3.176   1.811 -0.2014  0.2185  0.1602
  464TMC3    C6 6961   1.843   3.242   1.832  0.6739  0.0118 -0.2769
  464TMC3     C 6962   2.204   3.404   1.947  0.0113  1.0146 -0.0728
  464TMC3     O 6963   2.303   3.324   1.947 -0.1416 -0.2289  0.1345
  464TMC3     H 6964   1.963   3.495   2.014 -0.5615  0.7070 -1.2383
  464TMC3    H1 6965   2.174   3.169   1.826  0.7727  0.4516  1.2801
  464TMC3    H2 6966   1.747   3.203   1.800  0.6177 -0.2297  0.1830
  464TMC3    C7 6967   1.954   3.063   1.718 -0.7084 -0.1422 -0.2562
  464TMC3    C8 6968   1.730   3.440   1.895  0.7188 -0.1026 -0.3907
  464TMC3    O1 6969   2.063   3.007   1.704  0.0757  0.6433  0.3852
  464TMC3    O2 6970   1.650   3.423   1.808 -0.1705 -0.5362 -0.2440
  465MPD2     C 6971   3.220   2.295  16.541 -0.1061 -0.1266 -0.5041
  465MPD2    C1 6972   3.173   2.360  16.655  0.3526 -0.7099 -0.5049
  465MPD2    C2 6973   3.075   2.458  16.649  0.4430 -0.3808  0.4023
  465MPD2    C3 6974   3.041   2.501  16.522 -1.0216 -0.5952 -0.1784
  465MPD2    C4 6975   3.085   2.434  16.411  0.4456 -0.6511 -0.1069
  465MPD2    C5 6976   3.175   2.335  16.420  0.4185  0.5619  0.1134
  465MPD2     H 6977   3.043   2.524  16.728  1.6635  2.7692 -1.7174
  465MPD2    H1 6978   3.050   2.473  16.316  1.3507 -2.6587 -1.2626
  465MPD2    H2 6979   3.290   2.213  16.553  0.0199 -0.0528 -0.7363
  465MPD2    H3 6980   3.203   2.280  16.331  0.6872 -0.1782  0.6549
  465MPD2     N 6981   2.947   2.608  16.525 -0.5140 -0.2374  0.3812
  465MPD2    H5 6982   2.911   2.638  16.615  0.5360  0.0484  0.7131
  465MPD2    N1 6983   3.198   2.328  16.793 -0.3694 -0.0230 -0.1254
  465MPD2    H7 6984   3.161   2.396  16.858  2.2033  2.0592 -0.8111
  466TMC3    C1 6985   2.593   2.799  16.589 -0.5483 -0.0055 -0.3683
  466TMC3    C2 6986   2.558   2.907  16.517 -0.0134  0.0028  0.3629
  466TMC3    C3 6987   2.633   2.920  16.401 -0.0483  0.2016 -0.4000
  466TMC3    C4 6988   2.704   2.726  16.564 -0.8298 -0.4604  0.0219
  466TMC3    C5 6989   2.774   2.745  16.445  0.0216  0.5342  0.3047
  466TMC3    C6 6990   2.742   2.852  16.363  0.2402  0.4030 -0.6160
  466TMC3     C 6991   2.544   2.788  16.728  0.0017 -0.0227  0.8232
  466TMC3     O 6992   2.614   2.735  16.814  0.1206  0.4086 -0.4942
  466TMC3     H 6993   2.470   2.964  16.544  0.4932  1.0852 -0.2537
  466TMC3    H1 6994   2.724   2.643  16.631 -2.3917 -1.6526 -0.9998
  466TMC3    H2 6995   2.801   2.869  16.274 -0.3070  0.2543 -1.0089
  466TMC3    C7 6996   2.891   2.666  16.421  0.7448  0.9124 -0.3676
  466TMC3    C8 6997   2.624   3.051  16.338 -0.5568  0.2247  0.6886
  466TMC3    O1 6998   2.920   2.654  16.303  0.2660 -0.5543 -0.7615
  466TMC3    O2 6999   2.680   3.063  16.232 -0.1230  0.3240 -0.2538
  467TMC3    C1 7000   3.998   1.343  13.981 -0.0684 -0.0526  0.0695
  467TMC3    C2 7001   3.927   1.459  13.959  0.2869  0.9397 -0.3878
  467TMC3    C3 7002   3.794   1.449  13.996  0.3638  0.4266  0.2752
  467TMC3    C4 7003   3.952   1.226  14.045  0.4553 -0.2921  0.0771
  467TMC3    C5 7004   3.820   1.232  14.078  0.0129  0.4281 -0.3558
  467TMC3    C6 7005   3.737   1.341  14.054  0.4246 -0.3930  0.2875
  467TMC3     C 7006   4.140   1.367  13.997 -0.0623 -0.1648  0.4588
  467TMC3     O 7007   4.177   1.467  14.057 -0.0100  0.1607  0.1968
  467TMC3     H 7008   3.980   1.548  13.927  3.0133 -1.0495 -1.3909
  467TMC3    H1 7009   4.025   1.155  14.084  1.1259  1.0958  1.3575
  467TMC3    H2 7010   3.631   1.340  14.076  0.0077 -2.6894 -1.7696
  467TMC3    C7 7011   3.803   1.158  14.206  0.0404  0.1285  0.8649
  467TMC3    C8 7012   3.701   1.553  13.955  0.5329 -0.1690 -0.4100
  467TMC3    O1 7013   3.885   1.079  14.242 -0.1926 -0.9381  0.0377
  467TMC3    O2 7014   3.590   1.530  13.993  0.0289  0.8465 -0.1435
  468MPD2     C 7015   2.625   4.545  10.653 -0.2704 -0.2637  0.3130
  468MPD2    C1 7016   2.751   4.492  10.626  0.1364  0.2407  0.0505
  468MPD2    C2 7017   2.773   4.354  10.646  0.1625 -0.2501  0.0051
  468MPD2    C3 7018   2.668   4.272  10.685 -0.1495  0.5349 -0.4788
  468MPD2    C4 7019   2.542   4.329  10.687 -0.2526  0.0563 -0.1176
  468MPD2    C5 7020   2.521   4.463  10.677  0.5028 -0.6663  0.6645
  468MPD2     H 7021   2.872   4.315  10.628  0.9429  1.9672 -0.4777
  468MPD2    H1 7022   2.461   4.265  10.719  1.1851 -2.3181 -1.2095
  468MPD2    H2 7023   2.610   4.652  10.653  0.9523 -0.0830  3.3324
  468MPD2    H3 7024   2.427   4.514  10.696 -0.0966 -1.4600 -0.1924
  468MPD2     N 7025   2.688   4.131  10.731  0.3139  0.2131  0.4660
  468MPD2    H5 7026   2.611   4.090  10.783  0.7135  0.5602  1.3278
  468MPD2    N1 7027   2.865   4.569  10.594 -0.5085 -0.2511 -0.5936
  468MPD2    H7 7028   2.956   4.525  10.581  0.6761  2.4695 -1.6036
  469TMC3    C1 7029   3.014   0.005  10.625  0.2447 -0.5591  0.5121
  469TMC3    C2 7030   3.105   4.645  10.582 -0.4814 -0.0685 -0.2909
  469TMC3    C3 7031   3.204   4.602  10.668  0.0431 -0.6332 -0.1578
  469TMC3    C4 7032   3.034   0.065  10.752 -0.4318 -0.0637  0.0020
  469TMC3    C5 7033   3.130   0.009  10.833 -0.2344 -0.9333 -0.4927
  469TMC3    C6 7034   3.223   4.652  10.795 -0.0838  0.7872  0.1302
  469TMC3     C 7035   2.876   4.704  10.607 -0.0597 -0.2280  0.3485
  469TMC3     O 7036   2.791   0.039  10.653 -0.7223  0.0005 -0.0094
  469TMC3     H 7037   3.088   4.610  10.481 -0.4885 -1.0878  0.0713
  469TMC3    H1 7038   2.975   0.147  10.792 -2.1255 -1.5188  0.4832
  469TMC3    H2 7039   3.297   4.610  10.862 -2.9060 -1.7445  1.6612
  469TMC3    C7 7040   3.119   0.039  10.971 -0.0535  0.2807  0.4163
  469TMC3    C8 7041   3.213   4.460  10.658 -0.4885  0.5040  0.7180
  469TMC3    O1 7042   3.029   0.111  11.000 -0.3941 -0.1404  0.2661
  469TMC3    O2 7043   3.125   4.410  10.589 -0.1498  0.4644 -0.1879
  470TMC3    C1 7044   0.057   0.363   0.359 -0.6343 -0.1895 -0.2201
  470TMC3    C2 7045   0.125   0.482   0.353 -0.1997 -0.3076 -0.3653
  470TMC3    C3 7046   0.206   0.505   0.456  0.5721  0.2357 -0.0316
  470TMC3    C4 7047   0.068   0.272   0.457 -0.1466 -0.3459 -0.6746
  470TMC3    C5 7048   0.165   0.298   0.557  0.6404 -0.5677 -0.5700
  470TMC3    C6 7049   0.236   0.413   0.556  0.1608 -0.0609 -0.7648
  470TMC3     C 7050   4.711   0.322   0.244  0.9547 -0.3223  0.4244
  470TMC3     O 7051   4.652   0.215   0.248 -0.1696  0.1393 -0.2618
  470TMC3     H 7052   0.105   0.560   0.280 -0.4965 -1.0550 -1.0797
  470TMC3    H1 7053   0.012   0.179   0.460  2.5083 -1.9576 -0.9593
  470TMC3    H2 7054   0.305   0.435   0.636 -1.4866  2.5312 -0.0342
  470TMC3    C7 7055   0.183   0.216   0.675 -0.1512  0.9152 -0.1019
  470TMC3    C8 7056   0.271   0.639   0.470 -0.2879 -0.1069 -0.5664
  470TMC3    O1 7057   0.253   0.261   0.771  0.3276 -0.4197  0.1488
  470TMC3    O2 7058   0.340   0.649   0.571 -0.2469 -0.8725  0.3685
  471MPD2     C 7059   0.678   1.297  16.538  0.6590 -0.8686 -0.3127
  471MPD2    C1 7060   0.727   1.169  16.541  0.1900 -0.3555  1.3146
  471MPD2    C2 7061   0.833   1.141  16.631 -0.0914  0.0963  0.1417
  471MPD2    C3 7062   0.885   1.232  16.727 -0.5158 -1.1743  0.2208
  471MPD2    C4 7063   0.823   1.353  16.727 -0.6171 -0.7395  0.5301
  471MPD2    C5 7064   0.728   1.388  16.624 -0.0060 -0.7825  0.2993
  471MPD2     H 7065   0.878   1.042  16.632 -0.2661  0.0131 -0.2317
  471MPD2    H1 7066   0.864   1.437  16.782 -2.2007  2.5490 -3.2972
  471MPD2    H2 7067   0.613   1.336  16.461  0.1623  0.2360  0.6677
  471MPD2    H3 7068   0.694   1.488  16.601 -0.5091 -1.1948 -0.7887
  471MPD2     N 7069   0.982   1.199  16.817 -0.5436 -0.5298  0.2383
  471MPD2    H5 7070   0.991   1.265  16.894  0.8399  0.9817 -1.2271
  471MPD2    N1 7071   0.687   1.067  16.448  0.3781  0.3287  0.3670
  471MPD2    H7 7072   0.738   0.979  16.447  0.1710  0.2085  0.3641
  472TMC3    C1 7073   0.540   0.965  16.288  0.3301 -0.6732  0.4131
  472TMC3    C2 7074   0.431   0.984  16.206 -0.5198  0.4651  0.0338
  472TMC3    C3 7075   0.367   0.878  16.149  0.6629  0.4387 -0.2059
  472TMC3    C4 7076   0.581   0.839  16.322  0.4344 -0.3416 -0.2116
  472TMC3    C5 7077   0.517   0.734  16.256  0.9244 -0.3866  0.3310
  472TMC3    C6 7078   0.405   0.752  16.173  0.1967 -0.2410 -0.1333
  472TMC3     C 7079   0.578   1.082  16.362  0.1970  0.2463 -0.2733
  472TMC3     O 7080   0.510   1.180  16.337 -0.0379  0.7746 -0.2881
  472TMC3     H 7081   0.387   1.083  16.204  1.0801  1.1132 -3.3092
  472TMC3    H1 7082   0.674   0.825  16.376  0.1525  1.4250  0.7109
  472TMC3    H2 7083   0.346   0.669  16.135 -2.0193  2.2003 -1.9774
  472TMC3    C7 7084   0.565   0.600  16.276 -0.0090 -0.2960  0.0151
  472TMC3    C8 7085   0.231   0.899  16.093 -0.1850 -0.1832 -0.0968
  472TMC3    O1 7086   0.658   0.589  16.356  0.0646 -0.4384 -0.3657
  472TMC3    O2 7087   0.153   0.809  16.117  0.5898  0.0275  0.0447
  473MPD2     C 7088   0.813   3.515  14.460 -0.2141  0.0846  0.1186
  473MPD2    C1 7089   0.731   3.604  14.389 -0.6251  0.4228 -0.3933
  473MPD2    C2 7090   0.734   3.738  14.424 -0.5497 -0.3916  0.6338
  473MPD2    C3 7091   0.806   3.796  14.528 -0.4656 -0.4737 -0.3534
  473MPD2    C4 7092   0.886   3.708  14.596 -0.0009 -0.4219  0.1785
  473MPD2    C5 7093   0.891   3.571  14.563 -0.5869 -0.5756  0.3518
  473MPD2     H 7094   0.669   3.802  14.365 -1.1422  0.0120  1.7266
  473MPD2    H1 7095   0.945   3.733  14.684 -0.0899 -0.0951  0.1449
  473MPD2    H2 7096   0.821   3.410  14.433  0.0508  0.1063  0.1129
  473MPD2    H3 7097   0.967   3.505  14.604 -1.7368 -1.6940  0.7064
  473MPD2     N 7098   0.795   3.938  14.561 -0.0147  1.2364 -0.2052
  473MPD2    H5 7099   0.874   3.973  14.614  0.6752  1.4490 -1.3919
  473MPD2    N1 7100   0.664   3.573  14.268 -0.1743  0.4416 -0.5840
  473MPD2    H7 7101   0.624   3.652  14.218  0.7472  1.2632 -0.0228
  474TMC3    C1 7102   0.752   4.167  14.527  0.4391  0.0723  0.7068
  474TMC3    C2 7103   0.711   4.249  14.431 -0.4722  0.4256 -0.2839
  474TMC3    C3 7104   0.779   4.361  14.394  0.1097  0.8860 -0.0674
  474TMC3    C4 7105   0.869   4.196  14.586  0.0706  0.0404  0.2665
  474TMC3    C5 7106   0.936   4.306  14.549  0.5600  0.3108 -0.2671
  474TMC3    C6 7107   0.901   4.392  14.449 -0.3807  0.0918  0.4489
  474TMC3     C 7108   0.700   4.028  14.517  0.1773 -0.4566 -0.4120
  474TMC3     O 7109   0.595   3.998  14.466  0.1255  0.5977 -0.0218
  474TMC3     H 7110   0.623   4.215  14.377  0.2423 -0.9728 -0.5658
  474TMC3    H1 7111   0.911   4.128  14.659  0.7082 -0.1469 -0.2742
  474TMC3    H2 7112   0.966   4.471  14.414 -1.4387  1.3769  1.3503
  474TMC3    C7 7113   1.078   4.299  14.585 -0.6269 -0.6547  0.2792
  474TMC3    C8 7114   0.760   4.405  14.263  0.0490  0.2183 -0.0007
  474TMC3    O1 7115   1.152   4.279  14.489  0.3394 -0.5819  0.9945
  474TMC3    O2 7116   0.699   4.321  14.193 -0.2087 -0.0692  0.1663
  475MPD2     C 7117   4.049   2.216  10.430  0.5244  0.5576  0.0422
  475MPD2    C1 7118   4.050   2.298  10.539 -0.5535 -0.5175 -0.4664
  475MPD2    C2 7119   3.934   2.305  10.613 -0.2703 -0.1307 -0.2326
  475MPD2    C3 7120   3.824   2.241  10.581  0.1489  0.5902  0.4277
  475MPD2    C4 7121   3.829   2.146  10.476  0.3129 -0.0444  0.1031
  475MPD2    C5 7122   3.941   2.140  10.402 -0.4262  0.5738  0.0190
  475MPD2     H 7123   3.918   2.387  10.682 -1.7138 -0.5180 -0.1138
  475MPD2    H1 7124   3.746   2.085  10.441 -1.9696  0.9483  3.8177
  475MPD2    H2 7125   4.140   2.198  10.374  0.0258 -0.9445 -0.2794
  475MPD2    H3 7126   3.954   2.066  10.324  2.6498 -0.7990  1.8498
  475MPD2     N 7127   3.701   2.275  10.650 -0.7367 -0.3648 -0.3847
  475MPD2    H5 7128   3.704   2.338  10.730  0.4002  0.2799 -0.9357
  475MPD2    N1 7129   4.165   2.367  10.580  0.1611  0.5119  0.1180
  475MPD2    H7 7130   4.156   2.427  10.661 -1.1595 -0.4298  0.6839
  476TMC3    C1 7131   4.371   2.462  10.586  0.5287  0.1179 -0.7697
  476TMC3    C2 7132   4.370   2.586  10.524  0.8278  0.4125 -0.0662
  476TMC3    C3 7133   4.343   2.690  10.604 -0.2688 -0.4744 -0.0120
  476TMC3    C4 7134   4.360   2.443  10.720 -0.4041 -0.0032  0.4485
  476TMC3    C5 7135   4.353   2.558  10.798  0.5891  0.3600 -0.4120
  476TMC3    C6 7136   4.341   2.683  10.738 -0.3624  0.1892  0.6507
  476TMC3     C 7137   4.287   2.373  10.519 -0.1813 -0.0982  0.4199
  476TMC3     O 7138   4.327   2.343  10.409  0.2656  0.5874  0.1022
  476TMC3     H 7139   4.372   2.589  10.415 -0.9648 -1.4812 -0.1702
  476TMC3    H1 7140   4.342   2.343  10.757  0.2804  0.0516  0.9356
  476TMC3    H2 7141   4.321   2.766  10.804 -0.6680 -0.4226  1.3367
  476TMC3    C7 7142   4.254   2.536  10.898  0.0337  0.6577 -0.0468
  476TMC3    C8 7143   4.215   2.755  10.573 -0.6372 -0.6937 -0.3558
  476TMC3    O1 7144   4.162   2.465  10.858 -0.3598 -0.7302 -0.0532
  476TMC3    O2 7145   4.176   2.847  10.645  0.0167 -0.4781  0.5830
  477MPD2     C 7146   1.132   3.302  11.835  0.4205  0.2858  0.4337
  477MPD2    C1 7147   1.132   3.434  11.874  0.4421 -0.1796 -0.0244
  477MPD2    C2 7148   1.241   3.488  11.955  0.3469  0.1572  0.5106
  477MPD2    C3 7149   1.339   3.401  11.985  0.6307 -0.1521 -0.7953
  477MPD2    C4 7150   1.343   3.271  11.939  0.0125 -0.1835 -0.2789
  477MPD2    C5 7151   1.235   3.219  11.871 -0.0232 -0.4162  0.0288
  477MPD2     H 7152   1.239   3.584  12.004  1.5272  1.2850 -1.6688
  477MPD2    H1 7153   1.430   3.208  11.951 -0.3494 -0.8839 -1.2473
  477MPD2    H2 7154   1.066   3.259  11.760  0.1139  0.1755  0.7661
  477MPD2    H3 7155   1.234   3.114  11.841 -0.8441 -0.7478  1.2419
  477MPD2     N 7156   1.441   3.442  12.067  0.6316 -0.4713 -0.2749
  477MPD2    H5 7157   1.442   3.542  12.087  2.5502 -0.4935 -0.3040
  477MPD2    N1 7158   1.020   3.507  11.828 -0.0074 -0.0400  0.4735
  477MPD2    H7 7159   0.953   3.453  11.774  1.2208  0.1119 -1.2031
  478TMC3    C1 7160   0.849   3.676  11.844  0.1773 -0.1308 -0.2357
  478TMC3    C2 7161   0.783   3.744  11.943 -1.1520  0.8561  0.2168
  478TMC3    C3 7162   0.692   3.839  11.899  0.4264 -0.6865  0.4219
  478TMC3    C4 7163   0.806   3.685  11.714 -0.1075 -0.2847 -0.2856
  478TMC3    C5 7164   0.724   3.787  11.679 -0.0581  0.0370  0.6184
  478TMC3    C6 7165   0.658   3.866  11.772 -0.3598 -0.2334  0.0669
  478TMC3     C 7166   0.978   3.630  11.883 -0.2209  0.7575 -0.0337
  478TMC3     O 7167   1.033   3.700  11.965  0.1998 -0.0913  0.6220
  478TMC3     H 7168   0.804   3.736  12.049 -0.9105 -0.9935  0.0333
  478TMC3    H1 7169   0.854   3.623  11.639 -0.5503 -3.3007  1.9125
  478TMC3    H2 7170   0.582   3.939  11.746 -0.1362 -0.2709 -0.6852
  478TMC3    C7 7171   0.697   3.809  11.541  0.3187  0.1926 -0.9954
  478TMC3    C8 7172   0.608   3.872  12.014 -0.0524 -0.3763 -0.0858
  478TMC3    O1 7173   0.714   3.717  11.466  0.0197 -0.1477 -0.7624
  478TMC3    O2 7174   0.574   3.785  12.092  0.6370  0.4604 -0.0591
  479MPD2     C 7175   0.219   0.947  15.062  0.2317 -0.2825  0.1523
  479MPD2    C1 7176   0.152   0.892  15.168  0.1490 -0.4185  0.0411
  479MPD2    C2 7177   0.217   0.897  15.290 -0.5476 -0.3240 -0.3369
  479MPD2    C3 7178   0.343   0.956  15.308 -0.5894 -0.0029 -0.3455
  479MPD2    C4 7179   0.404   1.007  15.193  0.0228  0.3908  0.7969
  479MPD2    C5 7180   0.339   1.010  15.073  0.1851  0.1346 -0.0628
  479MPD2     H 7181   0.162   0.866  15.378 -0.1065 -2.3859 -0.7796
  479MPD2    H1 7182   0.496   1.063  15.206  1.3295 -1.0538 -2.3219
  479MPD2    H2 7183   0.179   0.945  14.961 -2.3459  0.1502  1.1727
  479MPD2    H3 7184   0.387   1.066  14.994  0.1036 -0.0706 -0.2586
  479MPD2     N 7185   0.407   0.978  15.440 -0.3089  0.0808 -0.2899
  479MPD2    H5 7186   0.500   1.019  15.431  0.2461 -1.2923 -0.8464
  479MPD2    N1 7187   0.015   0.863  15.152 -0.4168  0.1890 -0.6944
  479MPD2    H7 7188   4.717   0.876  15.058 -0.9739  1.1982 -0.3456
  480TMC3    C1 7189   0.018   0.894  15.693  0.2390 -0.4577  0.6153
  480TMC3    C2 7190   4.699   1.006  15.640  0.7163 -0.6685  0.3317
  480TMC3    C3 7191   0.040   1.098  15.566  0.0671 -0.1981 -0.2319
  480TMC3    C4 7192   0.152   0.864  15.669 -0.4927  0.2645 -0.3069
  480TMC3    C5 7193   0.217   0.950  15.585  0.6964 -0.2568 -0.0324
  480TMC3    C6 7194   0.167   1.069  15.543  0.0406  0.0852 -0.1773
  480TMC3     C 7195   4.674   0.780  15.733  0.9970  0.6745  0.1095
  480TMC3     O 7196   0.000   0.680  15.775 -0.5258  0.3755 -0.8391
  480TMC3     H 7197   4.593   1.021  15.657  0.6116 -0.5391 -0.4494
  480TMC3    H1 7198   0.188   0.768  15.703  0.9363 -0.5036 -4.0950
  480TMC3    H2 7199   0.228   1.137  15.484  2.9757 -1.5163  0.9782
  480TMC3    C7 7200   0.360   0.932  15.568 -0.4819  0.2188  0.1683
  480TMC3    C8 7201   4.701   1.164  15.461  0.0822 -0.4690  0.1602
  480TMC3    O1 7202   0.414   0.919  15.676  0.0959 -0.7708  0.2595
  480TMC3    O2 7203   4.578   1.172  15.473 -0.1051 -0.1025 -0.3895
  481MPD2     C 7204   2.292   0.722  14.698  0.2388 -0.0405  0.3499
  481MPD2    C1 7205   2.200   0.628  14.666 -0.6392  0.2726  0.4577
  481MPD2    C2 7206   2.177   0.521  14.754  0.9727  0.0748  0.0440
  481MPD2    C3 7207   2.238   0.509  14.877  0.1588  0.4130  0.2028
  481MPD2    C4 7208   2.342   0.600  14.901 -0.4340  0.1358  0.0689
  481MPD2    C5 7209   2.370   0.703  14.811  0.2316  0.1817  0.0478
  481MPD2     H 7210   2.108   0.443  14.727  1.7821 -0.3515 -0.7907
  481MPD2    H1 7211   2.408   0.603  14.987 -0.5456 -1.7163  0.2347
  481MPD2    H2 7212   2.317   0.802  14.628  1.1404 -2.6360 -2.2838
  481MPD2    H3 7213   2.454   0.770  14.823 -0.4701  1.5755 -2.7158
  481MPD2     N 7214   2.221   0.402  14.968 -0.3098  0.1302 -0.1806
  481MPD2    H5 7215   2.268   0.406  15.058 -0.5394  3.0583 -0.1865
  481MPD2    N1 7216   2.145   0.635  14.535 -0.2931 -0.3000 -0.2327
  481MPD2    H7 7217   2.157   0.716  14.476 -3.7626  1.4828  1.4986
  482TMC3    C1 7218   1.983   0.603  14.376  0.0669 -0.3491 -0.3247
  482TMC3    C2 7219   1.853   0.565  14.366 -0.1069  0.0726 -0.1182
  482TMC3    C3 7220   1.778   0.604  14.258 -0.2251  0.8019 -0.7236
  482TMC3    C4 7221   2.046   0.666  14.268 -0.4236  0.1950  0.5337
  482TMC3    C5 7222   1.966   0.702  14.169  0.8542 -0.5387 -0.8174
  482TMC3    C6 7223   1.834   0.678  14.161  0.5153  0.9687 -0.3542
  482TMC3     C 7224   2.059   0.542  14.478  0.5249 -0.0337 -1.0913
  482TMC3     O 7225   2.018   0.435  14.522  0.0560 -0.0587 -0.0647
  482TMC3     H 7226   1.807   0.511  14.447  2.3293 -1.3536  0.3295
  482TMC3    H1 7227   2.152   0.687  14.269 -1.0434  3.3288  3.1147
  482TMC3    H2 7228   1.774   0.698  14.073 -0.0288 -2.2679 -0.7281
  482TMC3    C7 7229   2.033   0.750  14.046  0.2407 -0.1230  0.3035
  482TMC3    C8 7230   1.667   0.524  14.243  0.4713 -0.1870  0.2282
  482TMC3    O1 7231   2.155   0.720  14.025  1.0592 -0.0399  0.9471
  482TMC3    O2 7232   1.660   0.415  14.301 -0.0454 -0.1038  0.1725
  483TMC3    C1 7233   4.700   4.185   1.133  0.1543  0.1553 -0.3187
  483TMC3    C2 7234   0.047   4.266   1.061  0.9636 -0.6976 -0.3404
  483TMC3    C3 7235   0.175   4.277   1.103 -0.2589 -0.1696 -0.2428
  483TMC3    C4 7236   4.731   4.124   1.244 -0.0634 -0.2637  0.3599
  483TMC3    C5 7237   0.124   4.143   1.290  0.1836  0.0979  0.4495
  483TMC3    C6 7238   0.213   4.221   1.224  0.1593  0.6020 -0.1905
  483TMC3     C 7239   4.564   4.187   1.086  0.2623 -0.4976  0.1630
  483TMC3     O 7240   4.534   4.270   1.001  0.4155 -0.6157  0.1769
  483TMC3     H 7241   0.024   4.299   0.960 -1.6157  0.9760  0.7857
  483TMC3    H1 7242   4.661   4.065   1.302 -1.6391  2.0131  0.7540
  483TMC3    H2 7243   0.309   4.245   1.267  0.9671 -1.7768 -0.6699
  483TMC3    C7 7244   0.175   4.038   1.380 -0.7220 -0.2190 -0.3487
  483TMC3    C8 7245   0.271   4.313   0.997 -0.6714 -0.5433  0.5769
  483TMC3    O1 7246   0.292   4.053   1.411 -0.0960  0.2787 -0.0466
  483TMC3    O2 7247   0.228   4.352   0.892  0.0407 -0.2396  0.0801
  484MPD2     C 7248   2.707   1.777  12.483 -0.8201 -0.2332  0.1520
  484MPD2    C1 7249   2.746   1.872  12.572 -0.1108  0.1195 -0.1772
  484MPD2    C2 7250   2.882   1.901  12.590  0.4636 -0.5794  0.2675
  484MPD2    C3 7251   2.976   1.827  12.515  0.4696 -0.2030  0.6987
  484MPD2    C4 7252   2.939   1.738  12.416  0.0515 -0.7313  0.2384
  484MPD2    C5 7253   2.799   1.728  12.392  1.1783 -0.4064 -0.0418
  484MPD2     H 7254   2.917   1.967  12.668  2.8473 -2.3157  0.6932
  484MPD2    H1 7255   3.015   1.696  12.351 -0.0876  0.4256 -0.6617
  484MPD2    H2 7256   2.601   1.781  12.459 -0.9314 -0.8846  0.5383
  484MPD2    H3 7257   2.779   1.667  12.305 -1.2633 -0.5869  0.6285
  484MPD2     N 7258   3.113   1.850  12.530 -0.5553  0.0786  0.1323
  484MPD2    H5 7259   3.170   1.811  12.457  1.5697  0.0096  1.8426
  484MPD2    N1 7260   2.635   1.937  12.641  0.3100  0.4025 -0.0076
  484MPD2    H7 7261   2.538   1.906  12.630  0.2352  0.7645 -0.3702
  485TMC3    C1 7262   3.306   1.955  12.575 -0.5269  0.3070 -0.2591
  485TMC3    C2 7263   3.372   1.873  12.488 -0.4406 -0.4988 -0.4660
  485TMC3    C3 7264   3.482   1.929  12.424  0.1088 -0.0306  0.2543
  485TMC3    C4 7265   3.351   2.083  12.603 -0.5805 -0.5286  0.0692
  485TMC3    C5 7266   3.466   2.133  12.547  0.3415  0.9846  0.0045
  485TMC3    C6 7267   3.532   2.051  12.455 -0.3538  0.6935  0.3275
  485TMC3     C 7268   3.167   1.929  12.626  0.4120  0.0808 -0.0010
  485TMC3     O 7269   3.126   2.000  12.723 -0.1124  0.1783  0.3191
  485TMC3     H 7270   3.347   1.768  12.478  0.6660 -0.6049 -2.1172
  485TMC3    H1 7271   3.292   2.138  12.676 -1.5162 -0.9100 -0.4038
  485TMC3    H2 7272   3.617   2.097  12.406 -0.1592 -1.1668 -1.1144
  485TMC3    C7 7273   3.430   2.259  12.484 -0.6420  0.4957 -0.1539
  485TMC3    C8 7274   3.497   1.903  12.281 -0.7275  0.1520  0.0333
  485TMC3    O1 7275   3.402   2.357  12.549  0.3311 -0.2598  0.0835
  485TMC3    O2 7276   3.497   2.014  12.221  1.1178 -0.1144  0.2224
  486MPD2     C 7277   4.720   1.294  12.985  0.2778 -0.0457  0.1771
  486MPD2    C1 7278   4.630   1.235  12.897  0.2528  0.5116  0.1024
  486MPD2    C2 7279   4.541   1.322  12.838 -0.2921  0.0658  0.1385
  486MPD2    C3 7280   4.533   1.453  12.873 -0.8114  0.2866  0.1202
  486MPD2    C4 7281   4.614   1.507  12.967  0.1970  0.0865 -0.2093
  486MPD2    C5 7282   4.708   1.427  13.022 -0.1443 -0.1726 -0.3499
  486MPD2     H 7283   4.484   1.291  12.751 -2.1429  1.1150  0.9841
  486MPD2    H1 7284   4.609   1.614  12.986  2.9165  0.0244  0.9184
  486MPD2    H2 7285   0.070   1.239  13.019  0.7868  0.7357  0.1203
  486MPD2    H3 7286   0.041   1.466  13.095  0.7475  1.4357 -2.0586
  486MPD2     N 7287   4.449   1.528  12.793  0.2521  0.1449  0.2160
  486MPD2    H5 7288   4.426   1.486  12.704 -1.5854  0.9722  0.2894
  486MPD2    N1 7289   4.635   1.096  12.876 -0.2048  0.0734  0.1440
  486MPD2    H7 7290   4.693   1.032  12.930 -0.7194 -1.3024 -0.9434
  487TMC3    C1 7291   4.553   0.889  12.840 -0.2413 -0.4615  0.2792
  487TMC3    C2 7292   4.432   0.823  12.829  0.3412 -0.1138  0.6475
  487TMC3    C3 7293   4.435   0.690  12.870  0.2024  0.0487 -0.3441
  487TMC3    C4 7294   4.670   0.830  12.871  0.3959  0.2151 -0.0713
  487TMC3    C5 7295   4.666   0.693  12.896  0.0045  0.4941 -0.0092
  487TMC3    C6 7296   4.550   0.617  12.896 -0.1860  0.0952 -0.5463
  487TMC3     C 7297   4.538   1.026  12.810  0.1620 -0.1172  0.1817
  487TMC3     O 7298   4.440   1.062  12.747  0.4917 -0.0544  0.1510
  487TMC3     H 7299   4.341   0.880  12.813  0.5725  0.0891  0.0623
  487TMC3    H1 7300   0.031   0.871  12.852 -0.6491  2.2332 -1.1323
  487TMC3    H2 7301   4.549   0.531  12.962 -1.6507  1.4435  1.1756
  487TMC3    C7 7302   0.062   0.631  12.932  0.0239  0.7737  0.0123
  487TMC3    C8 7303   4.323   0.648  12.944 -0.7629  0.0598 -0.3227
  487TMC3    O1 7304   0.165   0.697  12.929  0.3209 -0.6947  0.2095
  487TMC3    O2 7305   4.255   0.745  12.988  0.7691  0.3177  0.1881
  488MPD2     C 7306   4.456   2.562  16.449  0.1472 -0.4557 -0.0712
  488MPD2    C1 7307   4.562   2.647  16.492 -0.0264  0.0610  0.5720
  488MPD2    C2 7308   4.625   2.616  16.615 -0.1905  0.3411  0.8851
  488MPD2    C3 7309   4.582   2.509  16.687  0.0975 -0.7150 -0.3608
  488MPD2    C4 7310   4.475   2.428  16.648 -0.0381  0.5237 -0.2478
  488MPD2    C5 7311   4.417   2.459  16.528  0.0949  0.5445 -0.4145
  488MPD2     H 7312   4.701   2.679  16.658  0.8069 -0.2220 -0.0438
  488MPD2    H1 7313   4.447   2.331  16.688  1.4217 -0.0020 -0.4839
  488MPD2    H2 7314   4.399   2.584  16.359  1.8576 -2.7745 -1.7086
  488MPD2    H3 7315   4.337   2.394  16.498 -0.2699  1.0253 -0.4725
  488MPD2     N 7316   4.637   2.479  16.813  0.2773 -0.2865  0.1326
  488MPD2    H5 7317   4.732   2.506  16.835 -0.0562  0.6664  0.4160
  488MPD2    N1 7318   4.597   2.768  16.429  0.3780 -1.4002 -0.3139
  488MPD2    H7 7319   4.668   2.820  16.481 -0.0415 -1.1048 -0.0370
  489TMC3    C1 7320   4.651   2.401  17.034  0.9399 -0.9008  0.0105
  489TMC3    C2 7321   0.043   2.465  17.042 -0.2826  0.2819  0.3864
  489TMC3    C3 7322   0.083   2.505  17.169 -0.4479  0.8235  0.0449
  489TMC3    C4 7323   4.584   2.364  17.147  0.3095 -0.4991  0.2456
  489TMC3    C5 7324   4.634   2.405  17.265 -0.1933 -0.3726 -0.2602
  489TMC3    C6 7325   0.010   2.478  17.280  0.0445 -0.3583  0.6887
  489TMC3     C 7326   4.569   2.416  16.916 -0.5904 -0.8988 -0.8900
  489TMC3     O 7327   4.450   2.383  16.922  0.4353 -0.2343 -0.1934
  489TMC3     H 7328   0.090   2.518  16.960  0.3567 -0.3788  0.3258
  489TMC3    H1 7329   4.502   2.295  17.135 -0.3562  0.5829 -1.4517
  489TMC3    H2 7330   0.049   2.496  17.380  0.7651 -1.4101  0.5991
  489TMC3    C7 7331   4.560   2.370  17.390  0.2458 -0.9296 -0.5391
  489TMC3    C8 7332   0.173   2.615  17.164  0.4147 -0.5730 -0.5031
  489TMC3    O1 7333   4.614   2.409  17.489  0.5383  0.4677  0.1721
  489TMC3    O2 7334   0.252   2.624  17.069 -0.1671 -0.3186  0.4363
  490MPD2     C 7335   0.574   2.161   0.104  0.0090 -0.0015  0.0050
  490MPD2    C1 7336   0.648   2.100   0.004 -0.2525  0.1078  0.0927
  490MPD2    C2 7337   0.777   2.147  17.717  0.3951  0.5071  0.0248
  490MPD2    C3 7338   0.822   2.254   0.042 -0.5294  0.1864 -0.4151
  490MPD2    C4 7339   0.743   2.319   0.138  0.6315  0.2498 -0.1652
  490MPD2    C5 7340   0.616   2.279   0.161  0.4559  0.5914  0.4463
  490MPD2     H 7341   0.834   2.103  17.636 -0.7050 -0.1768 -0.3847
  490MPD2    H1 7342   0.769   2.408   0.195  0.7058 -0.0567  0.2859
  490MPD2    H2 7343   0.474   2.127   0.130  0.9371 -3.0784 -0.3829
  490MPD2    H3 7344   0.565   2.336   0.237 -0.8259 -0.9297  0.7277
  490MPD2     N 7345   0.941   2.321   0.024  0.4780 -1.0476 -0.1114
  490MPD2    H5 7346   0.966   2.393   0.091  1.2096  0.2169 -1.7535
  490MPD2    N1 7347   0.592   1.993  17.680  0.0916  0.5484 -0.0661
  490MPD2    H7 7348   0.501   1.957  17.708  1.3665 -2.3910  0.3061
  491TMC3    C1 7349   0.579   1.808  17.543  0.1198 -0.8231  0.0032
  491TMC3    C2 7350   0.519   1.746  17.651  0.2209  0.6678  0.0057
  491TMC3    C3 7351   0.429   1.640  17.623 -0.2896 -0.4623  0.6087
  491TMC3    C4 7352   0.570   1.766  17.416 -0.2399 -0.2493  0.8130
  491TMC3    C5 7353   0.482   1.667  17.391  0.1169 -0.2471 -0.6206
  491TMC3    C6 7354   0.402   1.606  17.493 -0.5610  0.0733 -0.4834
  491TMC3     C 7355   0.649   1.932  17.571  0.3075 -0.2690 -0.3269
  491TMC3     O 7356   0.738   1.965  17.494 -0.2975  0.1522  0.6187
  491TMC3     H 7357   0.534   1.764   0.010  1.6652 -1.5956  0.1930
  491TMC3    H1 7358   0.635   1.820  17.347 -0.6482 -1.0911 -0.2323
  491TMC3    H2 7359   0.337   1.525  17.463 -2.2417  0.7480  1.3392
  491TMC3    C7 7360   0.466   1.631  17.251 -0.3577 -0.2862 -0.0450
  491TMC3    C8 7361   0.371   1.574  17.737 -0.6230  0.0027 -0.3803
  491TMC3    O1 7362   0.409   1.522  17.235  0.3620 -0.2735 -0.5564
  491TMC3    O2 7363   0.399   1.613   0.102  0.1795  0.1432 -0.3659
  492MPD2     C 7364   1.232   2.409  11.277  1.4933  0.0869 -0.4870
  492MPD2    C1 7365   1.141   2.316  11.244 -0.0634 -0.1259  0.0638
  492MPD2    C2 7366   1.063   2.263  11.350  0.2292 -0.4019 -0.7086
  492MPD2    C3 7367   1.085   2.299  11.482  0.0947 -1.0285 -0.1611
  492MPD2    C4 7368   1.185   2.397  11.507  0.6528 -0.2682  0.2083
  492MPD2    C5 7369   1.250   2.457  11.405  0.5233  0.3455 -0.2353
  492MPD2     H 7370   0.988   2.189  11.325 -0.6752  0.7538 -1.4634
  492MPD2    H1 7371   1.210   2.430  11.607 -2.1802 -2.5930  1.6867
  492MPD2    H2 7372   1.298   2.446  11.199  2.7177  2.5299  1.7367
  492MPD2    H3 7373   1.324   2.534  11.422 -0.3405  1.4571 -1.5602
  492MPD2     N 7374   1.024   2.238  11.590  0.0690  0.3201  0.3020
  492MPD2    H5 7375   1.048   2.257  11.687  0.1160  1.6776  0.0252
  492MPD2    N1 7376   1.105   2.298  11.108 -0.5959 -0.2622 -0.1302
  492MPD2    H7 7377   1.160   2.336  11.032 -1.3069  2.1037  0.5406
  493TMC3    C1 7378   0.930   2.279  10.942 -0.1906  0.3353  0.5557
  493TMC3    C2 7379   0.965   2.398  10.888 -0.9919 -0.5236 -0.2620
  493TMC3    C3 7380   0.915   2.434  10.760 -0.4961 -0.0577  0.5757
  493TMC3    C4 7381   0.841   2.198  10.873  0.0439 -0.0596  0.2995
  493TMC3    C5 7382   0.798   2.237  10.745 -0.3575 -0.5251  0.0122
  493TMC3    C6 7383   0.833   2.351  10.685 -0.6644 -0.3398 -0.4022
  493TMC3     C 7384   0.987   2.237  11.070  0.4069  0.2552  0.4929
  493TMC3     O 7385   0.911   2.159  11.125  0.3012 -0.4369  0.4754
  493TMC3     H 7386   1.022   2.466  10.949 -1.3921 -0.3225 -0.1078
  493TMC3    H1 7387   0.796   2.109  10.914 -0.3107  1.2390  2.7362
  493TMC3    H2 7388   0.799   2.364  10.583 -0.2003 -0.1888 -0.5379
  493TMC3    C7 7389   0.694   2.154  10.683 -0.6793  0.2550  0.0740
  493TMC3    C8 7390   0.985   2.552  10.706  0.5721 -0.4709 -0.0443
  493TMC3    O1 7391   0.686   2.175  10.559 -0.2225 -0.1823  0.0611
  493TMC3    O2 7392   1.022   2.630  10.794  0.5470  0.3945  0.2693
  494TMC3    C1 7393   1.778   3.973   0.752 -0.5203  0.7145  0.2630
  494TMC3    C2 7394   1.825   3.837   0.761  0.4128  0.6187 -0.7460
  494TMC3    C3 7395   1.860   3.772   0.642  0.3757  0.3367 -0.4691
  494TMC3    C4 7396   1.760   4.031   0.628  0.0005 -0.0453 -0.2426
  494TMC3    C5 7397   1.795   3.964   0.512  1.1003  0.0356 -0.7157
  494TMC3    C6 7398   1.848   3.839   0.521  0.5216  0.5236  0.3138
  494TMC3     C 7399   1.692   4.013   0.861 -0.0833 -0.1695 -0.3324
  494TMC3     O 7400   1.682   3.924   0.947  0.1829  0.4314  0.1346
  494TMC3     H 7401   1.831   3.784   0.855  1.1309  1.4910 -0.2976
  494TMC3    H1 7402   1.725   4.132   0.612 -0.8433  0.0408  2.1556
  494TMC3    H2 7403   1.884   3.797   0.428 -1.2113 -0.5076  0.1119
  494TMC3    C7 7404   1.784   4.022   0.379  0.4437  0.1030  0.4550
  494TMC3    C8 7405   1.873   3.623   0.650  0.0710 -0.2543  0.4824
  494TMC3    O1 7406   1.853   3.976   0.292  0.4642  0.4194 -0.4606
  494TMC3    O2 7407   1.872   3.566   0.759  0.2806 -0.2805 -0.2510
  495TMC3    C1 7408   0.484   1.231  14.629 -0.1867 -0.9592  0.1022
  495TMC3    C2 7409   0.423   1.314  14.532 -0.2239 -0.0067 -0.0121
  495TMC3    C3 7410   0.320   1.391  14.550 -0.4955 -0.0689 -0.0600
  495TMC3    C4 7411   0.442   1.247  14.757  0.0475  0.0229  0.2651
  495TMC3    C5 7412   0.346   1.342  14.780 -0.9126  0.2085  0.5913
  495TMC3    C6 7413   0.295   1.421  14.679 -0.4109  0.1206 -0.0172
  495TMC3     C 7414   0.498   1.093  14.574  0.3656 -0.0388 -0.6077
  495TMC3     O 7415   0.446   1.013  14.655 -0.0091 -0.1708 -0.2466
  495TMC3     H 7416   0.446   1.291  14.428  1.2345  2.6878 -0.2880
  495TMC3    H1 7417   0.489   1.192  14.838 -0.5983 -0.4649  0.3090
  495TMC3    H2 7418   0.234   1.507  14.703  1.1353  1.3384 -0.4651
  495TMC3    C7 7419   0.295   1.350  14.914  0.1851 -0.3845 -0.4631
  495TMC3    C8 7420   0.193   1.341  14.493 -0.4271  0.0814  0.1188
  495TMC3    O1 7421   0.362   1.306  15.007 -0.3943  0.3912  0.2141
  495TMC3    O2 7422   0.095   1.349  14.573 -0.4453 -0.1144 -0.0426
  496MPD2     C 7423   1.983   1.623  15.391  0.3341  0.0886 -0.4993
  496MPD2    C1 7424   2.019   1.514  15.464 -0.4973  0.4750 -0.0521
  496MPD2    C2 7425   1.930   1.409  15.485  0.6427 -0.3190  0.1615
  496MPD2    C3 7426   1.809   1.402  15.417 -0.4161  0.1849  0.2808
  496MPD2    C4 7427   1.774   1.516  15.349 -0.7346  0.1303  0.9336
  496MPD2    C5 7428   1.859   1.623  15.337  0.5877  0.3895  0.0744
  496MPD2     H 7429   1.960   1.320  15.540  2.5383  0.3601  0.2119
  496MPD2    H1 7430   1.678   1.525  15.298 -2.1489  1.9222  3.8992
  496MPD2    H2 7431   2.048   1.708  15.378 -1.5180  1.6010  0.0229
  496MPD2    H3 7432   1.833   1.722  15.301 -3.8050 -0.5339  0.8094
  496MPD2     N 7433   1.727   1.290  15.419  0.1261 -0.2460 -0.3085
  496MPD2    H5 7434   1.660   1.285  15.343  0.3594  0.5698 -0.5763
  496MPD2    N1 7435   2.153   1.521  15.512 -0.0438 -0.0534 -0.1447
  496MPD2    H7 7436   2.204   1.601  15.477 -1.2113  1.6448  2.0251
  497TMC3    C1 7437   1.651   1.075  15.469  0.4156  0.0422  0.2251
  497TMC3    C2 7438   1.661   1.036  15.340 -0.7024  0.0356  0.2509
  497TMC3    C3 7439   1.694   0.908  15.317 -0.0095  0.6886  0.1372
  497TMC3    C4 7440   1.665   0.985  15.570 -0.2279  0.1019  0.1205
  497TMC3    C5 7441   1.706   0.860  15.541 -0.2475 -0.5421  0.1000
  497TMC3    C6 7442   1.718   0.820  15.421 -0.9709  0.8162  0.1840
  497TMC3     C 7443   1.725   1.194  15.507  0.6380 -0.0188  0.1360
  497TMC3     O 7444   1.793   1.180  15.611 -0.3183  0.3453  0.7383
  497TMC3     H 7445   1.653   1.113  15.264 -1.6416 -1.4609 -1.1863
  497TMC3    H1 7446   1.654   1.019  15.672  1.6729  1.3912 -0.1039
  497TMC3    H2 7447   1.746   0.717  15.403  0.2819  0.9842  1.2437
  497TMC3    C7 7448   1.804   0.799  15.632  0.0970  0.3169  0.1120
  497TMC3    C8 7449   1.679   0.854  15.183  0.4488  0.1260  0.0605
  497TMC3    O1 7450   1.842   0.683  15.610 -0.6329 -0.0539 -0.7303
  497TMC3    O2 7451   1.686   0.942  15.097  0.0684 -0.5581 -0.1175
  498MPD2     C 7452   2.362   2.352   9.936  1.0698 -0.3563 -0.8327
  498MPD2    C1 7453   2.443   2.275  10.015 -0.4934 -1.3192 -0.7363
  498MPD2    C2 7454   2.385   2.153  10.054 -0.4945  0.1033  0.2337
  498MPD2    C3 7455   2.263   2.113  10.019 -0.6314  0.2040 -0.9144
  498MPD2    C4 7456   2.185   2.200   9.950 -0.3474  0.2950 -0.5146
  498MPD2    C5 7457   2.236   2.320   9.905 -0.1410  0.5146 -0.3463
  498MPD2     H 7458   2.460   2.095  10.106  0.3385  0.0028 -1.0811
  498MPD2    H1 7459   2.080   2.185   9.932 -0.3385 -0.5180  0.0735
  498MPD2    H2 7460   2.402   2.437   9.882  1.3428  1.1634  1.7585
  498MPD2    H3 7461   2.179   2.376   9.832 -0.3453  0.0793 -0.5190
  498MPD2     N 7462   2.218   1.984  10.077  0.3831  0.0481 -0.2814
  498MPD2    H5 7463   2.289   1.923  10.117  0.5623 -1.0389 -2.2549
  498MPD2    N1 7464   2.579   2.303  10.038 -0.0167 -0.1112 -0.3343
  498MPD2    H7 7465   2.637   2.232  10.080  1.5410  0.4123 -1.5820
  499TMC3    C1 7466   2.769   2.439  10.023  0.9660 -0.0815 -0.3456
  499TMC3    C2 7467   2.847   2.324  10.018 -0.6497  0.3127 -0.3360
  499TMC3    C3 7468   2.985   2.358  10.043 -0.3944 -0.0626 -0.4849
  499TMC3    C4 7469   2.817   2.565  10.028 -0.2373  0.1895 -0.2478
  499TMC3    C5 7470   2.942   2.585  10.058 -0.0283  0.1659 -0.3441
  499TMC3    C6 7471   3.035   2.484  10.072  0.5739  0.1330 -0.1237
  499TMC3     C 7472   2.627   2.426  10.014  0.1210 -0.3672 -0.1839
  499TMC3     O 7473   2.567   2.530  10.003  0.4241  0.3466 -0.1781
  499TMC3     H 7474   2.814   2.232   9.971 -0.8073  0.1375  0.1169
  499TMC3    H1 7475   2.754   2.653  10.024 -0.3303  0.1386  0.0257
  499TMC3    H2 7476   3.133   2.496  10.116 -0.6352  0.8169  2.3534
  499TMC3    C7 7477   2.983   2.723  10.081 -0.5977 -0.6492  1.6059
  499TMC3    C8 7478   3.067   2.270   9.962 -0.2648  0.0154 -0.1143
  499TMC3    O1 7479   2.922   2.810  10.019  0.0209 -0.1227  0.7988
  499TMC3    O2 7480   3.012   2.193   9.880 -0.4595 -0.1748  0.3209
  500MPD2     C 7481   0.085   3.966   9.962  0.5067 -0.1611  0.3568
  500MPD2    C1 7482   0.065   3.927  10.098 -0.1383 -0.1258 -0.2483
  500MPD2    C2 7483   4.677   3.898  10.139  0.3408 -0.3387  0.4505
  500MPD2    C3 7484   4.572   3.899  10.049 -0.0899  0.4409  0.0714
  500MPD2    C4 7485   4.591   3.933   9.919 -0.1916 -0.7413  0.0200
  500MPD2    C5 7486   4.720   3.961   9.874  1.0138  0.2528  0.3608
  500MPD2     H 7487   4.663   3.878  10.244  1.5612 -1.8123  0.3190
  500MPD2    H1 7488   4.510   3.941   9.847 -0.5431 -0.9403  0.3986
  500MPD2    H2 7489   0.185   3.975   9.921  0.9891 -0.3803  1.4674
  500MPD2    H3 7490   0.000   3.986   9.770 -2.3760  2.3190  0.2841
  500MPD2     N 7491   4.436   3.855  10.081 -0.1261  0.0192 -0.5972
  500MPD2    H5 7492   4.378   3.857   9.997 -1.3510 -0.8494  0.2298
  500MPD2    N1 7493   0.163   3.954  10.194 -0.2897  0.1423 -0.2927
  500MPD2    H7 7494   0.131   3.925  10.286  1.7558 -1.3574 -0.0637
  501TMC3    C1 7495   0.387   3.975  10.282 -0.1936 -0.6762  0.3601
  501TMC3    C2 7496   0.451   4.094  10.314 -0.5438  0.7377  0.4484
  501TMC3    C3 7497   0.532   4.084  10.422  0.4556  0.3813  0.2690
  501TMC3    C4 7498   0.377   3.871  10.371  0.4688 -0.3508 -0.0561
  501TMC3    C5 7499   0.466   3.864  10.478  0.0788 -0.1412  0.1229
  501TMC3    C6 7500   0.542   3.977  10.502  0.6722 -0.0451  0.1905
  501TMC3     C 7501   0.295   4.000  10.176 -0.2427 -0.0765  0.3808
  501TMC3     O 7502   0.345   4.051  10.080  0.0236 -0.0598 -0.0062
  501TMC3     H 7503   0.460   4.172  10.240 -1.1864  1.3761  1.0415
  501TMC3    H1 7504   0.328   3.780  10.337 -1.5620  0.9147 -0.4839
  501TMC3    H2 7505   0.602   3.978  10.593  0.8952 -1.2280  0.0602
  501TMC3    C7 7506   0.510   3.737  10.531 -0.2511  0.5453  0.1394
  501TMC3    C8 7507   0.592   4.212  10.473 -0.1009 -0.1295  0.2252
  501TMC3    O1 7508   0.596   3.739  10.617  0.4659 -1.0894 -0.0992
  501TMC3    O2 7509   0.653   4.200  10.577  0.2299  0.1859  0.4264
  502TMC3    C1 7510   4.405   1.849  14.996 -0.2240  0.3865  0.2854
  502TMC3    C2 7511   4.374   1.933  14.895  0.5055  0.1138 -0.2746
  502TMC3    C3 7512   4.245   1.944  14.858  0.0358  0.3128 -0.1381
  502TMC3    C4 7513   4.306   1.785  15.068 -0.3838 -0.3496 -0.2128
  502TMC3    C5 7514   4.173   1.821  15.035  0.2320 -1.1135 -1.1238
  502TMC3    C6 7515   4.137   1.897  14.926  0.5955  0.4675  0.0150
  502TMC3     C 7516   4.543   1.868  15.056  0.3213  0.3713  0.0527
  502TMC3     O 7517   4.628   1.906  14.976 -0.1161 -0.6058  0.3349
  502TMC3     H 7518   4.449   1.990  14.841  1.9675 -1.3949  0.1533
  502TMC3    H1 7519   4.328   1.714  15.148 -1.1494  0.5349  0.7799
  502TMC3    H2 7520   4.032   1.899  14.899  1.0667  1.3884 -1.7613
  502TMC3    C7 7521   4.060   1.777  15.126 -0.7263  0.0097 -0.6928
  502TMC3    C8 7522   4.209   2.004  14.727 -0.4570  0.3229  0.4540
  502TMC3    O1 7523   4.103   1.692  15.208 -0.0102  0.4807 -0.5310
  502TMC3    O2 7524   4.094   1.979  14.687 -0.2904  0.4647  0.0053
  503MPD2     C 7525   1.828   2.879  16.917 -0.1645  0.3505 -0.5074
  503MPD2    C1 7526   1.877   2.914  17.040 -0.3238 -0.2543 -0.0553
  503MPD2    C2 7527   1.927   2.816  17.125  0.0139  0.5088  0.2914
  503MPD2    C3 7528   1.931   2.685  17.094 -1.2108  0.4104  0.6274
  503MPD2    C4 7529   1.869   2.649  16.976 -0.2278 -0.4260 -0.4838
  503MPD2    C5 7530   1.828   2.742  16.888  0.4274 -0.3208 -0.0058
  503MPD2     H 7531   1.958   2.845  17.225  0.2786  0.6198  0.1773
  503MPD2    H1 7532   1.865   2.544  16.949 -1.0874 -0.6264  0.4211
  503MPD2    H2 7533   1.796   2.946  16.838 -1.9909 -1.2653 -1.1411
  503MPD2    H3 7534   1.803   2.702  16.790 -0.1267  1.3695 -0.5637
  503MPD2     N 7535   1.988   2.596  17.186  1.1549  0.2761 -0.3646
  503MPD2    H5 7536   2.018   2.637  17.273  0.7587 -0.3293  0.0549
  503MPD2    N1 7537   1.876   3.050  17.082 -0.3587  0.3380 -0.0669
  503MPD2    H7 7538   1.885   3.072  17.181 -2.2426 -0.7008  0.3171
  504TMC3    C1 7539   2.100   2.423  17.266 -0.2063 -1.0819 -0.0505
  504TMC3    C2 7540   2.083   2.475  17.392 -0.8100 -0.3809  0.9826
  504TMC3    C3 7541   2.182   2.447  17.481 -0.5053 -0.5003 -0.1072
  504TMC3    C4 7542   2.202   2.349  17.222  1.0343  0.2480  0.3903
  504TMC3    C5 7543   2.304   2.345  17.311 -0.2248 -0.0164  0.2838
  504TMC3    C6 7544   2.303   2.397  17.435 -0.5463  0.3068 -0.0630
  504TMC3     C 7545   2.007   2.467  17.162 -0.3920  0.0954 -0.5311
  504TMC3     O 7546   2.004   2.406  17.056 -0.0622 -0.3935 -0.3604
  504TMC3     H 7547   1.991   2.526  17.419 -2.0035 -2.3935  0.7267
  504TMC3    H1 7548   2.215   2.323  17.118 -0.8158 -3.1416  0.9933
  504TMC3    H2 7549   2.400   2.414  17.480 -0.1189 -2.2965 -0.0118
  504TMC3    C7 7550   2.426   2.296  17.256  0.7998  0.5545  0.5259
  504TMC3    C8 7551   2.162   2.503  17.615  0.4642  0.3983 -0.1927
  504TMC3    O1 7552   2.437   2.327  17.139  0.7094  0.1063  0.2703
  504TMC3    O2 7553   2.079   2.591  17.618  0.2896  0.4217 -0.0018
  505MPD2     C 7554   2.100   0.597  10.415 -0.0398  0.3560  0.3536
  505MPD2    C1 7555   2.217   0.625  10.347 -0.4114  0.3411 -0.5608
  505MPD2    C2 7556   2.320   0.685  10.415 -0.0324 -0.1732  0.1626
  505MPD2    C3 7557   2.299   0.741  10.540  0.2612 -0.0126  0.0094
  505MPD2    C4 7558   2.179   0.730  10.597 -0.0123  0.1134 -0.7673
  505MPD2    C5 7559   2.085   0.649  10.543 -0.6983 -0.4954 -0.0983
  505MPD2     H 7560   2.421   0.699  10.378  0.1630  0.0915  0.8017
  505MPD2    H1 7561   2.169   0.770  10.697 -0.3474  1.2903 -1.2734
  505MPD2    H2 7562   2.032   0.525  10.369  0.3239  0.7453 -0.7813
  505MPD2    H3 7563   1.994   0.622  10.595 -0.9632  0.8336  0.1244
  505MPD2     N 7564   2.411   0.809  10.594 -0.7166 -0.0255 -0.3305
  505MPD2    H5 7565   2.493   0.811  10.535 -1.5485 -0.1946 -1.5007
  505MPD2    N1 7566   2.225   0.574  10.213  0.0289  0.4206 -0.5553
  505MPD2    H7 7567   2.145   0.541  10.160 -0.1051 -2.4065  1.3894
  506TMC3    C1 7568   2.316   0.566  10.001 -0.8839 -0.3696  0.2141
  506TMC3    C2 7569   2.225   0.646   9.944 -0.7573 -0.2710 -0.1235
  506TMC3    C3 7570   2.246   0.699   9.821 -0.1311 -0.6267 -0.0860
  506TMC3    C4 7571   2.432   0.542   9.935 -0.1730  0.6930  0.3835
  506TMC3    C5 7572   2.459   0.607   9.821 -0.0123  0.3096 -0.2152
  506TMC3    C6 7573   2.361   0.674   9.749  0.0164 -1.0734  0.2890
  506TMC3     C 7574   2.340   0.572  10.141  1.1075  0.1728  0.7571
  506TMC3     O 7575   2.453   0.607  10.172 -0.4852  0.0639 -0.3239
  506TMC3     H 7576   2.128   0.667   9.989  0.1397  0.9124  1.2529
  506TMC3    H1 7577   2.505   0.474   9.978  0.7857  2.2577  1.2501
  506TMC3    H2 7578   2.388   0.739   9.667 -0.4209 -1.0066  0.1948
  506TMC3    C7 7579   2.589   0.669   9.822  0.2736 -0.6370 -0.1458
  506TMC3    C8 7580   2.168   0.807   9.765  0.2627 -0.2982  0.0011
  506TMC3    O1 7581   2.623   0.727   9.719 -0.0340 -0.0649 -0.3090
  506TMC3    O2 7582   2.161   0.799   9.645  0.4394 -0.2480 -0.6369
  507TMC3    C1 7583   3.758   3.248  15.211 -0.2551  0.4523  0.0135
  507TMC3    C2 7584   3.823   3.290  15.096 -0.1678  0.0097  0.2975
  507TMC3    C3 7585   3.764   3.388  15.027 -0.5925 -1.2556  0.5786
  507TMC3    C4 7586   3.652   3.319  15.255 -0.5391  0.2804  0.1517
  507TMC3    C5 7587   3.604   3.430  15.196 -0.0681 -0.0032 -0.2840
  507TMC3    C6 7588   3.662   3.465  15.078 -0.2404  0.1110  0.1198
  507TMC3     C 7589   3.785   3.119  15.275  0.4987  0.7466  0.0260
  507TMC3     O 7590   3.901   3.074  15.264 -0.0591 -0.2960  0.1734
  507TMC3     H 7591   3.894   3.222  15.052 -0.9934 -0.4402 -0.3469
  507TMC3    H1 7592   3.603   3.294  15.349 -1.1071 -2.0370 -0.7726
  507TMC3    H2 7593   3.622   3.546  15.019 -0.3145 -0.7489 -1.0158
  507TMC3    C7 7594   3.460   3.455  15.201  0.0907 -0.5475  0.0587
  507TMC3    C8 7595   3.735   3.345  14.897 -1.3291 -0.1307 -0.8223
  507TMC3    O1 7596   3.425   3.528  15.293  0.0376  0.1894 -0.3156
  507TMC3    O2 7597   3.624   3.290  14.898  0.7425  0.7903 -0.0061
  508MPD2     C 7598   3.444   4.662  16.136 -0.1131  0.1652 -0.1343
  508MPD2    C1 7599   3.416   0.061  16.150  0.1062 -0.2236 -0.0886
  508MPD2    C2 7600   3.414   0.138  16.040 -0.1913 -0.4849  0.2291
  508MPD2    C3 7601   3.436   0.081  15.915  0.1776 -0.2376 -0.6264
  508MPD2    C4 7602   3.471   4.685  15.907  0.8474 -0.0166 -0.0147
  508MPD2    C5 7603   3.479   4.600  16.018  0.1862 -0.8334 -0.2230
  508MPD2     H 7604   3.394   0.244  16.056  0.8967 -0.4282  1.2343
  508MPD2    H1 7605   3.505   4.635  15.818  3.1852 -0.1363  0.9351
  508MPD2    H2 7606   3.449   4.589  16.217  1.1297  0.2240 -0.1683
  508MPD2    H3 7607   3.506   4.495  16.015  0.1790 -0.8003 -1.4016
  508MPD2     N 7608   3.455   0.163  15.796 -0.4994 -0.4134 -0.8331
  508MPD2    H5 7609   3.493   0.117  15.714  0.0727 -1.9939  0.3173
  508MPD2    N1 7610   3.422   0.117  16.281  0.3578  0.8090  0.1793
  508MPD2    H7 7611   3.443   0.048  16.352 -1.5633 -1.4799 -1.5228
  509TMC3    C1 7612   3.389   0.532  15.524 -0.2650 -0.2573 -0.0541
  509TMC3    C2 7613   3.506   0.510  15.461 -0.4244 -0.1229  0.0461
  509TMC3    C3 7614   3.593   0.413  15.503  0.2590  0.0592  0.0065
  509TMC3    C4 7615   3.350   0.450  15.622 -0.6677 -0.0299  0.5428
  509TMC3    C5 7616   3.438   0.350  15.661  0.7295 -0.7048  0.2405
  509TMC3    C6 7617   3.558   0.331  15.600 -0.3494 -0.0548 -0.7998
  509TMC3     C 7618   3.294   0.633  15.471 -0.3808  0.0719 -0.5394
  509TMC3     O 7619   3.178   0.622  15.513 -0.2459  0.1051  0.5714
  509TMC3     H 7620   3.544   0.575  15.382  0.2694 -0.3741  0.1729
  509TMC3    H1 7621   3.254   0.471  15.668  0.0499  3.1858  0.5795
  509TMC3    H2 7622   3.628   0.256  15.635  0.0436  1.2676  1.2676
  509TMC3    C7 7623   3.405   0.291  15.789 -0.4663  0.3956 -0.4247
  509TMC3    C8 7624   3.734   0.422  15.481 -0.3142 -0.4120 -0.7977
  509TMC3    O1 7625   3.318   0.353  15.854  0.0254 -0.3962  0.0023
  509TMC3    O2 7626   3.805   0.326  15.501  0.0009 -0.5320 -0.2350
  510MPD2     C 7627   1.763   1.797  14.644 -0.6870 -0.0571 -0.0376
  510MPD2    C1 7628   1.780   1.666  14.683 -0.0252  0.0663  0.0980
  510MPD2    C2 7629   1.910   1.615  14.686  0.0852  0.3698  0.0919
  510MPD2    C3 7630   2.020   1.692  14.644  0.6966 -0.1096  0.4137
  510MPD2    C4 7631   1.994   1.816  14.596 -0.4349 -0.4231  0.1680
  510MPD2    C5 7632   1.871   1.867  14.608  0.6121 -0.1751 -0.0502
  510MPD2     H 7633   1.919   1.512  14.719  0.4015  0.3905  0.0691
  510MPD2    H1 7634   2.069   1.878  14.548 -0.6046 -0.2422  0.1410
  510MPD2    H2 7635   1.660   1.827  14.627 -0.5749  0.3360 -0.0279
  510MPD2    H3 7636   1.857   1.969  14.573  4.0829 -0.2629 -1.7024
  510MPD2     N 7637   2.149   1.627  14.655 -0.6962  0.5331  0.1686
  510MPD2    H5 7638   2.151   1.539  14.706  0.1228 -0.1019 -0.9645
  510MPD2    N1 7639   1.666   1.590  14.739 -0.5384 -0.2551 -0.4001
  510MPD2    H7 7640   1.689   1.509  14.795 -1.5905  0.0548  0.4936
  511TMC3    C1 7641   1.442   1.533  14.805 -0.3200 -0.1267 -0.1456
  511TMC3    C2 7642   1.331   1.586  14.863 -0.3840 -0.2745 -0.3002
  511TMC3    C3 7643   1.228   1.503  14.883 -0.0493 -0.0991 -0.1913
  511TMC3    C4 7644   1.450   1.404  14.753  0.5153 -0.0037 -0.3717
  511TMC3    C5 7645   1.354   1.319  14.806 -0.1536 -0.2223 -0.1267
  511TMC3    C6 7646   1.242   1.370  14.864  0.5733  0.1992  0.3333
  511TMC3     C 7647   1.537   1.629  14.751  0.2342  0.2940  0.1471
  511TMC3     O 7648   1.490   1.743  14.737  0.5171  0.3085  0.3297
  511TMC3     H 7649   1.320   1.693  14.879  1.4319 -0.1802  0.3668
  511TMC3    H1 7650   1.530   1.374  14.687 -0.5667 -2.7059 -0.4286
  511TMC3    H2 7651   1.159   1.302  14.882  0.6161  0.6169  2.1855
  511TMC3    C7 7652   1.349   1.185  14.750 -0.1139 -0.2344 -0.0336
  511TMC3    C8 7653   1.119   1.557  14.962 -0.1474  0.4736  0.9437
  511TMC3    O1 7654   1.421   1.172  14.649  0.3318 -0.4286  0.1364
  511TMC3    O2 7655   1.145   1.663  15.021 -0.3158  0.3606 -0.0928
  512TMC3    C1 7656   0.690   1.179  13.452  0.1863 -0.8042 -0.0844
  512TMC3    C2 7657   0.813   1.202  13.507 -0.1756 -0.2893  0.5549
  512TMC3    C3 7658   0.895   1.086  13.521  0.1470  0.6481  0.6527
  512TMC3    C4 7659   0.649   1.056  13.426  0.6557 -0.4291 -0.3763
  512TMC3    C5 7660   0.742   0.951  13.423 -0.6392  0.1078 -1.2069
  512TMC3    C6 7661   0.865   0.961  13.477  0.0966 -0.0251 -0.2120
  512TMC3     C 7662   0.630   1.293  13.392  0.0726 -0.4303  0.4815
  512TMC3     O 7663   0.647   1.397  13.447  0.6965  0.3323  0.5025
  512TMC3     H 7664   0.853   1.302  13.517  1.2850 -0.7232 -0.8943
  512TMC3    H1 7665   0.550   1.040  13.386  0.1021  3.4663 -0.5124
  512TMC3    H2 7666   0.942   0.884  13.480  0.4716  0.3669  0.2955
  512TMC3    C7 7667   0.715   0.872  13.309  0.1949 -0.3606 -0.5068
  512TMC3    C8 7668   1.016   1.096  13.597 -0.4728 -0.3026  0.6151
  512TMC3    O1 7669   0.615   0.905  13.242 -0.1843 -0.2928 -0.4494
  512TMC3    O2 7670   1.081   0.992  13.621 -0.2817 -0.2334  0.7787
  513MPD2     C 7671   2.458   0.775  13.341 -0.0688  0.0714  0.0703
  513MPD2    C1 7672   2.544   0.860  13.285  0.7950 -0.0110  0.0015
  513MPD2    C2 7673   2.626   0.940  13.364 -0.2616 -0.5626 -0.2867
  513MPD2    C3 7674   2.621   0.924  13.504  0.8493 -0.1040  0.6201
  513MPD2    C4 7675   2.532   0.834  13.562  0.5967  0.2653  0.7981
  513MPD2    C5 7676   2.452   0.763  13.480 -0.3047  0.3820 -0.1568
  513MPD2     H 7677   2.697   1.002  13.312 -1.5537  0.6507 -0.6073
  513MPD2    H1 7678   2.531   0.809  13.667 -1.1342  0.9630  0.9424
  513MPD2    H2 7679   2.403   0.700  13.284  2.3704 -1.1363 -0.6740
  513MPD2    H3 7680   2.388   0.687  13.525  1.1385 -0.3045  0.7389
  513MPD2     N 7681   2.724   0.990  13.583  0.9526  0.1358 -0.4269
  513MPD2    H5 7682   2.776   1.059  13.531 -1.6902  1.1047 -1.8056
  513MPD2    N1 7683   2.564   0.875  13.149 -0.1714 -0.4079  0.2876
  513MPD2    H7 7684   2.639   0.939  13.124 -0.6816  0.9842  2.2667
  514TMC3    C1 7685   2.571   0.831  12.931  0.5668 -0.8278 -0.7264
  514TMC3    C2 7686   2.612   0.712  12.875  0.2035 -0.1612  0.6895
  514TMC3    C3 7687   2.749   0.699  12.851  0.0267 -0.4918 -0.2355
  514TMC3    C4 7688   2.658   0.933  12.947 -0.1691  0.4544  0.5739
  514TMC3    C5 7689   2.790   0.931  12.904 -0.8143  0.6755 -0.0033
  514TMC3    C6 7690   2.839   0.801  12.868  0.4918  0.6510 -0.5168
  514TMC3     C 7691   2.503   0.802  13.052  0.3873  0.8114  0.1267
  514TMC3     O 7692   2.408   0.721  13.052 -0.2859  0.2152 -0.2004
  514TMC3     H 7693   2.542   0.629  12.888 -1.0270  0.9390  1.0817
  514TMC3    H1 7694   2.610   1.029  12.961 -1.5817 -0.4363  1.7893
  514TMC3    H2 7695   2.944   0.785  12.848  0.6854 -0.0260  1.0353
  514TMC3    C7 7696   2.875   1.003  12.999 -0.0366 -0.4204 -0.4036
  514TMC3    C8 7697   2.802   0.573  12.801 -0.1229  0.0680  0.2205
  514TMC3    O1 7698   2.801   1.043  13.086  0.2876 -0.4589 -0.2359
  514TMC3    O2 7699   2.922   0.549  12.811  0.0892 -0.4565 -0.3321
  515MPD2     C 7700   1.200   2.437  15.030 -0.0400 -1.0445 -0.0796
  515MPD2    C1 7701   1.060   2.447  15.004 -0.0238 -0.0888 -0.1269
  515MPD2    C2 7702   0.983   2.515  15.102 -0.1855  0.0313 -0.4475
  515MPD2    C3 7703   1.043   2.554  15.220 -0.7237 -0.4088 -0.5291
  515MPD2    C4 7704   1.175   2.538  15.234 -0.3409 -0.2125 -0.1167
  515MPD2    C5 7705   1.256   2.481  15.145 -0.2013 -0.1292 -0.0151
  515MPD2     H 7706   0.875   2.514  15.105 -0.1909  1.4212 -0.2650
  515MPD2    H1 7707   1.230   2.571  15.321 -2.9767  0.4717  1.2733
  515MPD2    H2 7708   1.268   2.376  14.971 -0.1373  0.3244 -1.5915
  515MPD2    H3 7709   1.360   2.460  15.166 -0.2928 -0.4050  0.1601
  515MPD2     N 7710   0.972   2.617  15.322  0.0825  0.2769  0.7725
  515MPD2    H5 7711   1.026   2.626  15.407  0.7732  2.5535  0.0781
  515MPD2    N1 7712   1.000   2.404  14.885  0.0088 -0.5241  0.0931
  515MPD2    H7 7713   0.898   2.404  14.884 -0.0011  2.5285  0.8293
  516TMC3    C1 7714   0.977   2.336  14.671 -0.1079 -0.2619  0.3282
  516TMC3    C2 7715   0.917   2.438  14.612 -0.2908 -0.3658  0.3269
  516TMC3    C3 7716   0.792   2.414  14.566 -0.2158 -0.1094  0.5668
  516TMC3    C4 7717   0.913   2.215  14.696 -0.9059  0.2525 -0.0224
  516TMC3    C5 7718   0.780   2.202  14.669  0.1009 -0.2028  0.5696
  516TMC3    C6 7719   0.722   2.294  14.594  0.5286 -0.0467 -0.7645
  516TMC3     C 7720   1.072   2.368  14.772  0.1590 -0.1416  0.4782
  516TMC3     O 7721   1.194   2.358  14.752 -0.3517 -0.3974  0.1330
  516TMC3     H 7722   0.972   2.531  14.606  0.5077 -0.8767 -0.4065
  516TMC3    H1 7723   0.961   2.145  14.764 -0.4287 -0.1760 -0.8017
  516TMC3    H2 7724   0.623   2.291  14.550 -0.4040  1.8444  1.1704
  516TMC3    C7 7725   0.724   2.068  14.678  0.4357 -0.0598  0.4122
  516TMC3    C8 7726   0.708   2.523  14.526  0.1936 -0.1329  0.2329
  516TMC3    O1 7727   0.799   1.983  14.730 -0.4801 -0.4433  0.2709
  516TMC3    O2 7728   0.590   2.506  14.502  0.1967 -0.3005  0.0566
  517MPD2     C 7729   0.970   4.347  17.406 -0.0841  0.3673 -0.0049
  517MPD2    C1 7730   0.910   4.228  17.452  0.6376  0.8948 -0.4433
  517MPD2    C2 7731   0.810   4.243  17.547  0.1584 -0.0472  0.3612
  517MPD2    C3 7732   0.766   4.367  17.597  0.4478  0.1697  0.2469
  517MPD2    C4 7733   0.838   4.479  17.555 -0.6194  0.2852  0.4387
  517MPD2    C5 7734   0.933   4.469  17.462 -0.3700 -0.4086  0.5602
  517MPD2     H 7735   0.756   4.157  17.583  4.1225 -2.6262  0.0759
  517MPD2    H1 7736   0.801   4.576  17.586 -0.4424  1.2547 -2.4516
  517MPD2    H2 7737   1.046   4.350  17.329  0.5022  0.1845  0.5563
  517MPD2    H3 7738   0.975   4.560  17.422 -0.4477  0.4099  2.3566
  517MPD2     N 7739   0.666   4.377  17.693  0.0478 -0.3882 -0.5413
  517MPD2    H5 7740   0.611   4.462  17.686 -0.8804 -1.0450 -1.1067
  517MPD2    N1 7741   0.943   4.099  17.414  0.3287 -0.7533 -0.3306
  517MPD2    H7 7742   0.892   4.028  17.466  1.2864 -0.0514  1.5794
  518TMC3    C1 7743   1.079   3.917  17.343 -0.2916  0.4062  0.1159
  518TMC3    C2 7744   0.972   3.835  17.339  0.0702 -0.2347  0.6550
  518TMC3    C3 7745   1.004   3.705  17.322  0.8138 -0.6350  0.0088
  518TMC3    C4 7746   1.212   3.882  17.326 -0.1760  0.4760 -0.1162
  518TMC3    C5 7747   1.239   3.746  17.305 -0.6118  0.3828  0.1663
  518TMC3    C6 7748   1.132   3.654  17.315 -0.2584  0.9233 -0.2593
  518TMC3     C 7749   1.054   4.059  17.337 -0.0162  0.0076  0.0416
  518TMC3     O 7750   1.141   4.128  17.285  0.3282 -0.0801 -0.1985
  518TMC3     H 7751   0.869   3.870  17.336  0.8967  2.2419  1.1862
  518TMC3    H1 7752   1.296   3.950  17.340  0.5288  0.0631 -2.4211
  518TMC3    H2 7753   1.143   3.547  17.307 -0.1380  0.6300  3.7049
  518TMC3    C7 7754   1.369   3.692  17.345 -0.1980  0.3009 -0.0037
  518TMC3    C8 7755   0.897   3.605  17.323  0.9192  0.5618 -0.1513
  518TMC3    O1 7756   1.433   3.772  17.418 -0.1808  0.0131  0.1088
  518TMC3    O2 7757   0.926   3.502  17.265 -0.0676  0.6587 -0.0610
  519MPD2     C 7758   1.760   2.930  14.408 -0.3887 -0.0212  0.2507
  519MPD2    C1 7759   1.667   2.879  14.321  0.2543 -0.0903 -0.0397
  519MPD2    C2 7760   1.672   2.735  14.295 -0.2954 -0.2038 -0.2831
  519MPD2    C3 7761   1.785   2.664  14.342 -0.6375  0.2051 -0.2063
  519MPD2    C4 7762   1.864   2.717  14.441  0.0410  0.5571  0.5747
  519MPD2    C5 7763   1.854   2.850  14.466  0.6185  0.1879 -0.9396
  519MPD2     H 7764   1.606   2.692  14.220 -1.6994 -0.8861  1.3468
  519MPD2    H1 7765   1.943   2.663  14.492  0.1864 -0.9587 -1.2544
  519MPD2    H2 7766   1.762   3.032  14.443 -1.5600 -0.0168  0.3241
  519MPD2    H3 7767   1.917   2.893  14.544 -0.5627 -0.9259  0.6338
  519MPD2     N 7768   1.827   2.536  14.296  0.6276  0.3023  0.2007
  519MPD2    H5 7769   1.920   2.503  14.319  0.0949 -1.4354 -0.1330
  519MPD2    N1 7770   1.570   2.962  14.262 -0.1692 -0.1082  0.4178
  519MPD2    H7 7771   1.581   3.063  14.269  1.1366 -0.3311  1.4735
  520TMC3    C1 7772   1.828   2.385  14.110  0.2091  0.4664 -0.4680
  520TMC3    C2 7773   1.772   2.360  13.984  0.5209  0.6094  0.6209
  520TMC3    C3 7774   1.860   2.330  13.880 -0.3394  0.4129 -0.8492
  520TMC3    C4 7775   1.965   2.363  14.139 -0.0519 -0.7963 -0.3260
  520TMC3    C5 7776   2.032   2.301  14.038 -0.4994 -0.1140  0.1960
  520TMC3    C6 7777   1.985   2.290  13.908 -0.1663  0.0061  0.0864
  520TMC3     C 7778   1.755   2.476  14.191 -0.0774 -0.0393  0.8848
  520TMC3     O 7779   1.636   2.485  14.162 -0.4848  0.2710  0.0099
  520TMC3     H 7780   1.674   2.401  13.964  0.6634  1.0999  0.9283
  520TMC3    H1 7781   2.013   2.379  14.235 -0.7154 -0.3742 -0.0651
  520TMC3    H2 7782   2.044   2.249  13.827 -0.7848 -2.2321  0.7762
  520TMC3    C7 7783   2.157   2.245  14.071 -0.5784  0.4019  0.1527
  520TMC3    C8 7784   1.826   2.351  13.742 -0.3061  0.0137  0.2614
  520TMC3    O1 7785   2.237   2.305  14.143 -0.2333 -0.3962  0.2998
  520TMC3    O2 7786   1.929   2.349  13.671  0.4716 -0.1357 -0.9285
  521MPD2     C 7787   2.716   0.989   0.074  0.7386 -0.1878 -0.4585
  521MPD2    C1 7788   2.687   0.900  17.716 -0.3037  0.6939  0.0746
  521MPD2    C2 7789   2.751   0.929  17.595  0.0218 -1.0429  0.7357
  521MPD2    C3 7790   2.813   1.050  17.572 -0.3212  0.0765  0.1429
  521MPD2    C4 7791   2.830   1.140  17.675  0.2263 -0.5683 -0.5480
  521MPD2    C5 7792   2.782   1.110   0.050  0.8472  1.3171 -0.1862
  521MPD2     H 7793   2.752   0.860  17.511 -1.3748  0.5851 -0.6158
  521MPD2    H1 7794   2.872   1.238  17.659  0.5602 -0.8136 -1.1961
  521MPD2    H2 7795   2.675   0.965   0.172  1.3664  0.1277 -0.1168
  521MPD2    H3 7796   2.797   1.167   0.140  1.0634  3.3061 -1.4874
  521MPD2     N 7797   2.862   1.066  17.442  0.2307 -0.9511  0.6698
  521MPD2    H5 7798   2.853   0.992  17.373  1.5310  0.4087 -0.9400
  521MPD2    N1 7799   2.620   0.776  17.736  1.2970  0.6631 -0.5233
  521MPD2    H7 7800   2.605   0.742   0.083  1.7186  1.3893 -0.1863
  522TMC3    C1 7801   2.989   1.137  17.271 -1.0706 -0.4262 -0.3024
  522TMC3    C2 7802   3.123   1.111  17.261 -0.0267  0.1536 -0.0823
  522TMC3    C3 7803   3.150   1.029  17.156 -0.1579  0.1066 -0.4381
  522TMC3    C4 7804   2.891   1.081  17.194  0.7127 -0.1734  0.8935
  522TMC3    C5 7805   2.927   1.015  17.085 -0.7113  0.4483  0.0668
  522TMC3    C6 7806   3.057   0.986  17.064 -0.4174 -0.5254  0.4009
  522TMC3     C 7807   2.952   1.161  17.404  0.1776 -0.1349  0.1704
  522TMC3     O 7808   3.025   1.232  17.471  0.1040  0.2393  0.4196
  522TMC3     H 7809   3.197   1.144  17.333 -1.6345  0.9154  1.2023
  522TMC3    H1 7810   2.787   1.098  17.218  0.3900 -2.5661  1.1988
  522TMC3    H2 7811   3.087   0.936  16.973 -1.5075  0.5566 -0.5541
  522TMC3    C7 7812   2.822   0.963  17.004 -0.3253 -0.1843 -0.2545
  522TMC3    C8 7813   3.289   0.987  17.146  0.2676 -0.1921 -0.3165
  522TMC3    O1 7814   2.724   1.035  16.977  0.0945  0.0189  0.0456
  522TMC3    O2 7815   3.375   1.038  17.218  0.3054 -0.1730  0.1498
  523MPD2     C 7816   1.007   0.538  10.698 -0.0968 -0.3700 -0.3080
  523MPD2    C1 7817   0.922   0.505  10.590  0.2967  0.4131 -0.7494
  523MPD2    C2 7818   0.851   0.612  10.527  0.6283 -0.6041  0.3264
  523MPD2    C3 7819   0.859   0.738  10.574  0.4761  0.1342 -0.1414
  523MPD2    C4 7820   0.945   0.771  10.677 -0.3529  0.4850 -0.5422
  523MPD2    C5 7821   1.020   0.668  10.736  0.3298  0.1263 -1.0585
  523MPD2     H 7822   0.786   0.591  10.443  0.2472  0.1223  0.4353
  523MPD2    H1 7823   0.944   0.870  10.720 -1.3084  0.4358 -0.4423
  523MPD2    H2 7824   1.049   0.461  10.762 -1.7473 -0.1537  1.0251
  523MPD2    H3 7825   1.086   0.693  10.818  1.5657 -0.2471 -1.9436
  523MPD2     N 7826   0.781   0.849  10.527 -0.0575 -0.4149  0.4578
  523MPD2    H5 7827   0.807   0.935  10.574 -0.5414  0.3573 -0.7081
  523MPD2    N1 7828   0.926   0.364  10.549 -0.5932 -0.3662  0.6765
  523MPD2    H7 7829   0.973   0.297  10.609  0.0331 -0.0704  0.5171
  524TMC3    C1 7830   0.639   0.992  10.384  0.3648 -0.9063  0.5261
  524TMC3    C2 7831   0.673   1.097  10.465  1.3615 -0.4481 -0.3702
  524TMC3    C3 7832   0.633   1.222  10.421 -0.2135 -0.3663 -0.7468
  524TMC3    C4 7833   0.568   1.009  10.270  0.6243  1.0094 -0.4972
  524TMC3    C5 7834   0.536   1.138  10.228 -0.3751 -0.4842  0.0138
  524TMC3    C6 7835   0.566   1.248  10.304 -0.5571 -0.3186 -0.1226
  524TMC3     C 7836   0.676   0.855  10.424 -0.5295  0.2766 -0.3685
  524TMC3     O 7837   0.643   0.765  10.350 -0.3878  0.0199  0.2930
  524TMC3     H 7838   0.744   1.083  10.546  0.6960  0.6624  0.3956
  524TMC3    H1 7839   0.565   0.922  10.205  0.6336 -0.1830  1.0970
  524TMC3    H2 7840   0.538   1.351  10.284 -1.3265 -0.3828  0.6308
  524TMC3    C7 7841   0.458   1.133  10.100 -0.1225 -0.1921 -0.8792
  524TMC3    C8 7842   0.615   1.309  10.537  0.8450  0.0226  0.0928
  524TMC3    O1 7843   0.434   1.025  10.047 -0.3780  0.1704  0.2824
  524TMC3    O2 7844   0.527   1.393  10.548 -0.0640  0.1021  0.7255
  525MPD2     C 7845   3.105   2.188  14.387 -0.1682  0.2471 -0.3497
  525MPD2    C1 7846   3.244   2.205  14.413 -0.4171 -0.3461  0.4971
  525MPD2    C2 7847   3.311   2.320  14.379  0.3485  0.2641 -0.6799
  525MPD2    C3 7848   3.247   2.421  14.310 -0.0635 -0.0092  0.6853
  525MPD2    C4 7849   3.107   2.407  14.283 -0.7305  0.4180 -0.1836
  525MPD2    C5 7850   3.041   2.296  14.333 -0.1468  0.1784 -0.4472
  525MPD2     H 7851   3.412   2.343  14.411  0.0073  2.3848 -1.1266
  525MPD2    H1 7852   3.047   2.483  14.234 -1.0454  0.4461  0.2415
  525MPD2    H2 7853   3.053   2.098  14.419 -0.5585  0.0655 -1.5119
  525MPD2    H3 7854   2.933   2.291  14.322 -0.2430  1.8311 -0.2321
  525MPD2     N 7855   3.306   2.548  14.285 -0.3746 -0.2814  0.4244
  525MPD2    H5 7856   3.254   2.619  14.235 -1.5089 -1.1109  0.4343
  525MPD2    N1 7857   3.323   2.113  14.490 -0.2407  0.7544  0.5067
  525MPD2    H7 7858   3.424   2.124  14.495 -0.0884 -1.2062  1.5302
  526TMC3    C1 7859   3.370   1.959  14.665 -0.8615 -0.0091 -0.4238
  526TMC3    C2 7860   3.324   1.940  14.792  0.3507 -0.4743 -0.5684
  526TMC3    C3 7861   3.405   1.875  14.875 -0.4019  0.3881  0.5372
  526TMC3    C4 7862   3.493   1.924  14.619 -0.4388  0.5823 -0.6176
  526TMC3    C5 7863   3.572   1.853  14.709 -0.0058  0.1319  0.1721
  526TMC3    C6 7864   3.527   1.828  14.839  0.1357 -1.2101 -0.8405
  526TMC3     C 7865   3.272   2.021  14.579  0.6273 -0.2664  0.3006
  526TMC3     O 7866   3.156   1.993  14.604  0.3159 -0.3948 -0.1607
  526TMC3     H 7867   3.233   1.990  14.824  0.9892  0.7447 -0.6925
  526TMC3    H1 7868   3.520   1.945  14.517  0.6530 -2.1749 -0.8874
  526TMC3    H2 7869   3.588   1.780  14.915 -1.6308  1.3388  2.2354
  526TMC3    C7 7870   3.693   1.778  14.664 -0.2615  0.0551  0.0329
  526TMC3    C8 7871   3.366   1.878  15.011 -0.4668 -0.2955 -0.6625
  526TMC3    O1 7872   3.739   1.691  14.737  0.7225  0.6315 -0.0726
  526TMC3    O2 7873   3.456   1.863  15.090  0.3271  0.4500 -0.0074
  527MPD2     C 7874   1.213   4.420   1.604  0.2237  0.0046  0.3363
  527MPD2    C1 7875   1.209   4.469   1.475  0.2614 -0.7107 -0.6593
  527MPD2    C2 7876   1.319   4.462   1.392 -0.1968  0.5783  0.3562
  527MPD2    C3 7877   1.437   4.404   1.435 -0.4493 -0.8995 -0.2101
  527MPD2    C4 7878   1.439   4.343   1.560 -0.1043 -0.1896  0.9613
  527MPD2    C5 7879   1.326   4.351   1.638  0.3824 -0.0302  0.9341
  527MPD2     H 7880   1.306   4.508   1.294 -2.0951  0.8837  0.7536
  527MPD2    H1 7881   1.524   4.286   1.594  0.7499  0.0982 -0.6698
  527MPD2    H2 7882   1.141   4.425   1.684 -1.0099  2.3218 -0.9276
  527MPD2    H3 7883   1.330   4.313   1.739  1.0859 -2.1854  0.1022
  527MPD2     N 7884   1.543   4.408   1.348 -0.3637 -0.2025  0.2523
  527MPD2    H5 7885   1.533   4.464   1.265  1.0983 -1.0669 -0.5067
  527MPD2    N1 7886   1.083   4.515   1.423  1.0081  0.0565  0.9826
  527MPD2    H7 7887   1.080   4.550   1.328 -0.1400  0.1364  1.0414
  528TMC3    C1 7888   0.850   4.531   1.397 -0.0918  0.8872 -0.2745
  528TMC3    C2 7889   0.869   4.566   1.267  0.0273  0.1346 -0.0669
  528TMC3    C3 7890   0.758   4.600   1.191 -0.2400 -0.7394 -0.3850
  528TMC3    C4 7891   0.723   4.543   1.456  0.5681 -0.2413 -0.0478
  528TMC3    C5 7892   0.624   4.563   1.370 -0.0659 -0.1300 -0.0852
  528TMC3    C6 7893   0.636   4.598   1.241  0.9125 -0.9106 -0.4818
  528TMC3     C 7894   0.958   4.513   1.491 -0.2224  0.1668 -0.0485
  528TMC3     O 7895   0.920   4.479   1.601  0.3739  0.5027  0.1152
  528TMC3     H 7896   0.959   4.534   1.215 -0.1504  0.5587 -0.6251
  528TMC3    H1 7897   0.711   4.501   1.555 -0.0141  0.4386  0.1664
  528TMC3    H2 7898   0.550   4.608   1.177 -1.4034 -0.2832  2.7270
  528TMC3    C7 7899   0.489   4.516   1.399  0.6295  0.3492 -0.1463
  528TMC3    C8 7900   0.778   4.650   1.055  0.0832  0.3193  0.4770
  528TMC3    O1 7901   0.422   4.503   1.297 -0.1289  0.5270 -0.1939
  528TMC3    O2 7902   0.899   4.664   1.022 -0.1756 -0.2110  0.0307
  529MPD2     C 7903   3.698   3.501   1.509 -0.7049 -0.7019 -0.4976
  529MPD2    C1 7904   3.701   3.373   1.460  0.2826 -0.0100  0.0859
  529MPD2    C2 7905   3.636   3.338   1.339 -0.2359 -0.2973 -0.1044
  529MPD2    C3 7906   3.554   3.431   1.279  0.0665  0.7528  0.5354
  529MPD2    C4 7907   3.544   3.557   1.326 -0.2285  0.9976  0.0273
  529MPD2    C5 7908   3.619   3.589   1.440 -0.2848 -0.4971  0.4280
  529MPD2     H 7909   3.649   3.241   1.293 -0.0567 -0.7049  0.8216
  529MPD2    H1 7910   3.480   3.638   1.292 -2.6026 -1.2555 -0.9070
  529MPD2    H2 7911   3.740   3.535   1.603 -1.4004 -0.3667 -0.3050
  529MPD2    H3 7912   3.594   3.687   1.480  0.4785  0.4643 -1.4260
  529MPD2     N 7913   3.488   3.404   1.154 -0.6554  0.2368 -0.1593
  529MPD2    H5 7914   3.456   3.486   1.104  0.3448  0.5636 -0.2687
  529MPD2    N1 7915   3.787   3.276   1.506 -0.1439 -0.5150  0.3098
  529MPD2    H7 7916   3.782   3.186   1.460 -0.3881 -0.0897 -0.4944
  530TMC3    C1 7917   3.949   3.180   1.654 -0.4860 -0.1340 -0.4054
  530TMC3    C2 7918   4.039   3.193   1.764  0.2647 -0.3106 -0.4725
  530TMC3    C3 7919   4.168   3.137   1.750  0.0022  0.5204 -0.6321
  530TMC3    C4 7920   3.983   3.100   1.553  0.0901 -0.1813 -0.2876
  530TMC3    C5 7921   4.114   3.051   1.548  0.2022  0.0023 -1.0098
  530TMC3    C6 7922   4.208   3.071   1.638  0.5947 -0.4538 -0.9073
  530TMC3     C 7923   3.842   3.274   1.637 -0.9929 -0.1131  0.2824
  530TMC3     O 7924   3.832   3.364   1.720  0.4238  0.0239  0.6536
  530TMC3     H 7925   4.001   3.255   1.844 -0.1568 -0.8099 -0.2829
  530TMC3    H1 7926   3.910   3.078   1.476  2.0195  1.3600 -2.5949
  530TMC3    H2 7927   4.299   3.012   1.636  0.3764 -0.7960 -0.6493
  530TMC3    C7 7928   4.161   2.955   1.453 -0.6854  0.1652 -0.0157
  530TMC3    C8 7929   4.264   3.169   1.854  0.3631  0.6295  1.0779
  530TMC3    O1 7930   4.276   2.965   1.413 -0.1179  0.6989 -0.0223
  530TMC3    O2 7931   4.214   3.230   1.946  0.0424  0.7362 -0.0457
  531MPD2     C 7932   3.309   1.094  13.258 -0.7735  0.2969  0.4510
  531MPD2    C1 7933   3.175   1.102  13.292  0.0615  0.1316 -0.0585
  531MPD2    C2 7934   3.079   1.073  13.198  0.0858  0.2731 -0.1374
  531MPD2    C3 7935   3.110   1.013  13.078  0.1384 -0.1002  0.4298
  531MPD2    C4 7936   3.246   0.989  13.052  0.0256 -0.3828 -0.3789
  531MPD2    C5 7937   3.343   1.036  13.143 -0.0717 -0.5249  0.4670
  531MPD2     H 7938   2.977   1.109  13.209  0.3547  1.0382 -0.2045
  531MPD2    H1 7939   3.282   0.945  12.960 -0.6316  0.1680 -0.8983
  531MPD2    H2 7940   3.379   1.122  13.336 -1.3710  0.0565  1.0714
  531MPD2    H3 7941   3.445   1.024  13.110  0.2401  0.3584  1.1014
  531MPD2     N 7942   3.010   0.992  12.975  0.9702  0.0386 -0.2484
  531MPD2    H5 7943   3.036   0.978  12.878  0.4916 -1.0722 -0.2131
  531MPD2    N1 7944   3.142   1.158  13.424  0.4141  0.0346  0.0929
  531MPD2    H7 7945   3.223   1.181  13.481  0.8383 -0.6564 -0.2299
  532TMC3    C1 7946   3.016   1.178  13.626 -0.1703 -0.8508  0.2803
  532TMC3    C2 7947   2.888   1.167  13.672  0.2879  0.0471 -0.0963
  532TMC3    C3 7948   2.861   1.060  13.751  0.4050  0.3789  0.2910
  532TMC3    C4 7949   3.127   1.117  13.687 -0.1596 -0.8556 -0.4383
  532TMC3    C5 7950   3.095   1.023  13.780 -0.0247  0.2692  0.1494
  532TMC3    C6 7951   2.967   0.989  13.798 -0.0429  0.0551 -0.0240
  532TMC3     C 7952   3.017   1.167  13.482 -0.1707 -0.0646 -0.3018
  532TMC3     O 7953   2.905   1.154  13.429  0.1729 -0.2195  0.1880
  532TMC3     H 7954   2.813   1.223  13.617  0.5399  1.4177  0.9658
  532TMC3    H1 7955   3.229   1.130  13.655 -0.0029  1.1576  0.8817
  532TMC3    H2 7956   2.956   0.906  13.867 -1.0114 -0.7745 -1.1830
  532TMC3    C7 7957   3.203   0.935  13.822  0.4111 -0.0328  0.3791
  532TMC3    C8 7958   2.751   0.974  13.719  0.6773 -0.0383  0.0421
  532TMC3    O1 7959   3.307   0.986  13.855  0.2560  0.1633  0.1184
  532TMC3    O2 7960   2.697   0.904  13.806 -0.1629 -0.6071  0.7072
  533TMC3    C1 7961   3.474   2.717  14.293 -1.0798  0.5277  0.1785
  533TMC3    C2 7962   3.603   2.742  14.240 -0.4237 -0.1641  0.9387
  533TMC3    C3 7963   3.658   2.865  14.273 -0.4757 -0.1140  0.1233
  533TMC3    C4 7964   3.405   2.803  14.371 -0.8621  0.9386 -0.1622
  533TMC3    C5 7965   3.479   2.910  14.423 -0.0953  0.1148 -0.2474
  533TMC3    C6 7966   3.603   2.946  14.366 -0.0493 -0.0484  0.2558
  533TMC3     C 7967   3.439   2.577  14.307 -0.0637  0.2597  0.3166
  533TMC3     O 7968   3.533   2.501  14.308 -0.1535 -0.2102 -0.1235
  533TMC3     H 7969   3.656   2.667  14.182  1.2964  0.9015  1.1500
  533TMC3    H1 7970   3.318   2.776  14.429  0.3033 -0.0985  1.0844
  533TMC3    H2 7971   3.641   3.043  14.395  4.4372 -1.3044 -1.4581
  533TMC3    C7 7972   3.462   2.924  14.570 -0.2984 -1.0868 -0.5216
  533TMC3    C8 7973   3.803   2.873  14.265 -0.1872 -0.0536 -0.4566
  533TMC3    O1 7974   3.348   2.905  14.613 -0.3609  0.0127  0.6140
  533TMC3    O2 7975   3.856   2.770  14.298  0.6951 -0.4315 -0.2243
  534MPD2     C 7976   1.885   2.849   1.540 -0.5603  0.9939  0.0769
  534MPD2    C1 7977   1.810   2.960   1.550  0.3177 -0.2290 -0.2596
  534MPD2    C2 7978   1.700   2.984   1.469 -0.3058 -0.0004 -0.3609
  534MPD2    C3 7979   1.667   2.890   1.379  0.2459  0.6173  0.2432
  534MPD2    C4 7980   1.730   2.765   1.376  0.2211  0.4095 -0.0128
  534MPD2    C5 7981   1.838   2.748   1.458 -0.0108  0.3761  0.6576
  534MPD2     H 7982   1.648   3.078   1.481 -0.2046 -0.2600  2.0654
  534MPD2    H1 7983   1.697   2.691   1.304  0.9058  0.9240 -0.8481
  534MPD2    H2 7984   1.969   2.831   1.607  0.0815 -0.5551 -1.1715
  534MPD2    H3 7985   1.900   2.659   1.456 -2.5643 -1.3830  0.0864
  534MPD2     N 7986   1.564   2.908   1.287 -0.3980  0.0878 -0.6117
  534MPD2    H5 7987   1.547   2.832   1.221  1.2110 -1.4100  0.6997
  534MPD2    N1 7988   1.837   3.055   1.645 -0.1191  0.1705  0.7336
  534MPD2    H7 7989   1.777   3.137   1.643 -1.4080 -0.7836 -0.1137
  535TMC3    C1 7990   1.376   3.005   1.170 -0.3816 -0.3492  0.4055
  535TMC3    C2 7991   1.246   3.010   1.205  0.0451 -0.6720  0.1871
  535TMC3    C3 7992   1.158   3.014   1.097  0.1478  0.4190 -0.2797
  535TMC3    C4 7993   1.422   3.004   1.039 -0.1161  0.2369  0.4855
  535TMC3    C5 7994   1.328   3.010   0.940 -0.5503  0.5053 -0.1073
  535TMC3    C6 7995   1.195   3.011   0.970 -0.2462 -0.1806  0.9900
  535TMC3     C 7996   1.470   3.008   1.285 -0.0306  0.2079 -0.0516
  535TMC3     O 7997   1.434   3.084   1.375 -0.8767  0.5697  0.0448
  535TMC3     H 7998   1.212   3.014   1.308 -0.6798 -0.6007 -0.0491
  535TMC3    H1 7999   1.528   2.995   1.020  0.2631  0.4954  2.4595
  535TMC3    H2 8000   1.137   3.011   0.878  1.2782  0.7665  0.0344
  535TMC3    C7 8001   1.367   3.110   0.841  0.2349  0.1659  0.2313
  535TMC3    C8 8002   1.032   3.069   1.124 -0.2100  0.1388 -0.2562
  535TMC3    O1 8003   1.307   3.108   0.735 -0.2980  0.2190  0.2650
  535TMC3    O2 8004   0.943   3.046   1.041  0.3122  0.7256 -0.8098
  536MPD2     C 8005   0.361   1.390  16.127  0.8979  0.3621 -0.4820
  536MPD2    C1 8006   0.246   1.382  16.206  0.4751  0.0392 -0.2144
  536MPD2    C2 8007   0.130   1.454  16.168 -0.5970  0.0891  0.0995
  536MPD2    C3 8008   0.145   1.552  16.068 -0.0343 -0.5015 -0.6074
  536MPD2    C4 8009   0.264   1.567  15.998 -0.4451  0.2726  0.3131
  536MPD2    C5 8010   0.368   1.479  16.023  0.0992 -0.1334 -0.2197
  536MPD2     H 8011   0.049   1.449  16.240 -0.3836  0.7142  0.3872
  536MPD2    H1 8012   0.278   1.646  15.925 -3.4508 -0.2658 -0.8166
  536MPD2    H2 8013   0.441   1.318  16.145  0.5989 -0.0489 -0.7834
  536MPD2    H3 8014   0.451   1.485  15.955  1.4053 -0.0310  1.3804
  536MPD2     N 8015   0.034   1.641  16.041  0.2866  0.5440 -0.2661
  536MPD2    H5 8016   0.058   1.713  15.974 -0.4372  0.0490 -1.0498
  536MPD2    N1 8017   0.255   1.306  16.323 -0.0224 -0.2949 -0.5732
  536MPD2    H7 8018   0.343   1.260  16.339 -1.6908 -3.6196 -0.8781
  537TMC3    C1 8019   0.207   1.206  16.527 -0.5674  0.0987  0.0759
  537TMC3    C2 8020   0.321   1.265  16.575 -0.3550 -0.2963 -0.0785
  537TMC3    C3 8021   0.355   1.242  16.703 -0.3700  0.2073 -0.0796
  537TMC3    C4 8022   0.129   1.120  16.601 -0.3203  0.3152  0.2374
  537TMC3    C5 8023   0.167   1.108  16.732 -0.1664 -0.3383 -0.0431
  537TMC3    C6 8024   0.276   1.165  16.782  0.4685 -0.3660  0.2317
  537TMC3     C 8025   0.154   1.257  16.405  0.2070 -0.9318  0.6454
  537TMC3     O 8026   0.032   1.277  16.404  0.2949  0.0638  0.0690
  537TMC3     H 8027   0.393   1.325  16.520 -0.8467  0.6217  0.2884
  537TMC3    H1 8028   0.035   1.075  16.572  0.5474 -2.3222  1.5827
  537TMC3    H2 8029   0.290   1.152  16.889 -0.4501 -1.9577  0.1512
  537TMC3    C7 8030   0.067   1.097  16.823 -0.4266  0.6817 -0.8055
  537TMC3    C8 8031   0.431   1.343  16.779  0.4009  0.1864  0.0324
  537TMC3    O1 8032   0.071   1.180  16.913 -0.1005 -1.0605 -0.6208
  537TMC3    O2 8033   0.466   1.303  16.890 -0.9882 -0.1070  0.0272
  538TMC3    C1 8034   1.491   0.171  11.141 -0.1794 -0.2929 -0.7482
  538TMC3    C2 8035   1.539   0.169  11.011  0.4196  0.5620  0.0170
  538TMC3    C3 8036   1.470   0.227  10.908  0.4183  0.6203  0.4770
  538TMC3    C4 8037   1.378   0.232  11.169 -0.3152  0.5221  0.1449
  538TMC3    C5 8038   1.308   0.289  11.064  0.0558 -0.7750  0.7990
  538TMC3    C6 8039   1.351   0.291  10.936 -0.2041  0.3439  0.2263
  538TMC3     C 8040   1.503   0.041  11.209 -0.6503 -0.2506  0.3473
  538TMC3     O 8041   1.401   4.730  11.260  1.0149 -0.3832 -0.5952
  538TMC3     H 8042   1.622   0.101  10.992 -0.5140 -0.6239  0.2201
  538TMC3    H1 8043   1.328   0.213  11.264 -0.6931  1.2955  0.1044
  538TMC3    H2 8044   1.294   0.336  10.855  0.2271  0.5003  0.0130
  538TMC3    C7 8045   1.174   0.346  11.079 -1.1065  0.5039  0.0697
  538TMC3    C8 8046   1.528   0.214  10.776  0.1808  0.5384  0.1381
  538TMC3    O1 8047   1.089   0.340  10.992  0.4051  0.6724 -0.3248
  538TMC3    O2 8048   1.597   0.120  10.747  0.2231  0.1848  0.4705
  539MPD2     C 8049   0.510   4.024  12.257 -0.2835  0.0812  0.6780
  539MPD2    C1 8050   0.578   4.083  12.149  0.7133  0.0810 -0.5669
  539MPD2    C2 8051   0.604   4.221  12.152  0.5910 -0.4710  0.1554
  539MPD2    C3 8052   0.568   4.300  12.254 -0.2050 -0.2704  0.6423
  539MPD2    C4 8053   0.498   4.240  12.355  0.1432  0.2120  0.3978
  539MPD2    C5 8054   0.471   4.106  12.357  1.4193 -0.6136  0.2367
  539MPD2     H 8055   0.659   4.264  12.069  1.0935  0.7828  1.1438
  539MPD2    H1 8056   0.457   4.299  12.436  1.1049 -0.5759  1.4726
  539MPD2    H2 8057   0.485   3.920  12.270  0.9223 -0.1077  1.5091
  539MPD2    H3 8058   0.417   4.058  12.437 -0.3133  1.4254  0.2979
  539MPD2     N 8059   0.607   4.440  12.264 -0.8408 -0.0912  0.2185
  539MPD2    H5 8060   0.572   4.494  12.342 -0.2100 -1.6369  1.5746
  539MPD2    N1 8061   0.620   4.008  12.035 -0.2605  0.1397 -0.2663
  539MPD2    H7 8062   0.671   4.061  11.964  2.4842 -3.4153 -0.9312
  540TMC3    C1 8063   0.702   4.652  12.182 -0.8038  0.3812  0.5744
  540TMC3    C2 8064   0.746   4.716  12.066 -0.0502  0.4392  0.0041
  540TMC3    C3 8065   0.722   0.110  12.051  0.4352  0.3868  0.2306
  540TMC3    C4 8066   0.634   4.726  12.280  0.5942 -0.5124 -0.3793
  540TMC3    C5 8067   0.623   0.124  12.262  0.2717 -0.1637  0.9621
  540TMC3    C6 8068   0.676   0.187  12.153  0.1140  0.2833  0.3813
  540TMC3     C 8069   0.703   4.504  12.183 -0.3154 -1.1618 -0.0110
  540TMC3     O 8070   0.781   4.457  12.100 -0.7395 -0.3448 -0.4936
  540TMC3     H 8071   0.789   4.656  11.987  2.0892  0.5687  1.0544
  540TMC3    H1 8072   0.588   4.682  12.368 -1.9938  1.7117 -0.6201
  540TMC3    H2 8073   0.669   0.295  12.146 -0.5074  0.3190  1.3906
  540TMC3    C7 8074   0.492   0.170  12.303 -0.5024  0.0585  0.1416
  540TMC3    C8 8075   0.793   0.171  11.947 -0.0025 -0.2814  0.2751
  540TMC3    O1 8076   0.408   0.080  12.305  0.2045 -0.1441 -0.3694
  540TMC3    O2 8077   0.864   0.264  11.976  0.0860  0.5379  0.1301
  541MPD2     C 8078   3.673   1.148  13.409 -0.0937 -0.5669  0.2562
  541MPD2    C1 8079   3.736   1.048  13.336 -0.3121 -0.4536  0.5275
  541MPD2    C2 8080   3.796   1.094  13.218 -0.5382 -0.3712  0.6302
  541MPD2    C3 8081   3.795   1.226  13.181 -0.5709 -1.1299 -0.4468
  541MPD2    C4 8082   3.744   1.321  13.265  0.2894 -0.2494  0.0026
  541MPD2    C5 8083   3.677   1.279  13.372  0.1042 -0.2224 -0.3438
  541MPD2     H 8084   3.843   1.023  13.151  0.2217  0.9267 -0.2289
  541MPD2    H1 8085   3.748   1.426  13.240  0.5080  0.2377  2.1160
  541MPD2    H2 8086   3.613   1.123  13.496 -3.6661 -0.2317 -2.1086
  541MPD2    H3 8087   3.632   1.351  13.440 -1.7506  0.4214 -2.2649
  541MPD2     N 8088   3.850   1.279  13.061  0.1932 -0.0132 -0.5260
  541MPD2    H5 8089   3.831   1.379  13.052 -1.4953 -0.0901  2.3030
  541MPD2    N1 8090   3.735   0.912  13.378 -0.0845 -0.6922 -0.2400
  541MPD2    H7 8091   3.784   0.843  13.321 -0.1018 -1.7211  0.9776
  542TMC3    C1 8092   3.890   1.272  12.835  0.2706  0.4073 -0.0458
  542TMC3    C2 8093   3.882   1.195  12.722 -0.6583  0.6505 -0.5244
  542TMC3    C3 8094   3.851   1.244  12.603  0.5999 -0.3575 -0.3437
  542TMC3    C4 8095   3.863   1.407  12.831 -0.2192 -0.0601 -0.3482
  542TMC3    C5 8096   3.829   1.463  12.705 -0.4725  0.0855 -0.0865
  542TMC3    C6 8097   3.831   1.380  12.590 -0.6497  0.4266  0.2964
  542TMC3     C 8098   3.898   1.200  12.957 -0.1264 -0.8562 -0.3620
  542TMC3     O 8099   3.936   1.082  12.966  0.3517  0.0740 -0.2276
  542TMC3     H 8100   3.886   1.087  12.730  1.9476  0.6980 -1.1421
  542TMC3    H1 8101   3.878   1.473  12.915 -1.8155  0.6643 -0.6247
  542TMC3    H2 8102   3.816   1.419  12.490  0.0398 -1.4337 -0.5385
  542TMC3    C7 8103   3.853   1.605  12.686  0.0777  0.3631  0.6151
  542TMC3    C8 8104   3.882   1.171  12.483 -0.1672  0.0695 -0.1981
  542TMC3    O1 8105   3.899   1.669  12.784  0.5279 -0.0966 -0.0253
  542TMC3    O2 8106   3.817   1.191  12.382  0.1061 -0.0483 -0.4381
  543TMC3    C1 8107   3.500   2.156  17.624 -0.0389  0.4919  0.3882
  543TMC3    C2 8108   3.546   2.036  17.672  0.1731 -0.2876  0.3138
  543TMC3    C3 8109   3.509   1.981   0.041  0.1907 -0.6054 -0.4321
  543TMC3    C4 8110   3.407   2.227  17.705 -0.5121 -0.4475  0.4873
  543TMC3    C5 8111   3.377   2.176   0.087 -0.3092  0.5102  0.6023
  543TMC3    C6 8112   3.417   2.049   0.119  1.1248 -0.9988 -0.5058
  543TMC3     C 8113   3.531   2.194  17.487 -0.3432 -0.6299 -0.0721
  543TMC3     O 8114   3.621   2.123  17.436 -0.1897 -0.2847 -0.5397
  543TMC3     H 8115   3.626   1.992  17.613 -1.0976  2.2485 -3.2825
  543TMC3    H1 8116   3.364   2.319  17.666  1.0224 -0.0825 -0.3374
  543TMC3    H2 8117   3.386   2.003   0.212 -0.4883 -2.0102 -1.5609
  543TMC3    C7 8118   3.246   2.214   0.137 -0.2946  0.1281 -0.0750
  543TMC3    C8 8119   3.555   1.841   0.082 -0.3736  0.2831  0.5150
  543TMC3    O1 8120   3.159   2.134   0.175  0.5040 -0.5674  0.5687
  543TMC3    O2 8121   3.537   1.800   0.196  0.0455 -0.3347  0.0217
  544MPD2     C 8122   3.681   1.375  17.670  0.0436 -0.2555 -0.5887
  544MPD2    C1 8123   3.628   1.419   0.044 -0.6297 -0.4065 -0.1561
  544MPD2    C2 8124   3.601   1.552   0.066 -0.6812 -0.4880  0.1811
  544MPD2    C3 8125   3.636   1.638  17.716  0.1620 -0.2115 -0.4051
  544MPD2    C4 8126   3.702   1.595  17.602  0.7161  0.1891  0.2852
  544MPD2    C5 8127   3.721   1.461  17.574  0.0380  0.2777 -0.1316
  544MPD2     H 8128   3.562   1.584   0.163 -2.4629  1.2019 -1.0802
  544MPD2    H1 8129   3.735   1.668  17.529  0.7151  1.3795  1.4651
  544MPD2    H2 8130   3.695   1.271  17.643  1.5397  0.2799 -1.8968
  544MPD2    H3 8131   3.778   1.442  17.484  0.6517 -0.5639  0.4420
  544MPD2     N 8132   3.614   1.777  17.725 -0.9734  0.5464 -0.5683
  544MPD2    H5 8133   3.633   1.830  17.641 -1.1259  1.4019 -0.0551
  544MPD2    N1 8134   3.599   1.321   0.138 -0.7148 -0.1232  0.0981
  544MPD2    H7 8135   3.626   1.227   0.110  1.1286  0.6679 -0.7655
  545TMC3    C1 8136   3.536   1.205   0.337 -0.1379 -0.4617  0.2301
  545TMC3    C2 8137   3.498   1.213   0.469 -0.3958  0.3172  0.3662
  545TMC3    C3 8138   3.527   1.113   0.555 -0.9625  0.5395 -0.2376
  545TMC3    C4 8139   3.616   1.108   0.288  0.1884  0.5964  0.0829
  545TMC3    C5 8140   3.644   1.010   0.381 -0.3529  0.2979  0.3663
  545TMC3    C6 8141   3.606   1.011   0.512 -0.2910  0.3110  1.1163
  545TMC3     C 8142   3.550   1.333   0.266  0.1738  0.0986 -0.4812
  545TMC3     O 8143   3.516   1.437   0.326 -0.2719  0.9306 -0.0697
  545TMC3     H 8144   3.455   1.301   0.516 -1.3874  0.5384 -0.9500
  545TMC3    H1 8145   3.666   1.101   0.192  0.1215  2.5215 -0.0803
  545TMC3    H2 8146   3.627   0.927   0.577  0.7817  0.6759  1.2376
  545TMC3    C7 8147   3.759   0.935   0.349 -0.3549  0.1873  0.4086
  545TMC3    C8 8148   3.470   1.123   0.688  0.5509  0.1530  0.1603
  545TMC3    O1 8149   3.806   0.938   0.235 -0.3222  0.2899  0.0852
  545TMC3    O2 8150   3.390   1.212   0.700  0.0137  0.9086 -0.0864
  546MPD2     C 8151   0.260   2.343   0.117 -0.7024 -0.1372 -0.2297
  546MPD2    C1 8152   0.241   2.332  17.728  0.0786  0.2129  0.5387
  546MPD2    C2 8153   0.307   2.415  17.641 -1.2463  0.0955  0.0220
  546MPD2    C3 8154   0.386   2.518  17.693  0.1754 -0.3321  0.6930
  546MPD2    C4 8155   0.400   2.531   0.085 -0.4892 -0.1007 -0.1583
  546MPD2    C5 8156   0.331   2.451   0.167 -0.3165 -0.4059  0.1613
  546MPD2     H 8157   0.281   2.407  17.536 -0.9561 -0.4917 -0.0046
  546MPD2    H1 8158   0.470   2.598   0.132  0.7337  0.3552 -2.5929
  546MPD2    H2 8159   0.208   2.273   0.182 -0.0612  0.7279  1.2031
  546MPD2    H3 8160   0.354   2.456   0.273 -2.2155  0.5883  0.5311
  546MPD2     N 8161   0.455   2.611  17.613 -0.0647 -0.5748  0.2875
  546MPD2    H5 8162   0.502   2.683  17.667  1.6475 -0.3167 -1.5226
  546MPD2    N1 8163   0.143   2.240  17.690  0.3326 -0.3752  0.3055
  546MPD2    H7 8164   0.107   2.190   0.024 -1.7205  1.8188  0.7388
  547TMC3    C1 8165   0.006   2.107  17.562 -0.3323  0.6544 -0.2712
  547TMC3    C2 8166   4.691   2.075  17.437  0.4942  0.2745 -0.1016
  547TMC3    C3 8167   4.583   1.993  17.427 -0.3811 -0.7114  0.5949
  547TMC3    C4 8168   4.686   2.054  17.669  0.1828  0.4517  0.6428
  547TMC3    C5 8169   4.573   1.983  17.654 -0.4549 -0.5038  0.0293
  547TMC3    C6 8170   4.512   1.949  17.535  0.4800 -0.6118 -0.4567
  547TMC3     C 8171   0.111   2.204  17.560  0.0516 -0.4386  0.0426
  547TMC3     O 8172   0.132   2.258  17.452 -0.1997  0.4420 -0.2771
  547TMC3     H 8173   4.724   2.128  17.349 -1.3237  0.0598 -0.9070
  547TMC3    H1 8174   4.736   2.050   0.017  2.4398 -0.0867 -0.5657
  547TMC3    H2 8175   4.417   1.896  17.535 -0.5699  1.2788 -0.8203
  547TMC3    C7 8176   4.505   1.962   0.033  1.0149  0.4350 -0.0314
  547TMC3    C8 8177   4.513   1.972  17.301  0.6012 -0.3756  0.3585
  547TMC3    O1 8178   4.537   2.040   0.117  0.1225 -0.0731  0.4813
  547TMC3    O2 8179   4.390   1.957  17.302  0.1796  0.3817  0.3507
  548MPD2     C 8180   0.305   3.068  12.559  0.3843  0.2560  0.9983
  548MPD2    C1 8181   0.255   2.979  12.462 -0.3319 -0.6506 -0.1988
  548MPD2    C2 8182   0.350   2.896  12.409  0.0876  0.6718  0.1850
  548MPD2    C3 8183   0.490   2.910  12.429  0.0898 -0.0816 -0.0708
  548MPD2    C4 8184   0.535   3.013  12.508 -0.0934 -0.8245 -0.0202
  548MPD2    C5 8185   0.445   3.082  12.581  0.0154 -0.1463 -1.0279
  548MPD2     H 8186   0.325   2.819  12.336 -0.3367 -0.4217  1.4885
  548MPD2    H1 8187   0.641   3.020  12.527  0.4542 -3.2772 -2.1566
  548MPD2    H2 8188   0.244   3.127  12.626 -0.6074 -0.3868  0.6520
  548MPD2    H3 8189   0.470   3.140  12.668 -0.7578 -0.6264 -0.4850
  548MPD2     N 8190   0.581   2.820  12.375 -0.1691 -0.6465 -0.2870
  548MPD2    H5 8191   0.540   2.751  12.313 -0.7836 -0.0972 -0.4897
  548MPD2    N1 8192   0.116   2.966  12.441  0.0128  0.4162  0.1752
  548MPD2    H7 8193   0.055   3.027  12.494 -1.1738 -0.4720 -0.1551
  549TMC3    C1 8194   4.647   2.878  12.367 -0.1799  0.0206 -0.2239
  549TMC3    C2 8195   4.587   2.906  12.492 -0.2182  0.0517  1.1008
  549TMC3    C3 8196   4.476   2.841  12.526  0.7943 -0.1301  0.4231
  549TMC3    C4 8197   4.584   2.796  12.280  0.4554 -1.0798  0.3175
  549TMC3    C5 8198   4.482   2.721  12.329 -0.2486 -0.8218 -0.5767
  549TMC3    C6 8199   4.430   2.740  12.451 -0.1973 -0.5592  0.3247
  549TMC3     C 8200   0.056   2.886  12.350 -0.2152 -0.5415  0.6852
  549TMC3     O 8201   0.114   2.819  12.267 -0.2046  0.4547 -0.0344
  549TMC3     H 8202   4.639   2.973  12.559  0.1103 -0.5404  1.4376
  549TMC3    H1 8203   4.624   2.773  12.182 -0.8154 -0.8223 -0.2593
  549TMC3    H2 8204   4.342   2.686  12.484 -0.0605 -0.9390  0.0612
  549TMC3    C7 8205   4.430   2.621  12.243 -0.8846 -0.3491 -0.0648
  549TMC3    C8 8206   4.377   2.914  12.593  0.3155 -0.3138 -0.1666
  549TMC3    O1 8207   4.434   2.649  12.123 -0.1015  0.0822  0.7130
  549TMC3    O2 8208   4.258   2.878  12.576  0.4083 -0.7586  0.0475
  550TMC3    C1 8209   3.576   0.183  11.952  0.6791  0.3362 -0.6228
  550TMC3    C2 8210   3.611   0.270  12.052 -0.2386  0.7630  0.0144
  550TMC3    C3 8211   3.521   0.282  12.155 -0.7556  0.1382 -0.1736
  550TMC3    C4 8212   3.454   0.120  11.951 -0.3336  0.8001  0.0743
  550TMC3    C5 8213   3.377   0.127  12.062  0.2345  0.1597 -0.5413
  550TMC3    C6 8214   3.405   0.212  12.164  0.1427  0.0349  0.0636
  550TMC3     C 8215   3.660   0.163  11.835 -0.3730 -0.4741  0.1616
  550TMC3     O 8216   3.782   0.177  11.839  0.6393 -0.2866  0.2465
  550TMC3     H 8217   3.703   0.326  12.035 -0.4585  0.8325 -0.8896
  550TMC3    H1 8218   3.433   0.046  11.875 -0.6867 -0.8107  1.7184
  550TMC3    H2 8219   3.342   0.216  12.252 -1.2269 -0.8355 -0.8731
  550TMC3    C7 8220   3.239   0.085  12.052 -0.7634 -0.1493 -0.4266
  550TMC3    C8 8221   3.524   0.400  12.237 -0.0338  0.5286  0.3814
  550TMC3    O1 8222   3.159   0.164  12.104 -0.5873  0.6169 -0.3643
  550TMC3    O2 8223   3.422   0.430  12.299 -0.2047 -0.1045  0.1173
  551TMC3    C1 8224   0.921   3.856  13.434  0.3611  0.1770  0.1532
  551TMC3    C2 8225   1.026   3.922  13.377  0.0939  0.3713 -0.1482
  551TMC3    C3 8226   1.124   3.975  13.462 -0.1042  0.2894  0.8861
  551TMC3    C4 8227   0.924   3.827  13.567 -0.3991 -0.4546  0.0965
  551TMC3    C5 8228   1.031   3.871  13.641  0.2203  0.1115  0.0786
  551TMC3    C6 8229   1.122   3.959  13.596 -0.0593 -0.2380 -0.9510
  551TMC3     C 8230   0.840   3.769  13.347 -0.6767 -0.6240  0.3100
  551TMC3     O 8231   0.894   3.732  13.244 -0.6200 -0.4789  0.3125
  551TMC3     H 8232   1.033   3.940  13.271 -0.7282 -1.1844 -0.4594
  551TMC3    H1 8233   0.868   3.742  13.605  1.6104 -0.3747  3.1941
  551TMC3    H2 8234   1.200   3.999  13.660 -2.7879  3.4046  0.0873
  551TMC3    C7 8235   0.999   3.895  13.773 -0.3580  0.5604 -0.5717
  551TMC3    C8 8236   1.228   4.056  13.408  0.2392 -0.1015 -0.6313
  551TMC3    O1 8237   0.955   3.805  13.842 -0.1518 -0.2130  0.2474
  551TMC3    O2 8238   1.326   4.066  13.485  0.1336  0.0565  0.1102
  552MPD2     C 8239   3.253   0.639  14.384  0.2412  0.0846 -0.0773
  552MPD2    C1 8240   3.183   0.575  14.489 -0.2529 -0.0060  0.9496
  552MPD2    C2 8241   3.257   0.547  14.603  0.1968  0.2636  0.2443
  552MPD2    C3 8242   3.388   0.585  14.621  0.4591  0.3885 -0.7270
  552MPD2    C4 8243   3.447   0.660  14.525  0.3577  1.1919  0.2055
  552MPD2    C5 8244   3.385   0.689  14.406 -0.3049  0.0023 -0.4046
  552MPD2     H 8245   3.208   0.488  14.680  1.6068  1.5018  2.0825
  552MPD2    H1 8246   3.545   0.699  14.551  1.0970  0.4215 -1.4501
  552MPD2    H2 8247   3.213   0.666  14.287  2.2462  1.0915 -0.6360
  552MPD2    H3 8248   3.444   0.741  14.332  0.5718 -1.1501 -0.5165
  552MPD2     N 8249   3.469   0.530  14.720 -0.7259  0.8396  0.1169
  552MPD2    H5 8250   3.563   0.567  14.719  0.0322 -1.0886  0.5955
  552MPD2    N1 8251   3.045   0.529  14.479 -0.1091 -0.0287  0.4142
  552MPD2    H7 8252   3.019   0.494  14.570  0.6490  0.3057  0.7628
  553TMC3    C1 8253   2.852   0.435  14.399 -0.3421 -0.2352 -0.2710
  553TMC3    C2 8254   2.780   0.397  14.289 -0.2501 -1.0151  0.0011
  553TMC3    C3 8255   2.728   0.278  14.279  0.2124 -0.4548 -0.3837
  553TMC3    C4 8256   2.866   0.344  14.499 -0.0384  0.3258  0.7758
  553TMC3    C5 8257   2.823   0.217  14.477  0.1799  0.7095 -0.7403
  553TMC3    C6 8258   2.754   0.178  14.364 -0.0442 -0.4936 -0.2449
  553TMC3     C 8259   2.963   0.522  14.371 -0.4234  0.2476 -0.2346
  553TMC3     O 8260   2.988   0.555  14.254  0.1787 -0.1794  0.3363
  553TMC3     H 8261   2.757   0.453  14.199 -0.2931  0.4219  0.8947
  553TMC3    H1 8262   2.901   0.371  14.599 -0.4569  2.8080  0.2614
  553TMC3    H2 8263   2.730   0.074  14.345 -0.3743 -0.5844  0.6479
  553TMC3    C7 8264   2.898   0.113  14.548 -0.6129 -0.1125 -0.3122
  553TMC3    C8 8265   2.717   0.235  14.139 -0.4456 -0.1661 -0.5270
  553TMC3    O1 8266   2.839   0.009  14.568 -0.4660 -0.4686 -0.7360
  553TMC3    O2 8267   2.806   0.269  14.068  0.5418  0.0916 -0.1746
  554TMC3    C1 8268   4.266   4.340  11.796 -0.2112  0.0757  0.5889
  554TMC3    C2 8269   4.242   4.322  11.661 -0.2297 -0.1382  0.1041
  554TMC3    C3 8270   4.304   4.395  11.571  0.3006  0.2330  0.7097
  554TMC3    C4 8271   4.337   4.455  11.834  0.1244  0.1172  0.9920
  554TMC3    C5 8272   4.410   4.522  11.745 -0.4286 -0.6952  0.2094
  554TMC3    C6 8273   4.390   4.498  11.610 -0.2505 -0.5171  0.0333
  554TMC3     C 8274   4.243   4.231  11.888 -0.4875  0.6675 -0.5373
  554TMC3     O 8275   4.156   4.150  11.858 -0.1123  0.4602  0.2558
  554TMC3     H 8276   4.185   4.233  11.637  1.2010 -1.1555  0.4407
  554TMC3    H1 8277   4.343   4.484  11.939 -3.0552  1.9788  0.6539
  554TMC3    H2 8278   4.458   4.543  11.538 -0.5941  1.3229  0.8477
  554TMC3    C7 8279   4.508   4.612  11.792  0.3490 -0.7848  0.1037
  554TMC3    C8 8280   4.297   4.366  11.432  0.4212  0.2413  0.5923
  554TMC3    O1 8281   4.518   4.640  11.908 -0.0806  0.1238  0.1615
  554TMC3    O2 8282   4.395   4.383  11.364 -0.1993  0.0222  0.2281
  555TMC3    C1 8283   3.760   4.071  15.507  0.0579  0.6271  0.2903
  555TMC3    C2 8284   3.842   4.117  15.617 -0.3832  0.6464  0.9829
  555TMC3    C3 8285   3.923   4.031  15.677  0.6507  0.2510 -0.3917
  555TMC3    C4 8286   3.764   3.943  15.470 -0.0103 -0.0451 -0.2316
  555TMC3    C5 8287   3.854   3.862  15.540 -0.2078 -1.0759  0.4154
  555TMC3    C6 8288   3.930   3.901  15.638 -0.3220 -0.0806  0.1142
  555TMC3     C 8289   3.680   4.175  15.437 -0.0711  0.5793  0.4314
  555TMC3     O 8290   3.662   4.284  15.495  0.7988  0.2138 -0.2502
  555TMC3     H 8291   3.844   4.224  15.633 -2.0267  1.0626 -1.7081
  555TMC3    H1 8292   3.695   3.894  15.402 -1.8870  1.1765  0.7965
  555TMC3    H2 8293   3.991   3.830  15.693  3.1773  2.1265 -0.9438
  555TMC3    C7 8294   3.869   3.729  15.486  0.3555  0.1895 -0.7859
  555TMC3    C8 8295   3.958   4.074  15.815 -0.1815 -0.6286 -0.1404
  555TMC3    O1 8296   3.790   3.685  15.402 -0.4512 -0.5814 -0.1051
  555TMC3    O2 8297   3.930   4.190  15.845 -0.3488  0.7678  0.1620
  556MPD2     C 8298   1.902   1.284  10.983  1.1211  0.0352 -0.8560
  556MPD2    C1 8299   1.783   1.211  10.984 -0.2816  0.2825  0.1443
  556MPD2    C2 8300   1.712   1.206  10.862  0.5886 -0.2290  0.1152
  556MPD2    C3 8301   1.776   1.244  10.745  0.5964  0.1239 -0.1240
  556MPD2    C4 8302   1.902   1.309  10.750  0.8580  0.1040 -0.0811
  556MPD2    C5 8303   1.958   1.342  10.870 -0.7236  0.0525 -0.6883
  556MPD2     H 8304   1.618   1.156  10.846  1.1305 -1.3169  0.3796
  556MPD2    H1 8305   1.935   1.349  10.655  2.1087  0.2380  0.4138
  556MPD2    H2 8306   1.958   1.295  11.075 -0.7431  1.5160  0.1058
  556MPD2    H3 8307   2.047   1.402  10.876 -0.0444 -0.8033 -2.1118
  556MPD2     N 8308   1.716   1.207  10.624 -0.0039 -0.0630  0.7531
  556MPD2    H5 8309   1.631   1.154  10.637  0.0331 -0.7653 -1.8220
  556MPD2    N1 8310   1.742   1.126  11.092  0.1374  0.0510  0.2251
  556MPD2    H7 8311   1.807   1.128  11.170 -0.5443 -1.9159  0.8445
  557TMC3    C1 8312   1.678   1.120  10.415  0.3313 -0.2304  0.1753
  557TMC3    C2 8313   1.691   1.137  10.284 -0.5287 -0.2557 -0.1375
  557TMC3    C3 8314   1.662   1.035  10.200 -0.8503 -1.0314 -0.1264
  557TMC3    C4 8315   1.640   1.005  10.475 -0.4278  0.5183  0.1422
  557TMC3    C5 8316   1.613   0.899  10.395 -0.2319 -0.6253 -0.7632
  557TMC3    C6 8317   1.623   0.913  10.261  0.2504 -0.2255 -0.4150
  557TMC3     C 8318   1.756   1.206  10.497 -0.1416  0.2545  0.0634
  557TMC3     O 8319   1.856   1.256  10.444  0.2487  0.3890 -0.0234
  557TMC3     H 8320   1.736   1.228  10.247 -1.0709  0.4838  1.0020
  557TMC3    H1 8321   1.621   0.999  10.582  0.5695 -2.0657  0.1591
  557TMC3    H2 8322   1.587   0.831  10.199 -1.3917 -0.6540  1.0952
  557TMC3    C7 8323   1.576   0.774  10.457  0.5271 -0.1451  0.1475
  557TMC3    C8 8324   1.694   1.032  10.058  0.1038 -0.3575 -0.1410
  557TMC3    O1 8325   1.537   0.782  10.571 -0.1920  0.1975 -0.0400
  557TMC3    O2 8326   1.704   1.139   9.999  0.2156 -0.2172  0.1029
  558TMC3    C1 8327   4.250   3.769  10.204 -0.9953 -0.4067 -0.7293
  558TMC3    C2 8328   4.217   3.650  10.268  0.0436  0.4045 -0.6250
  558TMC3    C3 8329   4.099   3.601  10.230  0.0371 -0.8198 -0.0680
  558TMC3    C4 8330   4.166   3.831  10.114 -0.9359 -0.0071  0.2989
  558TMC3    C5 8331   4.046   3.773  10.081  0.2790  0.2724  0.1429
  558TMC3    C6 8332   4.016   3.650  10.130 -0.4485 -0.1677  0.6678
  558TMC3     C 8333   4.396   3.799  10.202 -0.1246 -0.1045  0.0315
  558TMC3     O 8334   4.463   3.762  10.297 -0.6304 -0.0833  0.0141
  558TMC3     H 8335   4.290   3.603  10.332 -0.6702  0.0514 -0.0741
  558TMC3    H1 8336   4.191   3.926  10.068  2.1655 -1.9631 -2.0784
  558TMC3    H2 8337   3.933   3.590  10.095 -0.8313  0.3897  0.6198
  558TMC3    C7 8338   3.959   3.842   9.990 -0.2994  0.3143  0.1370
  558TMC3    C8 8339   4.045   3.478  10.298 -0.6174  0.1296  0.0745
  558TMC3    O1 8340   4.008   3.915   9.908  0.4716 -0.7091 -0.0291
  558TMC3    O2 8341   3.937   3.430  10.268  0.3981 -0.2000 -0.2188
  559MPD2     C 8342   4.451   4.197  10.739  1.0590 -0.0658 -0.7569
  559MPD2    C1 8343   4.363   4.162  10.846 -0.2067  0.2647  0.2933
  559MPD2    C2 8344   4.415   4.147  10.975  0.1460 -0.2338 -0.6107
  559MPD2    C3 8345   4.557   4.154  10.991 -0.5086  0.1618  0.2857
  559MPD2    C4 8346   4.642   4.183  10.885  0.4930 -0.7808 -0.0846
  559MPD2    C5 8347   4.586   4.212  10.769 -0.0459  1.1459  0.0185
  559MPD2     H 8348   4.350   4.118  11.056  1.1909 -0.3458  0.1919
  559MPD2    H1 8349   0.013   4.187  10.893  0.3682  1.9811  0.1205
  559MPD2    H2 8350   4.426   4.204  10.634 -0.7662  1.0815 -0.2441
  559MPD2    H3 8351   4.659   4.233  10.692 -0.5047 -1.2063 -1.0665
  559MPD2     N 8352   4.605   4.123  11.116 -0.1947  0.6753  0.4956
  559MPD2    H5 8353   4.531   4.109  11.185 -0.9470  0.5033 -0.3483
  559MPD2    N1 8354   4.228   4.139  10.812  0.4527  0.2270 -0.5000
  559MPD2    H7 8355   4.207   4.145  10.712 -1.0385  0.7621 -0.1580
  560TMC3    C1 8356   0.019   4.054  11.286 -0.0626 -0.4382  0.0055
  560TMC3    C2 8357   4.660   3.970  11.336 -0.0298 -0.4187  0.3254
  560TMC3    C3 8358   4.686   3.903  11.448 -0.0569  0.0052  0.5218
  560TMC3    C4 8359   0.135   4.082  11.354  0.3355  0.3170 -0.1222
  560TMC3    C5 8360   0.168   4.006  11.468 -0.8159  0.2158  0.3390
  560TMC3    C6 8361   0.071   3.912  11.511  0.3541  0.2609  0.3707
  560TMC3     C 8362   0.001   4.118  11.154  0.1416  0.0955 -0.1552
  560TMC3     O 8363   0.104   4.145  11.090  0.1928 -0.1092 -0.0126
  560TMC3     H 8364   4.582   3.941  11.266  0.1286 -0.6288  0.2373
  560TMC3    H1 8365   0.210   4.150  11.314 -0.0579  1.3842  0.9541
  560TMC3    H2 8366   0.089   3.869  11.608  1.2615  1.9998  0.9633
  560TMC3    C7 8367   0.263   4.050  11.571 -0.3040 -0.6325 -0.4447
  560TMC3    C8 8368   4.613   3.781  11.470  0.4759  0.1898 -0.0193
  560TMC3    O1 8369   0.270   3.979  11.669 -0.6628 -0.0190 -0.5924
  560TMC3    O2 8370   4.511   3.765  11.407  0.3328 -0.2499  0.2954
  561TMC3    C1 8371   2.563   3.118  11.491  0.0121  0.4038 -0.0441
  561TMC3    C2 8372   2.491   3.034  11.574  0.0503 -0.3856  0.1295
  561TMC3    C3 8373   2.391   3.090  11.646 -0.0256 -0.2366 -0.2219
  561TMC3    C4 8374   2.533   3.255  11.479 -0.0038 -0.0032  0.1156
  561TMC3    C5 8375   2.419   3.306  11.542  0.0077 -0.1471  0.1900
  561TMC3    C6 8376   2.348   3.222  11.621 -0.0992 -0.0614 -0.2814
  561TMC3     C 8377   2.645   3.072  11.378  0.0040  0.2574  1.2389
  561TMC3     O 8378   2.712   3.160  11.319 -0.3912 -0.7351  0.7083
  561TMC3     H 8379   2.524   2.934  11.601 -0.4575 -0.0561  1.9740
  561TMC3    H1 8380   2.598   3.313  11.416  1.0353 -1.4337 -0.1441
  561TMC3    H2 8381   2.266   3.271  11.671 -1.4457 -3.1298  0.5022
  561TMC3    C7 8382   2.348   3.425  11.486  0.1269  0.0228 -0.2317
  561TMC3    C8 8383   2.352   3.022  11.771 -0.2236  0.2053 -0.9732
  561TMC3    O1 8384   2.252   3.472  11.548  0.1804  0.0815 -0.7167
  561TMC3    O2 8385   2.402   2.913  11.793  0.2651 -0.4844 -0.0652
  562TMC3    C1 8386   3.209   4.561  16.847 -0.9335  0.0556  0.2145
  562TMC3    C2 8387   3.165   4.688  16.821  0.0908  0.2877 -0.1601
  562TMC3    C3 8388   3.224   0.011  16.719  0.3483  0.2319  0.3523
  562TMC3    C4 8389   3.298   4.499  16.766 -0.5877 -0.1240  0.4213
  562TMC3    C5 8390   3.352   4.569  16.660  0.5311 -0.1666  0.3778
  562TMC3    C6 8391   3.309   4.691  16.632 -0.0029 -0.2374  0.0735
  562TMC3     C 8392   3.146   4.493  16.966 -0.0533 -0.6926  0.8098
  562TMC3     O 8393   3.067   4.555  17.031 -0.3544  0.3744  0.1872
  562TMC3     H 8394   3.103   0.009  16.889 -0.7062 -1.1227  0.3059
  562TMC3    H1 8395   3.325   4.395  16.782 -2.1923 -0.7869 -1.1584
  562TMC3    H2 8396   3.348   0.011  16.548 -2.5842  2.2044  0.5435
  562TMC3    C7 8397   3.423   4.503  16.554  0.4204 -0.4788 -0.0152
  562TMC3    C8 8398   3.169   0.136  16.686  0.4518 -0.0453  0.3165
  562TMC3    O1 8399   3.452   4.566  16.456  0.1215 -0.0858 -0.2499
  562TMC3    O2 8400   3.114   0.199  16.780  0.1296 -0.8359 -0.1586
  563MPD2     C 8401   1.064   0.792  15.327 -0.0034 -0.6193  0.4138
  563MPD2    C1 8402   1.065   0.796  15.468 -0.0875 -0.5490 -0.0752
  563MPD2    C2 8403   1.176   0.749  15.526  0.4416 -0.3145 -0.0060
  563MPD2    C3 8404   1.280   0.696  15.454 -0.6595 -0.4056  0.1583
  563MPD2    C4 8405   1.280   0.695  15.321 -0.7406  0.3090 -0.5025
  563MPD2    C5 8406   1.164   0.736  15.258  0.7788  0.0522  0.0432
  563MPD2     H 8407   1.186   0.744  15.634 -0.0254 -0.4180  0.0351
  563MPD2    H1 8408   1.362   0.652  15.265  0.4078  1.3921  0.3530
  563MPD2    H2 8409   0.975   0.819  15.270  0.8463  1.4267  0.0601
  563MPD2    H3 8410   1.168   0.726  15.150  3.5795  2.9845 -0.1104
  563MPD2     N 8411   1.388   0.648  15.531  0.6299 -0.2062  0.1322
  563MPD2    H5 8412   1.376   0.660  15.631 -0.9399  0.5576 -0.1440
  563MPD2    N1 8413   0.960   0.840  15.549 -0.5159  0.4758 -0.4417
  563MPD2    H7 8414   0.979   0.840  15.648  0.0515 -1.4753 -0.5632
  564TMC3    C1 8415   0.740   0.826  15.621 -0.2531 -0.2244 -0.6921
  564TMC3    C2 8416   0.643   0.731  15.600  0.4907 -0.4058 -0.4408
  564TMC3    C3 8417   0.583   0.682  15.718  0.1213 -0.5739 -0.1686
  564TMC3    C4 8418   0.771   0.876  15.744 -0.7532  0.0435  0.5936
  564TMC3    C5 8419   0.694   0.838  15.852  0.1272  0.3512 -0.5921
  564TMC3    C6 8420   0.603   0.736  15.838 -0.0030 -0.2724  0.2896
  564TMC3     C 8421   0.831   0.842  15.512  0.4076  0.6337  0.4851
  564TMC3     O 8422   0.781   0.832  15.399 -0.1915 -0.5607  0.1012
  564TMC3     H 8423   0.633   0.690  15.500 -2.8982  0.4499 -0.4483
  564TMC3    H1 8424   0.837   0.961  15.759  0.6618 -0.8827 -0.3990
  564TMC3    H2 8425   0.548   0.710  15.927 -2.1461  1.6069 -0.4763
  564TMC3    C7 8426   0.787   0.807  15.959  1.0775 -0.0800 -0.0655
  564TMC3    C8 8427   0.573   0.539  15.733 -0.1316 -0.3259  0.2693
  564TMC3    O1 8428   0.862   0.897  15.998 -0.0948  0.2271 -0.2091
  564TMC3    O2 8429   0.606   0.486  15.839 -0.1261 -0.1143  0.1253
  565TMC3    C1 8430   1.366   1.954  10.300  0.5140  0.2987 -0.0813
  565TMC3    C2 8431   1.410   1.857  10.389  0.4194 -0.2016 -0.2206
  565TMC3    C3 8432   1.359   1.731  10.380 -0.2856 -0.3936 -0.5909
  565TMC3    C4 8433   1.254   1.938  10.226 -0.0117  0.0875  0.3927
  565TMC3    C5 8434   1.190   1.811  10.238 -0.1604  0.0711  0.1151
  565TMC3    C6 8435   1.243   1.704  10.305  0.2349 -0.1588 -0.0985
  565TMC3     C 8436   1.429   2.078  10.303 -0.2210 -0.5620  0.1151
  565TMC3     O 8437   1.392   2.153  10.210 -0.4637 -0.3109  0.0213
  565TMC3     H 8438   1.502   1.868  10.445  2.1568 -1.9140 -2.6992
  565TMC3    H1 8439   1.223   2.012  10.152 -0.3910 -0.0089  0.4539
  565TMC3    H2 8440   1.188   1.615  10.332  1.0701 -0.4536  0.6506
  565TMC3    C7 8441   1.070   1.799  10.159  0.6116 -0.1757  0.1684
  565TMC3    C8 8442   1.415   1.627  10.476 -0.7219  0.0108  0.0905
  565TMC3    O1 8443   1.060   1.690  10.106 -0.0498 -0.6256 -0.1342
  565TMC3    O2 8444   1.456   1.684  10.577  0.5746 -0.0422 -0.1010
  566MPD2     C 8445   2.682   3.674  14.257  0.8672  0.1785  0.2661
  566MPD2    C1 8446   2.739   3.716  14.139 -0.3498  0.4488  0.6271
  566MPD2    C2 8447   2.656   3.702  14.032  0.6943 -0.2014  0.2978
  566MPD2    C3 8448   2.514   3.672  14.037 -0.0421 -0.1068 -0.0546
  566MPD2    C4 8449   2.456   3.647  14.161 -0.8766  1.3048 -0.2219
  566MPD2    C5 8450   2.546   3.653  14.266  0.0172 -0.0622  0.1575
  566MPD2     H 8451   2.702   3.712  13.935 -2.0650 -0.4334 -1.0322
  566MPD2    H1 8452   2.350   3.627  14.167 -0.6295  0.1477  0.2753
  566MPD2    H2 8453   2.733   3.684  14.352  1.7384  1.3854 -0.3222
  566MPD2    H3 8454   2.510   3.629  14.365 -1.5485 -0.8974 -0.6063
  566MPD2     N 8455   2.420   3.668  13.934  0.7599 -0.2277  0.7437
  566MPD2    H5 8456   2.326   3.652  13.968  0.6775  2.1589  1.6437
  566MPD2    N1 8457   2.872   3.770  14.136 -0.2898  0.3675 -0.3054
  566MPD2    H7 8458   2.927   3.776  14.221  0.7822 -0.2919 -0.9410
  567TMC3    C1 8459   3.076   3.848  14.045 -0.6999  0.8586 -0.2928
  567TMC3    C2 8460   3.134   3.940  13.968 -0.2259 -0.1718 -0.4738
  567TMC3    C3 8461   3.258   3.984  13.992  0.0639  0.1371 -0.0025
  567TMC3    C4 8462   3.151   3.784  14.137 -0.4774 -0.4193  0.5738
  567TMC3    C5 8463   3.283   3.819  14.154  0.0455 -0.2124  0.4021
  567TMC3    C6 8464   3.341   3.919  14.078 -0.1741  0.1946 -0.2338
  567TMC3     C 8465   2.935   3.814  14.022  0.0937 -0.1756 -0.8570
  567TMC3     O 8466   2.877   3.838  13.917  0.2155  0.0167  0.1132
  567TMC3     H 8467   3.065   3.999  13.909  1.3564  0.8436 -1.3053
  567TMC3    H1 8468   3.107   3.701  14.191 -0.2119  0.1410  1.6435
  567TMC3    H2 8469   3.445   3.945  14.096  0.3642 -1.3173 -1.0659
  567TMC3    C7 8470   3.363   3.776  14.269  0.8040  0.5183 -0.2422
  567TMC3    C8 8471   3.307   4.098  13.911  0.5982  0.1868  0.2665
  567TMC3    O1 8472   3.485   3.792  14.265 -0.5944  0.7007  0.3613
  567TMC3    O2 8473   3.225   4.130  13.829  0.2586  0.2052 -0.2608
  568MPD2     C 8474   0.520   3.987  16.431 -0.2538 -0.1230 -0.1403
  568MPD2    C1 8475   0.628   4.050  16.481 -0.1414  0.4044 -0.4998
  568MPD2    C2 8476   0.657   4.175  16.435 -0.3847 -0.6127 -0.3063
  568MPD2    C3 8477   0.587   4.223  16.322 -0.4787 -0.9399  0.9223
  568MPD2    C4 8478   0.480   4.153  16.266 -0.7117  0.1119 -0.0708
  568MPD2    C5 8479   0.440   4.044  16.331  0.4063 -0.0976  1.0521
  568MPD2     H 8480   0.746   4.227  16.468 -1.6701  2.0326 -0.9805
  568MPD2    H1 8481   0.425   4.186  16.178 -0.0688  0.7153 -0.2408
  568MPD2    H2 8482   0.497   3.894  16.483 -1.9196  1.0895  1.3008
  568MPD2    H3 8483   0.348   4.005  16.288  0.2905  0.7485  0.5118
  568MPD2     N 8484   0.643   4.339  16.265  0.2164  0.2138  0.2752
  568MPD2    H5 8485   0.733   4.374  16.297  0.1107  0.1251  0.6640
  568MPD2    N1 8486   0.708   3.995  16.585  0.4850  0.1028  0.1200
  568MPD2    H7 8487   0.686   3.898  16.606 -0.4304  0.5558  1.2323
  569TMC3    C1 8488   0.688   4.490  16.091  0.4411  0.2718  0.2893
  569TMC3    C2 8489   0.826   4.467  16.093 -0.4738 -0.1416 -0.4516
  569TMC3    C3 8490   0.908   4.504  15.994 -0.4046  0.3273 -0.5432
  569TMC3    C4 8491   0.639   4.551  15.978 -0.2665 -0.0980  0.4667
  569TMC3    C5 8492   0.726   4.567  15.872 -0.1034 -0.0421  0.2736
  569TMC3    C6 8493   0.863   4.557  15.879 -0.3149  0.8210 -0.2245
  569TMC3     C 8494   0.590   4.400  16.153 -0.2730  0.0824 -0.1445
  569TMC3     O 8495   0.474   4.397  16.112  0.1260 -0.3081 -0.3241
  569TMC3     H 8496   0.859   4.401  16.172  0.8863 -0.5003 -1.3217
  569TMC3    H1 8497   0.531   4.554  15.964 -0.0457  0.4380 -1.0289
  569TMC3    H2 8498   0.923   4.588  15.794  1.1667 -0.4925  0.3528
  569TMC3    C7 8499   0.670   4.622  15.755 -0.3866  0.7579  0.0972
  569TMC3    C8 8500   1.042   4.456  15.994 -0.0492  0.3494 -0.2525
  569TMC3    O1 8501   0.571   4.566  15.709  0.0610  0.5953 -0.5410
  569TMC3    O2 8502   1.114   4.469  15.892  0.5862 -0.4845 -0.1833
  570TMC3    C1 8503   4.586   2.947  16.285 -0.1465 -0.5613 -0.0302
  570TMC3    C2 8504   4.638   2.965  16.157 -0.6526 -0.3018  0.2493
  570TMC3    C3 8505   4.680   3.092  16.129 -0.2549 -1.0129  0.1254
  570TMC3    C4 8506   4.612   3.036  16.386 -0.1254 -0.3333  0.5094
  570TMC3    C5 8507   4.647   3.162  16.349  0.2440 -0.0215 -0.7178
  570TMC3    C6 8508   4.679   3.195  16.217 -0.3599  0.5706 -0.1131
  570TMC3     C 8509   4.544   2.820  16.311  0.4554  0.3659 -0.2761
  570TMC3     O 8510   4.464   2.764  16.239 -0.2992  0.4253  0.4566
  570TMC3     H 8511   4.622   2.891  16.080  2.3403 -0.9313  0.2273
  570TMC3    H1 8512   4.586   3.021  16.491 -1.1968 -0.9899  0.1519
  570TMC3    H2 8513   4.717   3.293  16.191  1.5946 -0.1388  0.0209
  570TMC3    C7 8514   4.711   3.242  16.458 -0.1222 -0.5575  0.7176
  570TMC3    C8 8515   0.047   3.110  16.031 -0.3955  0.0936 -0.5524
  570TMC3    O1 8516   4.727   3.196  16.568 -0.0620 -0.1786 -0.2289
  570TMC3    O2 8517   0.109   3.212  16.037  0.5980 -0.0952  0.1492
  571MPD2     C 8518   2.850   0.357  17.482  0.1530  0.7891  1.0220
  571MPD2    C1 8519   2.807   0.345  17.612 -0.3876 -0.4907 -0.2988
  571MPD2    C2 8520   2.837   0.450  17.698 -0.1814 -0.3325  1.1236
  571MPD2    C3 8521   2.913   0.558  17.659  0.1446 -0.0020 -0.0549
  571MPD2    C4 8522   2.943   0.577  17.524 -0.5611 -0.1584 -0.2263
  571MPD2    C5 8523   2.918   0.470  17.436  0.4660 -0.3098  0.2605
  571MPD2     H 8524   2.802   0.438   0.053  3.4441  0.0207  2.3845
  571MPD2    H1 8525   3.010   0.655  17.492  0.0287  0.2577  2.0580
  571MPD2    H2 8526   2.828   0.279  17.411  1.0054  0.9337  0.5953
  571MPD2    H3 8527   2.940   0.472  17.330  1.4146  1.1973  0.4924
  571MPD2     N 8528   2.973   0.646   0.002 -0.3274  0.0938 -0.3845
  571MPD2    H5 8529   3.017   0.727  17.706  0.7391  0.4150  1.3440
  571MPD2    N1 8530   2.732   0.230  17.654 -0.7546  0.4066 -0.5139
  571MPD2    H7 8531   2.730   0.156  17.584 -1.0427 -0.3072  0.2440
  572TMC3    C1 8532   3.046   0.738   0.204 -0.4181 -0.0578  0.4205
  572TMC3    C2 8533   3.082   0.712   0.331  0.2227  0.6139 -0.2774
  572TMC3    C3 8534   3.175   0.797   0.384  0.6213 -0.1362 -0.5276
  572TMC3    C4 8535   3.068   0.857   0.145 -0.1491 -0.2996  0.4071
  572TMC3    C5 8536   3.148   0.949   0.208 -0.0565  1.0250 -0.0848
  572TMC3    C6 8537   3.212   0.915   0.325 -0.2188 -0.0283 -0.0874
  572TMC3     C 8538   2.983   0.627   0.137  1.0890  0.7359 -0.1097
  572TMC3     O 8539   2.956   0.528   0.199  0.0599  0.1965  0.3178
  572TMC3     H 8540   3.074   0.612   0.372 -0.4666  1.1549  0.9144
  572TMC3    H1 8541   3.002   0.892   0.066 -0.2340  0.2709  0.7316
  572TMC3    H2 8542   3.270   0.989   0.379  0.2536 -0.1142 -0.4765
  572TMC3    C7 8543   3.160   1.072   0.137  0.4530 -0.2161 -0.4974
  572TMC3    C8 8544   3.248   0.754   0.498 -0.2546 -0.1057 -0.0404
  572TMC3    O1 8545   3.180   1.073   0.014 -0.2412  0.5942 -0.3802
  572TMC3    O2 8546   3.345   0.818   0.523 -0.2579  0.0272 -0.0551
  573MPD2     C 8547   0.164   0.657   1.294 -0.4193  0.5658 -0.3483
  573MPD2    C1 8548   0.048   0.723   1.302 -0.2169  0.7489 -0.0684
  573MPD2    C2 8549   4.671   0.669   1.235 -0.0633 -0.6645  0.1796
  573MPD2    C3 8550   4.689   0.558   1.144 -0.1663  0.9250  0.3508
  573MPD2    C4 8551   0.077   0.502   1.135  0.1241  0.6052 -0.1937
  573MPD2    C5 8552   0.179   0.549   1.208 -0.2091 -0.2737  0.4697
  573MPD2     H 8553   4.576   0.718   1.251 -0.1668  0.2208 -3.0427
  573MPD2    H1 8554   0.097   0.419   1.069  0.6469  0.0845  0.6230
  573MPD2    H2 8555   0.255   0.699   1.337 -0.6705  0.2276  0.5139
  573MPD2    H3 8556   0.276   0.506   1.186  0.5360  0.4725  2.3572
  573MPD2     N 8557   4.586   0.491   1.081  0.3030 -0.1113 -0.1435
  573MPD2    H5 8558   4.616   0.412   1.024  1.4530  1.4538 -1.6824
  573MPD2    N1 8559   0.045   0.840   1.383  0.2203  0.3727 -0.0498
  573MPD2    H7 8560   0.130   0.854   1.438 -0.4259 -0.9083  1.2881
  574TMC3    C1 8561   4.357   0.427   1.029 -0.3200  0.2028  0.1166
  574TMC3    C2 8562   4.354   0.438   0.897 -0.5897 -0.1681 -0.0870
  574TMC3    C3 8563   4.236   0.434   0.835  0.1813  0.9408  0.4743
  574TMC3    C4 8564   4.245   0.401   1.109  0.4232 -0.4696  0.4182
  574TMC3    C5 8565   4.126   0.398   1.037  0.4275  0.0135 -0.3149
  574TMC3    C6 8566   4.116   0.412   0.903  0.5448 -0.6443  0.2438
  574TMC3     C 8567   4.449   0.520   1.094 -0.0703 -0.2079  0.4807
  574TMC3     O 8568   4.394   0.586   1.179 -0.2885  0.7206 -0.4794
  574TMC3     H 8569   4.446   0.457   0.843 -0.8246  0.2410 -0.3457
  574TMC3    H1 8570   4.241   0.405   1.217  1.3918  1.7434  0.3728
  574TMC3    H2 8571   4.022   0.415   0.849 -0.1632 -0.9601  1.4771
  574TMC3    C7 8572   4.024   0.476   1.103 -0.4479 -0.5001  0.3439
  574TMC3    C8 8573   4.225   0.492   0.701 -0.1781 -0.2967  0.4894
  574TMC3    O1 8574   3.921   0.480   1.031  0.4413 -0.0197 -0.8750
  574TMC3    O2 8575   4.317   0.464   0.628  0.5510  0.3264  0.1201
  575TMC3    C1 8576   1.484   1.283  11.298  0.1178 -0.1573 -1.4126
  575TMC3    C2 8577   1.368   1.220  11.323  0.5234 -0.4617  0.4653
  575TMC3    C3 8578   1.272   1.213  11.227 -0.3667  0.4810  0.5948
  575TMC3    C4 8579   1.514   1.340  11.181 -0.4127 -0.6196  0.0505
  575TMC3    C5 8580   1.413   1.331  11.088  0.3760 -0.1455  0.0364
  575TMC3    C6 8581   1.292   1.266  11.106 -0.3537  0.1259  0.2225
  575TMC3     C 8582   1.580   1.298  11.406  0.4098  0.6828  0.2435
  575TMC3     O 8583   1.606   1.201  11.479  0.8060  0.3785  0.7984
  575TMC3     H 8584   1.352   1.184  11.424 -0.6656  0.5804  0.6485
  575TMC3    H1 8585   1.610   1.390  11.173 -1.1502  0.9708  0.9601
  575TMC3    H2 8586   1.219   1.271  11.025  0.1540 -1.4085 -0.3152
  575TMC3    C7 8587   1.433   1.380  10.953 -1.0674 -0.3453 -0.4636
  575TMC3    C8 8588   1.152   1.143  11.272  0.5161  0.1195  0.2716
  575TMC3    O1 8589   1.500   1.482  10.927 -0.3517  0.0270  0.4230
  575TMC3    O2 8590   1.125   1.165  11.389  0.3978  0.2822  0.4428
  576MPD2     C 8591   1.283   3.272  12.702 -0.3605 -0.1907  0.0432
  576MPD2    C1 8592   1.315   3.400  12.654 -0.4991 -0.0846 -0.6188
  576MPD2    C2 8593   1.235   3.509  12.695  0.6380  0.3909 -0.3570
  576MPD2    C3 8594   1.126   3.486  12.779 -0.2172  0.3927 -0.4303
  576MPD2    C4 8595   1.093   3.356  12.825  0.7404  0.4407 -0.2620
  576MPD2    C5 8596   1.179   3.250  12.787  0.0854  0.5017 -0.4583
  576MPD2     H 8597   1.261   3.608  12.660  1.1062  0.4311  0.1183
  576MPD2    H1 8598   1.021   3.326  12.900  2.2338 -2.6640 -0.0882
  576MPD2    H2 8599   1.339   3.186  12.669  0.9373  0.1957  1.2074
  576MPD2    H3 8600   1.169   3.148  12.823  1.7520  0.0398 -1.3054
  576MPD2     N 8601   1.053   3.607  12.811  0.2722  0.1506 -0.6280
  576MPD2    H5 8602   1.099   3.695  12.791  1.1284 -0.2841 -0.5746
  576MPD2    N1 8603   1.421   3.428  12.561  0.2075 -0.0561  0.3454
  576MPD2    H7 8604   1.428   3.523  12.525 -0.4516 -1.1260 -2.6223
  577TMC3    C1 8605   1.603   3.377  12.430  0.3539  0.2588  0.4899
  577TMC3    C2 8606   1.722   3.311  12.437 -0.4500  0.3479  0.2018
  577TMC3    C3 8607   1.805   3.331  12.334  0.1081 -0.0668 -0.5986
  577TMC3    C4 8608   1.558   3.451  12.323  0.0091  0.0910 -0.3658
  577TMC3    C5 8609   1.630   3.439  12.208 -0.9754 -0.7066  0.0427
  577TMC3    C6 8610   1.759   3.387  12.216  0.0809 -0.2356  0.2331
  577TMC3     C 8611   1.509   3.335  12.528 -0.3700 -0.6361  0.3131
  577TMC3     O 8612   1.535   3.229  12.577 -0.5841 -0.1402  0.0643
  577TMC3     H 8613   1.745   3.261  12.530 -1.3713 -2.6457 -1.1917
  577TMC3    H1 8614   1.451   3.463  12.312  0.0238 -0.4071 -1.0291
  577TMC3    H2 8615   1.827   3.390  12.132 -0.4431 -0.2213 -0.1886
  577TMC3    C7 8616   1.549   3.370  12.110 -0.3600 -0.3544 -0.1488
  577TMC3    C8 8617   1.911   3.235  12.330  0.4543  0.3893 -1.4083
  577TMC3    O1 8618   1.600   3.267  12.075 -0.5427 -0.2920 -0.4605
  577TMC3    O2 8619   1.937   3.172  12.431 -0.2594  0.6479  0.0653
  578MPD2     C 8620   4.363   3.478   1.682  0.4177  0.1381  0.2978
  578MPD2    C1 8621   4.337   3.417   1.559  0.5018  0.3536 -0.2884
  578MPD2    C2 8622   4.432   3.326   1.503  0.8746  0.1553 -0.4343
  578MPD2    C3 8623   4.547   3.306   1.578  0.3796 -0.2400  0.7480
  578MPD2    C4 8624   4.568   3.364   1.699  0.0753 -0.6876 -0.9542
  578MPD2    C5 8625   4.477   3.450   1.755  0.6521  0.4713 -1.2885
  578MPD2     H 8626   4.432   3.300   1.397  1.8423  0.6044 -0.5420
  578MPD2    H1 8627   4.667   3.361   1.744 -0.4498  0.2961  0.2606
  578MPD2    H2 8628   4.296   3.548   1.732 -0.4762  0.4788 -1.4054
  578MPD2    H3 8629   4.490   3.500   1.850 -1.3715 -2.0390  0.3118
  578MPD2     N 8630   4.641   3.226   1.520  0.1391 -0.1666 -0.5099
  578MPD2    H5 8631   4.622   3.204   1.423 -1.0435  1.4554 -0.6481
  578MPD2    N1 8632   4.221   3.458   1.485 -0.6026 -0.2910  1.2275
  578MPD2    H7 8633   4.163   3.534   1.521  3.1925  2.9609  0.4453
  579TMC3    C1 8634   0.114   3.102   1.481 -0.6771 -0.0071  0.6935
  579TMC3    C2 8635   0.243   3.135   1.498 -0.0794  0.0497  0.5378
  579TMC3    C3 8636   0.338   3.105   1.409  0.0341  0.4731 -0.0983
  579TMC3    C4 8637   0.071   3.039   1.372  0.6187 -0.5796  0.2910
  579TMC3    C5 8638   0.170   3.000   1.286  0.4809 -0.0284 -0.1866
  579TMC3    C6 8639   0.302   3.043   1.297 -0.2597  0.7853  0.0850
  579TMC3     C 8640   0.023   3.181   1.573 -0.4614 -0.6666  0.3867
  579TMC3     O 8641   0.067   3.185   1.690  0.3989  0.2639  0.0656
  579TMC3     H 8642   0.261   3.193   1.588  0.3204 -2.0168  1.7712
  579TMC3    H1 8643   4.710   2.994   1.364 -0.0823  1.3635 -2.1110
  579TMC3    H2 8644   0.384   3.019   1.230 -0.1776  2.1115 -0.2843
  579TMC3    C7 8645   0.149   2.920   1.162  0.0064  0.5557 -0.1548
  579TMC3    C8 8646   0.456   3.185   1.420  0.2239  0.4373  0.2307
  579TMC3    O1 8647   0.245   2.856   1.121 -0.0997 -0.7750  0.3027
  579TMC3    O2 8648   0.441   3.290   1.478  0.5392 -0.2937  0.3070
  580TMC3    C1 8649   3.696   1.963  11.704 -1.0229 -0.8722  0.0453
  580TMC3    C2 8650   3.745   1.914  11.581  0.0683  0.0296 -0.2757
  580TMC3    C3 8651   3.777   1.780  11.573 -0.5679  0.2678  0.0553
  580TMC3    C4 8652   3.697   1.887  11.809  0.2179  0.4274  0.3530
  580TMC3    C5 8653   3.726   1.753  11.799  0.4874  0.2543 -0.6038
  580TMC3    C6 8654   3.761   1.694  11.677 -0.3188  0.3411  0.1058
  580TMC3     C 8655   3.668   2.104  11.722 -0.9935  1.0565 -0.4863
  580TMC3     O 8656   3.705   2.148  11.832 -0.1351  0.8423  0.2513
  580TMC3     H 8657   3.761   1.976  11.494 -2.9163  1.4127  0.1460
  580TMC3    H1 8658   3.657   1.931  11.900  0.9239  1.1420  0.3129
  580TMC3    H2 8659   3.800   1.593  11.665  0.1667  0.6225 -0.6990
  580TMC3    C7 8660   3.770   1.692  11.921 -0.1101 -0.4202  0.1961
  580TMC3    C8 8661   3.874   1.748  11.468 -0.0621  0.2407 -0.2644
  580TMC3    O1 8662   3.755   1.761  12.018 -0.0595 -0.4953 -0.4599
  580TMC3    O2 8663   3.875   1.633  11.415 -0.3524  0.2377 -0.6480
  581MPD2     C 8664   2.306   2.102  14.553  0.0102  0.4606 -0.2328
  581MPD2    C1 8665   2.246   2.112  14.675  0.2694 -0.3077 -0.2971
  581MPD2    C2 8666   2.119   2.162  14.687 -1.1276 -0.1893 -0.9012
  581MPD2    C3 8667   2.040   2.195  14.577  0.2577  0.5643  0.0073
  581MPD2    C4 8668   2.096   2.172  14.457 -1.4667 -0.0350 -0.2394
  581MPD2    C5 8669   2.228   2.140  14.446  0.4644 -0.9216  0.1390
  581MPD2     H 8670   2.067   2.175  14.781  1.8068  0.5548  0.6170
  581MPD2    H1 8671   2.045   2.179  14.362 -1.0936  1.5004 -0.3347
  581MPD2    H2 8672   2.400   2.052  14.533 -2.0521 -4.1479  1.6020
  581MPD2    H3 8673   2.262   2.127  14.343  0.3826 -2.1747  0.2702
  581MPD2     N 8674   1.908   2.242  14.587  0.0016 -0.2271  0.3035
  581MPD2    H5 8675   1.877   2.276  14.678  1.2393  0.3316  0.5068
  581MPD2    N1 8676   2.325   2.052  14.774  0.2850  0.3562  0.3047
  581MPD2    H7 8677   2.412   2.005  14.750  0.5573  0.0360  1.9515
  582TMC3    C1 8678   2.318   1.919  14.956 -0.1541  0.1667  0.3885
  582TMC3    C2 8679   2.367   1.918  15.084  0.3403 -0.2622  0.2599
  582TMC3    C3 8680   2.328   1.810  15.164  0.6336  0.2546 -0.3935
  582TMC3    C4 8681   2.209   1.836  14.914 -0.6346  0.0972 -0.2664
  582TMC3    C5 8682   2.166   1.741  15.005  0.1581  0.5203 -0.2576
  582TMC3    C6 8683   2.224   1.720  15.126 -0.0351  0.5906 -0.5904
  582TMC3     C 8684   2.280   2.039  14.903  0.0960 -0.4972 -0.0992
  582TMC3     O 8685   2.191   2.099  14.960 -0.5744 -0.3414  0.3413
  582TMC3     H 8686   2.429   2.000  15.120  0.0095 -1.2903  3.1890
  582TMC3    H1 8687   2.136   1.865  14.838 -0.4282  1.3312  0.0070
  582TMC3    H2 8688   2.186   1.646  15.196 -1.4252  1.2282 -0.6827
  582TMC3    C7 8689   2.024   1.759  15.020 -0.3913  0.4644  0.7740
  582TMC3    C8 8690   2.355   1.822  15.307 -0.2060  0.4652 -0.4477
  582TMC3    O1 8691   1.948   1.661  15.020  0.1582 -0.5312 -0.1739
  582TMC3    O2 8692   2.267   1.784  15.381  0.6549 -0.0509  0.5200
  583MPD2     C 8693   2.129   3.681  16.843 -0.6014  0.7145  0.1071
  583MPD2    C1 8694   2.075   3.800  16.787 -0.6846 -0.1560 -0.1756
  583MPD2    C2 8695   2.046   3.905  16.876 -0.1369  0.6201 -0.3846
  583MPD2    C3 8696   2.056   3.885  17.014  0.1976 -0.0901  0.0325
  583MPD2    C4 8697   2.105   3.765  17.066  0.0611 -0.0248 -0.4637
  583MPD2    C5 8698   2.142   3.667  16.976  0.3599  0.0474 -0.4403
  583MPD2     H 8699   2.012   4.002  16.842  2.4883  2.4267  2.1932
  583MPD2    H1 8700   2.113   3.743  17.172  1.6394  0.9905 -0.3867
  583MPD2    H2 8701   2.160   3.596  16.783 -0.5011  1.1704 -0.4932
  583MPD2    H3 8702   2.180   3.572  17.012 -0.2512  0.3161  0.9092
  583MPD2     N 8703   2.016   3.992  17.096  0.1783  0.1297  0.6554
  583MPD2    H5 8704   1.978   4.071  17.044  2.4552  0.4421 -0.5170
  583MPD2    N1 8705   2.080   3.824  16.648  1.0165 -1.0260 -0.4782
  583MPD2    H7 8706   2.057   3.915  16.611 -1.0735 -0.8124  1.4169
  584TMC3    C1 8707   1.999   4.124  17.301 -0.6381  0.1197  0.7311
  584TMC3    C2 8708   1.967   4.235  17.232 -0.3219  0.0596 -0.6656
  584TMC3    C3 8709   1.937   4.345  17.304  0.0431  0.4019  0.1704
  584TMC3    C4 8710   1.989   4.113  17.440 -0.2530 -0.0225  0.2085
  584TMC3    C5 8711   1.948   4.226  17.507 -0.3234 -0.0255 -0.1144
  584TMC3    C6 8712   1.913   4.343  17.440 -0.3780  0.0375 -0.8767
  584TMC3     C 8713   2.039   4.003  17.228  0.3783  0.0815 -1.1596
  584TMC3     O 8714   2.110   3.928  17.291 -0.1855 -0.2957  0.2365
  584TMC3     H 8715   1.990   4.247  17.127 -0.3282 -0.2125 -0.6968
  584TMC3    H1 8716   2.016   4.023  17.494  1.4269 -0.3483 -1.1736
  584TMC3    H2 8717   1.884   4.432  17.495  0.4356 -0.9566  1.1665
  584TMC3    C7 8718   1.896   4.209  17.635  0.1031  0.6550 -0.0594
  584TMC3    C8 8719   1.963   4.473  17.233  0.1483  0.1813  0.1162
  584TMC3    O1 8720   1.912   4.100  17.692  0.7128  0.1208  0.3080
  584TMC3    O2 8721   1.951   4.477  17.111  0.2259 -0.4078  0.5951
  585MPD2     C 8722   1.083   3.108   0.273  0.4558  0.2637  1.1207
  585MPD2    C1 8723   1.181   3.096   0.189  0.2625 -0.2261  0.2518
  585MPD2    C2 8724   1.209   2.979   0.125  0.6390 -0.1791  0.2984
  585MPD2    C3 8725   1.141   2.868   0.159  0.6629 -0.1169  0.2746
  585MPD2    C4 8726   1.042   2.869   0.259 -0.2001 -0.4290  0.7052
  585MPD2    C5 8727   1.005   2.996   0.308  0.4481 -0.2152  0.1092
  585MPD2     H 8728   1.293   2.984   0.057  0.6555 -1.0766  0.2553
  585MPD2    H1 8729   0.982   2.783   0.286  0.5438 -1.2295 -0.1712
  585MPD2    H2 8730   1.056   3.206   0.310  0.4704  0.8087 -0.2806
  585MPD2    H3 8731   0.914   3.015   0.363  1.6060 -1.5126  2.4467
  585MPD2     N 8732   1.171   2.739   0.111 -0.0120  0.4635  0.0803
  585MPD2    H5 8733   1.123   2.657   0.147 -3.2018  2.0974 -0.4126
  585MPD2    N1 8734   1.254   3.211   0.166  0.3008  0.5119 -0.0971
  585MPD2    H7 8735   1.199   3.294   0.187  0.8041  1.1876 -1.4387
  586TMC3    C1 8736   1.259   2.571  17.712 -0.1065  0.4394 -0.2600
  586TMC3    C2 8737   1.350   2.543  17.612  0.2174  0.6851  0.3221
  586TMC3    C3 8738   1.343   2.423  17.555 -0.3398  0.4575 -0.5187
  586TMC3    C4 8739   1.164   2.486   0.008  0.3845 -0.7261 -0.5806
  586TMC3    C5 8740   1.156   2.365  17.693 -0.1949  0.1289 -0.2848
  586TMC3    C6 8741   1.239   2.329  17.588  0.1643 -0.5708 -0.2234
  586TMC3     C 8742   1.255   2.710   0.005  1.1454  0.2618  0.8807
  586TMC3     O 8743   1.313   2.792  17.683 -0.1447 -0.3011 -0.1577
  586TMC3     H 8744   1.431   2.611  17.588 -0.0231  0.3934 -1.3068
  586TMC3    H1 8745   1.079   2.513   0.070  0.4877  2.2011 -1.7067
  586TMC3    H2 8746   1.224   2.231  17.545 -1.4000  0.9150 -3.0262
  586TMC3    C7 8747   1.032   2.288  17.676 -0.0054 -0.1789 -0.0170
  586TMC3    C8 8748   1.405   2.399  17.427  0.2490 -0.1454 -0.5677
  586TMC3    O1 8749   1.014   2.226  17.573 -0.4624  0.4387  0.4216
  586TMC3    O2 8750   1.465   2.493  17.377 -0.2052  0.0638 -0.4271
  587TMC3    C1 8751   3.249   1.419  15.898 -0.0608  0.0736 -0.0128
  587TMC3    C2 8752   3.295   1.495  15.997 -0.5305 -0.0455  0.0823
  587TMC3    C3 8753   3.427   1.512  16.013  0.5688 -0.1089  0.0523
  587TMC3    C4 8754   3.334   1.347  15.817  0.8900  0.8862 -0.5751
  587TMC3    C5 8755   3.470   1.356  15.840  0.3205  0.1451 -0.2518
  587TMC3    C6 8756   3.517   1.435  15.946  0.0806  0.0186  0.4259
  587TMC3     C 8757   3.132   1.472  15.827 -0.8239 -0.5212  0.0331
  587TMC3     O 8758   3.147   1.525  15.716  0.4216 -0.1772 -0.0268
  587TMC3     H 8759   3.224   1.557  16.050  1.2640  0.1538  2.2648
  587TMC3    H1 8760   3.303   1.300  15.724  0.6700  1.0100 -0.5664
  587TMC3    H2 8761   3.621   1.451  15.972 -0.0348  0.9058  0.3309
  587TMC3    C7 8762   3.567   1.263  15.774  0.6477  0.1212  0.2049
  587TMC3    C8 8763   3.484   1.572  16.135  0.0259  0.1395  0.5623
  587TMC3    O1 8764   3.523   1.183  15.698  0.4065  0.3314  0.4507
  587TMC3    O2 8765   3.606   1.580  16.141  0.0769  0.3382  0.6227
  588TMC3    C1 8766   1.164   4.313   9.965 -0.4181 -0.9226 -0.3614
  588TMC3    C2 8767   1.181   4.182   9.928  0.0979 -0.2629  0.5650
  588TMC3    C3 8768   1.218   4.092  10.022 -0.0003  0.2171  0.3071
  588TMC3    C4 8769   1.197   4.363  10.089 -0.4820  0.3304 -0.4389
  588TMC3    C5 8770   1.240   4.272  10.182  0.0298 -0.2519 -0.0143
  588TMC3    C6 8771   1.252   4.140  10.150 -0.6580  1.0166 -0.3248
  588TMC3     C 8772   1.124   4.421   9.872 -0.8233 -0.5820  0.0063
  588TMC3     O 8773   1.039   4.401   9.785 -1.0433 -0.0897  0.0253
  588TMC3     H 8774   1.144   4.158   9.829 -0.4335 -0.5557  0.8355
  588TMC3    H1 8775   1.152   4.454  10.125 -0.5899 -0.0459  0.3851
  588TMC3    H2 8776   1.311   4.075  10.213 -0.6686 -0.0780 -1.4274
  588TMC3    C7 8777   1.275   4.318  10.315 -0.0472 -0.7842 -0.0179
  588TMC3    C8 8778   1.239   3.957   9.982 -0.4014 -0.1690  0.2938
  588TMC3    O1 8779   1.268   4.244  10.411 -0.0444 -0.4908  0.4004
  588TMC3    O2 8780   1.230   3.941   9.862 -0.0278 -0.1363 -0.4889
  589TMC3    C1 8781   0.447   1.382   0.932 -0.5738  0.5631  0.0214
  589TMC3    C2 8782   0.527   1.339   1.035 -0.1573 -0.1666 -0.3629
  589TMC3    C3 8783   0.546   1.201   1.040 -0.7018 -0.2967 -0.9104
  589TMC3    C4 8784   0.395   1.295   0.836  1.0484  0.4551  0.6651
  589TMC3    C5 8785   0.425   1.162   0.845 -0.1323  0.5732 -0.6939
  589TMC3    C6 8786   0.498   1.116   0.945 -0.6627 -0.3572  0.6411
  589TMC3     C 8787   0.384   1.506   0.940 -0.5928  0.3290 -0.7890
  589TMC3     O 8788   0.275   1.534   0.887  0.7716  0.4879  0.2136
  589TMC3     H 8789   0.564   1.402   1.114 -0.9094 -1.0885  0.7278
  589TMC3    H1 8790   0.324   1.329   0.761  1.0035 -3.3859 -1.0222
  589TMC3    H2 8791   0.532   1.013   0.955  1.5590  0.4820  1.8416
  589TMC3    C7 8792   0.384   1.070   0.740 -0.2657  0.4013  0.4540
  589TMC3    C8 8793   0.625   1.139   1.143 -0.2446 -1.7293 -0.2269
  589TMC3    O1 8794   0.415   0.955   0.761  0.1296  0.2630  0.3100
  589TMC3    O2 8795   0.587   1.031   1.187 -0.5297 -0.1438 -0.0124
  590MPD2     C 8796   3.978   4.702  16.680  0.5117 -0.3080  0.4271
  590MPD2    C1 8797   3.934   0.056  16.582  0.3136  0.1828 -0.9043
  590MPD2    C2 8798   4.017   0.073  16.475 -0.5164  0.0461  0.0005
  590MPD2    C3 8799   4.132   4.737  16.453 -0.5301  0.7493  0.0916
  590MPD2    C4 8800   4.169   4.642  16.549 -0.1733 -0.3290  0.0094
  590MPD2    C5 8801   4.093   4.625  16.657  0.7700  0.0001 -0.4458
  590MPD2     H 8802   4.007   0.158  16.407  0.8383  1.2931  1.3658
  590MPD2    H1 8803   4.263   4.589  16.542  0.2023  0.2416  0.6942
  590MPD2    H2 8804   3.918   4.673  16.766  0.5047 -0.1523  0.4759
  590MPD2    H3 8805   4.115   4.549  16.732 -1.0790  1.9648  2.0722
  590MPD2     N 8806   4.215   0.032  16.343 -0.5710 -0.5101 -0.0943
  590MPD2    H5 8807   4.173   0.097  16.277 -0.3632 -0.6474 -0.3577
  590MPD2    N1 8808   3.814   0.121  16.577  0.0349  0.2526  0.7174
  590MPD2    H7 8809   3.794   0.177  16.494  1.3817 -0.0884  0.1524
  591TMC3    C1 8810   4.395   0.046  16.199  0.0219  0.1659 -0.1424
  591TMC3    C2 8811   4.450   4.704  16.103 -0.4346  0.8062 -0.2996
  591TMC3    C3 8812   4.455   0.014  15.974 -0.6991  0.7204 -0.7510
  591TMC3    C4 8813   4.340   0.171  16.172  0.0410 -0.0792  0.1888
  591TMC3    C5 8814   4.345   0.206  16.038 -0.1019 -0.3225 -0.3417
  591TMC3    C6 8815   4.394   0.127  15.935  0.4455 -0.7139 -0.4070
  591TMC3     C 8816   4.332   4.705  16.312 -0.0099  0.7846 -0.0375
  591TMC3     O 8817   4.394   4.618  16.370 -0.7444  0.1219 -0.2171
  591TMC3     H 8818   4.477   4.601  16.122 -0.0296  1.0294  0.3073
  591TMC3    H1 8819   4.291   0.237  16.243  2.0981  2.4915 -0.8143
  591TMC3    H2 8820   4.386   0.155  15.830 -0.3861 -1.5090 -0.5499
  591TMC3    C7 8821   4.294   0.335  15.997 -1.0655  0.2721  0.9996
  591TMC3    C8 8822   4.546   4.672  15.891 -0.5357 -0.7081 -0.3071
  591TMC3    O1 8823   4.198   0.374  16.062 -0.2814  0.3636  0.1904
  591TMC3    O2 8824   4.570   4.558  15.928  0.5009 -0.5625 -0.1836
  592MPD2     C 8825   0.375   2.088  11.499 -0.0643 -0.0281 -0.0885
  592MPD2    C1 8826   0.430   2.123  11.618  0.0465  0.7193  0.7679
  592MPD2    C2 8827   0.366   2.067  11.726 -0.1572  0.0985 -0.3240
  592MPD2    C3 8828   0.259   1.978  11.718  0.0522  0.6813 -0.5865
  592MPD2    C4 8829   0.213   1.940  11.595 -0.5428  0.0217 -0.9872
  592MPD2    C5 8830   0.276   1.997  11.485  0.3256 -0.2403 -0.4581
  592MPD2     H 8831   0.402   2.085  11.827  1.8796  0.6808 -1.1536
  592MPD2    H1 8832   0.128   1.874  11.580 -0.9319 -0.4553  3.2827
  592MPD2    H2 8833   0.405   2.148  11.414 -0.7200  1.3534  0.6530
  592MPD2    H3 8834   0.228   1.981  11.390 -1.4873 -0.8240  0.5434
  592MPD2     N 8835   0.218   1.918  11.839 -0.0217 -0.7255  0.5616
  592MPD2    H5 8836   0.273   1.948  11.920 -0.9932  2.0755  0.1722
  592MPD2    N1 8837   0.538   2.217  11.618 -0.1294 -0.9316  0.1657
  592MPD2    H7 8838   0.565   2.251  11.526  0.2919 -1.2350  0.1747
  593TMC3    C1 8839   0.679   2.381  11.712  0.4390 -0.4087 -0.0828
  593TMC3    C2 8840   0.721   2.448  11.822  0.1559 -0.1807  0.7895
  593TMC3    C3 8841   0.807   2.554  11.800  0.5645  0.6730  0.2586
  593TMC3    C4 8842   0.721   2.420  11.586  0.6754 -0.1694 -0.1898
  593TMC3    C5 8843   0.802   2.527  11.570  0.3807  0.0603 -0.0814
  593TMC3    C6 8844   0.842   2.601  11.680  0.3748 -0.2107 -0.4295
  593TMC3     C 8845   0.599   2.260  11.733  0.0645  0.3529  0.0669
  593TMC3     O 8846   0.588   2.225  11.850 -0.3420  0.4095 -0.1595
  593TMC3     H 8847   0.712   2.411  11.923  0.9713 -1.7827  0.2778
  593TMC3    H1 8848   0.695   2.364  11.497 -1.7798  1.2637 -0.3583
  593TMC3    H2 8849   0.897   2.694  11.671 -0.1171  0.0220 -1.0220
  593TMC3    C7 8850   0.792   2.608  11.450  0.8631  0.3280 -0.3308
  593TMC3    C8 8851   0.796   2.656  11.904  0.0303  1.1302 -0.5391
  593TMC3    O1 8852   0.825   2.725  11.463 -0.7283  0.0804 -0.4757
  593TMC3    O2 8853   0.705   2.639  11.984 -0.2269  0.4909 -0.3607
  594MPD2     C 8854   4.186   0.459  14.820  0.0899 -0.6572  0.0217
  594MPD2    C1 8855   4.075   0.540  14.804 -0.3938  0.8934  0.1798
  594MPD2    C2 8856   4.091   0.663  14.738 -0.6840  0.5307  0.0454
  594MPD2    C3 8857   4.213   0.711  14.683  0.3410  0.3801  0.4618
  594MPD2    C4 8858   4.322   0.632  14.699  0.1975 -0.4902 -0.5415
  594MPD2    C5 8859   4.308   0.510  14.777  0.8650 -0.1548 -0.5926
  594MPD2     H 8860   3.998   0.710  14.707 -1.4730  0.0398  1.6339
  594MPD2    H1 8861   4.422   0.665  14.671 -0.2526 -0.8598 -2.5567
  594MPD2    H2 8862   4.198   0.369  14.879  1.9894 -0.2034  0.3378
  594MPD2    H3 8863   4.397   0.454  14.805 -0.1277 -1.8461 -0.8324
  594MPD2     N 8864   4.225   0.833  14.609  0.2754  0.4237  0.7739
  594MPD2    H5 8865   4.317   0.874  14.593  0.7940 -1.0116  0.0690
  594MPD2    N1 8866   3.940   0.496  14.829 -0.2420  0.3784  0.8573
  594MPD2    H7 8867   3.864   0.560  14.807  0.6089  0.4120 -2.0352
  595TMC3    C1 8868   4.298   1.162  14.371 -0.3727 -0.0876 -0.9021
  595TMC3    C2 8869   4.267   1.039  14.431 -0.4099  0.1057 -0.3661
  595TMC3    C3 8870   4.158   1.034  14.510  0.5669 -0.3330 -0.1388
  595TMC3    C4 8871   4.218   1.272  14.390 -0.6918  0.0854 -0.8997
  595TMC3    C5 8872   4.096   1.251  14.452 -0.2903 -0.7556  0.3723
  595TMC3    C6 8873   4.064   1.136  14.514 -0.0158 -0.6380  0.1439
  595TMC3     C 8874   4.432   1.193  14.358  0.2409  0.7120 -0.2178
  595TMC3     O 8875   4.468   1.305  14.395  0.0852 -0.2153  0.5278
  595TMC3     H 8876   4.342   0.962  14.442 -1.8793 -1.1565  0.8480
  595TMC3    H1 8877   4.258   1.370  14.367  3.0254 -1.0931  0.4741
  595TMC3    H2 8878   3.975   1.119  14.574 -2.2562 -2.2444 -3.5821
  595TMC3    C7 8879   4.003   1.360  14.469 -0.3794 -0.0075  0.5626
  595TMC3    C8 8880   4.120   0.913  14.583  0.9381  0.6182 -0.4629
  595TMC3    O1 8881   3.910   1.358  14.547 -0.3816 -0.0276 -0.9695
  595TMC3    O2 8882   4.003   0.894  14.602 -1.0106  0.2207  0.0293
  596MPD2     C 8883   2.876   3.613  16.783  0.2503 -0.3154  0.1175
  596MPD2    C1 8884   2.881   3.737  16.722 -0.3031 -0.7540 -0.5307
  596MPD2    C2 8885   2.891   3.739  16.588  0.8010  0.2979  0.4540
  596MPD2    C3 8886   2.885   3.622  16.513  0.0145  1.0084  0.7852
  596MPD2    C4 8887   2.892   3.499  16.574 -0.1274  0.4127  0.6102
  596MPD2    C5 8888   2.881   3.498  16.711 -0.6392  0.1766 -0.1913
  596MPD2     H 8889   2.906   3.835  16.540  1.2009  0.9198  1.8189
  596MPD2    H1 8890   2.908   3.407  16.518 -1.0464  0.5692  0.0879
  596MPD2    H2 8891   2.862   3.599  16.889  1.5444 -1.8381  0.0806
  596MPD2    H3 8892   2.885   3.401  16.759  0.8665  0.0569 -0.5442
  596MPD2     N 8893   2.886   3.621  16.370 -0.2487 -0.1695  0.1457
  596MPD2    H5 8894   2.908   3.531  16.327  0.0311 -0.7425  1.4782
  596MPD2    N1 8895   2.890   3.859  16.780 -0.2505  0.0756 -0.5003
  596MPD2    H7 8896   2.901   3.940  16.720  1.2963 -1.1997 -1.9730
  597TMC3    C1 8897   2.870   4.035  16.925  0.2146  0.3954 -0.7945
  597TMC3    C2 8898   2.921   4.129  16.839  0.0281 -0.2670 -0.6116
  597TMC3    C3 8899   2.868   4.260  16.836 -0.7882 -0.1298  0.2608
  597TMC3    C4 8900   2.772   4.073  17.009 -0.1138  0.2221 -0.0159
  597TMC3    C5 8901   2.725   4.200  17.008 -0.7441  0.3463  0.3884
  597TMC3    C6 8902   2.761   4.292  16.912 -0.2275 -0.3505 -0.3243
  597TMC3     C 8903   2.876   3.890  16.909 -0.6445  0.6361  0.4242
  597TMC3     O 8904   2.854   3.812  17.002  0.0190 -0.3484 -0.5066
  597TMC3     H 8905   2.992   4.093  16.765  0.5727  3.0729 -1.7143
  597TMC3    H1 8906   2.739   3.999  17.082 -1.4092 -1.2766 -2.1331
  597TMC3    H2 8907   2.716   4.390  16.916 -0.3128 -0.3778 -0.5804
  597TMC3    C7 8908   2.617   4.230  17.107  0.4195  0.0273 -0.0017
  597TMC3    C8 8909   2.910   4.352  16.728  0.3567  0.3444  0.3135
  597TMC3    O1 8910   2.558   4.133  17.152 -0.0438 -0.1458 -0.5181
  597TMC3    O2 8911   2.841   4.454  16.714  0.3486  0.3636 -0.0961
  598TMC3    C1 8912   0.812   0.459  15.151 -0.3538 -0.3325 -0.5479
  598TMC3    C2 8913   0.702   0.391  15.111  0.4154  0.1650 -0.5266
  598TMC3    C3 8914   0.653   0.395  14.986  0.1324  0.4353  0.5185
  598TMC3    C4 8915   0.885   0.520  15.060 -0.2600  0.2068 -0.4519
  598TMC3    C5 8916   0.841   0.521  14.925  0.4705  0.3888  0.9888
  598TMC3    C6 8917   0.719   0.459  14.884 -0.6145 -0.7589  0.1811
  598TMC3     C 8918   0.827   0.487  15.294 -0.1932  0.3992 -0.0844
  598TMC3     O 8919   0.720   0.488  15.356 -0.0778  0.3797 -0.2136
  598TMC3     H 8920   0.648   0.342  15.191 -0.6808  1.0700 -0.7175
  598TMC3    H1 8921   0.976   0.569  15.091  0.0037 -0.6262  0.0928
  598TMC3    H2 8922   0.687   0.457  14.781  0.0224  2.7342 -0.0579
  598TMC3    C7 8923   0.904   0.596  14.821  0.1649  1.0203 -0.3291
  598TMC3    C8 8924   0.550   0.299  14.945 -0.6707 -0.2191  0.1499
  598TMC3    O1 8925   0.856   0.575  14.713  0.2027  0.2312  0.0541
  598TMC3    O2 8926   0.475   0.329  14.850 -0.6184 -0.0846 -0.4291
  599MPD2     C 8927   1.436   2.592  15.799  0.7835  0.5799  0.1434
  599MPD2    C1 8928   1.366   2.490  15.745  0.1567 -0.0830  0.0386
  599MPD2    C2 8929   1.282   2.421  15.829 -0.6932 -0.8951  0.1471
  599MPD2    C3 8930   1.261   2.458  15.962  0.9396  0.4348  0.1813
  599MPD2    C4 8931   1.344   2.548  16.019 -0.2283  0.5214 -0.1332
  599MPD2    C5 8932   1.422   2.622  15.934  0.6449  0.7646  0.3893
  599MPD2     H 8933   1.222   2.338  15.793 -0.5263 -1.5653  1.4405
  599MPD2    H1 8934   1.340   2.567  16.126  0.5592 -2.8046  0.4731
  599MPD2    H2 8935   1.499   2.658  15.740 -0.2610  0.7801 -0.7493
  599MPD2    H3 8936   1.480   2.701  15.979  0.9343  1.8896 -1.9680
  599MPD2     N 8937   1.155   2.411  16.032  0.2525  0.3075  0.1532
  599MPD2    H5 8938   1.155   2.429  16.132  1.0812  0.3364  0.1473
  599MPD2    N1 8939   1.389   2.457  15.609 -0.1026  0.0145 -0.4019
  599MPD2    H7 8940   1.457   2.507  15.553 -0.7116 -0.5853 -1.6611
  600TMC3    C1 8941   0.951   2.336  16.090 -0.3242  0.5182  0.0204
  600TMC3    C2 8942   0.863   2.229  16.107 -0.4617 -0.2940 -0.0258
  600TMC3    C3 8943   0.752   2.248  16.177 -0.3850  0.8221  0.1427
  600TMC3    C4 8944   0.939   2.447  16.165  0.4270 -0.1178 -0.4292
  600TMC3    C5 8945   0.834   2.445  16.254 -0.5268  0.3019 -0.2975
  600TMC3    C6 8946   0.735   2.353  16.259 -0.0301  0.5538  0.4244
  600TMC3     C 8947   1.045   2.345  15.985 -0.4300  0.1814  0.0239
  600TMC3     O 8948   1.003   2.308  15.873  0.0289  0.2752  0.1193
  600TMC3     H 8949   0.870   2.140  16.045  1.5469 -1.1891  1.4723
  600TMC3    H1 8950   0.992   2.540  16.150  1.2962 -0.6721 -0.8298
  600TMC3    H2 8951   0.649   2.366  16.324 -0.7942 -1.7051 -0.1373
  600TMC3    C7 8952   0.822   2.562  16.336  0.5244 -0.5159  0.5200
  600TMC3    C8 8953   0.669   2.136  16.207 -0.1477 -0.0480  0.3118
  600TMC3    O1 8954   0.714   2.623  16.340  0.4463  0.2506  0.2242
  600TMC3    O2 8955   0.720   2.027  16.195 -0.1658 -0.1758  0.3338
  601MPD2     C 8956   3.133   1.588   0.140  0.4701 -0.4368 -0.7707
  601MPD2    C1 8957   3.098   1.502   0.041  0.2430 -1.0415 -0.2957
  601MPD2    C2 8958   3.117   1.369   0.067  0.1907 -0.3407 -0.3882
  601MPD2    C3 8959   3.162   1.321   0.186  0.0143 -0.2720  0.0870
  601MPD2    C4 8960   3.177   1.412   0.289 -0.2648  0.4169 -0.1214
  601MPD2    C5 8961   3.172   1.541   0.264  0.6513 -1.1756  0.2741
  601MPD2     H 8962   3.076   1.299  17.742 -0.0284 -1.3430  0.7226
  601MPD2    H1 8963   3.206   1.375   0.387 -1.1863  1.1278  0.4159
  601MPD2    H2 8964   3.139   1.696   0.125  0.1059 -0.1546  1.2063
  601MPD2    H3 8965   3.211   1.615   0.333 -1.6363  0.9259 -0.6966
  601MPD2     N 8966   3.171   1.186   0.219 -0.5604 -0.3113  0.4499
  601MPD2    H5 8967   3.167   1.165   0.318  1.9151 -1.8241  0.2200
  601MPD2    N1 8968   3.024   1.545  17.672 -0.2154 -0.4996  0.0198
  601MPD2    H7 8969   2.999   1.469  17.609 -0.6089 -0.8208  0.5652
  602TMC3    C1 8970   2.887   1.694  17.535 -0.0625  0.2823 -0.0092
  602TMC3    C2 8971   2.792   1.794  17.565  0.5273 -0.7991 -0.8398
  602TMC3    C3 8972   2.667   1.782  17.521  0.6694 -0.2414 -0.7568
  602TMC3    C4 8973   2.845   1.579  17.469 -0.0030  0.3861 -0.8310
  602TMC3    C5 8974   2.712   1.571  17.431  0.0482  0.4346  0.2113
  602TMC3    C6 8975   2.625   1.672  17.454 -0.7444  0.2953  0.1288
  602TMC3     C 8976   2.981   1.674  17.646  0.3673 -0.2419 -0.1908
  602TMC3     O 8977   2.998   1.777  17.712 -0.5810 -0.1519 -0.1131
  602TMC3     H 8978   2.811   1.880  17.627 -1.9284 -0.6239 -0.3606
  602TMC3    H1 8979   2.923   1.513  17.432 -0.2250 -0.6459  0.5464
  602TMC3    H2 8980   2.523   1.675  17.416 -1.4376  3.0923  2.1601
  602TMC3    C7 8981   2.687   1.475  17.319 -0.1267  1.0218  0.1184
  602TMC3    C8 8982   2.570   1.877  17.552  0.4078 -0.0974  0.9791
  602TMC3    O1 8983   2.783   1.414  17.270 -0.0448  0.5904  0.2779
  602TMC3    O2 8984   2.546   1.900  17.671  0.5341 -0.0293 -0.0472
  603TMC3    C1 8985   0.784   1.779  11.378 -0.0035  0.6708  0.4043
  603TMC3    C2 8986   0.838   1.687  11.469  0.9405  0.1518  0.2259
  603TMC3    C3 8987   0.965   1.725  11.507 -0.1321 -0.2642 -0.6355
  603TMC3    C4 8988   0.858   1.865  11.307 -0.1748 -0.7935 -0.7748
  603TMC3    C5 8989   0.993   1.867  11.330  0.1993 -0.9991 -0.4104
  603TMC3    C6 8990   1.044   1.817  11.445  0.6858  0.2452 -0.0484
  603TMC3     C 8991   0.651   1.761  11.326  0.0548 -0.3409 -0.2870
  603TMC3     O 8992   0.640   1.755  11.203  0.3541  0.4344  0.4611
  603TMC3     H 8993   0.783   1.598  11.498 -0.8369  2.2446  3.2659
  603TMC3    H1 8994   0.805   1.916  11.227 -0.3758 -0.4156 -0.3988
  603TMC3    H2 8995   1.151   1.808  11.464  0.6325 -1.7547 -0.6365
  603TMC3    C7 8996   1.071   1.830  11.211 -0.4356 -0.7365 -0.5159
  603TMC3    C8 8997   1.010   1.671  11.633  0.1100  0.4734  0.0772
  603TMC3    O1 8998   1.192   1.811  11.227  0.1462 -0.2566  0.0700
  603TMC3    O2 8999   0.943   1.578  11.676  0.4178  0.0361 -0.0986
  604MPD2     C 9000   1.996   0.528  16.480  0.7591  0.1806 -0.0866
  604MPD2    C1 9001   1.887   0.462  16.427  0.3239  1.0097  0.1145
  604MPD2    C2 9002   1.901   0.359  16.337 -0.3106  0.7476 -0.0182
  604MPD2    C3 9003   2.027   0.318  16.302  0.7393 -0.1853  0.2970
  604MPD2    C4 9004   2.139   0.369  16.362 -0.5677  0.0163 -0.2278
  604MPD2    C5 9005   2.117   0.473  16.446  0.3764 -0.0005  0.1967
  604MPD2     H 9006   1.815   0.300  16.307  0.9132 -1.2480  0.3862
  604MPD2    H1 9007   2.241   0.341  16.343  0.3812  1.1987  3.2258
  604MPD2    H2 9008   1.989   0.620  16.537 -0.0766 -1.0778  1.8398
  604MPD2    H3 9009   2.206   0.510  16.496  0.5395  0.6040 -0.5330
  604MPD2     N 9010   2.034   0.216  16.202 -0.1413 -0.3640 -0.0217
  604MPD2    H5 9011   1.948   0.179  16.161 -0.4932  0.0594  0.3261
  604MPD2    N1 9012   1.758   0.510  16.474  0.0107 -0.3219 -0.2150
  604MPD2    H7 9013   1.754   0.591  16.536 -0.5103  0.8535 -1.7786
  605TMC3    C1 9014   1.521   0.533  16.470 -0.2499  0.5735 -0.4672
  605TMC3    C2 9015   1.533   0.630  16.571 -0.6925  0.4269  0.1970
  605TMC3    C3 9016   1.472   0.751  16.567  0.3361  0.0017 -0.5432
  605TMC3    C4 9017   1.434   0.558  16.369  0.0802 -0.2369 -0.2991
  605TMC3    C5 9018   1.358   0.672  16.369  0.7620 -0.3792  0.0119
  605TMC3    C6 9019   1.390   0.773  16.456 -0.6210  0.1223 -0.3054
  605TMC3     C 9020   1.637   0.452  16.442 -0.7185  0.7033  0.5407
  605TMC3     O 9021   1.609   0.343  16.382  0.2796  0.4280  0.4249
  605TMC3     H 9022   1.589   0.607  16.660  2.8536  0.1932 -2.1162
  605TMC3    H1 9023   1.428   0.494  16.281 -1.6406  0.0230 -0.3724
  605TMC3    H2 9024   1.343   0.870  16.451 -1.6167 -0.4775 -2.9992
  605TMC3    C7 9025   1.246   0.697  16.275 -0.5354 -0.7110  0.2408
  605TMC3    C8 9026   1.587   0.843  16.573  0.2146  0.6207 -0.3852
  605TMC3    O1 9027   1.200   0.808  16.260  0.3960  0.4295 -0.2269
  605TMC3    O2 9028   1.698   0.792  16.600  0.2096  0.0216  0.0799
  606TMC3    C1 9029   2.963   4.138   0.179 -0.4309  0.4826 -0.2439
  606TMC3    C2 9030   2.970   4.066   0.297  0.5539 -0.3905  0.1044
  606TMC3    C3 9031   2.970   3.928   0.288 -0.0921 -0.0027  0.3171
  606TMC3    C4 9032   2.944   4.069   0.061 -0.2415 -0.3090  0.1533
  606TMC3    C5 9033   2.934   3.936   0.056 -0.6532  0.2080  0.0833
  606TMC3    C6 9034   2.952   3.861   0.167 -0.4960  0.0953  0.5875
  606TMC3     C 9035   2.966   4.286   0.191  0.1975 -0.6864  0.4339
  606TMC3     O 9036   2.926   4.325   0.298 -0.2780  0.2219  0.2245
  606TMC3     H 9037   2.985   4.124   0.387 -1.3622 -1.1208  0.9022
  606TMC3    H1 9038   2.929   4.122  17.715  0.2414 -1.2293 -0.4538
  606TMC3    H2 9039   2.985   3.759   0.155  2.2827  1.3726 -2.8030
  606TMC3    C7 9040   2.977   3.874  17.678  0.1955  0.3795 -0.1111
  606TMC3    C8 9041   3.017   3.856   0.402 -0.5452 -0.4916  0.0105
  606TMC3    O1 9042   3.034   3.950  17.593 -0.1698 -0.2600 -0.0597
  606TMC3    O2 9043   3.067   3.748   0.377  0.3584  0.5167 -0.1275
  607MPD2     C 9044   0.450   1.628  11.921 -1.1250  0.4822  0.0815
  607MPD2    C1 9045   0.522   1.720  11.993 -0.0335  0.4610 -0.3845
  607MPD2    C2 9046   0.515   1.719  12.130 -0.4119  0.3834 -0.2001
  607MPD2    C3 9047   0.432   1.630  12.198 -0.0781 -0.1964 -0.1626
  607MPD2    C4 9048   0.358   1.543  12.124 -0.0915  0.3101  0.5978
  607MPD2    C5 9049   0.359   1.549  11.990  0.3778 -0.0705  0.3335
  607MPD2     H 9050   0.568   1.793  12.189  0.7182 -1.1579  0.7259
  607MPD2    H1 9051   0.302   1.473  12.184  0.5205 -0.0953  0.6906
  607MPD2    H2 9052   0.456   1.626  11.813  2.1247  0.3312  0.2385
  607MPD2    H3 9053   0.297   1.488  11.925  1.2349  0.2622 -0.7956
  607MPD2     N 9054   0.423   1.657  12.338  0.7881  0.0281 -0.3386
  607MPD2    H5 9055   0.488   1.728  12.371  1.0071  0.1605 -1.0647
  607MPD2    N1 9056   0.625   1.792  11.938  0.6309  0.3164 -0.1357
  607MPD2    H7 9057   0.660   1.860  12.005  0.5897  2.0709 -1.8854
  608TMC3    C1 9058   0.780   1.903  11.804  0.6277 -0.4087 -1.0122
  608TMC3    C2 9059   0.865   1.901  11.908  0.0047 -0.7424 -0.4111
  608TMC3    C3 9060   0.968   1.991  11.912  0.0641  0.3459 -0.1264
  608TMC3    C4 9061   0.802   1.982  11.698 -0.4039  0.3620 -0.1204
  608TMC3    C5 9062   0.897   2.081  11.706 -0.1102 -0.1022  0.1284
  608TMC3    C6 9063   0.985   2.085  11.812  0.2499  0.1515 -0.1829
  608TMC3     C 9064   0.673   1.803  11.806 -1.5295  0.4948  0.4682
  608TMC3     O 9065   0.634   1.759  11.698  0.1072 -0.3731  0.2323
  608TMC3     H 9066   0.867   1.816  11.975  1.2710 -0.4936 -0.1158
  608TMC3    H1 9067   0.744   1.989  11.606  1.1330  0.5920 -1.0655
  608TMC3    H2 9068   1.040   2.175  11.835  1.9571 -0.8865 -0.2341
  608TMC3    C7 9069   0.922   2.148  11.583 -0.9391  0.2808 -0.3596
  608TMC3    C8 9070   1.017   2.034  12.042 -0.9326  0.2883 -0.0108
  608TMC3    O1 9071   0.840   2.135  11.494  0.4439 -0.6156 -0.4933
  608TMC3    O2 9072   1.098   2.128  12.046 -0.1912 -0.4410  0.0124
  609TMC3    C1 9073   3.592   0.829   9.044 -0.3524 -0.4674 -0.1375
  609TMC3    C2 9074   3.596   0.909   8.936 -0.0797 -0.2250 -0.6161
  609TMC3    C3 9075   3.716   0.939   8.874  0.0544 -0.8275  0.4521
  609TMC3    C4 9076   3.705   0.764   9.090  0.5614 -0.8299  0.1149
  609TMC3    C5 9077   3.824   0.790   9.027  0.3055  0.6181 -0.7265
  609TMC3    C6 9078   3.831   0.876   8.920  0.1446  0.2726 -0.7348
  609TMC3     C 9079   3.467   0.813   9.113  0.4012 -0.2645 -0.1641
  609TMC3     O 9080   3.364   0.820   9.048  0.2747 -0.0449  0.3330
  609TMC3     H 9081   3.506   0.969   8.927 -0.6081 -1.1736 -1.6146
  609TMC3    H1 9082   3.701   0.699   9.177 -1.2085  1.6156  1.8506
  609TMC3    H2 9083   3.928   0.895   8.877 -0.3459 -0.4337 -2.1587
  609TMC3    C7 9084   3.949   0.721   9.058  0.0858 -0.2421  0.2861
  609TMC3    C8 9085   3.727   1.062   8.810  0.4793  0.4583 -0.1325
  609TMC3    O1 9086   4.049   0.787   9.043  0.6334 -0.2485 -0.8725
  609TMC3    O2 9087   3.642   1.141   8.846 -0.1140  1.0326  0.0095
  610TMC3    C1 9088   1.177   1.829  12.801  0.1853 -0.6392  0.1204
  610TMC3    C2 9089   1.147   1.796  12.673 -0.4099 -0.4387  0.3183
  610TMC3    C3 9090   1.089   1.676  12.654  0.2507  0.0552 -0.4201
  610TMC3    C4 9091   1.130   1.758  12.910 -0.0007 -0.6357 -0.0014
  610TMC3    C5 9092   1.070   1.640  12.883  0.0590  0.3182  0.4242
  610TMC3    C6 9093   1.054   1.593  12.751  0.0021  0.2575  0.3438
  610TMC3     C 9094   1.196   1.970  12.832  0.4957 -0.3585 -0.5869
  610TMC3     O 9095   1.136   2.030  12.919 -0.5225  0.6171 -0.1171
  610TMC3     H 9096   1.182   1.856  12.590 -0.2196  1.2488  1.6268
  610TMC3    H1 9097   1.124   1.800  13.009  1.0988 -2.6558  0.9250
  610TMC3    H2 9098   1.030   1.493  12.716 -0.5318  0.2591  0.7083
  610TMC3    C7 9099   1.055   1.543  12.989  0.1779 -0.2216  0.2740
  610TMC3    C8 9100   1.041   1.661  12.518  0.1642 -0.0604 -0.1352
  610TMC3    O1 9101   1.131   1.549  13.084 -0.2799  0.6101 -0.0045
  610TMC3    O2 9102   1.106   1.716  12.426  0.1339 -0.3792  0.0406
  611MPD2     C 9103   0.134   1.667  10.865  0.0294 -0.3536  0.0174
  611MPD2    C1 9104   0.107   1.666  10.729 -0.4066  0.1509  0.2015
  611MPD2    C2 9105   0.206   1.687  10.635 -0.1240 -1.4621  0.0523
  611MPD2    C3 9106   0.335   1.704  10.676 -0.3012 -0.3156  0.1532
  611MPD2    C4 9107   0.357   1.700  10.817  0.0158  0.2563 -0.0921
  611MPD2    C5 9108   0.263   1.684  10.907 -0.0125  0.3701 -0.2132
  611MPD2     H 9109   0.180   1.696  10.531  0.4913  0.8251  0.0965
  611MPD2    H1 9110   0.458   1.716  10.853 -0.0228 -0.0673  0.1539
  611MPD2    H2 9111   0.059   1.647  10.941  1.1453 -0.1232  1.1908
  611MPD2    H3 9112   0.278   1.678  11.015  0.3809 -1.1972 -0.3545
  611MPD2     N 9113   0.451   1.707  10.589  0.6462 -0.6149 -0.1746
  611MPD2    H5 9114   0.540   1.725  10.635  0.5966  0.9968 -0.7066
  611MPD2    N1 9115   4.713   1.631  10.688  0.1996 -0.9130 -0.1828
  611MPD2    H7 9116   4.647   1.598  10.759  0.6512  0.2045  0.7563
  612TMC3    C1 9117   0.582   1.671  10.392  0.1253 -0.1593  0.0507
  612TMC3    C2 9118   0.690   1.686  10.474 -0.0524 -0.7620 -0.2375
  612TMC3    C3 9119   0.807   1.636  10.426 -0.0132 -0.3367  0.6243
  612TMC3    C4 9120   0.596   1.629  10.264  0.0884 -0.3526 -0.3896
  612TMC3    C5 9121   0.724   1.600  10.217  0.1852 -0.3242  0.0781
  612TMC3    C6 9122   0.831   1.595  10.300  0.2325 -0.1821  0.0002
  612TMC3     C 9123   0.450   1.660  10.459 -0.2439 -0.5748  0.1539
  612TMC3     O 9124   0.356   1.615  10.396 -0.0780 -0.1987  0.4457
  612TMC3     H 9125   0.675   1.679  10.581  1.7745  0.1614  0.0827
  612TMC3    H1 9126   0.511   1.617  10.197 -0.5178 -1.2099  0.5298
  612TMC3    H2 9127   0.930   1.562  10.271  0.4045  1.0397 -0.8073
  612TMC3    C7 9128   0.729   1.503  10.112 -0.2638  0.2497  0.4906
  612TMC3    C8 9129   0.918   1.629  10.513 -0.0545 -0.5231  0.0969
  612TMC3    O1 9130   0.623   1.454  10.086  0.2419 -0.0264  0.2150
  612TMC3    O2 9131   0.998   1.536  10.489 -0.0808 -0.0031  0.0694
  613MPD2     C 9132   4.149   3.205  16.883  0.2996  0.4730  0.3964
  613MPD2    C1 9133   4.144   3.311  16.802 -0.3475  0.5137  0.1935
  613MPD2    C2 9134   4.033   3.391  16.799  0.3317 -0.3418  0.0716
  613MPD2    C3 9135   3.914   3.352  16.854  0.0059 -0.7143  0.4006
  613MPD2    C4 9136   3.916   3.232  16.925 -0.2639  0.2493 -0.5599
  613MPD2    C5 9137   4.030   3.161  16.942 -0.0101 -0.0937 -0.4117
  613MPD2     H 9138   4.030   3.478  16.734  1.3854  0.1378  0.6781
  613MPD2    H1 9139   3.830   3.199  16.982 -0.3891  0.6636 -0.5083
  613MPD2    H2 9140   4.235   3.141  16.901  1.6716  1.4774 -2.6118
  613MPD2    H3 9141   4.038   3.067  16.995 -0.7280 -0.6303 -1.2410
  613MPD2     N 9142   3.790   3.417  16.827 -0.4061 -0.0606  0.0635
  613MPD2    H5 9143   3.700   3.374  16.846 -0.7691  0.8332  0.4046
  613MPD2    N1 9144   4.251   3.333  16.712 -0.3371 -0.4240 -0.0184
  613MPD2    H7 9145   4.312   3.252  16.702 -0.3834 -0.1346 -2.4135
  614TMC3    C1 9146   4.386   3.444  16.540 -0.0428  0.3089  0.3082
  614TMC3    C2 9147   4.343   3.339  16.461  0.8077 -0.8369 -0.1569
  614TMC3    C3 9148   4.320   3.363  16.325  0.0214 -0.0378 -0.6418
  614TMC3    C4 9149   4.408   3.565  16.485 -0.1268  0.3941  0.1369
  614TMC3    C5 9150   4.365   3.587  16.360 -0.0834  0.3210  0.1832
  614TMC3    C6 9151   4.318   3.492  16.276  0.4824 -0.5729  1.1376
  614TMC3     C 9152   4.287   3.453  16.652  0.2535 -0.4045 -0.8748
  614TMC3     O 9153   4.228   3.561  16.657 -0.2437 -0.2424 -0.1000
  614TMC3     H 9154   4.310   3.244  16.500 -4.0545  0.7974 -0.2261
  614TMC3    H1 9155   4.457   3.633  16.555 -1.1903 -2.4433  3.6765
  614TMC3    H2 9156   4.298   3.517  16.173  0.6798 -0.8639  1.0276
  614TMC3    C7 9157   4.333   3.731  16.328 -0.3936 -0.0415 -0.5445
  614TMC3    C8 9158   4.200   3.291  16.275 -0.1091  0.2327  0.1185
  614TMC3    O1 9159   4.374   3.818  16.405  0.4960 -0.0739 -0.1683
  614TMC3    O2 9160   4.150   3.204  16.351 -0.3967 -0.1350  0.2202
  615MPD2     C 9161   3.739   0.732  16.551 -0.3424  0.1959  0.3301
  615MPD2    C1 9162   3.628   0.812  16.565  0.4822 -0.0392  0.0835
  615MPD2    C2 9163   3.537   0.797  16.468 -0.4915  0.2806  0.0650
  615MPD2    C3 9164   3.544   0.710  16.362 -0.2111 -0.5890 -0.0614
  615MPD2    C4 9165   3.663   0.650  16.342 -0.0709 -0.3366  0.3202
  615MPD2    C5 9166   3.758   0.654  16.440  0.3481 -0.0152  0.2396
  615MPD2     H 9167   3.448   0.858  16.479 -2.0685 -2.1388  0.7178
  615MPD2    H1 9168   3.680   0.594  16.251 -0.5537 -0.2523  0.1778
  615MPD2    H2 9169   3.818   0.751  16.623  0.6449 -1.0001 -0.4463
  615MPD2    H3 9170   3.852   0.599  16.441  0.1846 -0.2916  0.3454
  615MPD2     N 9171   3.451   0.719  16.260  0.8046 -0.4013  0.4628
  615MPD2    H5 9172   3.463   0.657  16.180 -0.0560  0.6455 -0.4800
  615MPD2    N1 9173   3.597   0.905  16.669  0.0902 -0.0397 -0.0093
  615MPD2    H7 9174   3.506   0.948  16.656 -0.5486 -1.5217 -0.3856
  616TMC3    C1 9175   3.643   1.041  16.862 -0.2488 -0.0318 -0.0440
  616TMC3    C2 9176   3.751   1.097  16.924 -0.8836 -0.6620 -0.3458
  616TMC3    C3 9177   3.758   1.236  16.950 -0.3365 -0.8022 -0.6193
  616TMC3    C4 9178   3.535   1.119  16.837  0.0865 -0.0582  0.3357
  616TMC3    C5 9179   3.536   1.249  16.872  0.5770 -0.4202 -0.0433
  616TMC3    C6 9180   3.645   1.308  16.922 -0.4556  0.2167  0.5452
  616TMC3     C 9181   3.687   0.942  16.766  0.6970 -0.6700  0.2058
  616TMC3     O 9182   3.802   0.918  16.780 -0.0238 -0.7398 -0.6330
  616TMC3     H 9183   3.832   1.037  16.963  0.0541  2.0853  1.9061
  616TMC3    H1 9184   3.444   1.067  16.807 -0.0447  1.6824 -2.2131
  616TMC3    H2 9185   3.642   1.414  16.944 -0.3675  0.3351 -0.0070
  616TMC3    C7 9186   3.409   1.320  16.894 -0.3941 -0.8584 -0.3041
  616TMC3    C8 9187   3.886   1.300  16.917  0.3047  0.0331  0.0144
  616TMC3    O1 9188   3.410   1.432  16.948 -0.4517 -0.2249  0.1941
  616TMC3    O2 9189   3.915   1.416  16.948  0.0048 -0.0784 -0.2752
  617MPD2     C 9190   1.534   3.755  13.722 -0.2892  0.1553 -0.0441
  617MPD2    C1 9191   1.558   3.624  13.764 -0.7939 -0.0903 -0.3158
  617MPD2    C2 9192   1.494   3.575  13.877 -0.3424 -0.1048 -0.2435
  617MPD2    C3 9193   1.406   3.656  13.947 -0.1764 -0.3368  0.9503
  617MPD2    C4 9194   1.385   3.785  13.903  0.0262  0.1398  0.7268
  617MPD2    C5 9195   1.445   3.832  13.789 -1.0822  1.0072  0.1796
  617MPD2     H 9196   1.510   3.471  13.906 -0.5323 -0.5483 -1.7539
  617MPD2    H1 9197   1.321   3.851  13.960  0.4622  0.8583  0.3838
  617MPD2    H2 9198   1.583   3.790  13.632 -1.0600 -2.1376 -1.3568
  617MPD2    H3 9199   1.431   3.936  13.760  1.4439  2.0704  2.8551
  617MPD2     N 9200   1.334   3.608  14.060 -0.5582 -0.4099  0.2170
  617MPD2    H5 9201   1.283   3.674  14.118  0.8806  0.1514  0.8525
  617MPD2    N1 9202   1.650   3.549  13.690  0.3969  1.1328  0.3354
  617MPD2    H7 9203   1.680   3.599  13.607 -0.1593  1.0660  0.0945
  618TMC3    C1 9204   1.786   3.374  13.610 -0.1485 -0.2018 -0.1069
  618TMC3    C2 9205   1.898   3.310  13.643  0.3741  0.5378 -0.4973
  618TMC3    C3 9206   1.977   3.260  13.548 -0.4133 -0.3909 -0.2474
  618TMC3    C4 9207   1.754   3.405  13.482  0.5504  0.3792 -0.5464
  618TMC3    C5 9208   1.838   3.360  13.385 -0.0701  0.5362 -0.9489
  618TMC3    C6 9209   1.954   3.291  13.414  0.1670  0.3942  0.6286
  618TMC3     C 9210   1.715   3.432  13.721  0.3871  0.0375  0.4443
  618TMC3     O 9211   1.712   3.361  13.826  0.4434 -0.0782 -0.2161
  618TMC3     H 9212   1.928   3.283  13.744 -3.0472 -1.0887  0.0810
  618TMC3    H1 9213   1.668   3.465  13.456  1.1482  0.9380 -1.2346
  618TMC3    H2 9214   2.040   3.274  13.350 -0.7687 -2.1471  0.0293
  618TMC3    C7 9215   1.799   3.378  13.246  0.6317 -0.0129 -0.3047
  618TMC3    C8 9216   2.124   3.235  13.579 -0.3717  0.1512  0.3640
  618TMC3    O1 9217   1.702   3.448  13.226 -0.5859  0.4014  0.8600
  618TMC3    O2 9218   2.174   3.314  13.656  0.4649 -0.4060 -0.3858
  619MPD2     C 9219   3.031   4.600  14.260  0.2531  0.1364  0.0476
  619MPD2    C1 9220   2.963   4.582  14.148 -0.5836 -0.2346  0.5018
  619MPD2    C2 9221   2.837   4.526  14.146 -0.4034  0.0797  0.0716
  619MPD2    C3 9222   2.781   4.469  14.255 -0.1347 -0.7831  0.1039
  619MPD2    C4 9223   2.851   4.486  14.373 -0.2427 -0.4973  0.3120
  619MPD2    C5 9224   2.978   4.542  14.370 -0.3121 -0.2378 -0.0171
  619MPD2     H 9225   2.779   4.527  14.054 -0.0975  1.2829 -0.1035
  619MPD2    H1 9226   2.809   4.462  14.470 -3.6099  2.0318 -0.5190
  619MPD2    H2 9227   3.130   4.643  14.273  0.1741  0.0910  0.8303
  619MPD2    H3 9228   3.019   4.543  14.470  1.1376 -1.2642 -0.6102
  619MPD2     N 9229   2.648   4.427  14.258  0.0857  0.2205  0.2537
  619MPD2    H5 9230   2.600   4.418  14.347 -1.0062 -2.5269 -0.6123
  619MPD2    N1 9231   3.020   4.615  14.026 -0.7242 -0.8295  0.5625
  619MPD2    H7 9232   2.957   4.596  13.949  0.4930  0.1546 -0.6675
  620TMC3    C1 9233   3.160   4.677  13.851 -0.1829  0.2474  0.0142
  620TMC3    C2 9234   3.043   4.650  13.779  0.0900 -0.1526 -0.5107
  620TMC3    C3 9235   3.005   0.007  13.685 -0.3068 -0.0393 -0.1188
  620TMC3    C4 9236   3.238   0.057  13.820 -0.5256  0.1569 -0.4003
  620TMC3    C5 9237   3.185   0.146  13.732 -0.2103 -0.7163 -0.5377
  620TMC3    C6 9238   3.077   0.121  13.657 -0.4256  0.4881 -0.7488
  620TMC3     C 9239   3.149   4.651  13.994 -0.4074  0.3162 -0.5154
  620TMC3     O 9240   3.237   4.695  14.065 -0.0575  0.1355 -0.4122
  620TMC3     H 9241   2.987   4.558  13.794 -1.5881  0.7066 -1.5772
  620TMC3    H1 9242   3.325   0.081  13.880 -1.1416  2.5493 -0.4719
  620TMC3    H2 9243   3.043   0.194  13.584  1.1277 -0.3210 -2.2579
  620TMC3    C7 9244   3.225   0.291  13.724  0.1615  0.4251 -0.3059
  620TMC3    C8 9245   2.868   0.041  13.687 -0.0335 -0.5964 -0.0308
  620TMC3    O1 9246   3.186   0.367  13.634  0.3902 -0.4043 -0.0471
  620TMC3    O2 9247   2.835   0.159  13.681  0.0403 -0.4083  0.2401
  621MPD2     C 9248   3.780   0.357   9.700  0.3271  0.0737  0.3460
  621MPD2    C1 9249   3.695   0.442   9.637 -0.0058  0.5896  0.0468
  621MPD2    C2 9250   3.748   0.539   9.553 -0.1073 -0.4501 -0.3977
  621MPD2    C3 9251   3.885   0.568   9.551 -0.2888 -1.0919 -0.7684
  621MPD2    C4 9252   3.971   0.484   9.625  0.0894  0.2053  0.2888
  621MPD2    C5 9253   3.916   0.384   9.701 -0.0555 -0.1078  0.0877
  621MPD2     H 9254   3.676   0.600   9.499  0.1599  1.6093  1.5631
  621MPD2    H1 9255   4.077   0.505   9.636  0.1157  0.4338 -0.4290
  621MPD2    H2 9256   3.744   0.277   9.764 -1.4681  0.4252 -0.2305
  621MPD2    H3 9257   3.977   0.318   9.760  1.8470  1.3740 -0.2143
  621MPD2     N 9258   3.939   0.672   9.476 -0.7406  0.1575  0.2690
  621MPD2    H5 9259   4.041   0.669   9.479 -0.7569  0.9837  2.0343
  621MPD2    N1 9260   3.555   0.425   9.634  0.2399 -1.0305 -0.5350
  621MPD2    H7 9261   3.513   0.495   9.574  0.2603 -0.1986  0.4103
  622TMC3    C1 9262   3.349   0.320   9.647  1.0838 -0.5913  0.2942
  622TMC3    C2 9263   3.276   0.217   9.708 -0.8734 -0.3114 -0.0590
  622TMC3    C3 9264   3.184   0.150   9.628 -0.1977  0.6183 -0.7550
  622TMC3    C4 9265   3.335   0.357   9.516  0.0393  0.4819  0.0238
  622TMC3    C5 9266   3.225   0.296   9.453  0.8274  0.1479  0.0209
  622TMC3    C6 9267   3.151   0.193   9.511  0.7538 -0.1205 -0.4847
  622TMC3     C 9268   3.480   0.335   9.703  0.6162 -0.0261  0.4002
  622TMC3     O 9269   3.510   0.277   9.806  0.8099 -0.1585 -0.0447
  622TMC3     H 9270   3.313   0.176   9.801 -2.4285  1.8133  1.4948
  622TMC3    H1 9271   3.403   0.423   9.462 -0.3577  1.5270  0.8041
  622TMC3    H2 9272   3.087   0.132   9.448 -2.2409  1.1595  1.3187
  622TMC3    C7 9273   3.186   0.342   9.325 -0.5963 -0.3282  0.8483
  622TMC3    C8 9274   3.099   0.053   9.691 -0.4612 -0.7322  0.1163
  622TMC3    O1 9275   3.277   0.356   9.244 -0.0702 -0.3442 -0.0494
  622TMC3    O2 9276   3.036   4.723   9.611  1.0141 -0.1468 -0.1849
  623MPD2     C 9277   2.140   0.402  15.787 -0.0848 -0.2472  0.2717
  623MPD2    C1 9278   2.024   0.441  15.862 -0.6889  0.2505  0.1251
  623MPD2    C2 9279   2.043   0.493  15.983  1.1516  0.0681 -0.4092
  623MPD2    C3 9280   2.163   0.532  16.029 -0.1895 -0.0613 -0.7188
  623MPD2    C4 9281   2.277   0.492  15.958 -0.5831 -0.1978 -0.6181
  623MPD2    C5 9282   2.268   0.423  15.843  0.3449 -0.0214  0.1449
  623MPD2     H 9283   1.953   0.526  16.032  1.2173  0.4986 -0.5751
  623MPD2    H1 9284   2.375   0.524  15.989  0.3131 -1.6356 -1.9892
  623MPD2    H2 9285   2.142   0.344  15.695 -1.9423  0.8715 -0.4762
  623MPD2    H3 9286   2.348   0.376  15.787 -0.7119 -0.8745 -0.6503
  623MPD2     N 9287   2.175   0.610  16.151  0.0384 -0.6776  0.3907
  623MPD2    H5 9288   2.084   0.632  16.192 -0.6380 -1.3997 -0.7138
  623MPD2    N1 9289   1.891   0.420  15.818 -0.2044 -0.1818 -0.2740
  623MPD2    H7 9290   1.813   0.427  15.882  0.8320  0.9099  0.8634
  624TMC3    C1 9291   2.349   0.846  16.506 -0.9716 -0.2025  0.6897
  624TMC3    C2 9292   2.273   0.959  16.479  0.4951  0.0120 -0.0028
  624TMC3    C3 9293   2.193   0.953  16.374  0.1633 -0.7489 -0.0681
  624TMC3    C4 9294   2.355   0.738  16.413 -0.5025 -0.2370 -0.8723
  624TMC3    C5 9295   2.272   0.751  16.306  0.1838  0.4898  0.3762
  624TMC3    C6 9296   2.190   0.851  16.287  0.4413  0.0049  0.3905
  624TMC3     C 9297   2.444   0.859  16.618 -0.0141 -0.4542 -0.5483
  624TMC3     O 9298   2.453   0.969  16.661 -0.3295  0.2093  0.0625
  624TMC3     H 9299   2.269   1.050  16.538  1.7614  0.7837 -1.1205
  624TMC3    H1 9300   2.413   0.648  16.425 -0.6559 -0.5038 -2.1255
  624TMC3    H2 9301   2.130   0.855  16.196  0.4138 -2.7300  0.2860
  624TMC3    C7 9302   2.292   0.651  16.204 -0.6797 -0.1905  0.2883
  624TMC3    C8 9303   2.061   0.961  16.421 -0.7324  0.2720 -0.0759
  624TMC3    O1 9304   2.408   0.626  16.172  0.4303 -0.2666  0.0077
  624TMC3    O2 9305   2.009   0.850  16.443  0.1609  0.1623  0.4691
  625MPD2     C 9306   2.674   1.562   0.699  0.4004 -0.2735  0.8716
  625MPD2    C1 9307   2.737   1.685   0.716  0.3661  0.3651 -0.2698
  625MPD2    C2 9308   2.860   1.690   0.782  0.4524  0.7610 -0.2760
  625MPD2    C3 9309   2.925   1.576   0.832  0.6768 -0.1919  0.3066
  625MPD2    C4 9310   2.863   1.453   0.814  0.5443  0.3066  0.1547
  625MPD2    C5 9311   2.740   1.454   0.751 -0.5210 -0.2413  0.2995
  625MPD2     H 9312   2.908   1.787   0.794  0.3661  0.9205 -1.1703
  625MPD2    H1 9313   2.907   1.364   0.857  0.1782  1.0743  2.1146
  625MPD2    H2 9314   2.574   1.550   0.660  0.7215  0.6806 -0.2493
  625MPD2    H3 9315   2.684   1.363   0.738  0.8443 -0.9166 -0.8529
  625MPD2     N 9316   3.055   1.591   0.883 -0.0962  0.1291  0.1565
  625MPD2    H5 9317   3.098   1.682   0.892  1.5422 -0.4486 -1.7608
  625MPD2    N1 9318   2.674   1.810   0.687  0.5244  0.2383  0.3190
  625MPD2    H7 9319   2.726   1.895   0.704  2.0502 -0.6224 -0.0001
  626TMC3    C1 9320   2.501   1.954   0.631 -0.5217 -0.0117  0.5428
  626TMC3    C2 9321   2.415   1.986   0.532  0.1092 -0.8342  0.4169
  626TMC3    C3 9322   2.343   2.102   0.542  0.0540 -0.8331  0.7091
  626TMC3    C4 9323   2.522   2.040   0.735 -0.2492  0.3313 -0.1554
  626TMC3    C5 9324   2.442   2.144   0.750 -0.1118  0.3162  0.3086
  626TMC3    C6 9325   2.347   2.175   0.656 -0.1893  0.5233 -0.9059
  626TMC3     C 9326   2.553   1.819   0.629  0.3506 -0.0377 -0.8543
  626TMC3     O 9327   2.482   1.742   0.563 -0.7385  0.2668 -0.5891
  626TMC3     H 9328   2.382   1.925   0.449  0.6608 -0.9177  0.2588
  626TMC3    H1 9329   2.590   2.018   0.816  2.0029  0.4127 -2.0369
  626TMC3    H2 9330   2.287   2.265   0.670 -0.3317  0.1233  1.0284
  626TMC3    C7 9331   2.421   2.174   0.891  0.8459 -0.3947 -0.4127
  626TMC3    C8 9332   2.335   2.180   0.419 -0.1329  0.2237 -0.0930
  626TMC3    O1 9333   2.509   2.151   0.977  0.3243  0.6034 -0.0092
  626TMC3    O2 9334   2.393   2.144   0.317  0.5796 -0.1690 -0.0120
  627MPD2     C 9335   1.097   2.239  14.286  0.0388  0.3495 -0.4838
  627MPD2    C1 9336   1.169   2.169  14.380 -0.1581  0.6413  0.2495
  627MPD2    C2 9337   1.115   2.059  14.436  0.2566 -1.3917 -0.5762
  627MPD2    C3 9338   0.991   2.013  14.397  0.1337  0.4238  1.5769
  627MPD2    C4 9339   0.924   2.086  14.296  0.8944 -0.2571 -0.2034
  627MPD2    C5 9340   0.976   2.200  14.245  0.6254  0.2090 -0.3228
  627MPD2     H 9341   1.182   2.002  14.499  2.2294  1.5828 -0.0339
  627MPD2    H1 9342   0.819   2.061  14.284 -0.0819  4.4218 -1.3545
  627MPD2    H2 9343   1.138   2.327  14.237  0.8723 -0.8052 -1.8639
  627MPD2    H3 9344   0.917   2.262  14.177  0.8164  0.8596  0.1078
  627MPD2     N 9345   0.947   1.885  14.434  0.1325 -0.6865 -0.1876
  627MPD2    H5 9346   0.985   1.839  14.515 -0.8046 -1.4509 -0.1767
  627MPD2    N1 9347   1.301   2.209  14.420  0.3097  0.6736  0.3912
  627MPD2    H7 9348   1.357   2.150  14.480  0.4911 -0.8586 -1.2760
  628TMC3    C1 9349   1.466   2.357  14.499  0.0105 -0.8811  0.4157
  628TMC3    C2 9350   1.568   2.269  14.486  0.2424  0.3999 -0.0222
  628TMC3    C3 9351   1.684   2.303  14.543 -0.0715 -0.0886 -0.8954
  628TMC3    C4 9352   1.480   2.479  14.563  0.3739 -0.5161 -0.1239
  628TMC3    C5 9353   1.599   2.512  14.626 -0.2665  0.4714  0.0928
  628TMC3    C6 9354   1.703   2.426  14.613 -0.4346 -0.3427  0.0265
  628TMC3     C 9355   1.347   2.335  14.418 -0.0260  0.4611 -0.1858
  628TMC3     O 9356   1.287   2.436  14.378  0.3574  0.1878  0.7921
  628TMC3     H 9357   1.557   2.186  14.417 -0.0860 -0.2137  0.7625
  628TMC3    H1 9358   1.391   2.539  14.578 -0.4745 -1.4492 -1.5035
  628TMC3    H2 9359   1.799   2.470  14.637  0.5739 -2.5461  0.0908
  628TMC3    C7 9360   1.616   2.647  14.679  0.5038  0.1913 -0.6808
  628TMC3    C8 9361   1.812   2.250  14.488 -0.7236 -0.0718 -0.3284
  628TMC3    O1 9362   1.706   2.665  14.764  0.4163  0.3378  0.5721
  628TMC3    O2 9363   1.807   2.203  14.376  0.0269 -0.1994 -0.4840
  629MPD2     C 9364   4.220   1.290  16.528 -0.1774  0.7478 -0.1611
  629MPD2    C1 9365   4.141   1.176  16.531 -0.1292  0.2884 -0.1742
  629MPD2    C2 9366   4.037   1.160  16.624 -0.2832 -0.9605  0.2656
  629MPD2    C3 9367   4.027   1.253  16.724 -0.1285  0.2232 -0.4604
  629MPD2    C4 9368   4.103   1.366  16.726 -0.2763 -0.4556 -0.1673
  629MPD2    C5 9369   4.201   1.383  16.628 -0.0049  0.0786  1.2029
  629MPD2     H 9370   3.971   1.074  16.624 -2.4778  0.7352  0.5345
  629MPD2    H1 9371   4.093   1.454  16.789 -0.2552 -0.2880 -0.3991
  629MPD2    H2 9372   4.308   1.304  16.465  0.6634  1.0165  1.0767
  629MPD2    H3 9373   4.264   1.472  16.630  1.8289 -1.2395  2.0136
  629MPD2     N 9374   3.940   1.221  16.828 -0.8736 -0.4786 -0.4501
  629MPD2    H5 9375   3.898   1.129  16.836  0.2094 -0.9106  0.2129
  629MPD2    N1 9376   4.167   1.070  16.440 -0.0316  0.3446  0.2933
  629MPD2    H7 9377   4.241   1.089  16.373  0.5313  0.8898  1.0669
  630TMC3    C1 9378   4.158   0.871  16.319  0.0436 -0.2841 -0.2818
  630TMC3    C2 9379   4.242   0.922  16.223 -0.0836 -0.5045 -0.4882
  630TMC3    C3 9380   4.302   0.832  16.138  0.0180 -0.3314 -0.5245
  630TMC3    C4 9381   4.136   0.738  16.342 -0.8228 -0.5778 -0.1294
  630TMC3    C5 9382   4.209   0.651  16.268 -0.0108  0.2771 -1.0294
  630TMC3    C6 9383   4.296   0.700  16.169 -0.0224 -0.0025 -0.2483
  630TMC3     C 9384   4.104   0.950  16.428 -0.7123  0.4502 -0.7968
  630TMC3     O 9385   4.004   0.901  16.486 -0.1953 -0.1537 -0.0278
  630TMC3     H 9386   4.268   1.027  16.212  1.1011 -0.9933 -2.2574
  630TMC3    H1 9387   4.086   0.707  16.433  0.9965  1.0369  1.4049
  630TMC3    H2 9388   4.351   0.628  16.109 -1.3863 -0.8636 -0.4500
  630TMC3    C7 9389   4.268   0.539  16.339 -0.3706 -0.3100  0.0938
  630TMC3    C8 9390   4.435   0.867  16.084 -1.2152 -0.2495  0.7587
  630TMC3    O1 9391   4.194   0.503  16.425 -0.4428  0.4083 -0.2204
  630TMC3    O2 9392   4.526   0.784  16.095  0.3305 -0.2965  0.3586
  631MPD2     C 9393   2.517   0.840  15.744  0.2694 -0.1773 -0.0721
  631MPD2    C1 9394   2.601   0.944  15.735 -0.0406  0.0227  0.2716
  631MPD2    C2 9395   2.731   0.915  15.775  0.7371  0.2282 -0.3576
  631MPD2    C3 9396   2.772   0.797  15.833 -0.1723 -0.2931 -0.2505
  631MPD2    C4 9397   2.673   0.706  15.864  0.1641 -0.4711 -0.8015
  631MPD2    C5 9398   2.549   0.724  15.809 -0.7320  0.2954  0.2826
  631MPD2     H 9399   2.809   0.987  15.750  0.0461  0.8030 -0.8860
  631MPD2    H1 9400   2.697   0.618  15.922 -0.5595 -0.6213 -0.7210
  631MPD2    H2 9401   2.413   0.838  15.714  0.7831 -0.6628 -1.7781
  631MPD2    H3 9402   2.473   0.650  15.832 -0.2971 -0.2717 -0.1321
  631MPD2     N 9403   2.912   0.784  15.873  0.4454 -0.0378  0.7764
  631MPD2    H5 9404   2.974   0.860  15.849 -0.8949  0.3258 -1.4952
  631MPD2    N1 9405   2.548   1.063  15.683  0.0431  0.0117 -0.2103
  631MPD2    H7 9406   2.459   1.056  15.635 -0.2099 -0.3762  0.3057
  632TMC3    C1 9407   2.533   1.292  15.661  0.1476 -0.6045 -0.4558
  632TMC3    C2 9408   2.407   1.331  15.677 -0.5755  0.9141 -0.4185
  632TMC3    C3 9409   2.361   1.427  15.591  0.3113  0.3587  0.5077
  632TMC3    C4 9410   2.618   1.368  15.588 -0.4629 -0.0474  0.6475
  632TMC3    C5 9411   2.570   1.466  15.501 -0.2339 -1.0778  0.8102
  632TMC3    C6 9412   2.439   1.495  15.495 -0.3523 -0.3090  0.2939
  632TMC3     C 9413   2.599   1.183  15.719  0.4816 -0.1140 -0.1937
  632TMC3     O 9414   2.699   1.201  15.790  0.2922 -0.0943 -0.3315
  632TMC3     H 9415   2.353   1.274  15.752  1.0323  2.8951  2.2429
  632TMC3    H1 9416   2.716   1.323  15.573 -0.6060 -0.0520 -0.2615
  632TMC3    H2 9417   2.408   1.583  15.439 -0.6668 -0.0492  0.8735
  632TMC3    C7 9418   2.650   1.521  15.397 -0.8439  0.3793 -0.4614
  632TMC3    C8 9419   2.216   1.420  15.582  0.0526  0.3642 -1.1024
  632TMC3    O1 9420   2.607   1.572  15.295  0.0086  0.0362 -0.6273
  632TMC3    O2 9421   2.162   1.328  15.641  0.3516 -0.0491  0.3585
  633MPD2     C 9422   2.494   3.650  17.479 -0.3752 -1.0414  0.1747
  633MPD2    C1 9423   2.492   3.560  17.376  0.3226 -0.1837 -0.6531
  633MPD2    C2 9424   2.513   3.430  17.415  0.4312 -0.6344  0.1478
  633MPD2    C3 9425   2.548   3.399  17.547  0.6523 -0.4800 -0.4064
  633MPD2    C4 9426   2.568   3.499  17.637 -0.1794  0.4027  0.1755
  633MPD2    C5 9427   2.532   3.629  17.604  0.6193  0.3494 -1.0369
  633MPD2     H 9428   2.521   3.353  17.338 -1.8856  0.3913 -1.0846
  633MPD2    H1 9429   2.601   3.501  17.740  0.6531  0.4492 -0.0898
  633MPD2    H2 9430   2.469   3.755  17.467 -0.7830 -1.0305  1.0573
  633MPD2    H3 9431   2.532   3.708  17.678 -1.8705 -1.0337  0.4515
  633MPD2     N 9432   2.592   3.276  17.592 -0.6273 -0.0151  0.4897
  633MPD2    H5 9433   2.636   3.272  17.684  2.6804  1.8608 -1.0126
  633MPD2    N1 9434   2.467   3.594  17.241  0.6740  0.2903 -0.2069
  633MPD2    H7 9435   2.469   3.512  17.181 -1.8231  0.2486 -0.2444
  634TMC3    C1 9436   2.437   3.740  17.048  0.1711 -0.4287  1.0404
  634TMC3    C2 9437   2.475   3.644  16.960 -0.2376  0.4313 -0.1119
  634TMC3    C3 9438   2.484   3.675  16.829  0.9999  0.2231 -1.1364
  634TMC3    C4 9439   2.412   3.866  17.007 -0.0857 -0.0497  0.4107
  634TMC3    C5 9440   2.408   3.890  16.869 -0.7622 -0.6533 -0.1997
  634TMC3    C6 9441   2.457   3.796  16.778  0.3914  0.6051 -0.0571
  634TMC3     C 9442   2.451   3.723  17.191  0.3143  0.1119  0.0217
  634TMC3     O 9443   2.449   3.832  17.252 -0.2376  0.0277 -0.3246
  634TMC3     H 9444   2.498   3.542  16.986 -1.9518 -0.4546 -2.0718
  634TMC3    H1 9445   2.363   3.936  17.074  0.7589  0.4558  0.4998
  634TMC3    H2 9446   2.463   3.822  16.673 -2.6488  0.6093 -0.2421
  634TMC3    C7 9447   2.361   4.017  16.813 -0.1172  0.2538 -0.0988
  634TMC3    C8 9448   2.496   3.561  16.743  0.2617  0.3911 -0.2195
  634TMC3    O1 9449   2.346   4.025  16.692 -0.0780  0.1342  0.1189
  634TMC3    O2 9450   2.465   3.452  16.788 -0.2067 -0.3410 -0.2950
  635TMC3    C1 9451   2.601   0.071   0.035 -0.2732  0.6452  0.2143
  635TMC3    C2 9452   2.634   4.701  17.699 -0.3046  0.6577 -0.3110
  635TMC3    C3 9453   2.589   4.576  17.738  0.6735  0.6002  0.8032
  635TMC3    C4 9454   2.527   0.048   0.148  0.3400 -0.2312  0.3563
  635TMC3    C5 9455   2.478   4.661   0.177  0.1446  0.7086 -0.5437
  635TMC3    C6 9456   2.508   4.555   0.092 -0.4627 -0.5696 -1.1559
  635TMC3     C 9457   2.661   0.203   0.026 -0.3891  0.4423 -0.3044
  635TMC3     O 9458   2.654   0.276   0.123  0.2024  0.4778  0.1795
  635TMC3     H 9459   2.706   4.712  17.619  0.1978 -0.3459  0.0014
  635TMC3    H1 9460   2.507   0.140   0.202 -2.1366  0.4413 -1.7004
  635TMC3    H2 9461   2.458   4.462   0.116 -1.2766  0.2125  0.1807
  635TMC3    C7 9462   2.371   4.628   0.275  0.1461  0.3939  0.6619
  635TMC3    C8 9463   2.638   4.470  17.659 -0.2083 -0.1391  0.5925
  635TMC3    O1 9464   2.330   4.513   0.282 -0.1474 -0.4038  0.1153
  635TMC3    O2 9465   2.676   4.499  17.545 -0.0182 -0.4768 -0.0934
  636MPD2     C 9466   3.563   4.306  16.356 -0.0909  0.2177  1.0979
  636MPD2    C1 9467   3.519   4.277  16.489  0.6839  0.7142 -0.2763
  636MPD2    C2 9468   3.538   4.149  16.535 -1.0044 -0.4806 -1.1799
  636MPD2    C3 9469   3.580   4.049  16.452 -0.2546  0.1521 -0.2157
  636MPD2    C4 9470   3.625   4.080  16.324  0.2532  0.2194  0.4627
  636MPD2    C5 9471   3.615   4.209  16.280  0.4216  0.0795  0.4206
  636MPD2     H 9472   3.509   4.126  16.637  1.3083  3.2535  0.3361
  636MPD2    H1 9473   3.652   4.000  16.256  0.8686  1.0689 -0.2947
  636MPD2    H2 9474   3.555   4.398  16.301 -0.8932 -2.1443 -2.7652
  636MPD2    H3 9475   3.644   4.239  16.179  0.3222  1.5028  0.8073
  636MPD2     N 9476   3.571   3.916  16.495  0.0274 -0.1708 -0.0505
  636MPD2    H5 9477   3.524   3.905  16.584  2.1409 -0.9240  0.9521
  636MPD2    N1 9478   3.462   4.374  16.579  0.7198  0.0907 -0.6706
  636MPD2    H7 9479   3.438   4.337  16.671  2.2942 -1.6066 -0.9452
  637TMC3    C1 9480   3.593   3.681  16.512 -0.0552 -0.6735  0.0083
  637TMC3    C2 9481   3.629   3.670  16.641 -0.1133  0.1845  0.3681
  637TMC3    C3 9482   3.651   3.543  16.682 -0.4101  0.9011  0.0156
  637TMC3    C4 9483   3.576   3.575  16.426  0.4803 -0.4594 -0.3444
  637TMC3    C5 9484   3.604   3.450  16.466 -0.1197 -0.3730  0.1149
  637TMC3    C6 9485   3.631   3.437  16.601  0.3222  0.0618  0.1726
  637TMC3     C 9486   3.608   3.802  16.436 -0.0237  0.2087  0.4501
  637TMC3     O 9487   3.659   3.790  16.326 -0.0271 -0.2633 -0.0726
  637TMC3     H 9488   3.643   3.758  16.703 -0.1982 -0.0989  0.7864
  637TMC3    H1 9489   3.566   3.593  16.320  1.2162 -1.3971 -0.5709
  637TMC3    H2 9490   3.647   3.337  16.640 -2.9064 -0.5987 -0.2043
  637TMC3    C7 9491   3.711   3.387  16.399  0.4209 -1.0613 -0.0703
  637TMC3    C8 9492   3.776   3.535  16.753 -0.5637 -0.0931 -0.4581
  637TMC3    O1 9493   3.808   3.365  16.471 -0.0790 -0.2634 -0.4577
  637TMC3    O2 9494   3.863   3.624  16.737 -0.3682 -0.4290  0.2935
  638MPD2     C 9495   3.724   2.930  14.818 -0.0490  0.2559 -0.4423
  638MPD2    C1 9496   3.607   2.893  14.749  0.1595 -0.2658 -0.5205
  638MPD2    C2 9497   3.543   2.768  14.797 -0.1700  0.0074  0.2529
  638MPD2    C3 9498   3.575   2.704  14.919  0.1471  0.1528 -0.6696
  638MPD2    C4 9499   3.680   2.766  14.994 -0.3956  0.4660 -0.4603
  638MPD2    C5 9500   3.743   2.875  14.940 -0.9865 -0.5745  1.1056
  638MPD2     H 9501   3.459   2.727  14.742 -1.2848 -1.4818  3.0636
  638MPD2    H1 9502   3.723   2.737  15.090 -1.6494  2.7344  0.7775
  638MPD2    H2 9503   3.787   3.010  14.782 -1.4545  2.0330  1.0744
  638MPD2    H3 9504   3.839   2.899  14.985  0.5979 -2.3123 -1.3447
  638MPD2     N 9505   3.506   2.589  14.966  0.2537 -0.3789  0.2359
  638MPD2    H5 9506   3.414   2.577  14.926 -0.9496  0.0212  2.8532
  638MPD2    N1 9507   3.582   2.950  14.628  0.2303 -0.1387 -0.0262
  638MPD2    H7 9508   3.658   2.997  14.581 -0.5819  0.6233 -0.5566
  639TMC3    C1 9509   3.446   2.421  15.119 -0.1606 -0.3570  0.1515
  639TMC3    C2 9510   3.324   2.402  15.064  0.4641  0.0800  0.0023
  639TMC3    C3 9511   3.242   2.299  15.120 -0.5308  0.0687 -0.2440
  639TMC3    C4 9512   3.489   2.340  15.221  0.0887 -0.7692  0.7370
  639TMC3    C5 9513   3.400   2.248  15.271 -0.0977  0.0011  0.5612
  639TMC3    C6 9514   3.275   2.221  15.228  0.3868 -1.0855 -0.2412
  639TMC3     C 9515   3.542   2.514  15.071 -0.4540  0.2309 -0.3067
  639TMC3     O 9516   3.658   2.500  15.103 -0.0379 -0.1214 -0.1751
  639TMC3     H 9517   3.293   2.455  14.975 -2.5657  0.4864  1.3193
  639TMC3    H1 9518   3.587   2.356  15.263  0.7685  1.3039 -1.6389
  639TMC3    H2 9519   3.213   2.137  15.260 -1.4614 -0.1216 -1.3155
  639TMC3    C7 9520   3.459   2.144  15.353  0.5927  0.4746  0.1927
  639TMC3    C8 9521   3.145   2.249  15.020 -0.5142  0.4443  0.2590
  639TMC3    O1 9522   3.405   2.087  15.445 -0.1522 -0.0198  0.2927
  639TMC3    O2 9523   3.163   2.279  14.906 -0.1377  0.8763 -0.3270
  640MPD2     C 9524   3.892   1.546  10.174  0.1791 -0.7096 -0.6442
  640MPD2    C1 9525   3.886   1.636  10.065  0.5164 -0.6636 -0.5636
  640MPD2    C2 9526   3.810   1.752  10.076  0.0600 -0.3663  0.2352
  640MPD2    C3 9527   3.756   1.787  10.196 -0.6562 -1.2582 -0.2446
  640MPD2    C4 9528   3.763   1.703  10.309  0.5986 -0.2435  0.4399
  640MPD2    C5 9529   3.831   1.579  10.293  0.0071 -0.1940 -0.3107
  640MPD2     H 9530   3.792   1.818   9.992 -0.3307  0.5315  1.0402
  640MPD2    H1 9531   3.728   1.732  10.407 -0.6542  0.9754 -0.3659
  640MPD2    H2 9532   3.941   1.449  10.169  0.3478 -0.5980 -1.1001
  640MPD2    H3 9533   3.821   1.505  10.372  0.5259 -0.2173 -0.2697
  640MPD2     N 9534   3.686   1.902  10.220 -0.0003 -0.3822 -0.1379
  640MPD2    H5 9535   3.626   1.890  10.301  0.2481 -0.6460  0.0060
  640MPD2    N1 9536   3.955   1.602   9.946 -0.3543 -0.1884  0.1777
  640MPD2    H7 9537   3.988   1.506   9.940  0.9844  0.2363  0.6998
  641TMC3    C1 9538   4.020   1.623   9.718  0.1562  0.1881  0.0247
  641TMC3    C2 9539   4.135   1.548   9.740  0.4377 -0.4058  0.8345
  641TMC3    C3 9540   4.200   1.496   9.625 -0.6888  0.5369  0.4438
  641TMC3    C4 9541   3.989   1.672   9.594 -0.3939 -0.4811  0.3075
  641TMC3    C5 9542   4.052   1.621   9.484  0.3415 -0.2802  0.3424
  641TMC3    C6 9543   4.153   1.526   9.500  0.3120  0.0771 -0.0152
  641TMC3     C 9544   3.967   1.689   9.837 -0.2175 -0.0591  0.3471
  641TMC3     O 9545   3.948   1.806   9.825 -0.0706 -0.7740 -0.6973
  641TMC3     H 9546   4.161   1.518   9.841  0.9392 -1.3045  0.4395
  641TMC3    H1 9547   3.892   1.722   9.592 -0.1757 -0.0222  1.1416
  641TMC3    H2 9548   4.197   1.473   9.417  0.2460 -0.1812  0.1145
  641TMC3    C7 9549   3.978   1.611   9.365  0.4686  0.0086  0.3908
  641TMC3    C8 9550   4.292   1.380   9.629  0.3394 -0.0951  0.4355
  641TMC3    O1 9551   3.996   1.515   9.291  0.4078 -0.2057  0.1487
  641TMC3    O2 9552   4.331   1.321   9.530 -0.1123  0.8190 -0.2804
  642TMC3    C1 9553   0.759   2.675  12.341 -0.1697 -0.0009 -1.0645
  642TMC3    C2 9554   0.888   2.668  12.299  0.2695  0.7044 -0.8286
  642TMC3    C3 9555   0.935   2.547  12.259 -0.0026 -0.3731 -0.1327
  642TMC3    C4 9556   0.671   2.569  12.327  0.1089 -0.7633 -0.1575
  642TMC3    C5 9557   0.721   2.452  12.275  0.1000 -0.3538  0.0542
  642TMC3    C6 9558   0.849   2.440  12.241  0.0111 -0.5326 -0.2520
  642TMC3     C 9559   0.712   2.799  12.405 -0.1192  0.1274  0.4935
  642TMC3     O 9560   0.788   2.863  12.478 -0.4190 -0.3467 -0.0441
  642TMC3     H 9561   0.948   2.758  12.299 -1.4643  1.8500 -0.0846
  642TMC3    H1 9562   0.566   2.577  12.352  0.4456  5.4582 -0.5911
  642TMC3    H2 9563   0.899   2.349  12.210  2.6429  0.7447  0.2788
  642TMC3    C7 9564   0.630   2.340  12.265 -0.2165  0.3249 -0.0287
  642TMC3    C8 9565   1.068   2.530  12.212  0.7128  0.2809 -0.3395
  642TMC3    O1 9566   0.623   2.279  12.158  0.0216  0.2457 -0.3045
  642TMC3    O2 9567   1.084   2.452  12.119 -0.7465  0.2483  0.0298
  643TMC3    C1 9568   4.239   2.260   0.731  0.7405 -0.4228 -0.3578
  643TMC3    C2 9569   4.120   2.331   0.710  0.2530  0.4550 -0.9100
  643TMC3    C3 9570   4.022   2.274   0.630  0.1749 -0.1073 -0.4459
  643TMC3    C4 9571   4.254   2.131   0.685 -0.3086  0.6674 -0.2866
  643TMC3    C5 9572   4.154   2.082   0.602  0.0661 -0.7897  0.0641
  643TMC3    C6 9573   4.042   2.156   0.571 -0.2465  0.1605 -0.3931
  643TMC3     C 9574   4.316   2.293   0.848 -0.3666  0.0171  0.0324
  643TMC3     O 9575   4.262   2.377   0.916  0.4318 -0.2297 -0.8207
  643TMC3     H 9576   4.093   2.426   0.755  3.5650  0.8333  0.2959
  643TMC3    H1 9577   4.338   2.065   0.703  0.1903  1.8312  1.6587
  643TMC3    H2 9578   3.976   2.139   0.486  0.7150  1.3160 -1.3736
  643TMC3    C7 9579   4.213   2.030   0.477 -0.2802  0.2779  0.4820
  643TMC3    C8 9580   3.943   2.359   0.551  0.2374 -0.2225 -0.2003
  643TMC3    O1 9581   4.240   2.110   0.391 -0.3079 -0.3370 -0.0828
  643TMC3    O2 9582   3.870   2.443   0.599 -0.0963 -0.4893  0.3433
  644MPD2     C 9583   4.283   1.971  10.013  0.2538 -0.3770 -0.1184
  644MPD2    C1 9584   4.375   2.067   9.980  0.7678 -0.1733 -0.2037
  644MPD2    C2 9585   4.348   2.199  10.011  0.4473 -0.7684 -0.7573
  644MPD2    C3 9586   4.225   2.240  10.051  0.1775 -0.9498  0.2732
  644MPD2    C4 9587   4.127   2.144  10.066 -0.4218  0.3597 -0.8297
  644MPD2    C5 9588   4.162   2.015  10.062 -0.3224 -0.3679  0.3163
  644MPD2     H 9589   4.419   2.280   9.997  1.6805 -1.8972 -1.0479
  644MPD2    H1 9590   4.027   2.171  10.097 -0.1768  1.5602 -1.0786
  644MPD2    H2 9591   4.303   1.866   9.996 -1.9031 -0.7032 -0.7134
  644MPD2    H3 9592   4.085   1.947  10.096 -1.7770  0.9686 -0.3195
  644MPD2     N 9593   4.197   2.377  10.072  0.0627 -0.5270  0.1308
  644MPD2    H5 9594   4.271   2.445  10.060  0.2330 -0.3558  2.2070
  644MPD2    N1 9595   4.486   2.023   9.916 -0.3227 -0.3341  0.5646
  644MPD2    H7 9596   4.476   1.924   9.893 -1.6727 -0.1378  0.3007
  645TMC3    C1 9597   4.066   2.580  10.077  0.0768 -0.4149 -0.1817
  645TMC3    C2 9598   3.944   2.630  10.065 -0.3498  0.0711 -0.8732
  645TMC3    C3 9599   3.928   2.768  10.064 -0.4137  0.2801 -0.2562
  645TMC3    C4 9600   4.160   2.663  10.133 -0.2425  0.2213  0.3620
  645TMC3    C5 9601   4.144   2.801  10.130 -0.1009  0.5055  0.3723
  645TMC3    C6 9602   4.020   2.858  10.098  0.2692 -0.3152  0.3524
  645TMC3     C 9603   4.071   2.433  10.091  0.8884  0.1085  0.0516
  645TMC3     O 9604   3.970   2.376  10.121 -0.2219  0.3315 -0.5886
  645TMC3     H 9605   3.860   2.562  10.060 -0.4293  0.0709  0.5652
  645TMC3    H1 9606   4.255   2.629  10.172 -0.6517  0.7367  1.8440
  645TMC3    H2 9607   4.005   2.965  10.098  2.0095 -0.0654  1.6378
  645TMC3    C7 9608   4.233   2.885  10.203 -0.4170 -0.1078  0.0698
  645TMC3    C8 9609   3.801   2.823  10.021  0.1230 -0.0155 -0.5438
  645TMC3    O1 9610   4.310   2.830  10.277 -0.7916 -0.1610 -0.3768
  645TMC3    O2 9611   3.774   2.938  10.055  0.2972  0.1798 -0.5923
  646MPD2     C 9612   3.600   1.533  14.391 -0.3576 -0.1775 -0.1700
  646MPD2    C1 9613   3.507   1.518  14.498  0.2085  0.2053  0.2397
  646MPD2    C2 9614   3.381   1.580  14.479 -0.1310 -0.2794  0.0834
  646MPD2    C3 9615   3.344   1.645  14.359 -0.7144 -0.1202 -0.5250
  646MPD2    C4 9616   3.440   1.660  14.257  0.4898  0.5630 -0.5375
  646MPD2    C5 9617   3.565   1.599  14.276  1.1324  0.5413 -0.1772
  646MPD2     H 9618   3.306   1.570  14.557 -0.4851 -0.9877 -0.3499
  646MPD2    H1 9619   3.418   1.720  14.170 -0.7900  0.6988 -0.1150
  646MPD2    H2 9620   3.703   1.500  14.382 -0.9078 -2.4557  1.7709
  646MPD2    H3 9621   3.642   1.604  14.200 -0.7240 -1.9757 -2.2053
  646MPD2     N 9622   3.214   1.689  14.363  0.3022  0.4876  0.5518
  646MPD2    H5 9623   3.159   1.669  14.446  0.5705 -0.8705  0.4122
  646MPD2    N1 9624   3.550   1.458  14.617 -0.4337  0.3630 -0.1645
  646MPD2    H7 9625   3.645   1.423  14.623 -0.9372 -0.9438  0.2188
  647TMC3    C1 9626   3.556   1.373  14.830  0.3358  0.0716  0.2791
  647TMC3    C2 9627   3.486   1.317  14.939  0.3449 -0.3564 -0.3258
  647TMC3    C3 9628   3.550   1.252  15.044 -0.1218 -0.0165  0.3451
  647TMC3    C4 9629   3.692   1.356  14.822  0.0785  0.1256  0.1337
  647TMC3    C5 9630   3.751   1.292  14.927 -0.4789  0.2105 -0.0782
  647TMC3    C6 9631   3.684   1.242  15.040 -0.1834  0.0514  0.0952
  647TMC3     C 9632   3.475   1.440  14.736  0.0136  0.2233 -0.0349
  647TMC3     O 9633   3.367   1.487  14.777 -0.0476  0.3711  0.2016
  647TMC3     H 9634   3.381   1.342  14.940  0.4819  0.2265 -1.0051
  647TMC3    H1 9635   3.748   1.371  14.730  0.4595  1.1880  0.5392
  647TMC3    H2 9636   3.729   1.172  15.110 -1.7184 -1.5522 -0.5310
  647TMC3    C7 9637   3.868   1.220  14.911  0.1238  0.3343  0.2904
  647TMC3    C8 9638   3.490   1.121  15.083 -0.4749 -0.7271  0.2726
  647TMC3    O1 9639   3.877   1.106  14.966  0.2105 -0.3260 -0.3392
  647TMC3    O2 9640   3.567   1.028  15.083 -0.5268 -0.3336 -0.5205
  648TMC3    C1 9641   2.839   3.712  16.154  0.0301  0.8635  0.1117
  648TMC3    C2 9642   2.886   3.601  16.094  0.4386 -0.6751  0.5630
  648TMC3    C3 9643   2.863   3.590  15.957  0.4300 -0.1860  0.0724
  648TMC3    C4 9644   2.777   3.812  16.080  0.2518 -0.7447  0.2507
  648TMC3    C5 9645   2.752   3.793  15.951 -0.0352  0.0406  0.2352
  648TMC3    C6 9646   2.786   3.679  15.885 -0.4382  0.3265 -0.3378
  648TMC3     C 9647   2.858   3.733  16.293 -0.2328 -0.4151  0.3214
  648TMC3     O 9648   2.848   3.849  16.328 -0.1440 -0.6810 -0.2297
  648TMC3     H 9649   2.940   3.522  16.145 -1.5851 -0.3992  3.1428
  648TMC3    H1 9650   2.738   3.902  16.128 -0.0954 -0.6256 -0.2588
  648TMC3    H2 9651   2.776   3.672  15.778  0.2889 -2.2708 -0.2486
  648TMC3    C7 9652   2.692   3.896  15.868 -0.5246  0.0675  0.0025
  648TMC3    C8 9653   2.945   3.490  15.897 -0.7469 -0.0033  0.5347
  648TMC3    O1 9654   2.727   3.902  15.750  0.0158 -0.1212 -0.0644
  648TMC3    O2 9655   3.061   3.487  15.946  0.1272  0.0345 -0.2548
  649TMC3    C1 9656   1.703   4.637  13.160 -0.4823 -0.5552 -0.3520
  649TMC3    C2 9657   1.829   4.621  13.112  0.5937 -0.6533  0.1929
  649TMC3    C3 9658   1.929   4.575  13.197  0.5402  0.2558 -0.6048
  649TMC3    C4 9659   1.670   4.607  13.289  0.4304  0.3171  0.9970
  649TMC3    C5 9660   1.771   4.560  13.365 -0.0791  0.4035 -0.1086
  649TMC3    C6 9661   1.901   4.547  13.328 -0.1903  0.1082 -0.2727
  649TMC3     C 9662   1.604   4.705  13.089  0.7325  0.3879  0.1039
  649TMC3     O 9663   1.502   0.013  13.142 -0.3562 -0.1421  0.4239
  649TMC3     H 9664   1.857   4.658  13.014  0.7707  0.4745  0.6668
  649TMC3    H1 9665   1.567   4.614  13.321  0.0621  0.4159 -0.2105
  649TMC3    H2 9666   1.982   4.526  13.397  3.3159  0.1721 -4.3425
  649TMC3    C7 9667   1.739   4.546  13.505  0.0164  0.2505  0.0826
  649TMC3    C8 9668   2.078   4.594  13.166 -0.4202  0.2288 -0.1631
  649TMC3    O1 9669   1.689   4.646  13.560  0.0627 -0.4464 -0.6430
  649TMC3    O2 9670   2.158   4.540  13.246 -0.1764  0.2531  0.1546
  650TMC3    C1 9671   4.340   1.702  12.680 -0.0096  0.1242  0.5279
  650TMC3    C2 9672   4.350   1.832  12.632 -0.4138  0.3258 -0.1480
  650TMC3    C3 9673   4.272   1.865  12.518  0.3418 -0.0551  0.6213
  650TMC3    C4 9674   4.258   1.605  12.617 -0.0851 -0.0163 -0.1115
  650TMC3    C5 9675   4.189   1.645  12.500  0.5543  0.3956  0.1500
  650TMC3    C6 9676   4.190   1.776  12.458  0.3480  0.0170  0.1324
  650TMC3     C 9677   4.416   1.660  12.791  0.5421 -0.4518 -0.3632
  650TMC3     O 9678   4.460   1.749  12.865  1.1112 -0.1874 -0.2757
  650TMC3     H 9679   4.419   1.901  12.677 -0.8133  0.4500  0.2675
  650TMC3    H1 9680   4.245   1.503  12.653  1.7849 -1.5200 -3.7358
  650TMC3    H2 9681   4.121   1.815  12.384  1.7741  2.2380 -0.0621
  650TMC3    C7 9682   4.117   1.542  12.430  0.0388  0.0249 -1.0612
  650TMC3    C8 9683   4.300   2.004  12.466  0.3156 -0.2040 -0.3818
  650TMC3    O1 9684   4.136   1.426  12.462  0.4483 -0.0550  0.4575
  650TMC3    O2 9685   4.348   2.088  12.542 -0.7806  0.0014 -0.0627
  651MPD2     C 9686   3.282   3.573  10.895  0.2707 -0.2545 -0.6099
  651MPD2    C1 9687   3.256   3.686  10.826  0.5760 -0.0976  0.2621
  651MPD2    C2 9688   3.357   3.779  10.809 -0.1029  0.5495  0.2136
  651MPD2    C3 9689   3.473   3.759  10.876  0.6333 -0.2389 -0.1649
  651MPD2    C4 9690   3.502   3.646  10.946 -0.0349 -0.2925  0.2824
  651MPD2    C5 9691   3.408   3.550  10.949  0.1559 -0.3455 -0.0711
  651MPD2     H 9692   3.338   3.876  10.764  0.1530 -0.1007 -1.3031
  651MPD2    H1 9693   3.593   3.622  11.001  1.9400  0.4999 -2.6145
  651MPD2    H2 9694   3.210   3.494  10.910 -2.0861  1.7582 -1.4737
  651MPD2    H3 9695   3.428   3.460  11.005  1.6966  0.7534  1.1488
  651MPD2     N 9696   3.579   3.855  10.859 -0.1453  0.2336  0.3692
  651MPD2    H5 9697   3.550   3.927  10.793  0.3409 -0.6835 -0.8432
  651MPD2    N1 9698   3.130   3.715  10.759 -0.3513 -0.4117  0.2638
  651MPD2    H7 9699   3.122   3.799  10.702  0.7281 -1.4912 -1.4816
  652TMC3    C1 9700   4.000   4.070  10.846  0.6505  0.4103 -0.7103
  652TMC3    C2 9701   3.921   3.973  10.908  0.1622 -0.6500  0.2720
  652TMC3    C3 9702   3.789   3.962  10.870 -0.6037  0.2854  0.1822
  652TMC3    C4 9703   3.955   4.156  10.755 -0.7394  0.5792  0.1688
  652TMC3    C5 9704   3.819   4.152  10.727 -0.0318 -0.3225  0.0063
  652TMC3    C6 9705   3.739   4.062  10.787 -0.0499  0.2198 -0.1170
  652TMC3     C 9706   4.141   4.074  10.896  0.0475 -0.1878 -0.5050
  652TMC3     O 9707   4.166   4.001  10.989  0.3598 -0.1486  0.3408
  652TMC3     H 9708   3.969   3.904  10.977 -1.6221 -1.6446  0.5172
  652TMC3    H1 9709   4.017   4.228  10.701 -0.0194  0.5194  0.9083
  652TMC3    H2 9710   3.631   4.070  10.777 -0.0364 -1.8602 -1.9095
  652TMC3    C7 9711   3.760   4.229  10.617  0.1503 -0.3483  0.2137
  652TMC3    C8 9712   3.705   3.855  10.916  0.7729  0.6119  0.1517
  652TMC3    O1 9713   3.667   4.173  10.566  0.0171  0.1920  0.5009
  652TMC3    O2 9714   3.749   3.802  11.021 -0.1148  0.1428  0.3457
  653MPD2     C 9715   2.241   3.629   0.022 -0.1386  0.7572  0.0919
  653MPD2    C1 9716   2.193   3.732  17.693  0.2868 -1.3625 -0.0124
  653MPD2    C2 9717   2.140   3.703  17.573  0.2177  0.4415  0.5341
  653MPD2    C3 9718   2.126   3.574  17.524 -0.1122  0.0408  0.4366
  653MPD2    C4 9719   2.175   3.471  17.606 -0.3818  0.0141 -0.5376
  653MPD2    C5 9720   2.223   3.496  17.733  1.2170 -0.0989  0.4330
  653MPD2     H 9721   2.123   3.787  17.507  0.9339 -0.4929 -0.8353
  653MPD2    H1 9722   2.177   3.370  17.569 -2.8991 -0.4278  0.5097
  653MPD2    H2 9723   2.294   3.657   0.113 -0.3119  1.6284 -0.0762
  653MPD2    H3 9724   2.270   3.416   0.042 -1.2312 -1.6813  0.2595
  653MPD2     N 9725   2.061   3.554  17.398 -0.1106  0.2601  0.4213
  653MPD2    H5 9726   2.008   3.632  17.359  0.4515 -0.3360 -1.5169
  653MPD2    N1 9727   2.191   3.869  17.726  0.7139  0.4883 -0.0547
  653MPD2    H7 9728   2.172   3.934  17.650 -0.4549  2.6878  2.1176
  654TMC3    C1 9729   1.990   3.431  17.214  0.1930  0.5596 -0.0875
  654TMC3    C2 9730   1.911   3.537  17.171  0.8576 -0.4471  0.4620
  654TMC3    C3 9731   1.819   3.518  17.072 -0.3759  0.5842  0.6695
  654TMC3    C4 9732   1.975   3.304  17.162  0.7028 -0.3079  0.1855
  654TMC3    C5 9733   1.877   3.286  17.064  0.4542 -0.1201  0.1455
  654TMC3    C6 9734   1.796   3.389  17.030  0.5178 -0.0362 -0.4598
  654TMC3     C 9735   2.068   3.439  17.331  0.8652  0.2047 -0.1732
  654TMC3     O 9736   2.140   3.341  17.346 -0.5093  0.3870 -0.0945
  654TMC3     H 9737   1.945   3.634  17.204 -1.5639  1.2024 -1.9102
  654TMC3    H1 9738   2.037   3.219  17.187  1.8912  0.1689 -1.1455
  654TMC3    H2 9739   1.712   3.355  16.971 -0.0228 -0.6241  0.6346
  654TMC3    C7 9740   1.858   3.158  16.999 -0.3166  0.1164  0.0224
  654TMC3    C8 9741   1.708   3.609  17.043 -0.3005  0.1015 -0.2446
  654TMC3    O1 9742   1.834   3.163  16.879 -0.7635  0.2207 -0.0210
  654TMC3    O2 9743   1.631   3.577  16.954  0.6916 -0.0508  0.4517
  655MPD2     C 9744   3.412   4.007  15.686 -0.2296  0.0343 -0.5785
  655MPD2    C1 9745   3.313   4.103  15.658 -0.0362 -0.0389  0.4949
  655MPD2    C2 9746   3.262   4.112  15.531 -0.0732 -0.0178  0.4784
  655MPD2    C3 9747   3.297   4.021  15.434 -0.4030 -0.2508  1.1059
  655MPD2    C4 9748   3.400   3.936  15.458  0.1404 -0.1158  0.0713
  655MPD2    C5 9749   3.454   3.928  15.586 -0.0409  0.1003  0.0991
  655MPD2     H 9750   3.171   4.171  15.523  0.3022  0.3441 -1.0607
  655MPD2    H1 9751   3.421   3.858  15.385 -1.7548 -0.9353  0.3941
  655MPD2    H2 9752   3.464   3.980  15.777 -1.2471 -0.3775 -0.1241
  655MPD2    H3 9753   3.526   3.850  15.603 -1.2772 -1.5433 -2.0488
  655MPD2     N 9754   3.215   3.991  15.322  0.7183  0.1471  0.4136
  655MPD2    H5 9755   3.244   3.911  15.266  0.4500 -1.1334  2.0887
  655MPD2    N1 9756   3.261   4.183  15.757  0.5975 -0.1553 -0.3018
  655MPD2    H7 9757   3.198   4.257  15.729 -1.2005 -1.4818  0.2195
  656TMC3    C1 9758   3.197   4.269  15.962  0.6552  0.4001  0.4069
  656TMC3    C2 9759   3.118   4.220  16.058  0.0864 -0.2031  0.1664
  656TMC3    C3 9760   3.007   4.297  16.086  0.5187 -0.3702  0.0020
  656TMC3    C4 9761   3.186   4.394  15.909 -0.0030  0.3204  0.1755
  656TMC3    C5 9762   3.080   4.469  15.952 -0.7323  0.2577 -0.2005
  656TMC3    C6 9763   2.982   4.423  16.036  0.0928  0.0679  1.0084
  656TMC3     C 9764   3.280   4.175  15.893 -0.0275  0.1907 -0.2547
  656TMC3     O 9765   3.312   4.079  15.964 -0.8712 -0.0961 -0.3449
  656TMC3     H 9766   3.125   4.121  16.103 -1.5852 -0.2569  0.3074
  656TMC3    H1 9767   3.252   4.427  15.830  0.6161  0.1267  0.6179
  656TMC3    H2 9768   2.889   4.471  16.062 -0.9895 -0.8175 -1.2055
  656TMC3    C7 9769   3.034   4.586  15.868  0.2427  0.4397 -0.5502
  656TMC3    C8 9770   2.912   4.237  16.173  0.9073 -0.0184  0.2572
  656TMC3    O1 9771   3.098   4.624  15.770  0.0518 -0.3918  0.4121
  656TMC3    O2 9772   2.915   4.116  16.196 -0.1742 -0.2818  0.2046
  657TMC3    C1 9773   2.058   3.560  14.737  0.2561 -0.2446  1.0030
  657TMC3    C2 9774   2.056   3.569  14.874  0.3476 -0.5200  0.1410
  657TMC3    C3 9775   1.959   3.643  14.929  0.3123  0.3439  0.3327
  657TMC3    C4 9776   1.962   3.615  14.657 -0.0604 -0.5097 -0.0464
  657TMC3    C5 9777   1.866   3.694  14.715  0.2698 -0.2044 -0.8229
  657TMC3    C6 9778   1.867   3.710  14.848 -0.2642  0.4545  0.7807
  657TMC3     C 9779   2.190   3.538  14.671  0.8644  1.5236  0.4919
  657TMC3     O 9780   2.202   3.571  14.555  0.1303  0.1772  0.0283
  657TMC3     H 9781   2.129   3.504  14.920 -1.0146 -0.9249  1.7403
  657TMC3    H1 9782   1.984   3.620  14.551  0.7698 -1.1665  0.0916
  657TMC3    H2 9783   1.785   3.768  14.889 -0.2927  1.8261 -1.2390
  657TMC3    C7 9784   1.803   3.793  14.636  0.7807 -0.1720  0.3700
  657TMC3    C8 9785   1.921   3.615  15.064 -0.2262 -0.2310  0.3716
  657TMC3    O1 9786   1.776   3.893  14.702 -0.1429 -0.2701 -0.7833
  657TMC3    O2 9787   1.801   3.628  15.089  0.2228 -0.1443  0.0626
  658MPD2     C 9788   3.391   3.708  14.783 -0.2430 -0.1369 -0.1265
  658MPD2    C1 9789   3.273   3.770  14.754  0.4740 -0.7021  0.2777
  658MPD2    C2 9790   3.239   3.779  14.617  0.0653 -0.0653  0.0855
  658MPD2    C3 9791   3.329   3.749  14.514  0.0099  0.2691 -0.6164
  658MPD2    C4 9792   3.454   3.701  14.547  0.3653  0.1962 -0.5834
  658MPD2    C5 9793   3.481   3.679  14.684  0.9094  0.1154  0.6241
  658MPD2     H 9794   3.145   3.817  14.577  0.9303  0.4535 -1.4385
  658MPD2    H1 9795   3.525   3.666  14.474  1.7066 -2.1516  1.8300
  658MPD2    H2 9796   3.402   3.684  14.888 -0.2529 -1.6531 -0.4664
  658MPD2    H3 9797   3.574   3.630  14.713  1.3467  1.2016  1.0614
  658MPD2     N 9798   3.278   3.761  14.381 -0.0492 -0.9489 -0.1635
  658MPD2    H5 9799   3.177   3.770  14.378  0.2737  1.4220 -3.8456
  658MPD2    N1 9800   3.179   3.805  14.855  0.3907  0.1604 -0.3267
  658MPD2    H7 9801   3.198   3.785  14.953  2.0903 -0.0924 -0.7007
  659TMC3    C1 9802   2.991   3.914  14.967  0.4688  0.0053  0.1397
  659TMC3    C2 9803   3.076   3.953  15.070 -0.2098 -0.1770  0.7648
  659TMC3    C3 9804   3.017   3.991  15.186 -0.2435  0.1325 -0.6492
  659TMC3    C4 9805   2.855   3.923  14.961  0.2584  0.8125  0.3422
  659TMC3    C5 9806   2.801   3.964  15.085 -0.1644 -0.5350  0.1088
  659TMC3    C6 9807   2.878   3.994  15.195  0.1353  0.4022 -0.0005
  659TMC3     C 9808   3.057   3.875  14.838 -0.1674  0.0893 -0.0325
  659TMC3     O 9809   2.991   3.884  14.734  0.3885 -0.4333 -0.3934
  659TMC3     H 9810   3.184   3.960  15.062 -0.4297  0.3848 -1.6304
  659TMC3    H1 9811   2.792   3.892  14.879  0.7053  0.6945  0.0469
  659TMC3    H2 9812   2.828   4.009  15.290  1.4058 -2.6756  1.1406
  659TMC3    C7 9813   2.655   3.968  15.108 -0.6067 -0.7945  0.3104
  659TMC3    C8 9814   3.093   4.042  15.302 -0.5242  0.4797  0.7356
  659TMC3    O1 9815   2.620   3.945  15.223  0.1889 -0.0573  0.1679
  659TMC3    O2 9816   3.026   4.126  15.364  0.0122  0.8760 -0.6181
  660MPD2     C 9817   1.785   2.683  12.806  0.6729 -0.0619  0.3932
  660MPD2    C1 9818   1.654   2.722  12.786 -0.2272 -0.3556  0.1758
  660MPD2    C2 9819   1.560   2.665  12.865 -0.3643 -0.1880  0.1251
  660MPD2    C3 9820   1.586   2.558  12.954 -0.4653  0.4500  0.4180
  660MPD2    C4 9821   1.716   2.519  12.981  0.3920 -0.3734 -0.7246
  660MPD2    C5 9822   1.815   2.592  12.907  0.2530  0.6754 -0.0362
  660MPD2     H 9823   1.455   2.691  12.855  0.1884  1.6518 -0.9475
  660MPD2    H1 9824   1.745   2.453  13.061  1.0314 -1.9094 -2.2387
  660MPD2    H2 9825   1.860   2.738  12.750 -2.3905  1.5147 -2.1183
  660MPD2    H3 9826   1.920   2.570  12.923  0.0244 -0.1677  0.2929
  660MPD2     N 9827   1.486   2.489  13.026 -0.3969 -0.3433 -0.2225
  660MPD2    H5 9828   1.508   2.414  13.092 -0.5580  1.1514  1.5187
  660MPD2    N1 9829   1.631   2.808  12.680  0.5620  0.2116  0.0615
  660MPD2    H7 9830   1.711   2.850  12.634  0.4375 -2.3648 -2.5108
  661TMC3    C1 9831   1.518   2.937  12.514 -0.3245  0.5273  0.4731
  661TMC3    C2 9832   1.627   2.931  12.433 -0.1203  0.5593  0.3328
  661TMC3    C3 9833   1.618   2.979  12.303 -0.2239 -0.5496 -0.3559
  661TMC3    C4 9834   1.403   2.997  12.473 -0.0570 -0.6370  0.5807
  661TMC3    C5 9835   1.394   3.035  12.343 -0.4499  0.4543 -0.2634
  661TMC3    C6 9836   1.494   3.022  12.256  0.4501  0.0215 -0.1378
  661TMC3     C 9837   1.514   2.851  12.626  0.4810 -0.5248  0.6699
  661TMC3     O 9838   1.400   2.816  12.660 -0.3213  0.2603 -0.1319
  661TMC3     H 9839   1.716   2.878  12.464  0.7863  1.0328 -1.4269
  661TMC3    H1 9840   1.313   3.003  12.533 -0.0027 -1.6283  0.7593
  661TMC3    H2 9841   1.476   3.045  12.152  0.7646 -0.2455 -0.2510
  661TMC3    C7 9842   1.260   3.062  12.291  0.0337  0.0906 -0.6910
  661TMC3    C8 9843   1.713   2.925  12.203 -0.5044  0.2275  0.2947
  661TMC3    O1 9844   1.197   3.130  12.371 -0.3468  0.1327 -0.2307
  661TMC3    O2 9845   1.780   2.834  12.246  0.0822 -0.2954  0.7464
  662MPD2     C 9846   1.466   2.121  17.006  0.5724  0.2227  0.1955
  662MPD2    C1 9847   1.400   2.048  17.101  0.5458 -0.1850  0.5658
  662MPD2    C2 9848   1.378   2.104  17.222 -0.2716 -0.4435  1.2171
  662MPD2    C3 9849   1.418   2.230  17.252 -0.0506 -0.1000  0.4133
  662MPD2    C4 9850   1.480   2.303  17.158  0.1035 -0.6955  0.1891
  662MPD2    C5 9851   1.505   2.248  17.034 -0.1759 -0.1255  0.4017
  662MPD2     H 9852   1.324   2.044  17.295 -0.9150 -2.9715 -1.3607
  662MPD2    H1 9853   1.515   2.405  17.168 -0.2717 -0.4824 -0.6532
  662MPD2    H2 9854   1.486   2.084  16.906  1.2984 -1.0748  0.8187
  662MPD2    H3 9855   1.544   2.306  16.951 -1.2707  0.2212  0.1313
  662MPD2     N 9856   1.384   2.275  17.381  0.3936 -0.0756  0.0286
  662MPD2    H5 9857   1.314   2.216  17.424  1.9865 -1.4461  0.7546
  662MPD2    N1 9858   1.370   1.909  17.091  0.1557 -0.3811 -0.1409
  662MPD2    H7 9859   1.330   1.863  17.173 -1.6538 -0.3595 -1.0125
  663TMC3    C1 9860   1.358   1.687  17.042 -0.1256 -0.3685  0.3668
  663TMC3    C2 9861   1.312   1.680  17.174 -0.0655  1.0456  0.2734
  663TMC3    C3 9862   1.329   1.565  17.231 -0.5454  0.3009  0.3880
  663TMC3    C4 9863   1.427   1.588  16.974 -0.2432 -0.1704 -0.6701
  663TMC3    C5 9864   1.438   1.473  17.044  0.4417  0.3028  0.1202
  663TMC3    C6 9865   1.380   1.459  17.164  0.0715  0.4264 -0.0018
  663TMC3     C 9866   1.387   1.822  16.989 -0.1593  0.4454 -0.0187
  663TMC3     O 9867   1.430   1.833  16.873 -0.0161  0.4950 -0.3066
  663TMC3     H 9868   1.233   1.744  17.210 -0.4244 -0.0284  1.3923
  663TMC3    H1 9869   1.479   1.615  16.883  1.2257 -2.4745 -0.5388
  663TMC3    H2 9870   1.391   1.368  17.221 -0.3971  0.1906 -0.2882
  663TMC3    C7 9871   1.519   1.368  16.977  0.5946  0.1464  0.9079
  663TMC3    C8 9872   1.215   1.525  17.317 -0.1789  0.3682  0.4789
  663TMC3    O1 9873   1.543   1.383  16.858  0.2922 -0.0894 -0.0567
  663TMC3    O2 9874   1.159   1.419  17.285  0.4277 -0.6200  0.6204
  664MPD2     C 9875   3.878   0.314  17.204 -0.7264  0.1178  0.5791
  664MPD2    C1 9876   4.015   0.318  17.216  0.4010  0.3469 -0.3594
  664MPD2    C2 9877   4.070   0.319  17.343 -0.6066  0.3417 -0.3579
  664MPD2    C3 9878   3.992   0.322  17.461 -0.3499  0.2167  1.0869
  664MPD2    C4 9879   3.854   0.320  17.445  0.6653 -0.2055  0.8444
  664MPD2    C5 9880   3.796   0.315  17.321  0.4314  0.2594  0.8598
  664MPD2     H 9881   4.178   0.317  17.352 -0.5125  0.2414 -1.4161
  664MPD2    H1 9882   3.786   0.333  17.528 -1.5657  1.6877 -1.2487
  664MPD2    H2 9883   3.823   0.313  17.111 -0.9399  0.4772  0.6997
  664MPD2    H3 9884   3.689   0.333  17.321  0.5803  1.1477 -0.6345
  664MPD2     N 9885   4.052   0.316  17.591  0.1453 -0.1756 -0.4737
  664MPD2    H5 9886   4.153   0.304  17.587 -0.0276 -0.8833 -2.3910
  664MPD2    N1 9887   4.102   0.332  17.099  0.3706 -0.1117  0.7598
  664MPD2    H7 9888   4.198   0.363  17.109  0.2936 -0.5402  2.7195
  665TMC3    C1 9889   4.084   0.293   0.077  0.0016  0.3959  0.6375
  665TMC3    C2 9890   4.017   0.264   0.193  0.1843 -0.2398  0.3062
  665TMC3    C3 9891   4.081   0.298   0.312  0.4719  0.9588 -0.3218
  665TMC3    C4 9892   4.199   0.363   0.073  0.7616 -0.7678  0.4634
  665TMC3    C5 9893   4.267   0.390   0.191  1.0145 -0.5564 -0.4112
  665TMC3    C6 9894   4.214   0.355   0.314 -0.5555  0.1425 -0.5700
  665TMC3     C 9895   3.992   0.312  17.714 -0.0473  0.2355 -0.0451
  665TMC3     O 9896   3.873   0.335  17.732  0.5019  0.2373  0.2312
  665TMC3     H 9897   3.919   0.218   0.191 -0.6522  1.5072  0.8211
  665TMC3    H1 9898   4.248   0.399  17.730  1.5866 -2.1817  0.3484
  665TMC3    H2 9899   4.257   0.369   0.413 -1.4389  0.4176 -0.2241
  665TMC3    C7 9900   4.349   0.511   0.183  0.3773  0.9713  0.5244
  665TMC3    C8 9901   4.014   0.279   0.443  0.2567 -0.1964 -0.0372
  665TMC3    O1 9902   4.326   0.594   0.095 -0.0768 -0.1188 -0.2968
  665TMC3    O2 9903   4.086   0.232   0.530  0.3492 -0.2429 -0.5618
  666TMC3    C1 9904   3.987   0.862   9.354  0.4387 -0.3549 -0.4410
  666TMC3    C2 9905   4.111   0.830   9.409 -0.5782  0.1427  0.6468
  666TMC3    C3 9906   4.176   0.912   9.496  0.0727  0.0983  0.4563
  666TMC3    C4 9907   3.945   0.996   9.374 -0.3576 -0.9185  0.6840
  666TMC3    C5 9908   4.020   1.086   9.453 -0.7251 -0.4304  0.0324
  666TMC3    C6 9909   4.135   1.043   9.516 -0.3423  0.4601  0.0769
  666TMC3     C 9910   3.881   0.772   9.404 -0.1833 -0.2326 -0.4360
  666TMC3     O 9911   3.762   0.796   9.409  0.4117  0.1197  0.5771
  666TMC3     H 9912   4.158   0.737   9.380  0.3597  1.2747 -1.4555
  666TMC3    H1 9913   3.846   1.014   9.336 -0.3852 -0.8945  0.7666
  666TMC3    H2 9914   4.202   1.119   9.556 -0.5711  1.5272 -1.5531
  666TMC3    C7 9915   3.956   1.195   9.526  0.1383 -0.5849  0.2245
  666TMC3    C8 9916   4.217   0.833   9.612 -0.0586  0.4713  0.3980
  666TMC3    O1 9917   4.007   1.219   9.635 -0.7695 -0.5965  0.3982
  666TMC3    O2 9918   4.238   0.715   9.609  0.0641  0.0584  0.2099
  667MPD2     C 9919   0.705   0.650  14.248  0.0626 -0.0309 -0.5663
  667MPD2    C1 9920   0.739   0.618  14.383 -0.7407  0.0546 -0.3141
  667MPD2    C2 9921   0.702   0.503  14.437  0.0714  0.0381  1.1927
  667MPD2    C3 9922   0.637   0.410  14.362 -0.4217 -0.4156  0.0297
  667MPD2    C4 9923   0.609   0.435  14.231 -0.4670  0.4283  0.1486
  667MPD2    C5 9924   0.655   0.546  14.171 -0.1516  0.2445 -0.7941
  667MPD2     H 9925   0.720   0.483  14.542  1.5554 -0.1533  0.8955
  667MPD2    H1 9926   0.559   0.368  14.162  2.9123  0.0534 -1.9436
  667MPD2    H2 9927   0.697   0.752  14.211 -1.4556 -0.3973 -1.2368
  667MPD2    H3 9928   0.644   0.557  14.064 -0.1369 -1.6967 -1.0028
  667MPD2     N 9929   0.580   0.284  14.411 -0.2246  0.3386 -0.0599
  667MPD2    H5 9930   0.535   0.228  14.340  1.5992  1.3252 -2.0005
  667MPD2    N1 9931   0.793   0.718  14.469 -0.7404  0.4025 -0.4999
  667MPD2    H7 9932   0.805   0.692  14.566 -2.1782 -0.8497 -0.6672
  668TMC3    C1 9933   0.842   0.930  14.554 -0.1167 -1.0419 -1.0362
  668TMC3    C2 9934   0.912   1.038  14.537 -0.0158 -0.0558  0.2191
  668TMC3    C3 9935   0.913   1.125  14.646  0.3182 -0.0860  0.4712
  668TMC3    C4 9936   0.770   0.899  14.664  0.0527  0.1955 -0.5356
  668TMC3    C5 9937   0.773   0.980  14.773  0.3400 -0.1974  0.2803
  668TMC3    C6 9938   0.851   1.094  14.768 -0.1219  0.4255  0.5241
  668TMC3     C 9939   0.824   0.850  14.437  0.0375 -0.4003  0.6049
  668TMC3     O 9940   0.843   0.904  14.328 -0.1616  0.2848  0.9239
  668TMC3     H 9941   0.963   1.057  14.443  3.0984 -0.2291  1.8787
  668TMC3    H1 9942   0.713   0.807  14.670 -1.5466  1.1422 -1.2332
  668TMC3    H2 9943   0.854   1.160  14.854  1.1897  0.1432  0.6951
  668TMC3    C7 9944   0.721   0.938  14.905  0.7869 -0.4726 -0.0746
  668TMC3    C8 9945   0.984   1.255  14.643  0.0259 -0.1463 -0.6397
  668TMC3    O1 9946   0.787   0.959  15.008 -0.2747 -0.1095 -0.2650
  668TMC3    O2 9947   0.972   1.333  14.737 -0.5949  0.0780 -0.0698
  669TMC3    C1 9948   3.615   0.242  15.063  0.6090 -0.3829 -0.5425
  669TMC3    C2 9949   3.508   0.298  14.999 -0.8644  0.4143 -0.6569
  669TMC3    C3 9950   3.539   0.384  14.904 -0.4373  0.2573  0.1661
  669TMC3    C4 9951   3.749   0.262  15.027  0.1484  0.1631  0.4314
  669TMC3    C5 9952   3.773   0.354  14.927  0.7721  0.5279 -0.3429
  669TMC3    C6 9953   3.669   0.411  14.861 -0.2356 -0.1160 -0.8015
  669TMC3     C 9954   3.596   0.123  15.146 -0.1384  0.1807  1.0135
  669TMC3     O 9955   3.681   0.037  15.162 -0.4184 -0.1800  0.6306
  669TMC3     H 9956   3.406   0.279  15.028  0.7565 -5.4577  1.2633
  669TMC3    H1 9957   3.821   0.211  15.089  0.2149  0.3985  0.5481
  669TMC3    H2 9958   3.691   0.466  14.771 -1.1826 -1.0079 -1.5847
  669TMC3    C7 9959   3.914   0.379  14.896 -0.1768  0.2707 -0.1346
  669TMC3    C8 9960   3.427   0.442  14.823 -0.0581 -0.0759 -0.7544
  669TMC3    O1 9961   3.988   0.300  14.950 -0.6829  0.2055 -0.0668
  669TMC3    O2 9962   3.327   0.376  14.817 -0.0032 -1.0618 -0.3826
  670MPD2     C 9963   1.563   3.129  13.285 -0.3079 -0.2573 -0.0152
  670MPD2    C1 9964   1.478   3.236  13.320 -0.2572  0.3526 -0.5262
  670MPD2    C2 9965   1.440   3.249  13.450 -0.8549  0.1687 -0.2519
  670MPD2    C3 9966   1.487   3.156  13.547 -0.2704 -0.8064  0.0277
  670MPD2    C4 9967   1.554   3.046  13.506  0.7942 -0.3777  0.0874
  670MPD2    C5 9968   1.589   3.030  13.377  0.3627 -0.0821  0.5743
  670MPD2     H 9969   1.385   3.336  13.483  0.2341  0.4894  0.7442
  670MPD2    H1 9970   1.567   2.960  13.571 -5.2806 -1.5318 -0.2041
  670MPD2    H2 9971   1.596   3.105  13.185 -4.0262 -1.7804 -0.8427
  670MPD2    H3 9972   1.625   2.936  13.337  1.5648  0.8292 -0.4889
  670MPD2     N 9973   1.448   3.180  13.682  0.3336 -0.0027 -0.0246
  670MPD2    H5 9974   1.381   3.252  13.704 -1.6293 -1.3948 -1.4797
  670MPD2    N1 9975   1.434   3.329  13.221  0.3851  0.2248  0.1633
  670MPD2    H7 9976   1.390   3.410  13.264  0.2016  0.1231  0.1660
  671TMC3    C1 9977   1.417   3.122  13.901  0.8792  0.0671 -0.0257
  671TMC3    C2 9978   1.474   3.088  14.018 -0.0494  0.4482  0.3868
  671TMC3    C3 9979   1.396   3.027  14.108 -0.7225 -0.3011  0.5617
  671TMC3    C4 9980   1.279   3.118  13.878  0.0393  0.2027  0.2465
  671TMC3    C5 9981   1.206   3.046  13.968  0.0909  0.2264  0.1992
  671TMC3    C6 9982   1.262   3.013  14.088  0.0215 -0.1091  0.2221
  671TMC3     C 9983   1.499   3.109  13.788 -0.8597  0.0047 -0.5698
  671TMC3     O 9984   1.595   3.034  13.798  0.7093  0.2959  0.2485
  671TMC3     H 9985   1.582   3.079  14.013 -0.0055  1.3975 -0.5490
  671TMC3    H1 9986   1.244   3.113  13.776  1.6437  0.4244 -0.3126
  671TMC3    H2 9987   1.200   2.969  14.166 -0.3999 -1.3027 -0.7952
  671TMC3    C7 9988   1.130   2.940  13.911 -0.6632  0.0543 -0.2196
  671TMC3    C8 9989   1.463   2.922  14.183 -0.0162  0.0476  0.6787
  671TMC3    O1 9990   1.076   2.958  13.800  0.2267  0.5744 -0.1603
  671TMC3    O2 9991   1.421   2.806  14.167 -0.7459  0.3407  0.2418
  672MPD2     C 9992   1.746   3.314   1.392  0.0240  0.5506  0.2827
  672MPD2    C1 9993   1.865   3.257   1.361  0.2048  0.0319  0.0499
  672MPD2    C2 9994   1.972   3.302   1.434  0.4510  0.7348 -0.4377
  672MPD2    C3 9995   1.969   3.410   1.522 -0.0542  0.5981  0.3072
  672MPD2    C4 9996   1.846   3.462   1.549 -0.2524  0.0879  0.2545
  672MPD2    C5 9997   1.733   3.417   1.482 -0.1252  0.2045 -0.2304
  672MPD2     H 9998   2.068   3.253   1.428  0.8078  1.2781  0.9109
  672MPD2    H1 9999   1.833   3.540   1.624  4.4766  0.4605  0.6804
  672MPD2    H210000   1.656   3.279   1.344 -0.4412  0.5509  1.1543
  672MPD2    H310001   1.640   3.470   1.496 -0.2543  0.6868 -2.8772
  672MPD2     N10002   2.075   3.466   1.593 -0.4930 -0.4507  0.3940
  672MPD2    H510003   2.056   3.541   1.659  0.9470  2.8148 -2.9294
  672MPD2    N110004   1.884   3.157   1.259 -0.5346  0.5729 -0.2610
  672MPD2    H710005   1.977   3.117   1.252 -0.7523  0.2520 -1.2475
  673TMC3    C110006   1.844   3.020   1.073 -0.3381 -0.6920 -0.0483
  673TMC3    C210007   1.928   2.912   1.110 -0.1140  0.3189  0.2267
  673TMC3    C310008   1.955   2.822   1.015 -0.9668  0.4012  0.1344
  673TMC3    C410009   1.789   3.028   0.941 -0.4763  0.2367 -0.4816
  673TMC3    C510010   1.830   2.932   0.849  0.2288  0.5695  0.2569
  673TMC3    C610011   1.912   2.825   0.886  0.5363 -0.4000  0.1156
  673TMC3     C10012   1.790   3.125   1.164 -0.2225 -0.6591  0.3010
  673TMC3     O10013   1.687   3.189   1.139 -0.0626 -0.3933 -0.1805
  673TMC3     H10014   1.972   2.914   1.209 -1.1497  1.4801  0.6652
  673TMC3    H110015   1.704   3.094   0.928  0.0708  0.6077 -2.1371
  673TMC3    H210016   1.956   2.751   0.819 -2.3356 -1.6940 -0.3412
  673TMC3    C710017   1.829   2.966   0.703  0.4289 -0.2959  0.2407
  673TMC3    C810018   2.048   2.712   1.044  0.2212 -0.9787  0.2142
  673TMC3    O110019   1.890   2.893   0.627 -0.1803  0.2793  0.0110
  673TMC3    O210020   2.029   2.609   0.982 -0.8340 -0.2743 -0.6226
  674MPD2     C10021   2.024   2.924  17.699 -0.1261 -0.3171 -0.8387
  674MPD2    C110022   1.896   2.894  17.740  1.0052  0.5753  0.6432
  674MPD2    C210023   1.799   2.986   0.027  0.2275  0.3912  0.5213
  674MPD2    C310024   1.830   3.123   0.013 -0.2461 -0.0617 -0.2972
  674MPD2    C410025   1.957   3.156  17.722  0.5362 -0.5926 -0.7195
  674MPD2    C510026   2.050   3.060  17.713  0.7957  0.2594 -0.8778
  674MPD2     H10027   1.698   2.951   0.041 -0.1162  1.8606  1.6746
  674MPD2    H110028   1.992   3.258  17.715  0.3900 -0.4646  0.4244
  674MPD2    H210029   2.105   2.854  17.680 -2.5946 -3.9709  2.1461
  674MPD2    H310030   2.150   3.094  17.686  0.4726 -0.1020 -2.5587
  674MPD2     N10031   1.730   3.227   0.044 -0.6464 -0.6247 -0.0281
  674MPD2    H510032   1.638   3.189   0.064 -1.0225  0.2920 -0.0497
  674MPD2    N110033   1.869   2.755  17.736 -0.0938 -0.1734 -0.0148
  674MPD2    H710034   1.937   2.690  17.699 -1.7174 -0.6782 -2.1347
  675TMC3    C110035   1.746   2.549   0.034  0.4350 -0.9888 -0.7585
  675TMC3    C210036   1.654   2.491   0.121  0.0772 -0.1988  0.0764
  675TMC3    C310037   1.601   2.369   0.083  1.1756  0.3589 -0.0097
  675TMC3    C410038   1.787   2.490  17.666 -0.1391  0.1654 -0.7873
  675TMC3    C510039   1.743   2.364  17.643  0.4937  0.0515 -0.1601
  675TMC3    C610040   1.637   2.308  17.715  0.2398 -0.4319 -0.6539
  675TMC3     C10041   1.753   2.697   0.045  0.0388  0.0524 -0.4844
  675TMC3     O10042   1.663   2.748   0.104 -0.2061  0.7565  0.0537
  675TMC3     H10043   1.624   2.545   0.210  1.5481  1.3605 -0.3739
  675TMC3    H110044   1.856   2.529  17.592 -0.9134  0.9527 -1.0891
  675TMC3    H210045   1.579   2.221  17.688 -0.0136 -0.0489 -1.3446
  675TMC3    C710046   1.765   2.312  17.509 -0.2966  0.9617 -0.1679
  675TMC3    C810047   1.489   2.315   0.153 -0.3355 -0.0476 -0.2478
  675TMC3    O110048   1.791   2.388  17.418  0.6684  0.6740  0.2049
  675TMC3    O210049   1.407   2.242   0.096  0.2488 -0.0879  0.0228
  676MPD2     C10050   4.031   1.349  11.577 -0.1389  0.2282 -0.5867
  676MPD2    C110051   4.155   1.294  11.601  0.1968 -0.2773  0.2947
  676MPD2    C210052   4.188   1.178  11.528 -0.0922 -0.3871  0.2535
  676MPD2    C310053   4.110   1.132  11.421 -0.0895  0.0299  0.8657
  676MPD2    C410054   3.984   1.184  11.401 -0.0554  0.6120  0.4303
  676MPD2    C510055   3.946   1.289  11.483 -0.4226 -0.5061 -0.0724
  676MPD2     H10056   4.287   1.141  11.552 -0.4164 -0.8417  0.8973
  676MPD2    H110057   3.921   1.161  11.316  0.1199 -0.1135  0.5027
  676MPD2    H210058   4.000   1.433  11.638  0.1215 -1.4111  1.8284
  676MPD2    H310059   3.848   1.328  11.457 -0.9074 -0.3593  1.9893
  676MPD2     N10060   4.141   1.033  11.326 -0.2761  0.2029 -0.0444
  676MPD2    H510061   4.075   1.007  11.254 -0.6040 -0.5451  0.5245
  676MPD2    N110062   4.228   1.326  11.722  0.7828  0.0743 -0.3143
  676MPD2    H710063   4.307   1.267  11.746  0.3588 -0.4146 -0.1142
  677TMC3    C110064   4.260   1.418  11.940  0.8392  0.3882  0.1872
  677TMC3    C210065   4.310   1.297  11.976  0.0982  0.2873 -0.2201
  677TMC3    C310066   4.348   1.275  12.107  0.1524 -0.0854  0.1464
  677TMC3    C410067   4.278   1.530  12.020 -0.4082  0.0153  0.0856
  677TMC3    C510068   4.340   1.500  12.139 -0.0331  0.3842 -0.5401
  677TMC3    C610069   4.348   1.373  12.199  0.6048 -0.1272  0.9352
  677TMC3     C10070   4.199   1.433  11.805 -0.5427 -0.0435 -0.3411
  677TMC3     O10071   4.159   1.542  11.772 -0.0380 -0.3560 -0.2898
  677TMC3     H10072   4.330   1.213  11.910 -0.3096 -1.3838  1.7759
  677TMC3    H110073   4.237   1.628  11.998  2.1589  0.6581 -1.7463
  677TMC3    H210074   4.394   1.363  12.297 -1.3552 -1.9794  1.6649
  677TMC3    C710075   4.423   1.609  12.190  0.2140  0.3150  0.0602
  677TMC3    C810076   4.346   1.130  12.141 -0.0142  0.4210 -1.2409
  677TMC3    O110077   4.440   1.623  12.309 -0.3278 -0.7587 -0.2305
  677TMC3    O210078   4.285   1.061  12.063  0.4482  0.2945 -0.1563
  678MPD2     C10079   1.095   1.093   1.331  1.4419 -0.0811 -0.7790
  678MPD2    C110080   1.097   1.197   1.244 -0.2969 -0.3707 -0.3107
  678MPD2    C210081   0.976   1.230   1.181 -0.0047  0.1688  0.8413
  678MPD2    C310082   0.856   1.171   1.223  0.2677  0.2850 -0.4502
  678MPD2    C410083   0.856   1.072   1.320  0.2172 -0.3369  0.4243
  678MPD2    C510084   0.979   1.031   1.368  0.1723  0.4114  0.0914
  678MPD2     H10085   0.965   1.303   1.102 -2.0405 -0.6298  0.4053
  678MPD2    H110086   0.765   1.025   1.354 -0.8089  0.5543 -1.1155
  678MPD2    H210087   1.183   1.048   1.375  0.0163 -1.3974  0.7342
  678MPD2    H310088   0.995   0.955   1.443 -0.1264 -0.2173 -0.4800
  678MPD2     N10089   0.738   1.213   1.155  0.0285 -0.2527 -0.0105
  678MPD2    H510090   0.740   1.295   1.095  0.3276 -1.7773 -2.0775
  678MPD2    N110091   1.214   1.259   1.199 -0.1181 -0.0974 -0.2010
  678MPD2    H710092   1.209   1.336   1.133 -0.4366  1.5234  1.7128
  679TMC3    C110093   1.665   1.304   1.062  0.2342 -0.2756  0.2015
  679TMC3    C210094   1.580   1.247   1.157 -0.4737 -0.2453  0.5194
  679TMC3    C310095   1.452   1.305   1.167 -0.5971 -0.5190  0.5600
  679TMC3    C410096   1.632   1.417   0.992 -0.4169  0.4759  0.7295
  679TMC3    C510097   1.510   1.469   1.021  0.3234  0.3358  0.6461
  679TMC3    C610098   1.417   1.417   1.102 -0.0522 -0.7885  0.0926
  679TMC3     C10099   1.732   1.200   0.986  0.5631 -0.6504 -0.4426
  679TMC3     O10100   1.720   1.190   0.864  0.3798 -0.4222  0.1946
  679TMC3     H10101   1.601   1.154   1.208  1.5144 -0.7983 -1.3089
  679TMC3    H110102   1.698   1.451   0.913 -1.5095 -2.5267 -1.4947
  679TMC3    H210103   1.318   1.460   1.106  0.5630  0.7003 -0.4896
  679TMC3    C710104   1.471   1.589   0.950  0.4407  0.3663  0.2411
  679TMC3    C810105   1.344   1.229   1.232 -0.3581  0.0790 -0.6074
  679TMC3    O110106   1.352   1.606   0.935  0.4406 -0.9084  0.1353
  679TMC3    O210107   1.384   1.140   1.307  0.0734 -0.2477  0.0626
  680MPD2     C10108   1.253   0.383  13.937  0.4468  0.0976 -0.2759
  680MPD2    C110109   1.334   0.314  14.027  0.9470 -0.2490  0.6231
  680MPD2    C210110   1.444   0.373  14.097  0.0892  1.0134  0.4957
  680MPD2    C310111   1.463   0.512  14.084 -0.0456  0.1423 -0.7611
  680MPD2    C410112   1.381   0.577  13.993 -1.0409  0.0191  0.0068
  680MPD2    C510113   1.281   0.521  13.921  0.2600 -0.0907 -0.6931
  680MPD2     H10114   1.509   0.317  14.163  0.0288 -0.6429 -0.8442
  680MPD2    H110115   1.382   0.685  13.979  0.2303 -0.2022 -1.5290
  680MPD2    H210116   1.170   0.333  13.889  0.9623 -1.5072  0.5434
  680MPD2    H310117   1.222   0.582  13.853  0.9873  1.7627  0.3355
  680MPD2     N10118   1.579   0.578  14.147  0.2228  0.0027 -0.6095
  680MPD2    H510119   1.589   0.678  14.129 -1.5139  0.3167  0.1784
  680MPD2    N110120   1.317   0.177  14.067 -0.1346  0.0999  0.4373
  680MPD2    H710121   1.389   0.138  14.127  0.3984  1.4184  0.6565
  681TMC3    C110122   1.208   4.710  14.090 -0.2226  0.6208 -0.4811
  681TMC3    C210123   1.201   4.727  14.221  0.4433  0.0627 -0.6093
  681TMC3    C310124   1.256   4.627  14.296 -0.5985 -0.0302 -1.2660
  681TMC3    C410125   1.270   4.598  14.032 -0.3978  0.4891  0.1713
  681TMC3    C510126   1.327   4.503  14.118 -0.4274 -0.3591 -0.2034
  681TMC3    C610127   1.321   4.520  14.248  0.1070  0.0542  0.5357
  681TMC3     C10128   1.221   0.093  14.010 -0.4833  0.1862 -0.0157
  681TMC3     O10129   1.148   0.106  13.913  0.3451 -0.1283  0.0308
  681TMC3     H10130   1.157   0.081  14.258  2.8834  1.6978 -1.7312
  681TMC3    H110131   1.279   4.604  13.924  1.4297 -1.7875  0.2040
  681TMC3    H210132   1.348   4.439  14.314  0.6407 -0.0047  0.2510
  681TMC3    C710133   1.416   4.402  14.069  0.9613  0.3231 -0.4854
  681TMC3    C810134   1.242   4.635  14.440 -0.4515  0.2018 -0.4429
  681TMC3    O110135   1.448   4.299  14.126  0.2656  0.3096  0.1616
  681TMC3    O210136   1.139   4.691  14.477 -0.4962 -0.2585  0.0434
  682MPD2     C10137   3.109   1.797  10.460 -0.0160  0.4789 -0.3851
  682MPD2    C110138   3.151   1.662  10.479 -0.0244  1.0264 -0.5066
  682MPD2    C210139   3.109   1.592  10.585  0.1567  0.2454  0.0375
  682MPD2    C310140   3.013   1.640  10.667  0.8343 -0.2613  0.7786
  682MPD2    C410141   2.975   1.771  10.648 -0.7533 -0.1435 -0.7111
  682MPD2    C510142   3.022   1.848  10.543 -0.2554 -0.2671  0.7460
  682MPD2     H10143   3.148   1.491  10.593 -0.0159  0.1734 -0.0384
  682MPD2    H110144   2.906   1.830  10.707 -0.4997  1.1895 -1.7446
  682MPD2    H210145   3.139   1.854  10.373 -2.7250  0.5866 -1.2332
  682MPD2    H310146   2.980   1.948  10.538  2.5235  0.8744  0.2346
  682MPD2     N10147   2.946   1.566  10.766  0.1773  0.2516  0.4318
  682MPD2    H510148   2.892   1.617  10.836 -1.9154 -1.5423  0.1000
  682MPD2    N110149   3.245   1.597  10.391  0.3619  0.1477  0.2666
  682MPD2    H710150   3.265   1.499  10.411  0.9700 -0.2626 -2.3352
  683TMC3    C110151   2.817   1.436  11.122 -0.4427 -0.2206  1.0660
  683TMC3    C210152   2.761   1.314  11.135 -0.1312 -0.1738 -0.1677
  683TMC3    C310153   2.771   1.231  11.029  0.4971 -0.3577  0.2787
  683TMC3    C410154   2.894   1.474  11.015 -0.3104 -0.1532  0.2357
  683TMC3    C510155   2.892   1.388  10.906  0.0132 -0.3264 -0.2708
  683TMC3    C610156   2.834   1.265  10.909 -0.1565 -0.2199  0.3291
  683TMC3     C10157   2.825   1.524  11.233  0.1803 -0.0946 -0.6162
  683TMC3     O10158   2.862   1.640  11.217 -0.0928  0.6997 -0.3364
  683TMC3     H10159   2.703   1.286  11.223  1.5235 -0.1015  0.9539
  683TMC3    H110160   2.948   1.568  11.019 -1.3141  0.4891 -1.2341
  683TMC3    H210161   2.843   1.203  10.821  0.8074  0.3592  0.0236
  683TMC3    C710162   2.948   1.434  10.784  0.1472 -0.7513  0.2898
  683TMC3    C810163   2.715   1.096  11.046  0.1277  0.7673 -0.7282
  683TMC3    O110164   2.957   1.353  10.696  0.4275 -0.1934 -0.0608
  683TMC3    O210165   2.602   1.095  11.096  0.3130 -0.0851  0.0730
  684MPD2     C10166   1.681   0.695  16.159 -0.1565  0.1779  0.9015
  684MPD2    C110167   1.598   0.730  16.063 -1.0632  0.1083  0.2891
  684MPD2    C210168   1.601   0.864  16.025 -0.2370 -0.1981 -0.0394
  684MPD2    C310169   1.701   0.951  16.068 -0.9674  0.4268  0.0294
  684MPD2    C410170   1.793   0.906  16.155 -0.6038  0.0296 -0.6405
  684MPD2    C510171   1.780   0.782  16.210 -0.2898 -0.4920  0.0434
  684MPD2     H10172   1.536   0.890  15.942 -0.4932 -0.8653 -0.0470
  684MPD2    H110173   1.861   0.966  16.216 -0.3576 -0.0113 -0.8739
  684MPD2    H210174   1.687   0.590  16.184  0.3019 -0.0021  0.0020
  684MPD2    H310175   1.854   0.749  16.282  0.6254 -1.3216 -1.2746
  684MPD2     N10176   1.712   1.087  16.027 -0.3744  0.6975  0.4969
  684MPD2    H510177   1.796   1.135  16.056  0.4423  0.2087 -1.0997
  684MPD2    N110178   1.523   0.635  15.980 -0.9030 -0.3656  0.0204
  684MPD2    H710179   1.458   0.673  15.912  1.7910  0.1875 -2.2096
  685TMC3    C110180   1.541   0.447  15.835  0.7729  0.1115 -0.2532
  685TMC3    C210181   1.490   0.515  15.728  0.2432  0.0709 -0.2287
  685TMC3    C310182   1.552   0.510  15.607 -0.3329 -0.4311 -0.1592
  685TMC3    C410183   1.653   0.364  15.808  0.0273 -0.1180 -0.1581
  685TMC3    C510184   1.717   0.372  15.687 -0.3461  0.3735  0.8201
  685TMC3    C610185   1.661   0.436  15.578  0.2854 -0.5548  0.1343
  685TMC3     C10186   1.552   0.499  15.974  0.3958  0.3110  0.3858
  685TMC3     O10187   1.617   0.428  16.054 -0.2053 -0.9437 -0.0989
  685TMC3     H10188   1.398   0.567  15.755 -0.8258 -1.1749 -1.4271
  685TMC3    H110189   1.692   0.302  15.887 -0.8409 -1.7988 -1.0466
  685TMC3    H210190   1.711   0.445  15.482 -1.7355  0.5106 -0.8188
  685TMC3    C710191   1.856   0.373  15.692  0.8546 -0.3060  0.1767
  685TMC3    C810192   1.495   0.571  15.495  0.6609  0.3483  0.2525
  685TMC3    O110193   1.920   0.352  15.592 -0.0694 -0.1308 -0.2052
  685TMC3    O210194   1.549   0.564  15.382 -0.2990  0.1653 -0.1159
  686MPD2     C10195   2.988   1.177  15.705  0.2927 -0.6365 -0.6121
  686MPD2    C110196   3.027   1.117  15.825 -0.3620 -0.0951 -0.2128
  686MPD2    C210197   3.151   1.053  15.830 -0.1659 -0.1610 -0.2593
  686MPD2    C310198   3.231   1.023  15.713 -0.3602 -0.0145 -0.6075
  686MPD2    C410199   3.205   1.100  15.604  0.1342 -0.1329 -0.7480
  686MPD2    C510200   3.089   1.175  15.613 -0.2943 -0.4493 -0.2042
  686MPD2     H10201   3.205   1.029  15.921 -0.3035  0.1843 -0.0871
  686MPD2    H110202   3.258   1.082  15.511  0.3215  0.4792 -0.7578
  686MPD2    H210203   2.900   1.236  15.688  0.9649  0.7311  0.6548
  686MPD2    H310204   3.064   1.230  15.523  0.2644 -1.9861 -1.3037
  686MPD2     N10205   3.336   0.933  15.698 -0.7010  0.0913  0.0264
  686MPD2    H510206   3.389   0.944  15.612 -0.1842 -1.3405  0.1671
  686MPD2    N110207   2.945   1.137  15.938  0.1904  0.3903 -0.1827
  686MPD2    H710208   2.859   1.186  15.918  1.0121  0.7467 -2.9489
  687TMC3    C110209   3.292   0.809  15.899  0.2037  0.2189  0.4469
  687TMC3    C210210   3.165   0.763  15.871  0.2040  0.5007 -0.6872
  687TMC3    C310211   3.098   0.717  15.980  0.0698 -0.1835  0.1867
  687TMC3    C410212   3.348   0.809  16.023 -0.1495  0.2675 -0.0632
  687TMC3    C510213   3.271   0.770  16.129  0.2001 -0.3789 -0.4154
  687TMC3    C610214   3.146   0.732  16.107  0.2319  0.2074  0.4809
  687TMC3     C10215   3.388   0.844  15.794 -0.7517 -0.3485 -0.0751
  687TMC3     O10216   3.496   0.788  15.790  0.4773  0.4322  0.4045
  687TMC3     H10217   3.135   0.748  15.768 -2.0018 -3.5925  0.5563
  687TMC3    H110218   3.449   0.844  16.040 -0.0016 -1.3748  2.5309
  687TMC3    H210219   3.087   0.696  16.191 -0.1291 -0.1235  0.0832
  687TMC3    C710220   3.325   0.779  16.263 -0.8773 -0.1961  1.1053
  687TMC3    C810221   2.959   0.689  15.961 -0.4290  0.4683 -1.0689
  687TMC3    O110222   3.261   0.834  16.349  0.4415 -0.0360  0.4767
  687TMC3    O210223   2.907   0.612  16.045  0.0165  0.2360  0.3029
  688MPD2     C10224   2.356   4.536  17.433 -0.8250  0.3891  0.2451
  688MPD2    C110225   2.366   4.399  17.445 -1.0995  0.0828 -0.5992
  688MPD2    C210226   2.438   4.334  17.339 -0.9447 -0.2396 -0.3914
  688MPD2    C310227   2.518   4.404  17.254 -0.5414 -0.4364 -0.6709
  688MPD2    C410228   2.512   4.544  17.249  0.6183  0.7274  1.7491
  688MPD2    C510229   2.429   4.604  17.337 -0.6499  0.3402  0.0860
  688MPD2     H10230   2.441   4.226  17.335 -1.4353 -0.3061  1.0915
  688MPD2    H110231   2.562   4.599  17.170  1.4598 -1.1010  1.0143
  688MPD2    H210232   2.293   4.598  17.494 -1.6217 -0.7075  0.5449
  688MPD2    H310233   2.419   4.711  17.332 -2.1752  0.1574 -0.6492
  688MPD2     N10234   2.610   4.361  17.154  0.0286 -0.8165 -0.2358
  688MPD2    H510235   2.662   4.432  17.102  0.9127 -0.9080  0.5303
  688MPD2    N110236   2.306   4.325  17.545  0.1207  0.2304  0.1054
  688MPD2    H710237   2.329   4.226  17.540  1.6603  0.4947  2.2182
  689TMC3    C110238   2.197   4.266   0.009  0.0128 -0.4653  0.6497
  689TMC3    C210239   2.130   4.320   0.123 -0.5573  0.1242  0.3490
  689TMC3    C310240   2.121   4.247   0.236 -0.9045 -0.9166  0.1919
  689TMC3    C410241   2.242   4.137   0.003  0.5246 -0.2235  0.3773
  689TMC3    C510242   2.217   4.064   0.114  0.5783  0.9035 -0.5881
  689TMC3    C610243   2.168   4.115   0.233 -1.0477  0.3863 -0.1076
  689TMC3     C10244   2.233   4.373  17.654  0.1874  0.7741 -0.2092
  689TMC3     O10245   2.187   4.486  17.674  0.4162 -0.2375  0.1438
  689TMC3     H10246   2.112   4.427   0.124 -1.7961 -0.1041  1.7065
  689TMC3    H110247   2.298   4.092  17.669 -0.6055 -1.1096  0.0839
  689TMC3    H210248   2.178   4.049   0.318  2.1434  1.4234  0.3465
  689TMC3    C710249   2.225   3.923   0.101 -0.3039 -0.2178 -0.1405
  689TMC3    C810250   2.065   4.293   0.358  0.4191  0.1360  0.4516
  689TMC3    O110251   2.256   3.867   0.205 -0.1350 -1.5269  0.2301
  689TMC3    O210252   2.079   4.219   0.449  0.1116  0.2659  0.3953
  690MPD2     C10253   4.454   1.496  15.598 -0.5617 -0.0230  0.1646
  690MPD2    C110254   4.452   1.490  15.462 -0.3475 -0.0670 -0.0103
  690MPD2    C210255   4.565   1.528  15.393 -0.4174  0.3120 -0.5378
  690MPD2    C310256   4.683   1.553  15.459  0.0313 -0.4046  0.3347
  690MPD2    C410257   4.686   1.542  15.595  0.9379  0.4723 -0.2381
  690MPD2    C510258   4.569   1.528  15.665 -0.4812 -0.4812  0.4532
  690MPD2     H10259   4.557   1.534  15.285 -1.2766 -0.0819 -0.4965
  690MPD2    H110260   0.043   1.544  15.648 -0.2778  1.2494  1.8731
  690MPD2    H210261   4.374   1.455  15.659  0.2335 -0.4611  0.9130
  690MPD2    H310262   4.571   1.517  15.772  1.5024 -0.4159  0.4213
  690MPD2     N10263   0.067   1.583  15.387 -0.0418  0.3250  0.5250
  690MPD2    H510264   0.055   1.619  15.293 -0.0885 -1.4707 -0.1552
  690MPD2    N110265   4.346   1.448  15.388  0.0678 -0.7525  0.0099
  690MPD2    H710266   4.358   1.429  15.289 -0.0499  2.9246 -0.7305
  691TMC3    C110267   4.140   1.350  15.346  0.4215 -0.0501  0.7618
  691TMC3    C210268   4.005   1.362  15.345 -0.0032 -0.1231 -0.0650
  691TMC3    C310269   3.933   1.257  15.313 -0.6581  0.0931 -0.0271
  691TMC3    C410270   4.197   1.232  15.306 -0.4772  0.1449 -0.3547
  691TMC3    C510271   4.121   1.119  15.279  0.3463  0.0765 -0.4297
  691TMC3    C610272   3.987   1.136  15.282  0.7671 -0.0577 -0.0929
  691TMC3     C10273   4.222   1.426  15.440 -0.1650 -0.2879  0.2152
  691TMC3     O10274   4.180   1.440  15.554 -0.5333 -0.4216 -0.8733
  691TMC3     H10275   3.963   1.454  15.385 -1.3120 -0.1037 -1.4789
  691TMC3    H110276   4.304   1.217  15.318  0.2394  3.5945 -2.4157
  691TMC3    H210277   3.922   1.058  15.244  1.0824  0.5008 -1.8188
  691TMC3    C710278   4.168   0.989  15.318 -1.1882 -0.6066 -0.2162
  691TMC3    C810279   3.803   1.250  15.377 -0.0996 -0.1667  0.1572
  691TMC3    O110280   4.283   0.952  15.321  0.7142  0.1581  0.4461
  691TMC3    O210281   3.744   1.149  15.344  0.3658 -0.3422 -0.0540
  692TMC3    C110282   1.402   2.320  15.421 -0.2488  0.0612  0.0096
  692TMC3    C210283   1.538   2.342  15.432  0.3848  0.6012  0.1631
  692TMC3    C310284   1.628   2.259  15.377  0.3056  0.0517 -0.3069
  692TMC3    C410285   1.357   2.203  15.365 -0.4298 -0.5963 -0.3131
  692TMC3    C510286   1.452   2.113  15.313  0.2034  0.2413 -0.3691
  692TMC3    C610287   1.587   2.133  15.341  0.7229 -0.1284 -0.3039
  692TMC3     C10288   1.336   2.349  15.548  0.4159 -1.3117  0.0174
  692TMC3     O10289   1.239   2.279  15.573 -1.1813 -0.4272 -0.3147
  692TMC3     H10290   1.568   2.445  15.448 -1.0206  0.7755  1.5841
  692TMC3    H110291   1.255   2.169  15.356 -0.3126 -1.2342  0.8239
  692TMC3    H210292   1.674   2.078  15.305  2.0377  0.8176  1.3967
  692TMC3    C710293   1.408   1.977  15.281  0.1011  0.6997 -0.5907
  692TMC3    C810294   1.761   2.255  15.446 -0.6888 -0.0351  0.0736
  692TMC3    O110295   1.308   1.965  15.212  0.4942  0.1507  0.3734
  692TMC3    O210296   1.850   2.188  15.394 -0.8114 -0.4480 -0.2105
  693MPD2     C10297   0.857   0.581  11.419  0.1032 -0.8931  0.6955
  693MPD2    C110298   0.821   0.530  11.296 -0.2044  0.0228 -0.2537
  693MPD2    C210299   0.924   0.483  11.217 -0.0092 -0.3246  0.0163
  693MPD2    C310300   1.056   0.476  11.264  0.3521  0.2223  0.1017
  693MPD2    C410301   1.083   0.515  11.389  0.1553 -0.2707 -0.3896
  693MPD2    C510302   0.985   0.570  11.467  0.3652  0.3192 -0.0334
  693MPD2     H10303   0.904   0.448  11.116 -1.4354  0.0870  0.1704
  693MPD2    H110304   1.178   0.502  11.439 -0.6841  0.2705  1.3569
  693MPD2    H210305   0.787   0.593  11.501 -0.5102 -2.0438  0.3385
  693MPD2    H310306   0.996   0.604  11.569  1.7977  2.6042 -0.9371
  693MPD2     N10307   1.163   0.414  11.200 -0.2561 -0.2859  0.7778
  693MPD2    H510308   1.249   0.423  11.254  0.6070 -0.0945 -0.6491
  693MPD2    N110309   0.678   0.518  11.273  0.5349 -0.0354 -0.1129
  693MPD2    H710310   0.615   0.542  11.349  0.3632  0.6380 -0.4752
  694TMC3    C110311   0.488   0.411  11.215 -0.2788  0.7402  0.3060
  694TMC3    C210312   0.413   0.375  11.112  0.0038  0.5491 -0.1882
  694TMC3    C310313   0.291   0.324  11.133  0.5559  0.3207 -0.6280
  694TMC3    C410314   0.448   0.396  11.346  0.1335  0.3754 -0.2510
  694TMC3    C510315   0.320   0.356  11.367  0.3430 -0.3949  0.2752
  694TMC3    C610316   0.245   0.314  11.263  0.0187  0.0294 -0.2750
  694TMC3     C10317   0.621   0.443  11.177 -0.4105  1.1560  0.2585
  694TMC3     O10318   0.658   0.410  11.066  0.2157 -0.2976 -0.6509
  694TMC3     H10319   0.440   0.401  11.011 -0.3203  1.2810 -0.0844
  694TMC3    H110320   0.510   0.405  11.434  0.4161 -1.4288 -0.2744
  694TMC3    H210321   0.144   0.275  11.272 -0.5121  1.7400  1.3530
  694TMC3    C710322   0.282   0.319  11.502  0.5411  0.0278 -0.4245
  694TMC3    C810323   0.208   0.279  11.029  0.6433  0.7126 -0.1114
  694TMC3    O110324   0.327   0.387  11.591 -0.5776 -0.4896 -0.6870
  694TMC3    O210325   0.134   0.191  11.070 -0.7160  0.2677 -0.4931
  695MPD2     C10326   1.725   2.485  13.491 -0.3458 -0.7611  0.2406
  695MPD2    C110327   1.645   2.467  13.598 -0.5141 -0.0794 -0.5560
  695MPD2    C210328   1.521   2.529  13.599 -0.3848  0.1297  0.8667
  695MPD2    C310329   1.481   2.617  13.499  0.4163  0.8271 -0.4236
  695MPD2    C410330   1.558   2.623  13.384 -0.4969  0.5507 -0.1071
  695MPD2    C510331   1.681   2.560  13.381 -0.2946  0.0358  0.1746
  695MPD2     H10332   1.467   2.530  13.693  0.1712 -1.5389  1.2063
  695MPD2    H110333   1.527   2.673  13.292  0.4956  0.0207 -0.7363
  695MPD2    H210334   1.830   2.456  13.493 -0.0396  0.2465 -1.3251
  695MPD2    H310335   1.752   2.588  13.304  2.0067 -1.2037  1.8774
  695MPD2     N10336   1.356   2.675  13.506  0.4803  0.5032  0.2634
  695MPD2    H510337   1.307   2.656  13.592 -0.2470 -0.6522 -0.4169
  695MPD2    N110338   1.698   2.387  13.713  0.2188 -0.1465  0.1981
  695MPD2    H710339   1.634   2.374  13.791 -2.1164 -1.3491 -1.9109
  696TMC3    C110340   1.161   2.777  13.446 -0.1200  0.9785  0.1869
  696TMC3    C210341   1.074   2.686  13.516 -0.3554  0.3980  0.3895
  696TMC3    C310342   0.952   2.730  13.553  0.1007 -0.3257 -0.5665
  696TMC3    C410343   1.118   2.906  13.418 -0.2306  0.2122  0.3845
  696TMC3    C510344   0.995   2.940  13.463 -0.1949 -0.4285  1.0099
  696TMC3    C610345   0.910   2.859  13.533  0.0857 -0.1457 -1.2465
  696TMC3     C10346   1.292   2.745  13.404  0.2914  0.8474  0.0436
  696TMC3     O10347   1.322   2.765  13.286 -0.5850  0.5691 -0.5850
  696TMC3     H10348   1.106   2.584  13.538  1.5925  0.0635 -4.0828
  696TMC3    H110349   1.183   2.980  13.373  2.5949 -2.2980  0.3504
  696TMC3    H210350   0.805   2.879  13.550 -0.3429 -1.9987 -1.6662
  696TMC3    C710351   0.975   3.083  13.499 -0.2346  0.4641  0.4275
  696TMC3    C810352   0.851   2.641  13.607  0.1638  0.5267  0.1086
  696TMC3    O110353   1.052   3.169  13.456 -0.4374 -0.5012 -0.4390
  696TMC3    O210354   0.741   2.649  13.561  0.1534  0.5983  0.2360
  697MPD2     C10355   0.661   4.010  15.928  0.0258  0.3620  1.0173
  697MPD2    C110356   0.757   3.932  15.858 -0.6717 -0.7078  0.1605
  697MPD2    C210357   0.845   3.990  15.769  0.3194  0.0153  0.1583
  697MPD2    C310358   0.841   4.124  15.744 -0.0354  0.0632  0.1573
  697MPD2    C410359   0.738   4.199  15.802  0.1748 -0.6802  0.8039
  697MPD2    C510360   0.658   4.143  15.900 -0.0118 -0.4908  0.0209
  697MPD2     H10361   0.905   3.919  15.714 -2.6187 -1.9466 -0.5785
  697MPD2    H110362   0.735   4.304  15.776 -2.7867 -0.9719 -0.0622
  697MPD2    H210363   0.568   3.969  15.965  0.2885 -1.8662 -0.8005
  697MPD2    H310364   0.573   4.203  15.928 -0.8571 -1.5440 -0.2782
  697MPD2     N10365   0.925   4.175  15.642  0.2864  0.3679  0.6654
  697MPD2    H510366   1.007   4.119  15.618 -0.3358 -0.3478  0.2323
  697MPD2    N110367   0.755   3.794  15.850 -0.0951  0.1247  0.1588
  697MPD2    H710368   0.824   3.755  15.786 -0.7782 -0.6436 -0.1081
  698TMC3    C110369   1.046   4.332  15.507 -0.7664 -0.1671  0.4920
  698TMC3    C210370   1.100   4.460  15.512  0.6424  0.2469  0.0623
  698TMC3    C310371   1.220   4.485  15.444 -0.8749  0.0873 -0.2789
  698TMC3    C410372   1.095   4.235  15.430  0.1391 -0.6858 -0.5070
  698TMC3    C510373   1.205   4.266  15.346  0.3194 -0.5463 -0.1234
  698TMC3    C610374   1.267   4.387  15.357 -0.0777  0.3810 -0.4435
  698TMC3     C10375   0.934   4.307  15.599  0.6374 -0.6793  1.1244
  698TMC3     O10376   0.874   4.401  15.646  0.1480  0.0934 -0.3751
  698TMC3     H10377   1.056   4.536  15.576 -1.4603  0.2339 -1.3980
  698TMC3    H110378   1.043   4.141  15.418  0.5210 -0.9410 -0.1633
  698TMC3    H210379   1.344   4.406  15.284  0.6403 -0.2681  0.1485
  698TMC3    C710380   1.179   4.229  15.219 -0.7461 -0.1682 -0.4903
  698TMC3    C810381   1.257   4.626  15.422  0.1517 -0.3845 -0.1929
  698TMC3    O110382   1.081   4.288  15.182 -0.4184 -0.4249  0.0445
  698TMC3    O210383   1.190   4.716  15.469 -0.2256  0.0525  0.5984
  699TMC3    C110384   1.277   2.431  13.111  0.2309  0.8323  0.8431
  699TMC3    C210385   1.329   2.400  13.233  0.2008 -0.2859 -0.5045
  699TMC3    C310386   1.242   2.349  13.328 -0.8946  0.6036  0.1546
  699TMC3    C410387   1.144   2.428  13.093 -0.0051  0.2736  0.1974
  699TMC3    C510388   1.056   2.406  13.198 -0.9461  0.2817  0.8627
  699TMC3    C610389   1.105   2.358  13.321 -0.0792  0.0741  0.7338
  699TMC3     C10390   1.349   2.517  13.026  0.3361  0.0383 -0.3903
  699TMC3     O10391   1.277   2.594  12.962  0.1161  0.0256 -0.0136
  699TMC3     H10392   1.436   2.412  13.248 -0.1540 -0.7823  2.3855
  699TMC3    H110393   1.107   2.440  12.991 -1.7620  1.0375  0.9169
  699TMC3    H210394   1.033   2.348  13.402 -0.9432  1.3890  0.1381
  699TMC3    C710395   0.949   2.509  13.211  0.4774 -0.5435  0.3349
  699TMC3    C810396   1.292   2.302  13.457 -0.4447  0.1159  0.2915
  699TMC3    O110397   0.877   2.514  13.312 -0.2825  0.5109  0.0265
  699TMC3    O210398   1.211   2.298  13.550  0.0281 -0.3142 -0.3485
  700TMC3    C110399   0.166   4.039  17.227  0.2486 -0.6577  1.3768
  700TMC3    C210400   0.244   3.941  17.278 -0.6166  0.6703  0.0121
  700TMC3    C310401   0.326   3.967  17.382  0.1238  0.1533 -1.3468
  700TMC3    C410402   0.167   4.162  17.273  0.0558 -0.2263  0.0996
  700TMC3    C510403   0.239   4.190  17.389  0.2783 -0.0127  0.6393
  700TMC3    C610404   0.325   4.094  17.435 -0.3555  0.0721 -0.0875
  700TMC3     C10405   0.157   4.043  17.084 -0.5166  0.8353  0.2024
  700TMC3     O10406   0.095   3.954  17.023 -0.6482 -0.3303 -0.4872
  700TMC3     H10407   0.241   3.842  17.233 -2.3890  0.2249  1.1143
  700TMC3    H110408   0.105   4.239  17.229 -0.6850 -1.5706 -1.1998
  700TMC3    H210409   0.381   4.114  17.526  0.4936 -0.2547 -0.5386
  700TMC3    C710410   0.233   4.310  17.469 -1.1503 -0.0808  0.1950
  700TMC3    C810411   0.453   3.902  17.369  0.0407 -0.1595 -0.3957
  700TMC3    O110412   0.333   4.331  17.539  0.0978  0.1979 -0.3782
  700TMC3    O210413   0.541   3.978  17.344 -0.3844  0.7974 -0.9849
  701TMC3    C110414   4.711   3.129  15.661  0.0517 -0.1058  0.6650
  701TMC3    C210415   0.034   3.038  15.571  0.0712  0.1834 -0.3238
  701TMC3    C310416   0.170   3.065  15.551 -0.3088 -0.3989 -0.4060
  701TMC3    C410417   0.046   3.221  15.732  0.7266 -0.2571 -0.1763
  701TMC3    C510418   0.178   3.233  15.712  0.0425  0.5065  0.3481
  701TMC3    C610419   0.247   3.157  15.620 -0.1486 -0.1956  0.3363
  701TMC3     C10420   4.570   3.112  15.698  0.1358  1.8466 -0.9077
  701TMC3     O10421   4.533   3.168  15.797  0.2164 -0.2321 -0.4446
  701TMC3     H10422   4.734   2.938  15.551  1.7374 -0.3060 -0.9661
  701TMC3    H110423   4.722   3.285  15.794 -1.1257 -1.5800 -0.6116
  701TMC3    H210424   0.349   3.181  15.594  0.8048 -2.8808  1.6081
  701TMC3    C710425   0.225   3.369  15.728  0.1582  0.3180 -0.0968
  701TMC3    C810426   0.236   2.989  15.449 -0.3280  0.5966 -0.3564
  701TMC3    O110427   0.289   3.410  15.632  0.3591  0.1233  0.1103
  701TMC3    O210428   0.359   2.969  15.460 -0.2106  0.0569  0.0156
  702MPD2     C10429   4.657   0.863  10.748 -0.1944 -0.5448  0.0099
  702MPD2    C110430   4.545   0.922  10.812 -0.4207 -0.1465 -0.2442
  702MPD2    C210431   4.494   1.025  10.746  0.4678  0.1017  0.0045
  702MPD2    C310432   4.547   1.079  10.627 -0.1546  0.3733  0.7594
  702MPD2    C410433   4.659   1.016  10.569 -0.5162 -0.0971 -0.8314
  702MPD2    C510434   4.713   0.909  10.637 -0.2914 -0.6384  0.0388
  702MPD2     H10435   4.402   1.059  10.792 -0.2494 -1.5906 -0.1735
  702MPD2    H110436   4.710   1.049  10.479  0.7091 -1.0848 -0.5000
  702MPD2    H210437   4.692   0.765  10.780 -1.1284 -1.6382 -2.2953
  702MPD2    H310438   0.052   0.847  10.592 -0.5060 -1.0869  0.2910
  702MPD2     N10439   4.498   1.201  10.568  0.4089  0.1517  0.0926
  702MPD2    H510440   4.537   1.225  10.478  1.3216 -1.2884  0.0885
  702MPD2    N110441   4.478   0.866  10.915 -0.0229  0.5752  0.5171
  702MPD2    H710442   4.402   0.922  10.954 -1.0838  0.9131 -2.0365
  703TMC3    C110443   4.382   1.406  10.555 -0.6379  0.4123  0.9968
  703TMC3    C210444   4.281   1.473  10.614 -0.0715  0.4674 -0.4470
  703TMC3    C310445   4.297   1.607  10.650 -0.0729  0.4567 -0.5544
  703TMC3    C410446   4.499   1.468  10.513 -0.0003  0.6748  0.2902
  703TMC3    C510447   4.518   1.597  10.567  0.0686  1.2155 -0.0186
  703TMC3    C610448   4.421   1.669  10.630 -0.3272 -0.4120 -0.3977
  703TMC3     C10449   4.389   1.267  10.604  0.4625 -0.1264  0.6621
  703TMC3     O10450   4.306   1.234  10.689  0.3956 -0.5335 -0.0383
  703TMC3     H10451   4.194   1.420  10.652 -0.4460  1.3391 -0.0819
  703TMC3    H110452   4.580   1.413  10.465 -1.5360  0.9914 -2.6533
  703TMC3    H210453   4.442   1.769  10.665  1.1869 -1.2179  1.0550
  703TMC3    C710454   4.661   1.649  10.564 -0.1800  0.1276  0.5665
  703TMC3    C810455   4.216   1.656  10.763 -0.0461  0.6941  0.2127
  703TMC3    O110456   4.718   1.651  10.458 -0.0218  0.1070  0.0967
  703TMC3    O210457   4.260   1.753  10.823 -0.1593  0.1840  0.4977
  704TMC3    C110458   2.304   3.847  12.524 -0.6507  0.4513 -0.2404
  704TMC3    C210459   2.438   3.855  12.509 -0.1239  0.1606 -0.2567
  704TMC3    C310460   2.518   3.794  12.595 -0.4125  0.1845 -0.3913
  704TMC3    C410461   2.248   3.771  12.619  0.7696 -0.6483  0.4727
  704TMC3    C510462   2.336   3.715  12.708  0.7683  0.0340  0.1241
  704TMC3    C610463   2.473   3.726  12.708 -0.9647 -0.1418 -1.0107
  704TMC3     C10464   2.222   3.874  12.408 -0.4272  0.2603 -0.1045
  704TMC3     O10465   2.120   3.936  12.426  0.0719 -0.1031  0.1055
  704TMC3     H10466   2.476   3.914  12.426 -1.0745  1.3988  0.1939
  704TMC3    H110467   2.141   3.762  12.630  0.5700  0.4360 -0.5852
  704TMC3    H210468   2.534   3.658  12.767 -1.3787  0.4561  0.1034
  704TMC3    C710469   2.278   3.596  12.763  0.2272 -0.1558  0.0599
  704TMC3    C810470   2.651   3.770  12.540  0.6820  0.4794  0.1860
  704TMC3    O110471   2.187   3.544  12.699  0.0393  0.0485 -0.5868
  704TMC3    O210472   2.672   3.803  12.425  0.0642  0.3682  0.3804
  705MPD2     C10473   1.677   1.897  16.084 -0.0692  0.3861  0.6073
  705MPD2    C110474   1.737   1.968  16.187 -0.2970  0.6933 -0.3125
  705MPD2    C210475   1.662   1.977  16.306  0.5131  0.1807  0.3661
  705MPD2    C310476   1.526   1.941  16.305  0.3466  0.2974 -0.6069
  705MPD2    C410477   1.470   1.873  16.202 -0.5797 -0.0114  0.2238
  705MPD2    C510478   1.549   1.849  16.093  0.5179 -0.2063  0.1422
  705MPD2     H10479   1.715   2.019  16.390  0.4632 -0.4191  0.6963
  705MPD2    H110480   1.367   1.846  16.185 -0.3018  0.5488 -2.3257
  705MPD2    H210481   1.722   1.894  15.986  0.4371  1.0307  0.8135
  705MPD2    H310482   1.501   1.806  16.006  1.9490 -2.0568  0.2694
  705MPD2     N10483   1.441   1.969  16.416 -0.0537 -0.1485 -0.1321
  705MPD2    H510484   1.346   1.935  16.408 -0.3951  0.4434  1.3916
  705MPD2    N110485   1.876   2.007  16.184  0.0431 -1.0029  0.5403
  705MPD2    H710486   1.914   2.045  16.270 -1.7736  0.4104  0.7221
  706TMC3    C110487   2.283   2.114  15.979  0.8906  0.0436 -0.0757
  706TMC3    C210488   2.286   2.222  16.065  0.2135  0.4066  0.0116
  706TMC3    C310489   2.201   2.232  16.167  0.1974  0.3376 -0.4136
  706TMC3    C410490   2.179   2.026  15.993  0.0694  0.2698  0.2026
  706TMC3    C510491   2.084   2.054  16.091  0.1916  0.1075  0.4670
  706TMC3    C610492   2.096   2.153  16.174  0.1791 -0.6965  0.4277
  706TMC3     C10493   2.406   2.086  15.905 -0.0198 -0.0391  0.2913
  706TMC3     O10494   2.504   2.158  15.932 -0.7810 -0.3211  0.3279
  706TMC3     H10495   2.372   2.288  16.068 -0.5812  1.5638 -3.3701
  706TMC3    H110496   2.149   1.947  15.925  1.9744 -0.6977  0.4901
  706TMC3    H210497   2.015   2.184  16.239  0.2735  0.8926 -0.2162
  706TMC3    C710498   1.958   1.994  16.075  0.1916 -0.1273 -0.3568
  706TMC3    C810499   2.163   2.368  16.203 -0.9010  0.3303 -0.3922
  706TMC3    O110500   1.936   1.953  15.960 -0.4776 -0.2182 -0.1170
  706TMC3    O210501   2.171   2.444  16.110 -0.2966 -0.1755  0.3397
  707TMC3    C110502   3.737   1.203   1.573  0.1204 -0.2139  0.3433
  707TMC3    C210503   3.690   1.073   1.560  0.4268  0.1237  0.2603
  707TMC3    C310504   3.563   1.046   1.614  0.3709 -0.2693 -0.0068
  707TMC3    C410505   3.657   1.305   1.620 -0.1540  0.2562 -0.5003
  707TMC3    C510506   3.537   1.275   1.667  0.7297 -0.2690  0.7580
  707TMC3    C610507   3.486   1.150   1.659  0.8523  0.2342 -0.0032
  707TMC3     C10508   3.872   1.222   1.535 -0.1109 -0.4157 -0.8167
  707TMC3     O10509   3.940   1.121   1.540 -0.3232  0.5391 -0.1295
  707TMC3     H10510   3.755   1.001   1.511  1.2628  2.2708 -1.7551
  707TMC3    H110511   3.689   1.408   1.603 -3.6245  1.3136 -0.6320
  707TMC3    H210512   3.392   1.130   1.708 -0.7212  0.5404 -2.9081
  707TMC3    C710513   3.460   1.387   1.723 -0.5547 -0.0166 -0.3007
  707TMC3    C810514   3.482   0.942   1.549  0.3836 -0.1167  1.0044
  707TMC3    O110515   3.514   1.491   1.753 -0.2052  0.1212 -0.1921
  707TMC3    O210516   3.359   0.955   1.546 -0.2313 -0.2093  0.5842
  708MPD2     C10517   0.458   0.086  13.794 -0.9194 -0.0937 -0.2889
  708MPD2    C110518   0.471   0.216  13.836 -0.2969 -0.6799 -0.7907
  708MPD2    C210519   0.403   0.261  13.940  0.4064  0.4567  0.1903
  708MPD2    C310520   0.320   0.182  14.010 -0.1406  0.6614 -0.5761
  708MPD2    C410521   0.299   0.053  13.967  0.3126 -0.6033 -0.7373
  708MPD2    C510522   0.375   0.007  13.864 -0.2571  0.7255  0.6480
  708MPD2     H10523   0.407   0.362  13.978  0.9873  1.2875 -2.0398
  708MPD2    H110524   0.242   4.719  14.025  0.7609 -1.2992 -1.1463
  708MPD2    H210525   0.525   0.054  13.715 -1.6132 -0.3231 -0.7942
  708MPD2    H310526   0.361   4.641  13.836 -0.7224  0.3411  2.2903
  708MPD2     N10527   0.244   0.224  14.117 -0.2823 -0.1660  0.7849
  708MPD2    H510528   0.190   0.148  14.158 -0.0199  0.5900  2.5346
  708MPD2    N110529   0.548   0.299  13.753 -0.3124  0.1242 -0.0207
  708MPD2    H710530   0.595   0.261  13.671  1.1235  1.2926  0.2616
  709TMC3    C110531   0.633   0.492  13.651  0.1232  0.3265  0.4770
  709TMC3    C210532   0.631   0.417  13.534 -0.6409 -0.0403 -0.1711
  709TMC3    C310533   0.591   0.483  13.419 -0.1348 -0.4043 -0.1154
  709TMC3    C410534   0.602   0.623  13.652 -0.5505 -0.0051 -0.2123
  709TMC3    C510535   0.560   0.681  13.538  0.5214 -0.3072  0.2973
  709TMC3    C610536   0.547   0.615  13.418 -0.3358  0.0170  0.2986
  709TMC3     C10537   0.561   0.434  13.766  0.3108 -0.5937  0.1536
  709TMC3     O10538   0.504   0.511  13.843 -0.5215  0.9876  0.2944
  709TMC3     H10539   0.654   0.311  13.532 -1.3755 -0.1737 -1.0596
  709TMC3    H110540   0.623   0.683  13.740 -1.1662 -2.0428  1.3284
  709TMC3    H210541   0.498   0.661  13.334 -0.9073 -1.8235 -0.3837
  709TMC3    C710542   0.448   0.767  13.571 -0.2450 -0.4730  0.0998
  709TMC3    C810543   0.536   0.390  13.322  0.1739  0.1946  0.1970
  709TMC3    O110544   0.403   0.837  13.483  0.5070  0.5312  0.0425
  709TMC3    O210545   0.563   0.274  13.339 -0.7047 -0.0314 -0.7903
  710TMC3    C110546   0.927   1.986   0.408  0.0768 -0.6063  0.2072
  710TMC3    C210547   0.948   1.944   0.276  0.0291 -0.4121 -0.4856
  710TMC3    C310548   1.076   1.911   0.234  0.7566 -0.2191  0.5130
  710TMC3    C410549   1.028   1.993   0.500 -0.3837 -0.2003 -0.6289
  710TMC3    C510550   1.153   1.948   0.457 -0.4241  0.3412 -0.3973
  710TMC3    C610551   1.179   1.918   0.326  1.1752 -0.0841 -0.6114
  710TMC3     C10552   0.816   2.077   0.427  0.5216  0.4370 -0.1253
  710TMC3     O10553   0.733   2.072   0.335 -0.3631  0.0338  0.1756
  710TMC3     H10554   0.872   1.959   0.201 -0.1147 -0.7851 -0.4136
  710TMC3    H110555   1.015   2.019   0.605 -2.9516  0.9436 -1.2125
  710TMC3    H210556   1.275   1.873   0.303  2.2788  1.9979 -0.0708
  710TMC3    C710557   1.245   1.902   0.564 -0.6755 -0.3937  0.2077
  710TMC3    C810558   1.101   1.880   0.098  0.2575 -0.9482  0.2685
  710TMC3    O110559   1.188   1.886   0.671 -0.0643  0.6450  0.8408
  710TMC3    O210560   1.218   1.898   0.059  0.5184  0.2561  0.2687
  711TMC3    C110561   0.800   2.753  15.437  0.8870 -0.0170  0.3171
  711TMC3    C210562   0.863   2.727  15.560 -0.0007 -0.0054  1.0521
  711TMC3    C310563   0.923   2.822  15.628  0.5688 -0.3976  0.2206
  711TMC3    C410564   0.792   2.886  15.393  0.2288 -0.1781 -0.2649
  711TMC3    C510565   0.887   2.967  15.445  0.8980 -0.2036 -0.2808
  711TMC3    C610566   0.951   2.942  15.561 -0.6119 -0.0764  0.6926
  711TMC3     C10567   0.841   2.668  15.326 -0.3431 -0.4313 -0.3043
  711TMC3     O10568   0.758   2.667  15.236 -0.2106 -0.1401 -0.0004
  711TMC3     H10569   0.846   2.628  15.601  0.9659  0.0848  1.6657
  711TMC3    H110570   0.750   2.913  15.297 -1.2361  0.7818  0.6411
  711TMC3    H210571   1.020   3.014  15.602  0.4265 -0.5699 -0.1659
  711TMC3    C710572   0.993   3.003  15.347 -0.1839  0.2304 -0.7827
  711TMC3    C810573   0.972   2.802  15.758 -0.8621  0.5123  0.1624
  711TMC3    O110574   1.105   2.990  15.400  0.1775  0.0949 -0.2343
  711TMC3    O210575   0.918   2.720  15.829 -0.1827 -0.3727 -0.0468
  712MPD2     C10576   2.299   4.096  13.358  0.7987  0.3996 -0.5576
  712MPD2    C110577   2.327   3.996  13.448  0.0265  0.2503  0.0022
  712MPD2    C210578   2.322   4.025  13.581 -0.6507 -0.1600  0.2883
  712MPD2    C310579   2.296   4.153  13.630 -0.8456  0.1771  0.0619
  712MPD2    C410580   2.260   4.252  13.542 -0.6085 -0.0254  0.0506
  712MPD2    C510581   2.259   4.222  13.404 -1.1298  0.2765 -0.1486
  712MPD2     H10582   2.354   3.948  13.651  1.4611  0.6953  0.2570
  712MPD2    H110583   2.231   4.353  13.567  0.7626  0.6454 -1.0760
  712MPD2    H210584   2.292   4.072  13.253 -1.5615 -0.2574 -0.2508
  712MPD2    H310585   2.229   4.292  13.327  1.0744  1.6275  0.2199
  712MPD2     N10586   2.296   4.184  13.773 -0.7510  0.4578 -0.1943
  712MPD2    H510587   2.334   4.111  13.833 -0.2629 -1.1306 -2.4517
  712MPD2    N110588   2.339   3.863  13.410 -0.0341 -0.3555  0.0574
  712MPD2    H710589   2.335   3.801  13.490 -1.0585  0.6667  0.7992
  713TMC3    C110590   2.283   4.304  13.977 -0.9806 -0.0551 -0.1190
  713TMC3    C210591   2.413   4.280  14.021 -0.4988  0.2245 -0.0765
  713TMC3    C310592   2.457   4.351  14.134  0.6030 -0.0282  0.4411
  713TMC3    C410593   2.198   4.379  14.054  0.4485  0.1623 -0.2288
  713TMC3    C510594   2.240   4.437  14.175  0.5510  0.1772  0.3945
  713TMC3    C610595   2.373   4.423  14.218  0.1407 -0.5918  0.1591
  713TMC3     C10596   2.261   4.300  13.832 -0.3572 -0.0163 -0.5198
  713TMC3     O10597   2.205   4.402  13.788 -0.1416  0.3037  0.5981
  713TMC3     H10598   2.475   4.227  13.951  0.2416  0.2508  0.5630
  713TMC3    H110599   2.098   4.400  14.016 -0.3688  0.6013  2.2109
  713TMC3    H210600   2.417   4.472  14.304  0.6885  0.3728 -0.6736
  713TMC3    C710601   2.171   4.551  14.234 -0.5477 -0.1253  0.7459
  713TMC3    C810602   2.595   4.376  14.139 -0.8698  0.1326  0.5223
  713TMC3    O110603   2.195   4.578  14.348 -0.1856 -0.2998 -0.8097
  713TMC3    O210604   2.654   4.336  14.038 -0.0264  0.0089  0.0145
  714MPD2     C10605   4.695   3.054   2.095 -0.0264 -0.8170  0.5959
  714MPD2    C110606   4.716   3.010   1.966 -0.2509 -0.0889  0.2260
  714MPD2    C210607   4.611   3.033   1.881  0.5890 -0.0442  0.8130
  714MPD2    C310608   4.485   3.077   1.933  0.0411 -0.2656  0.8642
  714MPD2    C410609   4.467   3.108   2.063  0.0033  0.2352  0.6797
  714MPD2    C510610   4.577   3.101   2.145  0.8484 -0.1737 -0.4698
  714MPD2     H10611   4.615   3.002   1.777 -2.2653 -0.4072  0.8064
  714MPD2    H110612   4.372   3.133   2.107 -0.5927 -0.2215 -0.3444
  714MPD2    H210613   0.039   3.039   2.165  1.2214  0.6541 -0.5226
  714MPD2    H310614   4.568   3.113   2.252 -0.0713  1.7449 -0.7464
  714MPD2     N10615   4.386   3.100   1.839  0.3530  0.6023 -0.3760
  714MPD2    H510616   4.421   3.088   1.744 -1.1509  1.3136 -1.0158
  714MPD2    N110617   0.103   2.970   1.921  0.1198  0.0486 -0.3660
  714MPD2    H710618   0.186   2.974   1.980 -0.5028  0.2465  0.5031
  715TMC3    C110619   0.272   2.860   1.783  0.1488 -0.1555  0.3811
  715TMC3    C210620   0.295   2.763   1.690 -0.2918 -0.3304 -0.7537
  715TMC3    C310621   0.412   2.771   1.621  0.3981  0.4604 -0.2779
  715TMC3    C410622   0.360   2.964   1.813 -0.3396 -0.3306  0.2765
  715TMC3    C510623   0.480   2.956   1.746 -0.1858  0.6715 -0.5284
  715TMC3    C610624   0.512   2.858   1.655 -0.3572  0.2828  0.1569
  715TMC3     C10625   0.129   2.893   1.805 -0.0554 -0.5518  0.0404
  715TMC3     O10626   0.050   2.850   1.721 -0.1706 -0.0804  0.3179
  715TMC3     H10627   0.219   2.689   1.670  0.6521 -1.2004 -1.1404
  715TMC3    H110628   0.345   3.021   1.904 -0.2222  0.1634 -0.0136
  715TMC3    H210629   0.607   2.857   1.603 -0.9195 -0.3691 -0.8588
  715TMC3    C710630   0.591   3.053   1.763  0.3997  0.2674  0.0602
  715TMC3    C810631   0.465   2.653   1.552 -0.4234 -0.2090  0.6374
  715TMC3    O110632   0.701   3.022   1.723  0.2458 -0.1537 -0.1453
  715TMC3    O210633   0.381   2.599   1.484 -0.0285 -0.1575  0.0881
  716MPD2     C10634   4.437   1.239   9.930 -0.0819 -0.4974  0.6309
  716MPD2    C110635   4.402   1.246   9.804  1.0507  0.1581 -0.1122
  716MPD2    C210636   4.441   1.144   9.728  0.0319 -0.5271 -0.1146
  716MPD2    C310637   4.519   1.040   9.773  0.0812  0.0614  0.4819
  716MPD2    C410638   4.564   1.045   9.899 -0.1663 -0.3702  0.0207
  716MPD2    C510639   4.504   1.136   9.983 -0.1471 -0.0231 -0.2401
  716MPD2     H10640   4.432   1.144   9.620 -1.2288 -0.9820 -0.0176
  716MPD2    H110641   4.606   0.958   9.950  0.0326 -1.1872 -1.5307
  716MPD2    H210642   4.409   1.320   9.997  0.2451 -0.1108  0.3013
  716MPD2    H310643   4.516   1.129  10.090 -1.9512  1.3100  0.0530
  716MPD2     N10644   4.568   0.954   9.678  0.1440 -0.0316  0.5571
  716MPD2    H510645   4.525   0.960   9.586 -0.9900 -3.7337  0.8354
  716MPD2    N110646   4.322   1.355   9.762  0.9023 -0.5298 -0.4972
  716MPD2    H710647   4.299   1.422   9.835  1.9854 -0.2103 -0.4470
  717TMC3    C110648   4.655   0.754   9.577  0.2475  0.4627 -0.1029
  717TMC3    C210649   4.548   0.746   9.495  0.1528  0.0898  0.1150
  717TMC3    C310650   4.528   0.623   9.423 -0.6046 -0.4027  0.1620
  717TMC3    C410651   0.003   0.644   9.594 -0.5401  0.6693  0.0629
  717TMC3    C510652   4.715   0.525   9.531  0.4426  0.9728 -0.4676
  717TMC3    C610653   4.621   0.521   9.428 -0.9011 -0.3503 -0.0660
  717TMC3     C10654   4.641   0.841   9.698 -0.3851  0.5433 -0.5931
  717TMC3     O10655   4.704   0.813   9.799  0.0468 -0.4475 -0.0744
  717TMC3     H10656   4.463   0.813   9.502  0.7381  0.9361 -1.0319
  717TMC3    H110657   0.089   0.654   9.660  0.4798  0.3308 -1.2295
  717TMC3    H210658   4.602   0.427   9.377  3.8857 -0.5663 -1.4548
  717TMC3    C710659   0.082   0.434   9.518  0.2893  0.4982 -0.0505
  717TMC3    C810660   4.418   0.616   9.326  0.5273  0.7325 -0.3810
  717TMC3    O110661   0.075   0.358   9.422  1.0395 -0.6809  0.6779
  717TMC3    O210662   4.377   0.722   9.285 -0.0983 -0.0689  0.0139
  718MPD2     C10663   3.608   4.562  12.544 -0.2426 -0.3033 -0.5948
  718MPD2    C110664   3.598   4.429  12.526  0.2562  0.9549 -0.5250
  718MPD2    C210665   3.561   4.347  12.631 -0.0585 -0.5204 -0.2172
  718MPD2    C310666   3.516   4.399  12.751 -0.5967 -0.4948 -0.4129
  718MPD2    C410667   3.520   4.530  12.766 -0.2665 -1.0815  0.1184
  718MPD2    C510668   3.565   4.611  12.661 -0.2908  0.1190  0.6211
  718MPD2     H10669   3.562   4.238  12.633 -1.8764 -0.4958  2.2162
  718MPD2    H110670   3.494   4.588  12.854 -1.2841 -2.7084  0.8861
  718MPD2    H210671   3.627   4.628  12.460  0.9036 -2.0923 -1.7371
  718MPD2    H310672   3.542   4.717  12.671 -1.2532  0.0211 -0.6085
  718MPD2     N10673   3.479   4.305  12.846  0.5065 -0.4196 -0.0017
  718MPD2    H510674   3.503   4.209  12.819 -1.1029 -0.5871 -0.8126
  718MPD2    N110675   3.609   4.376  12.398 -0.3547  0.6354 -0.3738
  718MPD2    H710676   3.676   4.427  12.340 -0.9468  2.5885  0.6564
  719TMC3    C110677   3.620   4.183  12.254  0.4749  0.3412 -0.2549
  719TMC3    C210678   3.620   4.052  12.291 -0.3775  0.1229  0.1864
  719TMC3    C310679   3.737   3.984  12.310 -0.1699  0.5247 -0.6184
  719TMC3    C410680   3.733   4.242  12.212  0.1472  0.3120  0.2467
  719TMC3    C510681   3.850   4.170  12.228  0.1926  0.5851 -0.1688
  719TMC3    C610682   3.851   4.048  12.283 -0.2945 -0.5310  0.0422
  719TMC3     C10683   3.552   4.261  12.357  0.4490 -0.4666 -0.8872
  719TMC3     O10684   3.471   4.201  12.429 -0.2809  0.1887 -0.0407
  719TMC3     H10685   3.525   4.003  12.311 -0.2490 -0.7998 -1.4493
  719TMC3    H110686   3.737   4.341  12.169  0.9762  0.5205  0.8002
  719TMC3    H210687   3.941   3.992  12.306 -1.5901 -2.7098 -0.2221
  719TMC3    C710688   3.972   4.241  12.199 -0.3693  0.3010  0.1645
  719TMC3    C810689   3.741   3.889  12.427 -0.1790 -0.1049 -0.5142
  719TMC3    O110690   3.949   4.335  12.129  0.4178 -0.0005  0.0006
  719TMC3    O210691   3.803   3.934  12.524  0.1277 -0.1673  0.8942
  720MPD2     C10692   2.438   1.050  14.196 -0.0797 -0.2021  0.2529
  720MPD2    C110693   2.524   1.145  14.150  0.2826  0.4390  0.5172
  720MPD2    C210694   2.614   1.195  14.242 -0.5820 -0.4737  0.4280
  720MPD2    C310695   2.628   1.152  14.368 -0.2143  1.0138 -0.1262
  720MPD2    C410696   2.553   1.038  14.393 -0.5781  0.6117  0.5444
  720MPD2    C510697   2.452   0.991  14.315 -0.2507  0.4403  0.7616
  720MPD2     H10698   2.692   1.265  14.213  0.0658 -1.6749 -0.7350
  720MPD2    H110699   2.554   0.995  14.492 -1.9920  1.5634  0.9675
  720MPD2    H210700   2.357   1.012  14.134 -1.6864  0.3848  2.0162
  720MPD2    H310701   2.390   0.907  14.344 -1.2996  0.9055 -0.1341
  720MPD2     N10702   2.729   1.197  14.450  0.7312 -0.3552 -0.3412
  720MPD2    H510703   2.784   1.277  14.419  0.5291  0.7603  2.2359
  720MPD2    N110704   2.521   1.207  14.023 -0.1362 -0.3179  0.7289
  720MPD2    H710705   2.599   1.267  13.998  1.2915 -1.6737  1.9783
  721TMC3    C110706   2.876   1.224  14.621  0.5136 -0.1342  0.2146
  721TMC3    C210707   2.883   1.247  14.753 -0.4043 -0.8549 -0.1605
  721TMC3    C310708   3.013   1.253  14.806 -0.5720 -0.2977 -0.2126
  721TMC3    C410709   2.979   1.222  14.531  0.5135  0.3247  0.2978
  721TMC3    C510710   3.106   1.219  14.590  0.4583 -0.3945  0.0980
  721TMC3    C610711   3.122   1.237  14.728 -0.5667 -0.2137  0.1599
  721TMC3     C10712   2.759   1.159  14.577  0.1449  0.0955 -0.2542
  721TMC3     O10713   2.695   1.087  14.653  0.2631  0.2550 -0.5829
  721TMC3     H10714   2.794   1.239  14.814  0.2472 -1.3929  0.7169
  721TMC3    H110715   2.976   1.181  14.430  2.5812 -3.7132  1.8569
  721TMC3    H210716   3.220   1.261  14.769 -1.1596  0.8014  0.9691
  721TMC3    C710717   3.222   1.192  14.512  0.5745 -0.1694 -0.7282
  721TMC3    C810718   3.052   1.296  14.944 -0.1660  0.0264  0.4701
  721TMC3    O110719   3.219   1.225  14.395  0.4390 -0.1097  0.3238
  721TMC3    O210720   3.169   1.288  14.984  0.4743  0.2141  0.2540
  722MPD2     C10721   1.297   4.564  13.622  0.8015  0.1622 -0.3635
  722MPD2    C110722   1.305   4.680  13.551  0.6297 -0.2388 -0.0544
  722MPD2    C210723   1.238   4.695  13.434 -0.0226 -0.1178  0.2076
  722MPD2    C310724   1.151   4.595  13.385  0.1905 -0.0578 -0.1732
  722MPD2    C410725   1.139   4.476  13.458  0.4697  0.9820  0.6910
  722MPD2    C510726   1.222   4.461  13.569  0.6161 -0.4046  0.6236
  722MPD2     H10727   1.242   0.047  13.372  3.1197  0.9149  1.8912
  722MPD2    H110728   1.067   4.399  13.432  0.2248  1.5854 -0.4005
  722MPD2    H210729   1.349   4.553  13.716 -0.2354 -1.1203  0.0495
  722MPD2    H310730   1.219   4.373  13.632  0.0708 -1.1200 -0.4065
  722MPD2     N10731   1.060   4.639  13.290  0.1826  0.1451  0.1114
  722MPD2    H510732   1.090   4.728  13.251 -1.6594  1.2594  1.2235
  722MPD2    N110733   1.367   0.058  13.605  0.1918  0.1270 -0.0169
  722MPD2    H710734   1.368   0.142  13.548  2.7012  1.3970  1.9219
  723TMC3    C110735   0.844   4.662  13.188  0.7957 -0.1201 -0.1582
  723TMC3    C210736   0.730   4.598  13.163  0.2409 -0.1612  0.0304
  723TMC3    C310737   0.641   4.669  13.086  0.1908  0.1850  0.0615
  723TMC3    C410738   0.872   0.046  13.134  0.0311  0.1150  0.1634
  723TMC3    C510739   0.793   0.096  13.040  0.3047  0.5091 -0.2297
  723TMC3    C610740   0.666   0.045  13.018 -0.4190  1.0025 -0.6884
  723TMC3     C10741   0.943   4.579  13.259  0.1625  0.0459 -0.5555
  723TMC3     O10742   0.894   4.469  13.290  0.0711 -0.1258  0.5362
  723TMC3     H10743   0.706   4.508  13.219  2.1306 -0.1475  0.8672
  723TMC3    H110744   0.969   0.094  13.136 -1.1034  2.5873 -3.4581
  723TMC3    H210745   0.589   0.085  12.954 -0.7339 -4.1527 -3.5611
  723TMC3    C710746   0.821   0.234  12.983  0.4128 -0.6666  0.1515
  723TMC3    C810747   0.517   4.608  13.059 -0.4666  0.1112  1.1536
  723TMC3    O110748   0.800   0.251  12.865  0.2044  0.3911  0.8554
  723TMC3    O210749   0.413   4.666  13.082  0.4542  0.1081  0.6037
  724TMC3    C110750   1.396   2.551  10.784 -0.6063 -0.1474 -0.0068
  724TMC3    C210751   1.383   2.635  10.680  0.1304 -0.6453 -0.2609
  724TMC3    C310752   1.466   2.742  10.669  0.4899 -0.1096  0.2224
  724TMC3    C410753   1.499   2.565  10.872 -0.2141 -0.6258 -0.1815
  724TMC3    C510754   1.588   2.669  10.851  0.0726  0.9410  0.6968
  724TMC3    C610755   1.576   2.753  10.744  0.6336 -0.0686  0.2683
  724TMC3     C10756   1.331   2.422  10.789 -0.1098 -0.5345 -0.1104
  724TMC3     O10757   1.331   2.374  10.900 -0.6368 -0.0353 -0.3015
  724TMC3     H10758   1.287   2.630  10.629 -0.5583  1.0475  0.8619
  724TMC3    H110759   1.512   2.502  10.960 -0.0991 -0.4717 -0.0871
  724TMC3    H210760   1.657   2.819  10.715  1.0344 -0.7203 -0.1243
  724TMC3    C710761   1.674   2.690  10.961  0.0714  0.1487  0.3498
  724TMC3    C810762   1.468   2.832  10.553 -0.5612  0.8418 -0.2923
  724TMC3    O110763   1.649   2.627  11.064  0.2771 -0.1689 -0.1358
  724TMC3    O210764   1.478   2.775  10.445  0.3370 -0.1788  0.5811
  725TMC3    C110765   3.338   1.247  12.437 -0.2279 -0.1322 -0.4671
  725TMC3    C210766   3.213   1.258  12.382  0.2113 -0.0656  0.1763
  725TMC3    C310767   3.155   1.154  12.323 -0.6867  0.0991 -0.4797
  725TMC3    C410768   3.405   1.128  12.433  0.2424  0.6848 -0.1765
  725TMC3    C510769   3.339   1.024  12.360  0.0587 -0.1786  0.7406
  725TMC3    C610770   3.218   1.035  12.306 -0.5938 -0.3396 -0.3353
  725TMC3     C10771   3.353   1.335  12.551 -0.1175  0.2468 -0.3806
  725TMC3     O10772   3.325   1.454  12.541 -0.0201  0.2532  0.1983
  725TMC3     H10773   3.156   1.350  12.391 -2.1933 -1.3494 -2.0358
  725TMC3    H110774   3.506   1.139  12.471  0.2454  0.3408 -0.0837
  725TMC3    H210775   3.169   0.955  12.252 -2.3020  2.4578 -2.9394
  725TMC3    C710776   3.398   0.891  12.348  0.2690  0.7186  0.0768
  725TMC3    C810777   3.013   1.148  12.307 -0.6897  0.3379 -1.1957
  725TMC3    O110778   3.331   0.800  12.303  0.2563  0.2661 -0.2349
  725TMC3    O210779   2.959   1.041  12.332  0.1758  0.2546 -0.6325
  726MPD2     C10780   0.819   3.058  10.319 -0.2291 -0.0971  0.4354
  726MPD2    C110781   0.791   3.117  10.443 -0.2099 -0.4774  0.1371
  726MPD2    C210782   0.715   3.038  10.534 -0.0057  0.4485 -0.1990
  726MPD2    C310783   0.668   2.909  10.501 -0.0622  0.1624  0.4413
  726MPD2    C410784   0.689   2.859  10.373  0.6490 -0.1543 -0.4355
  726MPD2    C510785   0.773   2.929  10.289  0.6524 -0.1721  0.0760
  726MPD2     H10786   0.688   3.078  10.631  0.7667 -1.0414  0.6344
  726MPD2    H110787   0.658   2.758  10.348  0.3063  0.2941 -1.8708
  726MPD2    H210788   0.865   3.116  10.239 -1.0282  1.1595  0.8813
  726MPD2    H310789   0.794   2.887  10.191 -0.8315  1.4793 -0.9425
  726MPD2     N10790   0.599   2.831  10.596  0.0234  0.4582 -0.3746
  726MPD2    H510791   0.571   2.738  10.565  1.0630  0.5633 -1.6299
  726MPD2    N110792   0.824   3.255  10.476  0.2478 -0.1576  0.6962
  726MPD2    H710793   0.815   3.291  10.571 -0.1228 -0.3999  0.7535
  727TMC3    C110794   0.904   3.480  10.439  0.0541  0.4532 -0.3015
  727TMC3    C210795   0.925   3.502  10.573 -1.0609  0.1486 -0.0797
  727TMC3    C310796   0.936   3.631  10.606 -0.4272 -0.1144 -0.2608
  727TMC3    C410797   0.912   3.578  10.347 -0.2916  0.2229 -0.7829
  727TMC3    C510798   0.955   3.703  10.382 -0.4541  0.3038 -0.7121
  727TMC3    C610799   0.955   3.731  10.515 -0.5911  0.5298  0.0201
  727TMC3     C10800   0.877   3.347  10.383  0.4909 -0.5114 -0.1937
  727TMC3     O10801   0.909   3.329  10.269  0.0835 -0.5918  0.2639
  727TMC3     H10802   0.916   3.428  10.652 -0.3327 -1.1693 -1.2448
  727TMC3    H110803   0.890   3.562  10.242  0.5434 -2.8170 -0.4952
  727TMC3    H210804   0.978   3.834  10.541 -2.4383  0.9853 -0.1014
  727TMC3    C710805   0.932   3.801  10.283 -0.4094 -0.0231 -0.2897
  727TMC3    C810806   0.957   3.663  10.747 -0.3715 -0.2968 -0.4907
  727TMC3    O110807   0.931   3.755  10.167  0.1935  0.4557 -0.1147
  727TMC3    O210808   1.006   3.571  10.811  0.0102  0.1992 -0.5925
  728TMC3    C110809   0.288   1.637  15.343 -0.2227  0.6425  0.3370
  728TMC3    C210810   0.374   1.717  15.395  0.2592 -0.0589 -0.4356
  728TMC3    C310811   0.467   1.777  15.312  0.0171 -0.6581  0.3461
  728TMC3    C410812   0.278   1.621  15.208 -0.0093  0.9895 -0.1861
  728TMC3    C510813   0.373   1.675  15.124  0.5051  0.0801  0.2367
  728TMC3    C610814   0.473   1.751  15.176 -0.2701 -0.8092  0.0072
  728TMC3     C10815   0.193   1.584  15.440 -0.4744  0.3860 -0.3518
  728TMC3     O10816   0.233   1.563  15.551  0.0163  0.3231  0.2402
  728TMC3     H10817   0.375   1.740  15.501 -1.5887  2.2490 -0.9276
  728TMC3    H110818   0.194   1.563  15.173 -0.0781 -1.5344  4.2175
  728TMC3    H210819   0.528   1.818  15.112 -1.7554 -1.5074 -2.0037
  728TMC3    C710820   0.332   1.686  14.989 -0.5246 -0.5927  0.0156
  728TMC3    C810821   0.524   1.894  15.370  1.0906 -0.2170 -0.1260
  728TMC3    O110822   0.218   1.657  14.957 -0.2500 -0.1454 -0.6422
  728TMC3    O210823   0.472   1.944  15.466 -0.0779  0.2485 -0.3903
  729MPD2     C10824   2.277   2.998  16.880  0.4065  0.0316 -0.0502
  729MPD2    C110825   2.396   2.933  16.868 -0.0143 -0.8631 -0.1390
  729MPD2    C210826   2.482   2.923  16.974 -0.2687 -0.4125 -0.4747
  729MPD2    C310827   2.454   2.987  17.094 -0.0924 -0.1542  0.6197
  729MPD2    C410828   2.335   3.050  17.110  0.0143 -0.2382 -0.5105
  729MPD2    C510829   2.252   3.059  17.003 -0.2286  0.7533 -0.8661
  729MPD2     H10830   2.571   2.861  16.973 -0.9629 -1.4240  0.7505
  729MPD2    H110831   2.319   3.096  17.207 -1.6272 -0.4622 -0.6755
  729MPD2    H210832   2.199   3.007  16.805  3.0940 -2.2070 -3.0796
  729MPD2    H310833   2.171   3.131  16.997 -0.2020  0.9615  1.3020
  729MPD2     N10834   2.535   2.974  17.213 -0.1710 -0.5133  0.4462
  729MPD2    H510835   2.502   3.021  17.296 -0.6205 -1.5904  0.8717
  729MPD2    N110836   2.431   2.867  16.746  0.6556 -0.1150  0.1666
  729MPD2    H710837   2.370   2.888  16.668  1.6442  2.3201  0.0245
  730TMC3    C110838   2.709   2.930  17.358 -0.1371  0.0791 -0.5612
  730TMC3    C210839   2.835   2.977  17.372  0.2455  0.1279  0.0165
  730TMC3    C310840   2.865   3.069  17.479 -0.3128 -1.1259 -0.0305
  730TMC3    C410841   2.611   2.956  17.457 -0.0261  0.2708 -0.8185
  730TMC3    C510842   2.645   3.045  17.556 -0.6045 -0.2071  0.8878
  730TMC3    C610843   2.771   3.097  17.574  0.1218 -0.0370 -0.0313
  730TMC3     C10844   2.661   2.923  17.223  0.0474  0.0150 -0.7046
  730TMC3     O10845   2.736   2.894  17.133 -0.1931 -0.6381  0.3274
  730TMC3     H10846   2.899   2.971  17.285 -0.2932 -1.1750 -0.2853
  730TMC3    H110847   2.515   2.906  17.455  0.3551 -0.5096  0.3002
  730TMC3    H210848   2.793   3.154  17.664 -1.0473 -2.3173  1.6782
  730TMC3    C710849   2.555   3.155  17.529  0.2364  0.0536 -0.3538
  730TMC3    C810850   2.954   3.179  17.452 -0.0013 -0.5761  0.5797
  730TMC3    O110851   2.475   3.141  17.441  0.3627 -0.2248 -0.0651
  730TMC3    O210852   3.028   3.173  17.351 -0.1668 -0.1692  0.5052
  731MPD2     C10853   2.725   0.119  12.571 -0.6853 -0.8660  0.0307
  731MPD2    C110854   2.635   0.204  12.521  0.2896 -0.6268  0.2749
  731MPD2    C210855   2.625   0.335  12.567  0.4901  0.2885  0.7513
  731MPD2    C310856   2.713   0.375  12.667  0.0202 -0.4721 -0.2465
  731MPD2    C410857   2.805   0.289  12.711  0.3429  0.3063 -0.0279
  731MPD2    C510858   2.804   0.159  12.668  0.5161  1.0828  0.5679
  731MPD2     H10859   2.546   0.392  12.519  1.2202  0.1410 -0.6211
  731MPD2    H110860   2.872   0.316  12.792  2.4169 -3.3590 -0.5005
  731MPD2    H210861   2.735   0.016  12.540 -1.1646 -0.9616  0.2013
  731MPD2    H310862   2.891   0.102  12.697 -0.8944 -0.8749  0.9653
  731MPD2     N10863   2.708   0.508  12.718 -0.0419  0.4348 -0.2482
  731MPD2    H510864   2.625   0.564  12.706 -2.0657 -2.6529 -0.6337
  731MPD2    N110865   2.564   0.143  12.414  0.5900  0.4163 -0.0948
  731MPD2    H710866   2.608   0.062  12.372  1.8734  1.2103 -0.2752
  732TMC3    C110867   2.438   0.148  12.205  0.0190 -0.3002  0.3082
  732TMC3    C210868   2.332   0.203  12.138  0.4301  0.4473  0.4401
  732TMC3    C310869   2.307   0.144  12.014  0.2324 -0.0043 -0.2187
  732TMC3    C410870   2.526   0.060  12.158  0.2773 -0.1408  0.1635
  732TMC3    C510871   2.504   0.020  12.030  0.1554 -1.0004 -0.4912
  732TMC3    C610872   2.394   0.053  11.961 -0.4828  0.4319  0.2408
  732TMC3     C10873   2.462   0.204  12.342 -0.0900 -0.2248  0.3831
  732TMC3     O10874   2.378   0.277  12.384 -0.2736  0.3750 -0.0339
  732TMC3     H10875   2.267   0.279  12.179 -0.2735  0.5635 -0.8744
  732TMC3    H110876   2.604   0.008  12.211 -0.3829 -1.6122 -0.3037
  732TMC3    H210877   2.383   0.016  11.860  3.0720 -1.6587  0.5961
  732TMC3    C710878   2.603   4.687  11.951 -0.0768  0.2826 -0.3434
  732TMC3    C810879   2.166   0.132  11.977  0.3615  0.0210 -0.2010
  732TMC3    O110880   2.563   4.603  11.872  0.4557  0.6813 -0.2370
  732TMC3    O210881   2.144   0.033  11.908  0.1083 -0.2620 -0.2301
  733TMC3    C110882   3.254   4.111  13.173  0.2828  0.5424  0.1915
  733TMC3    C210883   3.326   4.219  13.145  0.9569 -0.0836  0.1583
  733TMC3    C310884   3.415   4.209  13.049  0.7045  0.1952 -0.4497
  733TMC3    C410885   3.271   3.988  13.118  0.2025  0.0087  0.1808
  733TMC3    C510886   3.373   3.972  13.033 -0.3091 -0.1254  0.1706
  733TMC3    C610887   3.444   4.089  12.996  0.8280 -0.0120 -0.1364
  733TMC3     C10888   3.119   4.158  13.204  0.0307  0.4081  0.5763
  733TMC3     O10889   3.100   4.275  13.176 -0.0942  0.5363 -0.7952
  733TMC3     H10890   3.322   4.315  13.196 -0.8015  0.7097 -1.4548
  733TMC3    H110891   3.203   3.909  13.148  1.2440 -0.0989  2.2591
  733TMC3    H210892   3.511   4.074  12.911  0.4372 -2.5513 -0.0131
  733TMC3    C710893   3.363   3.861  12.934 -0.5725  0.6687  0.8531
  733TMC3    C810894   3.435   4.332  12.973  0.0536  0.4465 -0.2372
  733TMC3    O110895   3.276   3.780  12.961  0.0115  0.1416  0.0415
  733TMC3    O210896   3.395   4.442  13.013 -0.4959  0.2866 -0.8000
  734MPD2     C10897   0.929   2.075  12.554  0.2713 -0.6348 -0.4624
  734MPD2    C110898   0.859   1.969  12.507 -0.5870 -0.5190  0.2066
  734MPD2    C210899   0.879   1.932  12.374  0.1603  0.6753  0.0823
  734MPD2    C310900   0.951   2.015  12.289  0.7410 -0.1586  1.3686
  734MPD2    C410901   1.020   2.124  12.336  0.7592 -0.0495 -0.8517
  734MPD2    C510902   1.012   2.150  12.471 -0.7214  0.2109 -0.3838
  734MPD2     H10903   0.850   1.842  12.321 -0.0428  1.4151 -1.0796
  734MPD2    H110904   1.085   2.188  12.278 -1.5997  2.4727 -0.7353
  734MPD2    H210905   0.918   2.098  12.659  0.2154  0.3132 -0.6784
  734MPD2    H310906   1.077   2.228  12.509 -1.0202 -0.5728  1.7038
  734MPD2     N10907   0.950   1.985  12.147  0.1042  0.0493 -0.1007
  734MPD2    H510908   0.884   1.912  12.126 -0.0618  0.9857 -2.8738
  734MPD2    N110909   0.765   1.907  12.589  0.7138 -0.5362  0.6137
  734MPD2    H710910   0.770   1.922  12.689 -0.8468  1.5376  0.3760
  735TMC3    C110911   0.562   1.796  12.636 -0.9200 -0.0073 -0.1323
  735TMC3    C210912   0.450   1.761  12.566 -0.1622  0.4073 -0.0345
  735TMC3    C310913   0.394   1.637  12.566  0.0636  0.1195  0.5584
  735TMC3    C410914   0.615   1.704  12.715  0.1141 -0.2240 -0.6593
  735TMC3    C510915   0.551   1.586  12.726 -0.3924  0.1637 -0.5553
  735TMC3    C610916   0.436   1.551  12.662  0.2479  0.0709  0.3073
  735TMC3     C10917   0.655   1.846  12.535  0.6652 -0.2936 -0.0092
  735TMC3     O10918   0.601   1.862  12.428 -0.3010 -0.1519  0.2193
  735TMC3     H10919   0.403   1.835  12.503  0.8764  1.5822  0.5720
  735TMC3    H110920   0.703   1.727  12.774  1.8159 -2.1207 -2.4703
  735TMC3    H210921   0.399   1.449  12.665  1.4052 -0.3674 -0.4043
  735TMC3    C710922   0.644   1.489  12.770 -0.2325 -0.0466  0.1097
  735TMC3    C810923   0.365   1.584  12.435  0.1075 -0.4027  0.4456
  735TMC3    O110924   0.763   1.520  12.762  0.1868  0.3029  0.6877
  735TMC3    O210925   0.317   1.469  12.434 -0.4780  0.4711 -0.1422
  736MPD2     C10926   0.556   1.134  12.755  0.0151 -0.4834  0.5026
  736MPD2    C110927   0.642   1.241  12.734  0.3909 -0.5431 -0.5136
  736MPD2    C210928   0.762   1.235  12.663  0.0914 -0.1983 -0.3572
  736MPD2    C310929   0.798   1.112  12.611 -0.3065  0.5945  0.0554
  736MPD2    C410930   0.709   1.010  12.625  0.3651  0.0913  0.3122
  736MPD2    C510931   0.593   1.015  12.697 -0.0176  0.2279  0.6565
  736MPD2     H10932   0.812   1.330  12.651 -0.0608  0.1771  1.9305
  736MPD2    H110933   0.736   0.914  12.583 -0.3190  0.8874 -1.9476
  736MPD2    H210934   0.466   1.145  12.815  0.4971  2.5723  0.6971
  736MPD2    H310935   0.533   0.926  12.707 -2.1099  1.6854  1.1815
  736MPD2     N10936   0.917   1.093  12.532  0.0648  0.5303 -0.3722
  736MPD2    H510937   0.937   1.003  12.491  3.8411 -0.4303  3.7062
  736MPD2    N110938   0.587   1.365  12.773 -0.2929  0.2316  0.2241
  736MPD2    H710939   0.491   1.362  12.805 -0.1910  2.9391  0.7245
  737TMC3    C110940   1.092   1.167  12.391  0.3731 -0.4541 -0.6711
  737TMC3    C210941   1.174   1.265  12.358  0.4822 -0.1453  0.7921
  737TMC3    C310942   1.225   1.266  12.228 -0.3632 -0.1534 -0.0900
  737TMC3    C410943   1.044   1.076  12.295 -0.1949  0.6039  0.0468
  737TMC3    C510944   1.107   1.075  12.174  0.1124  0.6332  0.0447
  737TMC3    C610945   1.188   1.173  12.137 -0.4570 -0.0828  1.0421
  737TMC3     C10946   1.011   1.194  12.508  0.4091  0.7604 -0.2387
  737TMC3     O10947   1.030   1.297  12.567 -0.8448 -0.0102 -0.7380
  737TMC3     H10948   1.202   1.339  12.432  0.1946  0.4853  0.2687
  737TMC3    H110949   0.974   0.996  12.315  1.9874 -0.6749  2.6496
  737TMC3    H210950   1.223   1.189  12.036 -0.9470  1.3590  1.0853
  737TMC3    C710951   1.042   0.998  12.072  0.2375 -0.5047  0.0068
  737TMC3    C810952   1.266   1.403  12.194 -0.8107  0.1390  0.6366
  737TMC3    O110953   0.922   0.976  12.086  0.5824  0.4197  0.4049
  737TMC3    O210954   1.323   1.470  12.282  0.6994 -0.2265 -0.0509
  738MPD2     C10955   1.391   0.147  15.334  0.3618 -0.5066  0.1317
  738MPD2    C110956   1.447   0.020  15.333 -1.2632 -0.4481  0.6186
  738MPD2    C210957   1.582   0.006  15.305 -0.6502 -0.0938  0.0488
  738MPD2    C310958   1.660   0.119  15.279 -0.2223 -0.3480  0.2239
  738MPD2    C410959   1.600   0.242  15.270 -0.3631 -0.0455 -0.1448
  738MPD2    C510960   1.467   0.253  15.298 -0.3396 -0.1173  0.1118
  738MPD2     H10961   1.628   4.645  15.297  0.7970  0.5962 -0.2106
  738MPD2    H110962   1.662   0.328  15.249 -0.9318  0.1209 -1.1296
  738MPD2    H210963   1.284   0.157  15.330  0.3800 -0.6436 -0.6463
  738MPD2    H310964   1.430   0.353  15.276  0.0657  0.5063  2.3101
  738MPD2     N10965   1.794   0.108  15.237 -0.2727 -0.5074 -0.2658
  738MPD2    H510966   1.823   0.187  15.180 -2.7789  1.6672  1.4978
  738MPD2    N110967   1.381   4.640  15.357  0.5902 -0.3200 -0.1598
  738MPD2    H710968   1.432   4.560  15.319  1.6549 -0.1265  0.8837
  739TMC3    C110969   2.009   0.023  15.170 -0.6261 -0.1182  0.3963
  739TMC3    C210970   2.011   0.130  15.082 -0.5402  0.6717 -0.3988
  739TMC3    C310971   2.132   0.197  15.070 -0.7612 -0.7291 -0.0202
  739TMC3    C410972   2.117   4.706  15.229  0.7822 -0.1292 -0.1177
  739TMC3    C510973   2.231   0.049  15.215  0.5137 -0.3055  0.0399
  739TMC3    C610974   2.243   0.161  15.140  0.4818 -0.9120 -0.0380
  739TMC3     C10975   1.884   4.735  15.241  0.4484  0.7637  0.4663
  739TMC3     O10976   1.877   4.628  15.298  0.5405 -0.2402 -0.2896
  739TMC3     H10977   1.924   0.157  15.024  0.0654  2.9782 -0.2305
  739TMC3    H110978   2.100   4.631  15.306  1.4462  0.2044  0.3469
  739TMC3    H210979   2.323   0.233  15.154  0.4596 -0.7937 -0.5031
  739TMC3    C710980   2.361   4.736  15.271  0.1428  0.4023 -0.3660
  739TMC3    C810981   2.135   0.293  14.957  0.2144 -0.2196  0.2219
  739TMC3    O110982   2.450   0.086  15.278 -0.1767 -0.6401 -0.2690
  739TMC3    O210983   2.057   0.267  14.866  0.1304  0.5110 -0.2615
  740TMC3    C110984   2.377   1.610  14.633 -0.6508 -1.0588  0.9185
  740TMC3    C210985   2.386   1.540  14.749 -0.1163 -0.4624 -0.3434
  740TMC3    C310986   2.504   1.476  14.772  0.0116 -0.0995  0.2007
  740TMC3    C410987   2.484   1.632  14.550  0.3786 -0.3609 -0.5771
  740TMC3    C510988   2.597   1.554  14.569  0.2976  0.0328  0.7898
  740TMC3    C610989   2.611   1.483  14.686  0.4020  0.8174 -0.8280
  740TMC3     C10990   2.260   1.686  14.604  0.6491 -0.0845  0.1791
  740TMC3     O10991   2.273   1.791  14.542 -0.5408  0.3224 -0.3434
  740TMC3     H10992   2.316   1.558  14.830 -1.0125 -0.8086 -1.0248
  740TMC3    H110993   2.483   1.699  14.465  3.4785  0.4647  0.0431
  740TMC3    H210994   2.707   1.441  14.714  0.4820  0.6588 -1.3250
  740TMC3    C710995   2.718   1.570  14.497 -0.2880 -0.0539  0.7830
  740TMC3    C810996   2.534   1.425  14.904 -0.0916  0.0985 -0.8262
  740TMC3    O110997   2.817   1.561  14.566 -0.3024  0.3112 -0.4398
  740TMC3    O210998   2.654   1.407  14.929  0.2787 -0.2940  0.4364
  741TMC3    C110999   1.887   0.916  14.573 -0.1722 -0.6516  0.8839
  741TMC3    C211000   1.767   0.860  14.538  0.4108 -0.3662 -0.5086
  741TMC3    C311001   1.710   0.770  14.619 -0.0318 -0.0130 -0.3585
  741TMC3    C411002   1.948   0.876  14.683 -0.4209  0.3623 -0.5526
  741TMC3    C511003   1.886   0.793  14.764  0.1446 -0.1225 -0.2907
  741TMC3    C611004   1.759   0.745  14.741  0.0998 -0.3913  0.2510
  741TMC3     C11005   1.967   0.953  14.460  0.8644 -0.3037 -0.1185
  741TMC3     O11006   2.085   0.915  14.466 -0.0556  0.1391  0.7569
  741TMC3     H11007   1.728   0.865  14.437 -0.7087  0.0239 -0.0559
  741TMC3    H111008   2.049   0.914  14.701 -0.7988  0.4888  1.3266
  741TMC3    H211009   1.707   0.684  14.814 -0.6261  1.3315  1.2056
  741TMC3    C711010   1.948   0.779  14.891  0.3654  0.1959 -0.1341
  741TMC3    C811011   1.593   0.707  14.568 -0.6890  0.0778  0.5195
  741TMC3    O111012   2.013   0.877  14.930  0.3290  0.1868 -0.3582
  741TMC3    O211013   1.532   0.762  14.474 -0.1349  0.3406 -0.1432
  742TMC3    C111014   1.261   3.682  15.743 -0.2063 -0.4770  0.0060
  742TMC3    C211015   1.203   3.662  15.622  0.1928  0.5932 -0.0273
  742TMC3    C311016   1.292   3.642  15.518 -0.1734 -0.1873 -0.5272
  742TMC3    C411017   1.396   3.701  15.768  0.2177 -0.3849 -0.2940
  742TMC3    C511018   1.477   3.700  15.661  0.6193 -0.0347 -0.2581
  742TMC3    C611019   1.427   3.673  15.538 -0.1480  0.7330 -0.0942
  742TMC3     C11020   1.166   3.723  15.848 -0.0085 -0.2576 -0.8953
  742TMC3     O11021   1.058   3.757  15.801 -0.2356 -0.0021 -0.2040
  742TMC3     H11022   1.099   3.634  15.611  0.7535 -1.2110 -0.7564
  742TMC3    H111023   1.432   3.739  15.862 -1.0652  0.2953 -0.0717
  742TMC3    H211024   1.488   3.694  15.451  0.0811 -1.9991 -0.5877
  742TMC3    C711025   1.622   3.734  15.660  0.3507 -0.4825  0.2138
  742TMC3    C811026   1.252   3.671  15.378  0.5235  0.3213 -0.0874
  742TMC3    O111027   1.680   3.759  15.557 -0.1988 -0.0847  0.1075
  742TMC3    O211028   1.335   3.654  15.297 -0.2827  0.5573  0.4238
  743MPD2     C11029   4.235   4.692   1.660 -0.1249  0.5289 -0.2200
  743MPD2    C111030   4.251   0.008   1.536 -0.0075  0.2018 -0.0813
  743MPD2    C211031   4.380   0.035   1.486  0.5457 -0.2855  0.4966
  743MPD2    C311032   4.497   0.017   1.563  0.2520 -0.1058 -0.3796
  743MPD2    C411033   4.477   4.707   1.693 -0.4215 -0.1026  0.0936
  743MPD2    C511034   4.347   4.678   1.741 -1.1261  0.4526  0.0609
  743MPD2     H11035   4.403   0.073   1.386 -1.2526 -0.2466  0.0943
  743MPD2    H111036   4.554   4.691   1.768 -0.4853 -0.5070  0.0728
  743MPD2    H211037   4.137   4.690   1.705  0.3398  1.6390  0.8499
  743MPD2    H311038   4.343   4.662   1.848 -3.0932 -1.8797 -0.3534
  743MPD2     N11039   4.629   0.042   1.508  0.2571  0.5812 -0.8302
  743MPD2    H511040   4.633   0.096   1.422  0.2086 -0.3623 -1.4250
  743MPD2    N111041   4.136   0.032   1.462  0.3713 -0.0577 -0.4075
  743MPD2    H711042   4.047   0.011   1.508  0.3701 -2.3957 -1.4570
  744TMC3    C111043   3.993   0.103   1.294  0.1522 -0.4500  0.1852
  744TMC3    C211044   3.910   0.181   1.372  0.6759 -0.7061 -0.4420
  744TMC3    C311045   3.810   0.248   1.305 -0.6030  0.3216 -0.7241
  744TMC3    C411046   3.963   0.076   1.159 -0.1094 -0.2631  0.6906
  744TMC3    C511047   3.866   0.153   1.106  0.0844  0.7128  0.1658
  744TMC3    C611048   3.789   0.242   1.170 -0.7198 -0.5827  0.7338
  744TMC3     C11049   4.131   0.069   1.331  0.1439 -0.3121 -0.3047
  744TMC3     O11050   4.218   0.080   1.244  0.1784  0.5525  0.3686
  744TMC3     H11051   3.918   0.200   1.478 -0.3879 -0.6927 -0.3635
  744TMC3    H111052   4.019   0.002   1.104  0.3567 -0.6305  1.6493
  744TMC3    H211053   3.718   0.308   1.121 -1.3938 -2.5019 -0.8779
  744TMC3    C711054   3.869   0.144   0.962 -0.4030 -0.0929 -0.5953
  744TMC3    C811055   3.759   0.370   1.366  0.2184 -0.3281 -0.1808
  744TMC3    O111056   3.975   0.117   0.905  0.2033  0.2108  0.4943
  744TMC3    O211057   3.828   0.440   1.438 -0.2893  0.4147 -0.0575
  745TMC3    C111058   2.217   3.689  13.318 -0.0071 -0.0846  0.4283
  745TMC3    C211059   2.164   3.688  13.447  0.6335 -0.5260 -0.0448
  745TMC3    C311060   2.030   3.685  13.461  0.0966  0.1842 -0.1857
  745TMC3    C411061   2.131   3.675  13.211 -0.2126 -0.3452 -0.2765
  745TMC3    C511062   1.999   3.665  13.232  0.0500  0.2465 -0.5349
  745TMC3    C611063   1.946   3.670  13.355 -0.0123 -0.3450  0.1101
  745TMC3     C11064   2.299   3.803  13.293 -0.6559  0.3206 -0.4349
  745TMC3     O11065   2.265   3.853  13.184 -1.0011 -0.0611  0.9451
  745TMC3     H11066   2.221   3.705  13.537  1.5733  0.6540 -0.8721
  745TMC3    H111067   2.160   3.669  13.107 -0.9299 -1.0211 -0.4388
  745TMC3    H211068   1.838   3.681  13.359 -0.0840 -0.5459 -1.3717
  745TMC3    C711069   1.921   3.748  13.150  0.4670 -0.4149 -0.0731
  745TMC3    C811070   1.967   3.721  13.586 -0.3510 -0.3269  0.4621
  745TMC3    O111071   1.800   3.733  13.155 -0.1683  0.2501 -0.2054
  745TMC3    O211072   1.849   3.725  13.580 -0.5795 -0.0794  0.1915
  746TMC3    C111073   4.274   0.875  11.212  0.0328  0.0332 -0.1761
  746TMC3    C211074   4.397   0.860  11.150 -0.6261 -0.5156 -0.1789
  746TMC3    C311075   4.418   0.737  11.088 -0.6424 -0.0111 -0.0114
  746TMC3    C411076   4.176   0.786  11.205 -0.3762  0.0177  0.4967
  746TMC3    C511077   4.192   0.675  11.125 -0.0113  0.1886 -0.6516
  746TMC3    C611078   4.314   0.649  11.074 -0.7029 -0.3751  0.5669
  746TMC3     C11079   4.271   0.999  11.295  0.8035 -1.0754  0.7767
  746TMC3     O11080   4.379   1.037  11.343 -0.1719  0.3535 -0.4500
  746TMC3     H11081   4.480   0.930  11.150  0.1552 -1.4404  0.1409
  746TMC3    H111082   4.084   0.798  11.261 -1.3652  1.1129 -1.3488
  746TMC3    H211083   4.330   0.565  11.007 -2.5206 -2.3958  2.6750
  746TMC3    C711084   4.079   0.619  11.050 -1.1751  0.4448  0.3840
  746TMC3    C811085   4.505   0.747  10.974 -0.9357 -0.0958 -0.9222
  746TMC3    O111086   4.095   0.520  10.978  0.2997 -0.2183  0.3517
  746TMC3    O211087   4.589   0.663  10.952 -0.4272  0.7163 -0.8082
  747TMC3    C111088   1.630   0.967  11.222 -1.3273  0.0389 -0.2807
  747TMC3    C211089   1.515   0.903  11.247  0.0086 -0.0661 -0.6813
  747TMC3    C311090   1.498   0.848  11.376  0.6365  0.4359 -0.3489
  747TMC3    C411091   1.738   0.960  11.302 -0.7018  0.0782  1.1853
  747TMC3    C511092   1.727   0.884  11.413 -0.6354 -0.3013 -0.0641
  747TMC3    C611093   1.605   0.843  11.457 -0.5332 -1.0722  0.6622
  747TMC3     C11094   1.635   1.040  11.099 -0.2931 -0.3108 -0.7757
  747TMC3     O11095   1.548   1.021  11.016  0.1896 -0.0041  0.0825
  747TMC3     H11096   1.429   0.913  11.181 -0.9116 -1.1298  0.3371
  747TMC3    H111097   1.833   0.984  11.256 -0.5988 -1.2400  0.6938
  747TMC3    H211098   1.602   0.804  11.558 -0.3078  1.2826  1.5673
  747TMC3    C711099   1.844   0.866  11.498 -0.2618  0.3498  0.5085
  747TMC3    C811100   1.360   0.838  11.423 -0.2803 -0.6618 -0.0153
  747TMC3    O111101   1.839   0.789  11.597  0.3623 -0.1683  0.2471
  747TMC3    O211102   1.274   0.853  11.334 -0.1462 -0.3337 -0.0704
  748MPD2     C11103   3.578   1.284   1.199 -0.4029 -0.1738  0.0669
  748MPD2    C111104   3.584   1.413   1.249  0.1518  0.3780  1.2220
  748MPD2    C211105   3.706   1.481   1.222  0.0770 -0.4601  0.1366
  748MPD2    C311106   3.814   1.424   1.155 -0.0510 -0.1951  0.0504
  748MPD2    C411107   3.801   1.300   1.105 -0.7022 -0.3737  0.1469
  748MPD2    C511108   3.684   1.233   1.128 -0.0050  0.2564 -0.5718
  748MPD2     H11109   3.717   1.582   1.259 -0.7466  0.1194 -1.2408
  748MPD2    H111110   3.874   1.252   1.041 -0.3720  4.0532 -2.7945
  748MPD2    H211111   3.497   1.214   1.217  1.2237 -2.0214  0.1708
  748MPD2    H311112   3.683   1.127   1.110 -0.1438 -0.0224  1.0634
  748MPD2     N11113   3.922   1.510   1.133 -0.2426 -0.2016  0.6416
  748MPD2    H511114   3.913   1.608   1.159  1.2640  0.1877 -0.3007
  748MPD2    N111115   3.470   1.455   1.324  0.3130  0.2026  0.2633
  748MPD2    H711116   3.402   1.383   1.347  1.4948 -0.5646  1.3390
  749TMC3    C111117   4.156   1.557   1.093 -0.1719  0.3461 -0.5026
  749TMC3    C211118   4.281   1.515   1.115 -0.3735  0.0489  0.6370
  749TMC3    C311119   4.383   1.606   1.099 -0.2512  0.1828 -0.6390
  749TMC3    C411120   4.117   1.682   1.067 -0.3584 -0.6492  0.1892
  749TMC3    C511121   4.221   1.772   1.053 -0.4061 -0.8039 -0.1730
  749TMC3    C611122   4.353   1.739   1.077 -0.3187  0.5484  0.4842
  749TMC3     C11123   4.049   1.459   1.107 -0.1267 -0.9596 -0.9647
  749TMC3     O11124   4.082   1.346   1.082 -0.0295  0.6568 -0.2310
  749TMC3     H11125   4.300   1.408   1.119  0.0657  0.0571 -1.1411
  749TMC3    H111126   4.015   1.718   1.065 -0.2055 -0.2485 -0.9976
  749TMC3    H211127   4.420   1.821   1.052  2.0644 -1.1043  1.4598
  749TMC3    C711128   4.192   1.916   1.028  0.1157  0.3583  0.2985
  749TMC3    C811129   4.521   1.583   1.100  0.3077  0.2990  0.2234
  749TMC3    O111130   4.270   2.009   1.040  0.0820 -0.2751 -0.5549
  749TMC3    O211131   4.594   1.680   1.102  0.1464  0.4102 -0.1663
  750MPD2     C11132   4.541   2.560  11.265  1.1453 -0.4263  1.4725
  750MPD2    C111133   4.417   2.530  11.305 -0.2680  0.2953  0.4695
  750MPD2    C211134   4.340   2.434  11.237  0.5920  0.4963 -0.1856
  750MPD2    C311135   4.395   2.364  11.133 -0.5086  0.2141  0.3397
  750MPD2    C411136   4.525   2.392  11.096 -0.6949  0.2964 -1.0076
  750MPD2    C511137   4.593   2.486  11.158  0.0651  0.3524 -0.7542
  750MPD2     H11138   4.237   2.410  11.263  0.0170  3.7209  0.5917
  750MPD2    H111139   4.567   2.332  11.016  1.0921  0.6685 -0.3502
  750MPD2    H211140   4.611   2.626  11.314  0.5763 -0.7715  2.7527
  750MPD2    H311141   4.698   2.499  11.135 -0.3730  1.1445 -2.2540
  750MPD2     N11142   4.323   2.263  11.061 -0.2512  0.6049 -0.2280
  750MPD2    H511143   4.367   2.228  10.976  0.6536 -1.0646  0.9106
  750MPD2    N111144   4.371   2.616  11.414  0.3862  0.5108 -0.5411
  750MPD2    H711145   4.434   2.688  11.448  1.1105 -0.6582  0.6295
  751TMC3    C111146   4.138   2.133  10.983 -0.2170 -0.1992 -0.1483
  751TMC3    C211147   4.003   2.106  10.989  0.0951  0.1913 -0.8126
  751TMC3    C311148   3.951   2.056  10.869  0.3059 -0.1419 -1.0216
  751TMC3    C411149   4.219   2.098  10.876  0.0028  0.8545  1.7284
  751TMC3    C511150   4.163   2.035  10.768 -0.2841 -0.2440 -0.4858
  751TMC3    C611151   4.026   2.020  10.760 -0.4940 -0.3475  0.2712
  751TMC3     C11152   4.197   2.221  11.085  0.0841 -1.0976  0.4457
  751TMC3     O11153   4.124   2.245  11.182  0.2330  0.3364  0.2348
  751TMC3     H11154   3.940   2.116  11.076 -0.5411  3.2908 -1.6170
  751TMC3    H111155   4.321   2.130  10.864 -0.0879  0.3513 -0.3332
  751TMC3    H211156   3.986   1.962  10.678  1.1210  0.1257 -0.8373
  751TMC3    C711157   4.241   2.029  10.651  0.0225  0.2584 -0.5099
  751TMC3    C811158   3.816   2.006  10.855 -0.6859  0.1817  0.4029
  751TMC3    O111159   4.334   2.104  10.654  0.4171  0.1235  0.3587
  751TMC3    O211160   3.804   1.905  10.785 -0.1458  0.2017 -0.3510
  752TMC3    C111161   3.290   2.227  16.985  0.1607  0.9502  0.1503
  752TMC3    C211162   3.283   2.104  17.045  0.0446 -0.4316  0.5201
  752TMC3    C311163   3.231   2.107  17.177 -0.5961 -0.6978  0.3762
  752TMC3    C411164   3.243   2.346  17.050  0.0903 -0.2207 -0.3568
  752TMC3    C511165   3.185   2.340  17.175 -0.6857  1.0612 -0.7810
  752TMC3    C611166   3.180   2.218  17.238 -0.0325 -0.8262 -0.0725
  752TMC3     C11167   3.279   2.229  16.837 -0.4262  0.0589 -0.7452
  752TMC3     O11168   3.336   2.139  16.774  0.0462 -0.0112  0.2598
  752TMC3     H11169   3.322   2.019  16.990 -0.3660  1.6103 -2.9501
  752TMC3    H111170   3.259   2.444  17.006 -0.9435 -0.2176 -0.7428
  752TMC3    H211171   3.130   2.216  17.334  0.1636  1.5923  0.0887
  752TMC3    C711172   3.064   2.419  17.185  0.0541  0.5389 -0.4477
  752TMC3    C811173   3.256   1.996  17.270 -0.2691 -0.1521 -0.2927
  752TMC3    O111174   3.007   2.447  17.081  0.2262  0.1689 -0.6583
  752TMC3    O211175   3.238   2.021  17.386  0.0592 -0.5249  0.1721
  753TMC3    C111176   0.462   3.536  13.914 -0.0334 -0.0655 -0.6143
  753TMC3    C211177   0.551   3.542  14.020 -0.2469 -0.0976  1.1444
  753TMC3    C311178   0.542   3.442  14.115  0.0179 -0.0945  0.9154
  753TMC3    C411179   0.368   3.432  13.907  0.7442 -0.9029  0.0161
  753TMC3    C511180   0.366   3.342  14.006 -0.0757 -0.0030  0.7886
  753TMC3    C611181   0.453   3.342  14.117  0.4593  0.5066  0.0553
  753TMC3     C11182   0.440   3.654  13.828  0.4849  1.1598  0.1415
  753TMC3     O11183   0.351   3.639  13.745 -0.5490 -0.1365  0.0682
  753TMC3     H11184   0.624   3.622  14.021  1.7912 -1.9284 -0.1344
  753TMC3    H111185   0.284   3.439  13.839  0.4413  2.1059  0.7019
  753TMC3    H211186   0.451   3.271  14.200  0.1838  1.1807  0.6228
  753TMC3    C711187   0.287   3.230  13.993 -0.1122  0.8996  0.3135
  753TMC3    C811188   0.634   3.446  14.226  0.0887  0.0706  0.5682
  753TMC3    O111189   0.198   3.238  13.913  0.6654  0.1135 -0.3994
  753TMC3    O211190   0.660   3.341  14.280 -0.7754 -0.3561 -0.1749
  754MPD2     C11191   4.103   2.500  13.022  0.1193  0.0424  0.1226
  754MPD2    C111192   4.076   2.387  13.098  0.7815 -0.4282 -0.8429
  754MPD2    C211193   4.019   2.278  13.036  0.2619 -0.1672 -0.3814
  754MPD2    C311194   3.977   2.283  12.906 -0.3150 -0.4588  0.6101
  754MPD2    C411195   4.005   2.399  12.832  0.6094 -0.2468  0.2871
  754MPD2    C511196   4.065   2.510  12.894 -0.8128  0.1505  0.1460
  754MPD2     H11197   3.987   2.194  13.095 -0.2997  0.1846 -0.1854
  754MPD2    H111198   3.976   2.409  12.728 -1.8788  1.5226  1.1448
  754MPD2    H211199   4.136   2.593  13.067 -1.3959  0.5669  0.1390
  754MPD2    H311200   4.086   2.608  12.851 -0.1533 -1.0433 -2.2260
  754MPD2     N11201   3.869   2.202  12.865  0.4113 -0.4215 -0.0699
  754MPD2    H511202   3.812   2.226  12.784 -1.4220 -0.1532  1.3058
  754MPD2    N111203   4.088   2.401  13.238 -0.8731 -0.1829 -0.8302
  754MPD2    H711204   4.104   2.493  13.279  1.7439 -0.7656 -0.5690
  755MPD2     C11205   3.206   2.700  13.013  0.7915  0.0852  0.4678
  755MPD2    C111206   3.132   2.590  12.980  0.5306  0.6301 -0.5618
  755MPD2    C211207   3.195   2.464  12.952 -0.4691  0.2597  0.0410
  755MPD2    C311208   3.328   2.467  12.943 -1.1177  0.5970 -1.2646
  755MPD2    C411209   3.403   2.582  12.964  0.0072  0.0465 -0.2478
  755MPD2    C511210   3.339   2.695  12.997 -0.0742 -0.0191 -0.0764
  755MPD2     H11211   3.144   2.370  12.935  0.5649 -0.4276  0.7330
  755MPD2    H111212   3.507   2.593  12.937  0.2940 -0.8269  0.5048
  755MPD2    H211213   3.168   2.794  13.052 -0.5669 -1.5465  3.0785
  755MPD2    H311214   3.399   2.784  13.016  1.4053 -0.6650 -1.6915
  755MPD2     N11215   3.403   2.355  12.906  0.0326  0.2095  0.1233
  755MPD2    H511216   3.498   2.366  12.874  0.2109 -0.1059  0.5456
  755MPD2    N111217   2.989   2.587  12.995  0.1832  0.2164 -0.0006
  755MPD2    H711218   2.943   2.497  12.983  1.6561 -0.3532 -1.3616
  756MPD2     C11219   3.709   3.927   9.820  0.2290 -0.0470 -0.8248
  756MPD2    C111220   3.712   3.828   9.915 -0.0123 -0.0111 -0.1456
  756MPD2    C211221   3.596   3.749   9.937 -0.2088 -0.5271  0.3356
  756MPD2    C311222   3.481   3.769   9.865 -0.6544 -0.5799  0.0223
  756MPD2    C411223   3.473   3.879   9.779 -0.7478 -0.6439 -0.4544
  756MPD2    C511224   3.590   3.949   9.750 -0.7541 -0.7344  0.0853
  756MPD2     H11225   3.603   3.666  10.007  0.8400 -0.1388  0.6952
  756MPD2    H111226   3.374   3.905   9.742 -1.0381 -0.7640  0.2207
  756MPD2    H211227   3.787   3.997   9.794 -0.2950 -0.1663 -2.7616
  756MPD2    H311228   3.580   4.040   9.692 -0.8889 -1.1396 -0.5301
  756MPD2     N11229   3.375   3.683   9.889  0.3576 -0.3887 -0.2792
  756MPD2    H511230   3.398   3.605   9.948  0.1500 -1.1624 -1.2217
  756MPD2    N111231   3.831   3.795   9.994 -0.3935  0.3930 -0.6329
  756MPD2    H711232   3.807   3.726  10.065  0.2566  1.9176  1.0554
  757MPD2     C11233   3.275   2.836  10.293 -0.4465 -0.2080 -0.2624
  757MPD2    C111234   3.159   2.846  10.207  0.1055 -0.2053  0.4625
  757MPD2    C211235   3.123   2.971  10.175  0.6929  0.2700  0.2747
  757MPD2    C311236   3.193   3.079  10.211  0.6155 -0.6407  0.3839
  757MPD2    C411237   3.294   3.074  10.307 -0.4988  0.9356  0.3436
  757MPD2    C511238   3.342   2.946  10.342  0.0312 -0.5899  0.1370
  757MPD2     H11239   3.040   2.982  10.107  1.4250 -1.1584 -0.8301
  757MPD2    H111240   3.341   3.163  10.348  2.5307  0.7555 -2.7699
  757MPD2    H211241   3.304   2.738  10.330  0.1162  0.1453  0.2286
  757MPD2    H311242   3.424   2.936  10.412  0.5042 -2.1155 -0.6405
  757MPD2     N11243   3.142   3.206  10.163 -0.1578 -0.1310 -0.0541
  757MPD2    H511244   3.046   3.196  10.131 -0.7089 -0.3009  1.5942
  757MPD2    N111245   3.080   2.737  10.176  0.2403  0.0249 -0.2231
  757MPD2    H711246   3.111   2.652  10.222  0.3637 -0.7100 -1.6594
  758MPD2     C11247   3.958   2.107  16.029 -0.3601  0.6961 -0.2573
  758MPD2    C111248   4.048   2.047  16.110 -0.0442  0.1919  0.1296
  758MPD2    C211249   4.015   2.057  16.246 -0.2821  0.1968  0.3891
  758MPD2    C311250   3.900   2.130  16.292 -0.8716 -0.3870 -0.3000
  758MPD2    C411251   3.821   2.207  16.208 -0.5571  0.3031 -0.3457
  758MPD2    C511252   3.857   2.190  16.074  0.1388 -0.1907 -0.3487
  758MPD2     H11253   4.082   2.017  16.321  2.3437  2.7825 -0.6024
  758MPD2    H111254   3.742   2.274  16.237 -1.4385 -0.3486 -1.2348
  758MPD2    H211255   3.971   2.109  15.921 -3.6707 -0.5770 -0.7059
  758MPD2    H311256   3.805   2.238  15.992  0.7922  2.3160  0.7121
  758MPD2     N11257   3.874   2.155  16.426  0.2264 -0.4290 -0.1369
  758MPD2    H511258   3.829   2.241  16.458  1.4409 -0.2179  0.9838
  758MPD2    N111259   4.145   1.969  16.049  0.0844  0.7003 -0.5890
  758MPD2    H711260   4.141   1.971  15.948 -0.1088 -1.8486 -0.6227
  759MPD2     C11261   2.966   0.722  10.642  0.3658  0.1191 -0.4292
  759MPD2    C111262   2.957   0.637  10.534 -0.3029  0.0718 -0.6156
  759MPD2    C211263   3.029   0.662  10.420 -0.1297  0.6250  0.3327
  759MPD2    C311264   3.107   0.772  10.418  0.5657  0.8484 -0.0569
  759MPD2    C411265   3.128   0.854  10.531 -0.3052  0.2615 -0.2955
  759MPD2    C511266   3.053   0.825  10.641  0.5102 -0.2408 -0.3832
  759MPD2     H11267   3.002   0.605  10.332  2.9382 -1.3451  0.6872
  759MPD2    H111268   3.192   0.940  10.542 -1.2776  0.9972 -0.3812
  759MPD2    H211269   2.919   0.691  10.734  1.9135 -0.7885  0.0570
  759MPD2    H311270   3.070   0.886  10.728  0.7508  1.0399 -1.3305
  759MPD2     N11271   3.169   0.795  10.292 -0.0022 -0.1244  0.8117
  759MPD2    H511272   3.145   0.729  10.218  0.6168  0.5163  0.0379
  759MPD2    N111273   2.872   0.520  10.529  0.0406  0.2494 -0.2853
  759MPD2    H711274   2.885   0.466  10.444  2.3233  0.2753  0.0699
  760MPD2     C11275   2.802   2.367  12.313 -0.1445 -0.2084  0.2056
  760MPD2    C111276   2.799   2.376  12.173 -0.2170 -0.1691  0.4239
  760MPD2    C211277   2.748   2.273  12.095 -0.0500 -0.6459 -0.0055
  760MPD2    C311278   2.703   2.155  12.153 -0.2510 -0.4306 -0.6101
  760MPD2    C411279   2.722   2.144  12.286 -0.0822  0.3721  0.0644
  760MPD2    C511280   2.769   2.245  12.366 -0.0419  0.6441  0.4131
  760MPD2     H11281   2.737   2.287  11.988 -0.0531 -0.1797  0.0555
  760MPD2    H111282   2.709   2.045  12.329  2.8533  0.1241  0.3983
  760MPD2    H211283   2.845   2.446  12.374 -0.0144 -0.1822  0.0796
  760MPD2    H311284   2.772   2.219  12.471 -0.7571  0.0416  0.2842
  760MPD2     N11285   2.639   2.050  12.087 -0.6852 -0.4150 -0.0659
  760MPD2    H511286   2.603   1.980  12.151  1.7872 -0.4163  1.3284
  760MPD2    N111287   2.827   2.495  12.107 -0.3800  0.2595  0.0902
  760MPD2    H711288   2.843   2.488  12.007 -2.0999 -1.9097 -0.0327
  761MPD2     C11289   3.316   1.957  10.921  0.4116 -0.3198 -0.0411
  761MPD2    C111290   3.411   1.861  10.900  1.0987 -0.4500 -0.1203
  761MPD2    C211291   3.543   1.902  10.895 -0.0036 -0.0252  0.5846
  761MPD2    C311292   3.584   2.033  10.931  0.5050 -0.1155  0.5697
  761MPD2    C411293   3.486   2.120  10.972 -0.9010  0.6675  0.1652
  761MPD2    C511294   3.356   2.081  10.958 -0.1121  1.0720  0.4861
  761MPD2     H11295   3.609   1.819  10.871 -1.1533 -0.3685 -1.3807
  761MPD2    H111296   3.507   2.223  10.997  0.7251  0.0340  1.3263
  761MPD2    H211297   3.209   1.941  10.923  0.4663 -0.5908  0.9820
  761MPD2    H311298   3.284   2.159  10.980 -1.7643 -0.7668  1.6839
  761MPD2     N11299   3.720   2.075  10.924 -0.7568  0.0209  0.1528
  761MPD2    H511300   3.748   2.166  10.957  3.3149 -1.3023  0.3619
  761MPD2    N111301   3.377   1.725  10.869 -0.2677 -0.1879 -0.3911
  761MPD2    H711302   3.455   1.664  10.846  0.4335  0.5919 -0.1278
  762MPD2     C11303   3.798   1.682  11.054  0.1515 -0.0808  0.3380
  762MPD2    C111304   3.778   1.577  10.965 -0.8055  0.0271  0.4061
  762MPD2    C211305   3.882   1.538  10.878 -0.7331  1.0947 -0.4945
  762MPD2    C311306   3.999   1.615  10.882  0.6673 -0.2623 -0.1405
  762MPD2    C411307   4.016   1.715  10.978  0.6966 -0.4904 -0.0450
  762MPD2    C511308   3.911   1.753  11.064  0.3488 -0.5023 -0.8585
  762MPD2     H11309   3.874   1.455  10.808  1.8639 -0.0069  0.5337
  762MPD2    H111310   4.111   1.766  10.988  1.4850 -1.6270 -1.6888
  762MPD2    H211311   3.718   1.724  11.115 -0.2247 -1.9694  1.1321
  762MPD2    H311312   3.923   1.830  11.138 -1.0993 -1.2862  0.1799
  762MPD2     N11313   4.096   1.587  10.787 -0.4967 -0.0209 -0.7722
  762MPD2    H511314   4.068   1.517  10.718 -0.2450  0.3108 -1.2095
  762MPD2    N111315   3.656   1.515  10.964  0.3023  0.3545  0.0458
  762MPD2    H711316   3.585   1.555  11.025 -1.0427  0.3045 -1.4862
  763MPD2     C11317   1.427   2.027  15.682 -0.6402  0.3610 -0.2229
  763MPD2    C111318   1.340   2.055  15.782  0.2586  0.7996  0.1311
  763MPD2    C211319   1.385   2.120  15.896 -0.0662  0.2700 -0.0050
  763MPD2    C311320   1.519   2.143  15.913  0.1183  0.1804  0.7439
  763MPD2    C411321   1.603   2.110  15.815  0.7519 -0.4781 -0.4107
  763MPD2    C511322   1.555   2.056  15.695 -0.3022 -0.0567 -0.6093
  763MPD2     H11323   1.315   2.137  15.977 -1.0992  1.8095 -1.2378
  763MPD2    H111324   1.710   2.118  15.828  0.5684 -0.6616  1.2376
  763MPD2    H211325   1.406   1.967  15.594 -0.2286  0.2524 -0.2479
  763MPD2    H311326   1.626   2.021  15.621 -2.0187 -0.0911 -2.2313
  763MPD2     N11327   1.573   2.205  16.025  0.1578  0.3829  0.0968
  763MPD2    H511328   1.674   2.216  16.021  0.2704 -1.1682 -1.2314
  763MPD2    N111329   1.204   2.018  15.769 -0.0377 -0.4194  0.0961
  763MPD2    H711330   1.148   2.045  15.849 -2.4900  0.5680 -1.9543
  764MPD2     C11331   3.456   2.816   0.258  0.3597  0.1052 -0.2304
  764MPD2    C111332   3.347   2.907   0.251 -0.3093 -0.5022 -0.3874
  764MPD2    C211333   3.300   2.954   0.372 -0.9455  0.1743 -0.2363
  764MPD2    C311334   3.357   2.930   0.492  0.9049  0.0240  0.5829
  764MPD2    C411335   3.466   2.844   0.494  0.0999  0.5909 -0.8461
  764MPD2    C511336   3.509   2.787   0.378 -0.4639  0.5403 -0.9132
  764MPD2     H11337   3.228   3.035   0.369  0.1892  1.1795 -0.9011
  764MPD2    H111338   3.525   2.838   0.585 -0.1900 -0.9552 -0.7524
  764MPD2    H211339   3.490   2.756   0.174 -0.2595  1.0777 -1.1789
  764MPD2    H311340   3.598   2.726   0.382 -0.6558  0.4704  2.1399
  764MPD2     N11341   3.306   3.010   0.596 -0.2035 -0.0031  0.1602
  764MPD2    H511342   3.222   3.062   0.574 -1.1990 -1.7930 -0.2688
  764MPD2    N111343   3.298   2.958   0.132 -0.2263  0.1050 -0.2712
  764MPD2    H711344   3.231   3.034   0.134 -1.4513 -0.9673 -1.1573
  765MPD2     C11345   3.372   1.494  15.511 -0.2478 -0.5108  1.1198
  765MPD2    C111346   3.469   1.557  15.582  0.7843 -0.0211 -0.2673
  765MPD2    C211347   3.608   1.511  15.566 -0.9417 -0.1656 -0.1047
  765MPD2    C311348   3.630   1.399  15.479  0.0880  0.4674  0.3103
  765MPD2    C411349   3.525   1.338  15.418 -0.3973  0.7127 -0.0460
  765MPD2    C511350   3.398   1.381  15.432 -0.0809 -0.3435 -0.1399
  765MPD2     H11351   3.689   1.567  15.609 -2.1477  0.6761  1.0492
  765MPD2    H111352   3.540   1.255  15.350  2.4313  1.2271 -0.0501
  765MPD2    H211353   3.272   1.535  15.515 -0.0068  0.1536  0.2484
  765MPD2    H311354   3.321   1.334  15.373  0.9559 -1.3216 -0.7146
  765MPD2     N11355   3.760   1.366  15.438  0.2661 -0.0344  0.2972
  765MPD2    H511356   3.824   1.441  15.460  0.4319  0.0012 -0.3145
  765MPD2    N111357   3.421   1.659  15.670  0.2891 -0.0065  0.2071
  765MPD2    H711358   3.321   1.681  15.669 -0.2112 -2.2604  1.6210
  766MPD2     C11359   2.997   1.857  15.380 -0.5205  0.1237  0.5580
  766MPD2    C111360   3.125   1.903  15.383  0.3839 -0.1127 -0.4279
  766MPD2    C211361   3.208   1.901  15.270 -1.1109  0.2236  0.3075
  766MPD2    C311362   3.157   1.859  15.143  0.8977  0.0672  0.1668
  766MPD2    C411363   3.022   1.812  15.138  1.2833  0.2302  0.2235
  766MPD2    C511364   2.950   1.813  15.259  0.7227 -0.6571  0.2166
  766MPD2     H11365   3.314   1.921  15.285 -1.5080  0.4918  2.7524
  766MPD2    H111366   2.988   1.777  15.042 -0.3793  0.5481  0.7047
  766MPD2    H211367   2.923   1.866  15.459 -1.1620 -0.9365  0.0849
  766MPD2    H311368   2.843   1.793  15.253  0.3257  1.7165 -1.0030
  766MPD2     N11369   3.235   1.852  15.026  0.3649 -0.4088 -0.6984
  766MPD2    H511370   3.195   1.824  14.937  0.3940  2.9496 -1.7604
  766MPD2    N111371   3.183   1.950  15.501 -0.5925 -0.0161  0.4671
  766MPD2    H711372   3.271   2.000  15.490  0.1200 -1.6398 -1.1502
  767MPD2     C11373   2.821   2.092  15.069  0.1665 -0.2686 -0.4328
  767MPD2    C111374   2.937   2.126  15.000 -1.1556  0.4568 -0.1105
  767MPD2    C211375   2.950   2.098  14.865  0.1371 -0.0234  0.0795
  767MPD2    C311376   2.857   2.026  14.790 -0.5443  0.3803 -0.4306
  767MPD2    C411377   2.747   1.988  14.857  0.2610 -0.5984  0.1144
  767MPD2    C511378   2.727   2.018  14.991 -0.0651 -0.4287 -0.0785
  767MPD2     H11379   3.040   2.109  14.805  0.5196 -0.7505  0.5193
  767MPD2    H111380   2.672   1.921  14.816  0.9457 -1.6514  0.5912
  767MPD2    H211381   2.803   2.115  15.173  3.2568 -0.4231  0.1314
  767MPD2    H311382   2.650   1.978  15.055 -0.6357 -0.6896 -0.9216
  767MPD2     N11383   2.885   1.985  14.657 -0.0069 -0.2529 -0.0018
  767MPD2    H511384   2.983   1.980  14.629  0.9480  0.6714  3.2041
  767MPD2    N111385   3.034   2.186  15.071  0.4807 -0.0927 -0.3379
  767MPD2    H711386   3.016   2.182  15.171 -3.8137 -0.4490 -1.1472
  768MPD2     C11387   4.273   0.615  10.538 -0.0573  0.7185  0.8166
  768MPD2    C111388   4.203   0.503  10.582  0.5982 -0.7729  0.1140
  768MPD2    C211389   4.261   0.415  10.673 -0.0256  0.7946 -0.1744
  768MPD2    C311390   4.385   0.441  10.729 -0.2452 -0.8323  0.1876
  768MPD2    C411391   4.453   0.553  10.680 -0.3272  0.3531 -0.1308
  768MPD2    C511392   4.399   0.632  10.582 -0.1189  0.2239 -0.3830
  768MPD2     H11393   4.211   0.328  10.712  4.2755 -1.1207  1.1292
  768MPD2    H111394   4.552   0.583  10.711  0.3644 -0.6811 -1.3354
  768MPD2    H211395   4.235   0.696  10.477 -0.0895  1.5951  1.9933
  768MPD2    H311396   4.449   0.718  10.539  0.7244  0.6662  1.4673
  768MPD2     N11397   4.442   0.375  10.840 -0.3661 -0.0274  0.0682
  768MPD2    H511398   4.530   0.416  10.872  0.6294 -1.1881 -1.2269
  768MPD2    N111399   4.071   0.473  10.530  0.1410  0.6985 -0.4683
  768MPD2    H711400   4.030   0.394  10.579  0.7645  1.1467  0.7894
  769MPD2     C11401   0.246   2.688  15.038 -0.0607 -0.2336  0.2134
  769MPD2    C111402   0.128   2.757  15.035 -0.3310  0.4107  0.3424
  769MPD2    C211403   0.104   2.842  15.140 -0.1001 -0.0596 -0.4071
  769MPD2    C311404   0.193   2.856  15.248  0.0309  0.0079 -0.2473
  769MPD2    C411405   0.306   2.778  15.254  0.6528  0.2280 -0.1225
  769MPD2    C511406   0.330   2.697  15.149 -0.8920  0.4629 -0.9831
  769MPD2     H11407   0.018   2.908  15.136  0.2202  0.4771  1.3858
  769MPD2    H111408   0.382   2.783  15.331  0.0885 -1.6658  0.5503
  769MPD2    H211409   0.269   2.613  14.963 -1.8649  0.3250 -0.8908
  769MPD2    H311410   0.417   2.633  15.139 -0.0992  1.3825  0.0878
  769MPD2     N11411   0.149   2.938  15.355 -0.1802  0.4393  0.3830
  769MPD2    H511412   0.057   2.980  15.354 -0.3311  0.1755  2.2992
  769MPD2    N111413   0.043   2.744  14.920 -0.7097 -0.3502 -0.0996
  769MPD2    H711414   0.074   2.683  14.846  1.9211  0.4451  0.3343
  770MPD2     C11415   4.182   2.168  14.471 -0.3544 -0.5053 -0.0245
  770MPD2    C111416   4.274   2.185  14.575  0.2574  0.3704 -0.4832
  770MPD2    C211417   4.363   2.290  14.561  0.4672  0.6055 -0.6108
  770MPD2    C311418   4.344   2.391  14.471 -0.4388 -0.6185 -0.0239
  770MPD2    C411419   4.251   2.374  14.371  0.3248 -0.2964  0.0723
  770MPD2    C511420   4.170   2.262  14.374 -0.6184  0.2148 -0.1705
  770MPD2     H11421   4.430   2.309  14.644 -1.7084 -0.5996  1.4236
  770MPD2    H111422   4.244   2.440  14.286  1.6228  1.2711  1.1775
  770MPD2    H211423   4.116   2.082  14.462 -1.5876  0.5452 -0.8981
  770MPD2    H311424   4.096   2.250  14.295 -2.5551 -0.3394  1.7253
  770MPD2     N11425   4.416   2.516  14.479 -0.4828  0.1414 -0.0866
  770MPD2    H511426   4.387   2.593  14.420 -2.4326  0.5432  1.4142
  770MPD2    N111427   4.294   2.104  14.681  0.1278  0.2117  0.0308
  770MPD2    H711428   4.372   2.133  14.740  0.4200 -2.1096  0.8213
  771MPD2     C11429   1.342   1.312  13.936  0.1379 -0.2053  0.1672
  771MPD2    C111430   1.226   1.385  13.934 -0.7027  0.5758 -0.1974
  771MPD2    C211431   1.124   1.351  13.846  0.3707 -0.8493  0.0862
  771MPD2    C311432   1.130   1.244  13.762  0.9043  0.5270  0.5494
  771MPD2    C411433   1.254   1.172  13.763 -0.0506  0.5561  0.1736
  771MPD2    C511434   1.354   1.207  13.849 -0.4795  0.1882  0.6655
  771MPD2     H11435   1.030   1.405  13.852  1.4592  1.0371 -0.2015
  771MPD2    H111436   1.274   1.087  13.700  0.8434 -0.0867  1.3185
  771MPD2    H211437   1.414   1.341  14.012  0.0336 -1.1068  0.6091
  771MPD2    H311438   1.444   1.147  13.862 -0.9558 -0.7129 -0.1329
  771MPD2     N11439   1.023   1.211  13.679 -0.7156  0.2522 -0.1253
  771MPD2    H511440   0.948   1.279  13.670  0.6269  1.6592 -0.5144
  771MPD2    N111441   1.220   1.502  14.017  0.0434  0.1313 -0.1013
  771MPD2    H711442   1.309   1.543  14.045 -0.9833  1.5740  1.0315
  772MPD2     C11443   0.740   2.044  13.798 -0.2520 -0.2271 -0.5930
  772MPD2    C111444   0.737   1.987  13.925 -0.0273 -0.0462  0.3749
  772MPD2    C211445   0.622   1.928  13.975  0.2653 -0.3112  0.2164
  772MPD2    C311446   0.504   1.918  13.898 -0.3200 -0.5282  0.2913
  772MPD2    C411447   0.514   1.977  13.770 -0.4321 -0.3160  0.4821
  772MPD2    C511448   0.629   2.034  13.724  0.2639  0.2385  0.5090
  772MPD2     H11449   0.629   1.891  14.077  1.1609  0.5724  0.4857
  772MPD2    H111450   0.439   1.956  13.694  2.4700 -1.5418 -2.0550
  772MPD2    H211451   0.833   2.086  13.763 -1.2213  1.9492 -0.5652
  772MPD2    H311452   0.633   2.068  13.621 -0.3513 -2.3438 -0.3819
  772MPD2     N11453   0.379   1.861  13.936  0.2046  0.4306 -0.6472
  772MPD2    H511454   0.300   1.870  13.873  1.0320 -0.0769 -1.7567
  772MPD2    N111455   0.856   1.975  14.006 -0.4338 -0.1183 -0.0445
  772MPD2    H711456   0.835   1.929  14.094 -2.5105 -0.5241 -0.7473
  773MPD2     C11457   4.737   2.552   0.281 -0.3777 -0.1417 -0.3337
  773MPD2    C111458   4.665   2.483   0.186 -0.8511  0.5936 -0.0990
  773MPD2    C211459   4.626   2.359   0.225  0.1345  0.1282 -0.4301
  773MPD2    C311460   4.658   2.306   0.347 -0.0425  1.2986  0.4186
  773MPD2    C411461   0.004   2.368   0.433 -0.0112  0.1998 -0.2665
  773MPD2    C511462   0.039   2.496   0.405  0.6897 -0.2631  0.2481
  773MPD2     H11463   4.560   2.304   0.159  0.5284 -1.1569  0.2294
  773MPD2    H111464   0.043   2.341   0.530  0.6185 -1.6115 -1.0326
  773MPD2    H211465   0.032   2.653   0.262 -1.6706  0.5118  0.8838
  773MPD2    H311466   0.096   2.553   0.477 -0.0932 -0.2365  0.8467
  773MPD2     N11467   4.622   2.173   0.365  0.4927  0.5189  0.0702
  773MPD2    H511468   4.582   2.121   0.287  0.9372 -0.5356  0.5530
  773MPD2    N111469   4.614   2.537   0.068 -0.2804 -0.5702 -0.0130
  773MPD2    H711470   4.562   2.478   0.005  0.3196  0.7465 -1.7560
  774MPD2     C11471   3.554   1.802  13.865  0.2489  0.3769  0.4144
  774MPD2    C111472   3.688   1.775  13.845  0.4559  0.1849 -0.0997
  774MPD2    C211473   3.755   1.874  13.770  0.2578 -0.0581 -0.0232
  774MPD2    C311474   3.704   1.992  13.733 -0.2131  0.1941 -0.4120
  774MPD2    C411475   3.570   2.000  13.740  0.1732  0.3267  0.3347
  774MPD2    C511476   3.497   1.910  13.801  0.2155 -0.4161  0.4485
  774MPD2     H11477   3.861   1.865  13.748  0.1973 -2.3030  0.6075
  774MPD2    H111478   3.516   2.086  13.703 -2.3170 -0.8589  1.2279
  774MPD2    H211479   3.489   1.730  13.913 -1.8033  2.0163  0.1009
  774MPD2    H311480   3.389   1.917  13.796  0.0621 -3.4612 -0.5628
  774MPD2     N11481   3.779   2.092  13.673 -0.4740 -0.3693  0.1619
  774MPD2    H511482   3.879   2.076  13.677 -0.5260 -0.2797  1.6700
  774MPD2    N111483   3.758   1.658  13.882 -0.2767 -1.0153 -0.0095
  774MPD2    H711484   3.853   1.643  13.851 -0.6539 -1.1186 -1.0994
  775MPD2     C11485   0.231   2.851  15.841  0.2769  0.2367 -0.3973
  775MPD2    C111486   0.212   2.967  15.914  0.4771  0.0940 -0.4663
  775MPD2    C211487   0.317   3.054  15.930 -0.3780  0.6295  0.4179
  775MPD2    C311488   0.437   3.034  15.859 -0.6653 -0.3292 -0.8098
  775MPD2    C411489   0.454   2.916  15.783  0.2248 -0.5682  0.0651
  775MPD2    C511490   0.348   2.834  15.768  0.6109 -0.2617  0.6394
  775MPD2     H11491   0.316   3.136  16.002 -4.5721  1.3785 -0.4786
  775MPD2    H111492   0.551   2.898  15.737  0.6717  0.5406  0.5779
  775MPD2    H211493   0.151   2.785  15.810  0.1043 -0.1478  0.8805
  775MPD2    H311494   0.352   2.749  15.701  2.0002 -0.3157  0.7918
  775MPD2     N11495   0.547   3.130  15.875  0.5766  0.1185 -0.8336
  775MPD2    H511496   0.620   3.118  15.805 -0.4656  0.5594 -1.9878
  775MPD2    N111497   0.081   2.995  15.969 -0.6278 -0.1968  0.6446
  775MPD2    H711498   0.008   2.926  15.954 -0.2151 -0.4565 -0.1838
  776MPD2     C11499   4.480   3.084  11.889  0.6024 -0.0570  0.0158
  776MPD2    C111500   4.367   3.115  11.820 -0.7443 -0.3436  0.3224
  776MPD2    C211501   4.331   3.243  11.807 -0.1785 -0.1513  0.8461
  776MPD2    C311502   4.403   3.337  11.873 -0.5215 -0.3226 -0.4843
  776MPD2    C411503   4.517   3.304  11.934 -0.4784  0.0204 -0.3595
  776MPD2    C511504   4.561   3.179  11.942 -0.3146 -0.3625 -0.0465
  776MPD2     H11505   4.250   3.271  11.740  0.9518  1.9473  0.3508
  776MPD2    H111506   4.574   3.389  11.971 -0.2908 -1.0769  1.8801
  776MPD2    H211507   4.505   2.978  11.894 -0.4938 -0.2165  2.5516
  776MPD2    H311508   4.654   3.144  11.985 -0.5795  0.1652  0.9543
  776MPD2     N11509   4.356   3.475  11.868  0.0995  0.0224 -0.3534
  776MPD2    H511510   4.418   3.547  11.902 -1.9182  1.3398  0.5757
  776MPD2    N111511   4.309   3.009  11.746 -0.6048 -0.3623  0.0201
  776MPD2    H711512   4.344   2.917  11.769 -2.8986 -0.8420  1.6464
  777MPD2     C11513   4.628   0.845   0.445 -0.0572  0.1213 -0.5073
  777MPD2    C111514   4.626   0.726   0.516  0.4488  0.1068 -0.0946
  777MPD2    C211515   4.567   0.614   0.457 -0.2595 -0.3838  0.3111
  777MPD2    C311516   4.512   0.620   0.333 -0.3973  0.8062  0.4744
  777MPD2    C411517   4.513   0.741   0.263  0.2971 -0.9600  0.2912
  777MPD2    C511518   4.575   0.850   0.320  0.1490  0.6968  0.5873
  777MPD2     H11519   4.568   0.521   0.512 -1.1490 -1.2792 -1.2263
  777MPD2    H111520   4.459   0.758   0.171 -1.0749  1.0951  1.4603
  777MPD2    H211521   4.678   0.930   0.490  0.5783 -0.1085 -0.7693
  777MPD2    H311522   4.564   0.943   0.266 -1.3221  0.7899  1.0668
  777MPD2     N11523   4.435   0.511   0.292  0.1050 -0.4381 -0.2673
  777MPD2    H511524   4.423   0.434   0.357 -2.0441  1.1197  1.2062
  777MPD2    N111525   4.696   0.727   0.643 -0.1285  0.1558 -0.0473
  777MPD2    H711526   4.736   0.816   0.671  1.2028  0.2623 -2.2492
  778MPD2     C11527   1.124   1.497  14.574 -0.0998 -0.2052 -0.3664
  778MPD2    C111528   1.151   1.377  14.512 -0.0340 -0.2354  0.0924
  778MPD2    C211529   1.249   1.375  14.419 -0.6219  0.3639 -0.0583
  778MPD2    C311530   1.340   1.480  14.399 -0.7787 -0.4290  0.4178
  778MPD2    C411531   1.305   1.603  14.458  0.2641  0.2242  0.5736
  778MPD2    C511532   1.193   1.609  14.545 -0.1765  0.3892  0.1484
  778MPD2     H11533   1.274   1.281  14.371  0.0717  0.4679  0.0969
  778MPD2    H111534   1.365   1.694  14.453  0.5547 -0.0564 -1.0068
  778MPD2    H211535   1.042   1.513  14.643  0.2064 -0.3547  0.0306
  778MPD2    H311536   1.176   1.700  14.603 -0.0396  0.1178  0.6146
  778MPD2     N11537   1.452   1.461  14.316  0.4933  0.2551  0.2171
  778MPD2    H511538   1.473   1.366  14.287 -2.6771  0.1475 -1.6640
  778MPD2    N111539   1.071   1.264  14.534 -0.9887  0.3087  0.2863
  778MPD2    H711540   1.104   1.182  14.484  1.3232  1.4583 -0.0832
  779MPD2     C11541   0.762   4.551  14.007  0.1931 -0.3423  0.4107
  779MPD2    C111542   0.793   4.605  14.128  0.0381  0.3067 -0.3432
  779MPD2    C211543   0.825   0.001  14.147 -0.1838 -0.6568 -0.2279
  779MPD2    C311544   0.828   0.086  14.040 -0.2857  0.5720  0.9550
  779MPD2    C411545   0.796   0.035  13.915  0.0672  0.0823 -0.3260
  779MPD2    C511546   0.756   4.642  13.900  1.6539 -0.2522  0.4422
  779MPD2     H11547   0.838   0.033  14.249  4.1372  2.4231 -1.7657
  779MPD2    H111548   0.812   0.094  13.826 -3.0131  0.6271 -0.5291
  779MPD2    H211549   0.731   4.448  13.993  0.3868 -0.0617 -2.1560
  779MPD2    H311550   0.737   4.613  13.797  1.4587 -0.0913  0.4327
  779MPD2     N11551   0.867   0.222  14.067 -0.0018  0.2092 -0.0784
  779MPD2    H511552   0.893   0.237  14.164 -0.1150  0.6377 -0.1188
  779MPD2    N111553   0.810   4.535  14.252 -0.9571 -0.1652 -0.0822
  779MPD2    H711554   0.844   4.590  14.330  0.7853 -1.7563  0.2681
  780MPD2     C11555   0.637   4.280   1.000  0.2731 -0.1570 -0.0034
  780MPD2    C111556   0.512   4.294   0.949 -0.0039 -0.0504 -0.4532
  780MPD2    C211557   0.505   4.329   0.813 -0.8024 -0.4976  0.2064
  780MPD2    C311558   0.615   4.343   0.734  0.1762 -0.5340 -0.1631
  780MPD2    C411559   0.745   4.345   0.787 -0.7427  0.3837  0.2684
  780MPD2    C511560   0.746   4.312   0.922 -0.0278 -0.1765  0.5852
  780MPD2     H11561   0.411   4.344   0.761 -0.6573  0.1042  0.1225
  780MPD2    H111562   0.835   4.370   0.732 -0.2824  0.9176  1.2631
  780MPD2    H211563   0.651   4.254   1.104 -1.2233 -1.4557 -0.1159
  780MPD2    H311564   0.843   4.307   0.970 -0.1081 -0.3930  0.7252
  780MPD2     N11565   0.583   4.374   0.605  0.4960 -0.5790 -0.1298
  780MPD2    H511566   0.485   4.384   0.582  0.5911 -0.1113 -0.3243
  780MPD2    N111567   0.400   4.282   1.026 -0.4206 -0.3130 -0.2861
  780MPD2    H711568   0.416   4.259   1.124  1.3804 -1.4294 -0.8466
  781MPD2     C11569   1.909   1.019  12.857  0.0056  0.6161 -0.5616
  781MPD2    C111570   2.003   1.105  12.794  0.2947  0.6914  0.4071
  781MPD2    C211571   2.068   1.053  12.685 -0.3133 -0.0309  0.1124
  781MPD2    C311572   2.051   0.924  12.636  0.6602  0.3988  0.2300
  781MPD2    C411573   1.945   0.850  12.689 -0.1152  0.1131 -0.5027
  781MPD2    C511574   1.892   0.889  12.803  0.2067  0.2262 -0.6026
  781MPD2     H11575   2.145   1.120  12.648 -0.0710  0.1930  1.0087
  781MPD2    H111576   1.933   0.749  12.651 -1.4316  0.2760 -0.5333
  781MPD2    H211577   1.859   1.049  12.948 -2.1157 -0.6497 -1.3244
  781MPD2    H311578   1.818   0.833  12.860  0.5066 -0.0376 -0.4749
  781MPD2     N11579   2.117   0.871  12.523  0.4755  0.8556 -0.1068
  781MPD2    H511580   2.073   0.790  12.482 -0.2088  1.2934 -0.2391
  781MPD2    N111581   2.028   1.239  12.834 -0.1143  0.2278 -0.5657
  781MPD2    H711582   2.094   1.285  12.772  2.1604 -0.2324  1.5345
  782MPD2     C11583   4.661   2.525  10.211 -0.4036  0.2379 -0.2670
  782MPD2    C111584   0.055   2.481  10.224  0.5692 -0.9397  0.2336
  782MPD2    C211585   0.130   2.535  10.326 -0.4222  0.4734  0.0449
  782MPD2    C311586   0.069   2.623  10.414 -1.0928  0.4761  0.0015
  782MPD2    C411587   4.684   2.679  10.390  0.3687 -0.4671 -0.1286
  782MPD2    C511588   4.612   2.624  10.290 -0.1489  0.1251 -0.2959
  782MPD2     H11589   0.220   2.485  10.361 -0.8160 -1.9438 -2.4141
  782MPD2    H111590   4.638   2.751  10.457  1.1524 -0.2591  0.1842
  782MPD2    H211591   4.595   2.478  10.140  1.1380  1.1273 -2.3091
  782MPD2    H311592   4.513   2.663  10.268 -0.3293 -0.3187 -0.2599
  782MPD2     N11593   0.149   2.673  10.519  0.1581  0.3492  0.3641
  782MPD2    H511594   0.245   2.641  10.509  0.1631 -0.1661  1.9998
  782MPD2    N111595   0.088   2.358  10.150 -0.5941 -0.0488  0.6355
  782MPD2    H711596   0.005   2.312  10.113 -0.1940 -0.2009 -0.0746
  783MPD2     C11597   4.223   1.787  10.366  0.0606  0.5671  0.1120
  783MPD2    C111598   4.276   1.890  10.444  0.5293 -0.5615 -0.5834
  783MPD2    C211599   4.400   1.934  10.407 -0.4572 -0.1508  0.5936
  783MPD2    C311600   4.475   1.872  10.311 -0.2770 -0.6271 -0.0538
  783MPD2    C411601   4.424   1.762  10.244 -0.6976  0.0011  0.1646
  783MPD2    C511602   4.292   1.723  10.267 -0.4998 -0.8151 -0.0719
  783MPD2     H11603   4.440   2.021  10.458 -2.2795  2.2842 -2.0355
  783MPD2    H111604   4.479   1.726  10.158  0.2271  1.0519  0.3214
  783MPD2    H211605   4.126   1.742  10.383 -0.2639  1.1891 -0.0725
  783MPD2    H311606   4.254   1.652  10.194 -1.1943 -1.2026  0.6792
  783MPD2     N11607   4.606   1.923  10.282  0.1524 -0.1192 -0.3298
  783MPD2    H511608   4.637   2.000  10.341  1.0437  0.0615 -1.0260
  783MPD2    N111609   4.197   1.940  10.557  0.0862  0.5712  0.3485
  783MPD2    H711610   4.113   1.886  10.575 -0.6308  1.7183  0.4622
  784MPD2     C11611   2.480   2.498   1.204 -0.6817  0.2067  0.5633
  784MPD2    C111612   2.489   2.635   1.228  0.3236 -0.3122  0.3313
  784MPD2    C211613   2.380   2.714   1.208  0.6400 -0.3803 -0.4082
  784MPD2    C311614   2.263   2.664   1.151  0.5332  0.0912  0.6834
  784MPD2    C411615   2.257   2.531   1.115 -0.4263  0.7345  0.6243
  784MPD2    C511616   2.371   2.452   1.135  0.0661 -0.0003  0.4019
  784MPD2     H11617   2.391   2.818   1.235 -1.4677 -0.4494  0.7019
  784MPD2    H111618   2.173   2.477   1.073  1.0364 -2.3795  1.7114
  784MPD2    H211619   2.552   2.424   1.237  0.2693  1.4491  1.2642
  784MPD2    H311620   2.374   2.347   1.109 -2.5152  0.2420 -0.7936
  784MPD2     N11621   2.161   2.751   1.124  0.2265  0.2788 -0.6722
  784MPD2    H511622   2.168   2.849   1.149  0.2705  0.1116 -0.0249
  784MPD2    N111623   2.607   2.687   1.292  0.7019  0.2677 -0.2583
  784MPD2    H711624   2.600   2.781   1.330 -0.7930 -0.2372  0.6790
  785MPD2     C11625   2.893   0.982  10.099  0.1011 -0.0447 -0.1746
  785MPD2    C111626   2.805   0.920  10.185 -0.1561 -0.2056  0.3354
  785MPD2    C211627   2.716   0.823  10.136 -0.2871 -0.2183 -0.3263
  785MPD2    C311628   2.714   0.799  10.000  0.0336 -0.4247  0.3796
  785MPD2    C411629   2.805   0.858   9.910  0.2475 -0.1351  0.3362
  785MPD2    C511630   2.893   0.947   9.964 -0.2681 -0.1630 -0.0954
  785MPD2     H11631   2.635   0.772  10.189  0.8524  0.0733  1.7087
  785MPD2    H111632   2.814   0.825   9.807 -1.5335 -2.5196  0.9651
  785MPD2    H211633   2.954   1.064  10.135 -1.1604  0.4110  0.9597
  785MPD2    H311634   2.957   0.987   9.886 -2.1125  2.8654 -0.0730
  785MPD2     N11635   2.617   0.702   9.956  0.0911  0.2460  0.4021
  785MPD2    H511636   2.547   0.668  10.020 -1.0132 -0.3957 -1.1390
  785MPD2    N111637   2.800   0.959  10.324 -0.3460  0.4779 -0.0751
  785MPD2    H711638   2.868   1.030  10.349  0.5152 -0.8069  1.1702
  786MPD2     C11639   1.005   3.965  15.048  0.7926  0.5387  0.4395
  786MPD2    C111640   1.104   3.874  15.027  0.6494 -0.4172  0.3156
  786MPD2    C211641   1.145   3.798  15.135  0.2300  0.4388 -0.4034
  786MPD2    C311642   1.090   3.816  15.260  0.8582 -0.3758  0.5986
  786MPD2    C411643   0.979   3.901  15.276  0.0500 -0.3637 -0.5329
  786MPD2    C511644   0.946   3.973  15.166  0.2885  0.0555  0.2626
  786MPD2     H11645   1.216   3.716  15.128  3.5177  3.0988  1.2395
  786MPD2    H111646   0.913   3.907  15.362 -0.0071  4.5727 -0.9379
  786MPD2    H211647   0.971   4.026  14.966  1.8483  0.7312  0.1539
  786MPD2    H311648   0.865   4.045  15.175  0.2732 -0.0802  1.2156
  786MPD2     N11649   1.139   3.752  15.375  0.4477  0.2503  0.3783
  786MPD2    H511650   1.101   3.775  15.466  2.5420 -2.3129  1.9001
  786MPD2    N111651   1.167   3.854  14.900  0.0691 -0.2616  0.1321
  786MPD2    H711652   1.239   3.782  14.895 -2.5842 -3.0969  2.6116
  787MPD2     C11653   1.612   3.463  14.829  0.9095 -0.8114 -0.3643
  787MPD2    C111654   1.586   3.480  14.696 -0.3062 -0.3820  0.0561
  787MPD2    C211655   1.662   3.405  14.607 -0.0290 -0.5643 -0.5543
  787MPD2    C311656   1.769   3.331  14.653 -0.1412 -0.2564  0.0829
  787MPD2    C411657   1.801   3.326  14.790 -0.0144 -0.5186 -0.6585
  787MPD2    C511658   1.722   3.385  14.883 -0.6662 -0.7671 -0.7019
  787MPD2     H11659   1.656   3.400  14.499  1.4701  1.1418 -0.7080
  787MPD2    H111660   1.871   3.259  14.839 -1.0229 -2.4688 -1.8845
  787MPD2    H211661   1.538   3.485  14.906  1.1716 -0.2278 -0.2728
  787MPD2    H311662   1.735   3.355  14.986  0.8750  1.2241 -0.3218
  787MPD2     N11663   1.849   3.276  14.550 -0.2071  0.0604  0.1242
  787MPD2    H511664   1.803   3.291  14.461  0.8393 -2.5912 -0.8648
  787MPD2    N111665   1.474   3.559  14.673 -0.3066  0.4550 -0.0059
  787MPD2    H711666   1.447   3.629  14.742 -0.3727  0.2757  0.1514
  788MPD2     C11667   3.312   2.127   1.218 -0.0720 -0.1476  0.2585
  788MPD2    C111668   3.366   2.071   1.101 -0.0696  0.8267  0.2255
  788MPD2    C211669   3.398   2.153   0.996 -0.1575  0.5395 -0.1767
  788MPD2    C311670   3.365   2.289   1.004 -0.1804 -0.2159 -0.2483
  788MPD2    C411671   3.307   2.339   1.112  0.4949  0.3448 -0.4268
  788MPD2    C511672   3.283   2.260   1.222  0.1877 -0.1093  0.8461
  788MPD2     H11673   3.426   2.106   0.902  0.0830  0.4963 -0.0814
  788MPD2    H111674   3.267   2.440   1.114  0.6810  0.4661 -2.8569
  788MPD2    H211675   3.282   2.069   1.305 -0.8119  1.9451  1.4174
  788MPD2    H311676   3.211   2.291   1.297  0.1017 -0.8604  1.0649
  788MPD2     N11677   3.388   2.378   0.897  0.6794 -0.1912  0.2446
  788MPD2    H511678   3.377   2.476   0.921 -1.6705  0.1657 -2.3706
  788MPD2    N111679   3.382   1.933   1.081 -0.2853  0.3141 -0.0060
  788MPD2    H711680   3.442   1.898   1.007  1.0685  0.9513  0.7893
  789MPD2     C11681   3.553   1.741  16.378  0.1145  0.0366  0.6409
  789MPD2    C111682   3.427   1.718  16.330 -0.1592  0.2053  0.3790
  789MPD2    C211683   3.321   1.775  16.394 -0.5219  1.1662  0.1896
  789MPD2    C311684   3.352   1.856  16.501 -0.4047 -0.1218 -0.2434
  789MPD2    C411685   3.479   1.880  16.552  0.3485 -0.6197 -0.6480
  789MPD2    C511686   3.582   1.822  16.487  0.6039  0.2971  0.2315
  789MPD2     H11687   3.217   1.760  16.367 -0.1458 -0.2309 -0.4431
  789MPD2    H111688   3.481   1.954  16.630  0.1255 -0.1512 -1.0853
  789MPD2    H211689   3.641   1.701  16.330  0.4561  0.9273  0.5199
  789MPD2    H311690   3.683   1.839  16.523  0.1813  0.3227  1.4070
  789MPD2     N11691   3.242   1.912  16.571 -0.1690  0.5654 -0.2084
  789MPD2    H511692   3.260   1.950  16.663 -1.0612 -0.5462  0.4227
  789MPD2    N111693   3.395   1.640  16.218  0.1233 -1.0545 -0.0435
  789MPD2    H711694   3.297   1.648  16.192 -0.1499 -2.4229  0.5153
  790MPD2     C11695   4.509   4.045  13.437  0.1182  0.6938  0.0138
  790MPD2    C111696   4.566   3.947  13.512 -0.0240  0.0071 -0.4129
  790MPD2    C211697   4.543   3.814  13.476 -0.1793 -0.4094  0.0295
  790MPD2    C311698   4.453   3.781  13.371 -0.3480  0.1700  0.7517
  790MPD2    C411699   4.382   3.884  13.303 -0.2109 -0.1629 -0.3575
  790MPD2    C511700   4.412   4.013  13.343 -0.4584 -0.0634  0.8377
  790MPD2     H11701   4.604   3.740  13.525 -1.6596 -1.8561 -0.2998
  790MPD2    H111702   4.313   3.876  13.220  0.1041  2.4641 -0.8604
  790MPD2    H211703   4.527   4.151  13.448  0.6749  0.6595 -0.5716
  790MPD2    H311704   4.374   4.099  13.288 -0.0110 -0.7178 -0.4814
  790MPD2     N11705   4.427   3.645  13.347 -0.7298  0.1788  0.1997
  790MPD2    H511706   4.482   3.577  13.399  0.1285 -0.0831 -1.0523
  790MPD2    N111707   4.661   3.987  13.610  0.1938  0.4458 -0.2333
  790MPD2    H711708   4.685   4.085  13.619  0.1372  0.5191 -0.9366
  791MPD2     C11709   3.856   3.444  12.910 -0.3839  0.1966  0.5502
  791MPD2    C111710   3.927   3.331  12.933 -0.3987  0.0789  1.0858
  791MPD2    C211711   3.883   3.215  12.878 -0.4782  0.1634  0.2392
  791MPD2    C311712   3.762   3.205  12.809  0.1696  0.1452 -0.2534
  791MPD2    C411713   3.698   3.326  12.784  1.1046 -0.3381 -0.0950
  791MPD2    C511714   3.745   3.439  12.834 -0.3859 -0.3432 -0.2607
  791MPD2     H11715   3.943   3.125  12.892 -0.6314 -0.1516 -1.1921
  791MPD2    H111716   3.611   3.343  12.721  0.2545 -1.2174  0.8535
  791MPD2    H211717   3.881   3.543  12.945 -0.7646  0.5872 -0.2813
  791MPD2    H311718   3.693   3.531  12.807 -0.4560 -0.2504  0.1855
  791MPD2     N11719   3.711   3.076  12.762  0.2522 -0.5454 -0.3530
  791MPD2    H511720   3.769   2.993  12.767  0.9972 -0.1990 -3.0259
  791MPD2    N111721   4.033   3.341  13.025  0.2558 -0.6687  0.2104
  791MPD2    H711722   4.049   3.434  13.064  2.3637 -0.1405 -1.9139
  792MPD2     C11723   4.728   3.461  11.632  0.8264  0.4371  0.2951
  792MPD2    C111724   4.656   3.545  11.547  0.0437 -0.5726  0.2525
  792MPD2    C211725   4.573   3.489  11.460  0.0165 -0.3387  0.3468
  792MPD2    C311726   4.550   3.354  11.459 -0.7951 -0.5128  0.8627
  792MPD2    C411727   4.605   3.274  11.553  0.4111 -0.6711 -0.0610
  792MPD2    C511728   4.695   3.333  11.641  0.2413  0.3826  0.1446
  792MPD2     H11729   4.512   3.548  11.392 -0.0140 -3.2693 -2.1792
  792MPD2    H111730   4.573   3.171  11.568 -1.9037 -0.4490 -3.6950
  792MPD2    H211731   0.081   3.483  11.687  0.4147  2.3204  0.1913
  792MPD2    H311732   0.011   3.276  11.717 -2.7237 -0.9690  1.2298
  792MPD2     N11733   4.459   3.290  11.377  0.3549 -0.0027 -0.2604
  792MPD2    H511734   4.441   3.191  11.387 -1.4974  0.2079 -1.4259
  792MPD2    N111735   4.681   3.681  11.552 -0.2871  0.7768  0.5101
  792MPD2    H711736   0.014   3.723  11.612 -0.4457  0.5807  0.8346
  793MPD2     C11737   3.999   3.260  10.467  0.2645 -0.0070  0.3987
  793MPD2    C111738   4.085   3.360  10.508  0.2520 -0.1952 -0.4471
  793MPD2    C211739   4.121   3.382  10.644 -0.5254 -0.1781  0.3242
  793MPD2    C311740   4.058   3.302  10.742  0.0172 -0.4322 -0.2137
  793MPD2    C411741   3.980   3.205  10.697  0.1962  0.2203 -0.0719
  793MPD2    C511742   3.943   3.180  10.568  0.4615 -0.9571 -0.0147
  793MPD2     H11743   4.182   3.470  10.663 -0.5714 -0.0849  0.0449
  793MPD2    H111744   3.925   3.143  10.767  0.4852 -0.2703 -0.2827
  793MPD2    H211745   3.984   3.234  10.363 -0.9933 -0.0148  0.5789
  793MPD2    H311746   3.871   3.107  10.533 -0.8690  0.1908  0.3206
  793MPD2     N11747   4.076   3.326  10.879  0.4866 -0.4704  0.2621
  793MPD2    H511748   4.110   3.420  10.897  2.3887 -0.7629 -1.8067
  793MPD2    N111749   4.115   3.457  10.419  0.5177 -0.6900  0.3234
  793MPD2    H711750   4.182   3.521  10.460  1.3119 -0.6564 -1.0276
  794MPD2     C11751   4.491   2.766  17.023 -0.0008  1.2157 -0.1926
  794MPD2    C111752   4.374   2.761  17.097  0.2564 -0.0277  0.2143
  794MPD2    C211753   4.254   2.773  17.027  0.4123  0.1175 -0.2807
  794MPD2    C311754   4.249   2.774  16.888 -0.4471  0.2728 -0.3084
  794MPD2    C411755   4.362   2.755  16.815 -0.5769 -0.4221 -0.4065
  794MPD2    C511756   4.481   2.761  16.888  0.1545  0.5926  0.4453
  794MPD2     H11757   4.163   2.758  17.083  0.1264  1.0238 -0.4972
  794MPD2    H111758   4.359   2.751  16.707 -3.2313  1.3715 -0.3908
  794MPD2    H211759   4.591   2.768  17.064 -0.1689 -1.1370  0.3506
  794MPD2    H311760   4.569   2.771  16.825  2.1195  0.1754  3.1130
  794MPD2     N11761   4.133   2.779  16.815  0.7617 -0.1137 -0.3731
  794MPD2    H511762   4.138   2.776  16.714 -0.1577 -0.5056 -0.4070
  794MPD2    N111763   4.376   2.749  17.234 -0.1983 -0.2568  0.6601
  794MPD2    H711764   4.289   2.748  17.287  0.0128  0.9072  1.0368
  795MPD2     C11765   1.953   0.275  14.165  0.3379  0.5345 -0.4040
  795MPD2    C111766   1.943   0.197  14.058  0.4933  0.5990  1.0433
  795MPD2    C211767   2.004   0.077  14.048 -0.3454 -0.5768 -0.0143
  795MPD2    C311768   2.076   0.027  14.153 -0.6810 -0.0753  0.0805
  795MPD2    C411769   2.093   0.113  14.265  0.4111  0.3378  0.7373
  795MPD2    C511770   2.033   0.232  14.269 -0.1689 -0.6229  0.4335
  795MPD2     H11771   1.992   0.015  13.961 -2.0256  0.8792 -0.8379
  795MPD2    H111772   2.145   0.085  14.356  1.8489 -0.9775 -0.4921
  795MPD2    H211773   1.900   0.368  14.182  0.2553  0.3963  0.1004
  795MPD2    H311774   2.050   0.292  14.357  1.1915 -1.5920  0.8362
  795MPD2     N11775   2.128   4.633  14.135  0.6489  0.0495  0.2603
  795MPD2    H511776   2.113   4.591  14.044 -0.1694  2.1212 -0.5650
  795MPD2    N111777   1.849   0.226  13.955  0.2221  0.2806 -0.0864
  795MPD2    H711778   1.830   0.158  13.882 -1.4050  1.0439 -0.3696
  796MPD2     C11779   1.348   1.519  15.490 -0.7274  0.6723  0.3093
  796MPD2    C111780   1.462   1.584  15.548  0.1416  0.0637  0.5980
  796MPD2    C211781   1.509   1.706  15.497 -0.5601 -0.5223  0.1724
  796MPD2    C311782   1.454   1.751  15.379  0.6680  0.1935 -0.6216
  796MPD2    C411783   1.353   1.685  15.309  0.3331 -0.1594  0.3392
  796MPD2    C511784   1.292   1.575  15.371  0.5905  0.3339  0.3483
  796MPD2     H11785   1.589   1.761  15.544 -0.6434 -0.9406  0.8177
  796MPD2    H111786   1.317   1.717  15.212 -0.9120 -1.2731  0.4354
  796MPD2    H211787   1.314   1.431  15.544 -2.8187  1.6608  0.6370
  796MPD2    H311788   1.199   1.530  15.339 -1.0909  2.0817  2.7984
  796MPD2     N11789   1.493   1.885  15.349  0.1135  0.4462  0.3366
  796MPD2    H511790   1.568   1.926  15.402 -2.0406  1.0188  2.9485
  796MPD2    N111791   1.518   1.530  15.666  0.4495 -0.0383 -0.2037
  796MPD2    H711792   1.464   1.456  15.710  0.2541  0.6423  0.7007
  797MPD2     C11793   2.552   1.325  17.093  0.5918  0.3485  0.3523
  797MPD2    C111794   2.499   1.430  17.171  0.5162 -0.0959 -0.5412
  797MPD2    C211795   2.378   1.477  17.129  0.6333 -0.6613  0.0508
  797MPD2    C311796   2.311   1.430  17.019  0.3777  0.6225  0.2609
  797MPD2    C411797   2.363   1.331  16.946  0.7118 -0.1871  0.4775
  797MPD2    C511798   2.476   1.275  16.993 -0.1788 -0.1991 -0.6102
  797MPD2     H11799   2.340   1.565  17.180 -0.1640 -1.7553  1.3699
  797MPD2    H111800   2.316   1.295  16.856  0.2216  0.5169  0.4493
  797MPD2    H211801   2.643   1.271  17.116  0.6797 -0.2135 -1.3313
  797MPD2    H311802   2.522   1.195  16.936  0.3630  2.7352 -4.2447
  797MPD2     N11803   2.193   1.480  16.980  0.1867  0.8375 -0.5328
  797MPD2    H511804   2.157   1.454  16.889 -0.0955  1.7868 -0.6977
  797MPD2    N111805   2.555   1.479  17.289  0.5227 -0.3622 -0.1345
  797MPD2    H711806   2.495   1.541  17.343  1.6511  1.5783 -1.1146
  798MPD2     C11807   2.094   2.054  17.441 -0.3677 -0.7809 -0.4096
  798MPD2    C111808   2.151   1.999  17.329 -0.6798 -0.1345 -0.2244
  798MPD2    C211809   2.282   1.969  17.331  0.4984 -0.1318 -0.1873
  798MPD2    C311810   2.363   1.966  17.446  0.5167 -0.2680  0.3616
  798MPD2    C411811   2.309   2.017  17.556 -0.6170 -0.1805 -0.4676
  798MPD2    C511812   2.179   2.070  17.549 -0.4499 -0.7244 -0.1205
  798MPD2     H11813   2.335   1.933  17.244 -2.7893 -1.9427 -1.4222
  798MPD2    H111814   2.365   2.027  17.648  0.3023 -1.2672 -0.9079
  798MPD2    H211815   1.993   2.093  17.435 -0.0832  0.0047 -0.1776
  798MPD2    H311816   2.133   2.115  17.637 -1.0622  2.5391 -2.1023
  798MPD2     N11817   2.491   1.906  17.443  0.0241 -0.7778  0.5689
  798MPD2    H511818   2.516   1.859  17.357 -0.3760  1.4721 -0.7756
  798MPD2    N111819   2.072   1.985  17.213 -0.3640  0.0504  0.7353
  798MPD2    H711820   1.971   1.982  17.221 -0.4042  0.9124  0.6223
  799MPD2     C11821   1.593   2.933  14.766  0.5611  0.6533  0.5825
  799MPD2    C111822   1.521   2.882  14.661  0.1091 -0.2199 -0.8335
  799MPD2    C211823   1.436   2.957  14.585  0.3387  0.1157 -0.8511
  799MPD2    C311824   1.427   3.091  14.605  0.0869  0.3767 -0.8158
  799MPD2    C411825   1.498   3.145  14.709  0.0031 -0.1445  0.1347
  799MPD2    C511826   1.579   3.068  14.786 -0.2109  0.1281  0.3038
  799MPD2     H11827   1.372   2.910  14.512  0.8410 -0.7633 -0.7203
  799MPD2    H111828   1.496   3.253  14.725  0.3441 -0.2335  0.7589
  799MPD2    H211829   1.665   2.893  14.836  0.4935  0.4934  0.5607
  799MPD2    H311830   1.631   3.122  14.865 -0.7671  1.3502 -0.1570
  799MPD2     N11831   1.350   3.184  14.526 -0.3218  0.6942  0.0753
  799MPD2    H511832   1.372   3.282  14.529 -0.8377  0.8872 -2.2861
  799MPD2    N111833   1.533   2.739  14.624  0.3423  0.0460 -0.4665
  799MPD2    H711834   1.478   2.704  14.547  0.7137  1.7105 -1.5013
  800MPD2     C11835   1.950   3.880  14.077  0.4887 -0.1633  0.1175
  800MPD2    C111836   2.084   3.880  14.037 -0.3271 -0.3313  0.2818
  800MPD2    C211837   2.117   3.842  13.906 -0.3168  0.0724 -0.2675
  800MPD2    C311838   2.018   3.804  13.819 -0.1173  0.4327 -0.6868
  800MPD2    C411839   1.888   3.811  13.859 -0.5537  0.7359 -0.0484
  800MPD2    C511840   1.856   3.842  13.985 -0.2947  0.1707 -0.5072
  800MPD2     H11841   2.223   3.839  13.879 -1.0399 -1.6996 -2.9652
  800MPD2    H111842   1.803   3.798  13.793 -1.1790  1.9522  0.5094
  800MPD2    H211843   1.920   3.900  14.179  1.0047  0.5535  0.1293
  800MPD2    H311844   1.750   3.858  14.003 -0.6470  0.6529 -3.0933
  800MPD2     N11845   2.052   3.748  13.695  0.0270 -0.0432  0.0853
  800MPD2    H511846   2.151   3.729  13.678 -0.2406  0.6795 -2.3023
  800MPD2    N111847   2.180   3.917  14.136 -0.4866 -0.1569  0.1832
  800MPD2    H711848   2.143   3.933  14.229 -2.7736  0.9522 -0.8991
  801MPD2     C11849   2.471   4.249  14.866 -0.5438  0.1025  0.1620
  801MPD2    C111850   2.366   4.211  14.780 -0.3735 -0.0933  1.1187
  801MPD2    C211851   2.237   4.223  14.826  0.5100  0.7527  0.0584
  801MPD2    C311852   2.216   4.284  14.951  1.3280  0.9025 -1.0895
  801MPD2    C411853   2.318   4.313  15.028  0.1982 -0.1865  0.3590
  801MPD2    C511854   2.444   4.298  14.985 -0.0060 -0.1706 -0.0955
  801MPD2     H11855   2.155   4.213  14.756 -0.7631 -0.2988  1.7050
  801MPD2    H111856   2.313   4.343  15.132 -1.8362 -0.5857  0.3788
  801MPD2    H211857   2.576   4.260  14.840 -0.8176  0.0704 -0.9584
  801MPD2    H311858   2.522   4.316  15.058 -1.1037  1.4819  0.6734
  801MPD2     N11859   2.081   4.302  14.996 -0.1852  0.6997 -0.0387
  801MPD2    H511860   2.010   4.256  14.940  2.5202 -0.2332 -2.6735
  801MPD2    N111861   2.400   4.178  14.649 -0.3190 -0.0835 -0.4899
  801MPD2    H711862   2.499   4.177  14.627 -0.3110 -1.8833 -0.3954
  802MPD2     C11863   1.119   0.449  17.553  0.2258 -0.6264  0.6018
  802MPD2    C111864   1.150   0.405  17.677 -0.4808 -0.2622  0.3392
  802MPD2    C211865   1.215   0.282  17.698  0.3203 -0.1620  0.4978
  802MPD2    C311866   1.227   0.196  17.592 -0.8647 -1.0546 -0.6701
  802MPD2    C411867   1.196   0.245  17.466  0.1049  0.0699  0.3134
  802MPD2    C511868   1.156   0.379  17.447  0.7320  0.1777  0.2185
  802MPD2     H11869   1.248   0.253   0.050 -1.6436 -2.1300  0.5665
  802MPD2    H111870   1.230   0.195  17.376 -2.5027 -0.2132 -0.5276
  802MPD2    H211871   1.083   0.551  17.540  1.0537 -0.0356  2.9201
  802MPD2    H311872   1.151   0.429  17.351  1.8126 -2.8749 -1.4052
  802MPD2     N11873   1.298   0.079  17.613  0.4342 -1.3013  0.0343
  802MPD2    H511874   1.347   0.075  17.702 -1.9923 -3.7802  1.2586
  802MPD2    N111875   1.124   0.477   0.050  0.0160  0.4099 -0.4549
  802MPD2    H711876   1.151   0.429   0.135 -1.4289 -0.2016 -0.3338
  803MPD2     C11877   2.774   3.021  11.925 -0.3519  0.2317  0.3112
  803MPD2    C111878   2.790   3.095  12.044  0.0384  0.3459  0.0078
  803MPD2    C211879   2.714   3.068  12.152 -0.2443  0.6156 -0.1615
  803MPD2    C311880   2.629   2.954  12.150  0.8242 -0.8776 -0.3176
  803MPD2    C411881   2.629   2.877  12.033 -0.5567  0.1447  0.8762
  803MPD2    C511882   2.691   2.917  11.920  0.6857 -0.2950  0.4388
  803MPD2     H11883   2.734   3.126  12.241 -2.0005  0.2567  0.4777
  803MPD2    H111884   2.567   2.789  12.042  0.2791 -0.2648  2.6676
  803MPD2    H211885   2.825   3.050  11.834  0.9798 -2.8692  0.0823
  803MPD2    H311886   2.678   2.863  11.827  2.3648 -0.5165  0.3202
  803MPD2     N11887   2.557   2.910  12.266 -0.8328  0.0325  0.1379
  803MPD2    H511888   2.501   2.825  12.258 -1.0636  0.4817 -2.9578
  803MPD2    N111889   2.884   3.202  12.055  0.1144  0.1165  0.2762
  803MPD2    H711890   2.895   3.243  12.147  3.5828  0.3793 -0.2763
  804MPD2     C11891   2.061   0.020  17.182 -0.5373  0.2921  0.2476
  804MPD2    C111892   2.048   4.704  17.305  0.1752 -0.0924  0.2189
  804MPD2    C211893   2.115   0.031  17.409 -0.5694 -0.3356 -0.0136
  804MPD2    C311894   2.199   0.135  17.392  0.1678 -0.2778  0.4393
  804MPD2    C411895   2.210   0.192  17.258 -0.1808  0.2583 -0.0410
  804MPD2    C511896   2.141   0.130  17.158  0.7370 -0.1990 -1.0143
  804MPD2     H11897   2.095   4.731  17.509  0.8110  0.1406  0.4473
  804MPD2    H111898   2.276   0.272  17.224 -1.1516  0.7501 -0.7587
  804MPD2    H211899   2.009   4.716  17.097  0.4923 -1.4860  0.4551
  804MPD2    H311900   2.148   0.179  17.062 -1.1504 -0.0096 -1.0571
  804MPD2     N11901   2.254   0.201  17.508 -0.0916 -0.0434  0.5828
  804MPD2    H511902   2.238   0.159  17.600 -1.7473  0.9265  0.7397
  804MPD2    N111903   1.998   4.570  17.323 -0.2059 -0.0153 -0.4218
  804MPD2    H711904   2.009   4.535  17.417 -1.7120 -1.1280 -0.6588
  805MPD2     C11905   1.111   2.823  16.023  0.3348  0.3696 -0.5325
  805MPD2    C111906   1.148   2.897  15.913 -0.0614 -0.0910  0.1977
  805MPD2    C211907   1.275   2.963  15.920 -0.1273  0.1078 -0.6723
  805MPD2    C311908   1.355   2.952  16.031  0.1311 -0.0178  0.1307
  805MPD2    C411909   1.309   2.881  16.146 -0.5932  0.1383  0.2645
  805MPD2    C511910   1.186   2.819  16.141 -0.0888  0.3477 -0.0786
  805MPD2     H11911   1.310   3.021  15.835  0.3732 -0.7043 -1.0122
  805MPD2    H111912   1.370   2.882  16.235 -0.0709 -3.0172 -0.0659
  805MPD2    H211913   1.011   2.783  16.034  0.1730  0.9017 -0.0427
  805MPD2    H311914   1.158   2.746  16.216  0.8188  0.9987  0.8878
  805MPD2     N11915   1.479   3.015  16.041 -0.4159 -0.3069  0.5013
  805MPD2    H511916   1.499   3.085  15.970 -2.1458 -0.5212 -0.2221
  805MPD2    N111917   1.078   2.890  15.787  0.4813 -0.1384 -0.1151
  805MPD2    H711918   1.121   2.941  15.711  0.8878  1.0972  0.9358
  806MPD2     C11919   1.191   2.274   0.573  0.2327 -1.0601 -1.0938
  806MPD2    C111920   1.315   2.276   0.617 -0.3372  0.1836 -0.4023
  806MPD2    C211921   1.416   2.290   0.517  0.1268  0.4450 -0.9318
  806MPD2    C311922   1.391   2.318   0.387 -0.5083  0.2386  0.0909
  806MPD2    C411923   1.266   2.317   0.344  0.2734 -0.0506 -0.3721
  806MPD2    C511924   1.164   2.305   0.440 -0.0834  0.0986  0.2066
  806MPD2     H11925   1.519   2.280   0.549  0.8899  1.2103 -3.2299
  806MPD2    H111926   1.238   2.329   0.240  1.7318  1.2483 -0.6112
  806MPD2    H211927   1.107   2.281   0.642 -0.7595 -0.8486 -2.3371
  806MPD2    H311928   1.061   2.313   0.408 -0.4227  2.8435  1.9763
  806MPD2     N11929   1.495   2.340   0.288  0.3175  0.4192 -0.1893
  806MPD2    H511930   1.588   2.359   0.323 -0.3196 -0.9199  2.2332
  806MPD2    N111931   1.334   2.249   0.753  0.2959 -0.5265  0.3741
  806MPD2    H711932   1.248   2.236   0.806 -0.1536 -0.2962 -0.2991
  807MPD2     C11933   1.095   1.716   1.231 -0.7586 -1.2184  0.0203
  807MPD2    C111934   1.229   1.727   1.249 -0.4679  0.4582 -0.3886
  807MPD2    C211935   1.287   1.645   1.342 -0.2968 -0.2441  0.4588
  807MPD2    C311936   1.222   1.541   1.398 -0.4816  0.0771 -0.2016
  807MPD2    C411937   1.085   1.524   1.372  0.5446 -1.0097 -0.1801
  807MPD2    C511938   1.021   1.619   1.294  0.1281 -0.5943 -0.3193
  807MPD2     H11939   1.391   1.674   1.349 -0.3388  0.0098 -0.0070
  807MPD2    H111940   1.018   1.458   1.426 -1.0060  0.5942 -0.1190
  807MPD2    H211941   1.044   1.776   1.157 -0.3088 -0.3805  0.3917
  807MPD2    H311942   0.915   1.611   1.273 -0.2621 -0.3496  1.5664
  807MPD2     N11943   1.291   1.445   1.474 -0.0500 -0.4751 -0.0614
  807MPD2    H511944   1.392   1.450   1.471  0.0085 -0.7264  1.3349
  807MPD2    N111945   1.307   1.821   1.192  0.5747 -0.0725  0.6848
  807MPD2    H711946   1.405   1.825   1.215  0.5610  1.0497  0.5588
  808MPD2     C11947   2.112   3.898  10.273 -0.9444  0.0210  0.4537
  808MPD2    C111948   2.016   3.980  10.332 -0.1966  0.1715 -0.1122
  808MPD2    C211949   1.997   4.098  10.265 -0.9945  0.2240  0.2310
  808MPD2    C311950   2.076   4.153  10.167 -0.4483  0.3418 -0.6372
  808MPD2    C411951   2.171   4.061  10.123  0.0636 -0.4223  0.4584
  808MPD2    C511952   2.189   3.936  10.167 -0.0729 -0.5511 -0.1076
  808MPD2     H11953   1.912   4.156  10.300 -0.9240 -0.9407  2.3861
  808MPD2    H111954   2.237   4.087  10.041  0.3556  0.4947  0.9772
  808MPD2    H211955   2.143   3.807  10.323 -0.1635 -1.1183 -2.1201
  808MPD2    H311956   2.268   3.874  10.124  1.5168  0.6881  1.0132
  808MPD2     N11957   2.075   4.281  10.107  0.1621 -0.2397 -0.6004
  808MPD2    H511958   2.140   4.296  10.031  3.0067  0.9782  2.0522
  808MPD2    N111959   1.928   3.938  10.434 -0.4885 -0.0966  0.7549
  808MPD2    H711960   1.863   4.009  10.466 -1.5903 -0.0115 -1.6898
  809MPD2     C11961   1.979   4.575   9.279  0.8660 -0.2577 -0.1774
  809MPD2    C111962   2.086   4.649   9.330  0.0230  0.3834 -0.9685
  809MPD2    C211963   2.110   4.649   9.470 -0.9058 -0.1271  1.1204
  809MPD2    C311964   2.045   4.560   9.556 -1.0943  0.9819  0.6908
  809MPD2    C411965   1.959   4.468   9.497  0.7690  0.0399  0.4245
  809MPD2    C511966   1.915   4.486   9.369  0.9208  0.4060 -0.8392
  809MPD2     H11967   2.188   4.711   9.512  1.6563 -1.9798 -0.9101
  809MPD2    H111968   1.914   4.390   9.558 -1.1138  1.5671  1.0315
  809MPD2    H211969   1.942   4.581   9.178 -0.9536 -0.3439  0.4757
  809MPD2    H311970   1.836   4.421   9.334 -0.7401  0.9948  1.8586
  809MPD2     N11971   2.059   4.557   9.693  0.7595  0.0577  0.3704
  809MPD2    H511972   2.013   4.483   9.745 -0.8715  1.3967  0.8449
  809MPD2    N111973   2.169   0.001   9.248 -0.6829  1.0922  0.7067
  809MPD2    H711974   2.235   0.066   9.290  1.4069  0.4146 -1.5635
  810MPD2     C11975   1.572   3.567  11.054 -0.4817 -0.1265 -0.6307
  810MPD2    C111976   1.461   3.490  11.071 -0.9422  0.2652 -0.0248
  810MPD2    C211977   1.411   3.462  11.192  0.2080 -0.0259  0.0121
  810MPD2    C311978   1.471   3.526  11.301  0.1445 -0.1507 -0.5789
  810MPD2    C411979   1.579   3.608  11.289  0.0203 -0.1893 -0.1997
  810MPD2    C511980   1.634   3.626  11.162 -0.0544 -0.1153  0.3986
  810MPD2     H11981   1.315   3.412  11.197  0.4504 -0.4330  0.5916
  810MPD2    H111982   1.626   3.651  11.377 -2.3490  0.9717  0.5067
  810MPD2    H211983   1.613   3.579  10.955 -0.2287  0.7718 -0.4190
  810MPD2    H311984   1.715   3.696  11.146 -0.4472  0.4061  0.6507
  810MPD2     N11985   1.405   3.531  11.430  0.2437  0.2589 -0.2974
  810MPD2    H511986   1.446   3.601  11.491  0.2073  1.1111 -1.2527
  810MPD2    N111987   1.400   3.437  10.953  0.0751  0.2224  0.4354
  810MPD2    H711988   1.438   3.452  10.861  0.5224  0.7797  0.7063
  811MPD2     C11989   1.264   3.459  10.091  0.0952  0.3488  0.7487
  811MPD2    C111990   1.261   3.532  10.209 -0.1493 -0.1149  0.5495
  811MPD2    C211991   1.250   3.670  10.203  0.0534  0.5527 -0.1002
  811MPD2    C311992   1.254   3.731  10.076  0.2811  0.0704  0.2249
  811MPD2    C411993   1.257   3.661   9.960  0.0323 -0.2917  0.0551
  811MPD2    C511994   1.262   3.526   9.970 -0.2737 -0.7716  0.2157
  811MPD2     H11995   1.239   3.736  10.289  0.9793 -0.4814  0.7989
  811MPD2    H111996   1.257   3.703   9.860  0.2230  0.6999  0.4709
  811MPD2    H211997   1.272   3.351  10.092 -2.9203  0.1178  1.1805
  811MPD2    H311998   1.253   3.462   9.882 -1.6951 -0.1279 -0.1044
  811MPD2     N11999   1.244   3.868  10.081 -0.0830  1.2324 -0.0447
  811MPD2    H512000   1.227   3.905  10.173 -1.0805  0.8504 -0.0704
  811MPD2    N112001   1.245   3.458  10.327  0.0709  0.4148 -0.1625
  811MPD2    H712002   1.230   3.360  10.305  1.1212  0.0551  0.7247
  812MPD2     C12003   0.658   3.463  12.215 -0.7094  0.5777 -0.9308
  812MPD2    C112004   0.563   3.492  12.312 -0.0930  0.3614 -0.0636
  812MPD2    C212005   0.571   3.424  12.439 -0.0751 -0.2779 -0.1007
  812MPD2    C312006   0.684   3.348  12.478 -0.0774 -0.5679  0.8883
  812MPD2    C412007   0.781   3.329  12.376 -0.7499  0.6308  0.3999
  812MPD2    C512008   0.762   3.377  12.251  0.2026 -0.2437 -0.3358
  812MPD2     H12009   0.484   3.431  12.504 -1.3856 -1.0629 -1.7661
  812MPD2    H112010   0.871   3.269  12.387 -1.0210 -0.1778 -1.7438
  812MPD2    H212011   0.647   3.502  12.114 -2.4180  0.6988 -0.6950
  812MPD2    H312012   0.833   3.361  12.171  0.4577 -0.8143  0.0097
  812MPD2     N12013   0.690   3.298  12.613  0.0128  1.0999  0.1277
  812MPD2    H512014   0.620   3.324  12.681 -1.0188  0.9113 -0.8758
  812MPD2    N112015   0.449   3.571  12.272  0.1611  0.4917  0.1359
  812MPD2    H712016   0.460   3.632  12.192 -1.3905 -0.0517 -0.4825
  813MPD2     C12017   4.180   0.305  12.983  0.1396 -0.4451 -0.2702
  813MPD2    C112018   4.200   0.441  13.012 -0.1139 -0.1882 -0.0154
  813MPD2    C212019   4.104   0.502  13.093 -0.2942 -0.6034  0.2762
  813MPD2    C312020   3.997   0.437  13.158  0.4624  0.1929  0.0360
  813MPD2    C412021   3.986   0.309  13.121  0.2752  0.0223 -0.0481
  813MPD2    C512022   4.071   0.243  13.038  0.1816 -0.1221 -0.0153
  813MPD2     H12023   4.106   0.609  13.112 -3.4691 -0.3699 -0.6291
  813MPD2    H112024   3.906   0.245  13.157  1.5235 -0.7613  1.3637
  813MPD2    H212025   4.242   0.253  12.912 -0.6974 -1.0378 -0.5692
  813MPD2    H312026   4.049   0.140  13.010 -1.6298  0.1632  0.3159
  813MPD2     N12027   3.912   0.491  13.257 -0.0489 -0.1308  0.3014
  813MPD2    H512028   3.931   0.589  13.278 -1.7496  0.6921 -1.9205
  813MPD2    N112029   4.308   0.510  12.950 -0.5000 -0.5578 -0.5034
  813MPD2    H712030   4.371   0.446  12.902 -0.1602 -0.1473 -0.6017
  814MPD2     C12031   0.294   2.058  12.529  0.0643 -0.0191 -0.4879
  814MPD2    C112032   0.319   2.065  12.396  0.6528  0.4661 -0.8821
  814MPD2    C212033   0.413   2.155  12.348  0.8539  0.1839  0.4884
  814MPD2    C312034   0.491   2.231  12.436 -0.0482  0.0759  0.0764
  814MPD2    C412035   0.447   2.231  12.568 -0.1976  0.3436 -0.0004
  814MPD2    C512036   0.351   2.148  12.612  0.1675 -0.7549  0.0023
  814MPD2     H12037   0.434   2.157  12.242 -0.4806 -0.3844  0.2229
  814MPD2    H112038   0.496   2.302  12.634 -0.1009 -0.5417  0.8892
  814MPD2    H212039   0.214   1.994  12.564  0.8541 -0.0102  1.3265
  814MPD2    H312040   0.312   2.161  12.712 -0.0043  3.1031 -0.5573
  814MPD2     N12041   0.589   2.322  12.395  0.3649  0.3198  0.0208
  814MPD2    H512042   0.640   2.386  12.455  1.6317 -1.2029  0.5585
  814MPD2    N112043   0.253   1.981  12.300 -0.0704 -0.6818 -0.6618
  814MPD2    H712044   0.275   2.003  12.203 -1.6536 -2.3151 -1.3775
  815MPD2     C12045   0.374   0.517  12.249  0.1689 -0.0456 -0.2030
  815MPD2    C112046   0.362   0.381  12.268  0.0685  0.3557 -0.8009
  815MPD2    C212047   0.234   0.328  12.257  0.2771 -0.4909 -0.6344
  815MPD2    C312048   0.126   0.403  12.222  0.2192  0.4197 -0.0250
  815MPD2    C412049   0.143   0.532  12.191 -0.6520  0.0836 -0.1250
  815MPD2    C512050   0.269   0.585  12.207  0.8820  0.2954  0.1700
  815MPD2     H12051   0.224   0.220  12.263 -0.4732 -0.3560  0.5310
  815MPD2    H112052   0.067   0.604  12.164 -1.3205 -0.0843  1.2729
  815MPD2    H212053   0.468   0.566  12.273  0.1132  1.6811 -3.4784
  815MPD2    H312054   0.281   0.692  12.199 -1.9239  0.6680  0.8215
  815MPD2     N12055   4.735   0.335  12.216  0.1440  0.3423  0.7584
  815MPD2    H512056   4.736   0.237  12.242 -0.5865 -0.3585 -1.8620
  815MPD2    N112057   0.477   0.311  12.298 -0.7042  0.3432  0.2017
  815MPD2    H712058   0.561   0.368  12.292  1.1739 -2.4419 -0.1982
  816MPD2     C12059   0.484   3.563  17.239 -0.5916  0.2726 -0.3917
  816MPD2    C112060   0.515   3.698  17.247 -0.2471 -0.0840  0.0866
  816MPD2    C212061   0.617   3.754  17.171 -0.1082  0.3409  0.3631
  816MPD2    C312062   0.684   3.676  17.076  0.6942 -0.1634 -0.1885
  816MPD2    C412063   0.658   3.539  17.076 -1.1151  0.2000 -0.3167
  816MPD2    C512064   0.561   3.486  17.160 -0.5755  0.0018 -0.1526
  816MPD2     H12065   0.637   3.860  17.170 -0.0774  0.3461  3.0142
  816MPD2    H112066   0.696   3.474  16.999 -1.5128 -1.2872  0.7285
  816MPD2    H212067   0.409   3.521  17.305  0.7107 -0.1966  0.7689
  816MPD2    H312068   0.547   3.379  17.158 -0.3477 -0.0186 -0.6624
  816MPD2     N12069   0.773   3.732  16.987  0.1807 -0.9188 -0.2382
  816MPD2    H512070   0.784   3.831  17.006 -0.7283 -0.6796 -0.9399
  816MPD2    N112071   0.437   3.772  17.334 -0.5694  0.0797  0.0110
  816MPD2    H712072   0.363   3.728  17.386 -0.5624 -0.7790 -0.6987
  817MPD2     C12073   0.257   1.195   9.893  0.2661 -0.5307  0.0537
  817MPD2    C112074   0.328   1.290   9.961  0.2733  0.2613 -0.1988
  817MPD2    C212075   0.296   1.423   9.935  0.1640 -0.1146 -0.7947
  817MPD2    C312076   0.181   1.456   9.867  0.3142  0.0323  0.2287
  817MPD2    C412077   0.103   1.359   9.817  0.1139 -0.3095 -0.2924
  817MPD2    C512078   0.147   1.231   9.824  0.1050  0.9127  0.3099
  817MPD2     H12079   0.361   1.505   9.963  2.4864 -1.8536 -1.0555
  817MPD2    H112080   0.009   1.378   9.766  0.3203  0.2860 -0.4594
  817MPD2    H212081   0.291   1.092   9.887 -0.5528 -0.7193 -1.3500
  817MPD2    H312082   0.088   1.156   9.774 -0.1686  1.7035 -0.5517
  817MPD2     N12083   0.164   1.592   9.847 -0.3252  0.3173  0.3443
  817MPD2    H512084   0.239   1.650   9.883 -2.7201  3.0587  0.9383
  817MPD2    N112085   0.425   1.259  10.060  0.5559  0.1070 -0.0972
  817MPD2    H712086   0.463   1.342  10.104 -0.7583  0.5431  0.2216
  818MPD2     C12087   3.573   1.530   9.586  0.1324 -0.6465 -0.0702
  818MPD2    C112088   3.659   1.467   9.681  0.7302 -0.2132 -0.4128
  818MPD2    C212089   3.750   1.376   9.632  0.0729  0.5279  0.5012
  818MPD2    C312090   3.763   1.352   9.497 -0.3933  0.5557  0.6065
  818MPD2    C412091   3.683   1.418   9.403 -0.2056  0.7447 -0.2362
  818MPD2    C512092   3.582   1.501   9.449 -0.4698 -0.2315  0.7732
  818MPD2     H12093   3.810   1.320   9.703 -0.6582 -0.5109  0.2933
  818MPD2    H112094   3.698   1.409   9.296 -1.2509  0.4366 -0.3611
  818MPD2    H212095   3.500   1.606   9.612 -1.6750 -2.1311 -0.8083
  818MPD2    H312096   3.513   1.551   9.381  1.0615 -2.0126 -2.0984
  818MPD2     N12097   3.851   1.248   9.455  0.5052 -0.2764 -0.3090
  818MPD2    H512098   3.854   1.235   9.354 -2.4637 -2.9779 -0.0759
  818MPD2    N112099   3.649   1.485   9.818  0.0521  1.0099 -0.2498
  818MPD2    H712100   3.704   1.424   9.878  0.5869  0.2603 -1.5021
  819MPD2     C12101   1.746   2.867  15.624 -0.5323 -0.6021  0.4637
  819MPD2    C112102   1.820   2.769  15.564  0.4177 -0.6764 -0.3845
  819MPD2    C212103   1.930   2.716  15.628  0.3980  0.6248  0.7651
  819MPD2    C312104   1.957   2.761  15.751 -0.5239  0.0151 -0.4248
  819MPD2    C412105   1.871   2.850  15.814  0.3000 -0.6961  0.3983
  819MPD2    C512106   1.757   2.896  15.755 -0.5476  0.1292 -0.9701
  819MPD2     H12107   1.990   2.643  15.576 -1.4601 -0.4915  0.1875
  819MPD2    H112108   1.884   2.878  15.918  0.4650 -0.4482  0.3088
  819MPD2    H212109   1.658   2.912  15.578 -0.1450  1.7006  2.0077
  819MPD2    H312110   1.685   2.964  15.800 -1.7541 -1.7771 -0.0161
  819MPD2     N12111   2.077   2.719  15.809  0.4707 -0.4526  0.5145
  819MPD2    H512112   2.123   2.649  15.751 -0.2675 -1.4230  1.1012
  819MPD2    N112113   1.787   2.740  15.428 -0.5876  0.8867 -0.1135
  819MPD2    H712114   1.698   2.780  15.399 -0.4743  0.8246 -0.5370
  820MPD2     C12115   0.995   2.997  14.978  0.6054 -0.5475  0.0294
  820MPD2    C112116   1.047   2.983  15.106 -0.4041 -0.1509  0.7961
  820MPD2    C212117   1.167   2.912  15.125 -0.1303 -0.0679 -0.4981
  820MPD2    C312118   1.248   2.873  15.014  0.0362 -0.2430 -0.9593
  820MPD2    C412119   1.198   2.906  14.887  0.3418  0.1655 -0.1109
  820MPD2    C512120   1.079   2.973  14.875  0.0819 -0.3516  0.0284
  820MPD2     H12121   1.202   2.893  15.226 -1.8215  0.5870  0.2041
  820MPD2    H112122   1.248   2.881  14.794  3.8532  0.1873  1.7795
  820MPD2    H212123   0.901   3.051  14.970  1.6843  1.5570  1.4870
  820MPD2    H312124   1.055   3.003  14.774  1.5233  0.7609  0.0304
  820MPD2     N12125   1.368   2.797  15.022  0.7972  0.2013 -0.1859
  820MPD2    H512126   1.403   2.764  14.933 -0.8613 -1.9609 -0.0472
  820MPD2    N112127   0.956   3.010  15.215 -0.1102 -0.2144  0.1516
  820MPD2    H712128   0.866   3.042  15.181  0.3846 -0.3224 -1.2337
  821MPD2     C12129   1.823   3.996  13.003  0.0420  0.0107 -0.6060
  821MPD2    C112130   1.954   3.969  13.032  0.3565  0.3245 -0.1181
  821MPD2    C212131   2.050   4.065  13.006  0.2407 -0.4751 -0.2398
  821MPD2    C312132   2.018   4.180  12.941  0.9439 -0.1727 -0.0667
  821MPD2    C412133   1.890   4.202  12.907  0.0649  0.0609  0.7051
  821MPD2    C512134   1.794   4.109  12.939  0.0221  0.1452  0.7547
  821MPD2     H12135   2.153   4.038  13.026 -0.1122 -1.6152  0.0867
  821MPD2    H112136   1.864   4.293  12.854 -2.5566 -1.3404 -0.4084
  821MPD2    H212137   1.745   3.926  13.031  1.4977 -1.2066  0.4294
  821MPD2    H312138   1.687   4.124  12.930  0.2157  1.3753  0.4472
  821MPD2     N12139   2.113   4.288  12.914 -1.3105 -0.6201  0.5166
  821MPD2    H512140   2.077   4.367  12.862  0.0726 -0.5718 -0.3717
  821MPD2    N112141   1.998   3.847  13.093 -0.1670  0.2085 -0.2235
  821MPD2    H712142   2.098   3.846  13.105 -0.4573 -1.5811  2.0635
  822MPD2     C12143   2.599   4.163  15.777  0.0509  0.2068 -0.6997
  822MPD2    C112144   2.574   4.110  15.905 -0.5343 -0.5703  0.1762
  822MPD2    C212145   2.502   4.180  15.993 -0.4001 -0.4179 -0.1394
  822MPD2    C312146   2.480   4.312  15.985 -0.3021  0.8769  0.8992
  822MPD2    C412147   2.505   4.364  15.865 -0.4661 -0.6521 -0.4015
  822MPD2    C512148   2.553   4.288  15.753  0.2091 -0.4526 -0.2733
  822MPD2     H12149   2.484   4.137  16.091 -1.4274  1.0278  0.3066
  822MPD2    H112150   2.478   4.468  15.847  1.0149 -0.0965  0.6068
  822MPD2    H212151   2.648   4.102  15.702  0.9994 -1.3174  1.1618
  822MPD2    H312152   2.545   4.325  15.652 -0.7914 -1.8652 -0.7109
  822MPD2     N12153   2.421   4.371  16.094  0.2282  0.6117  0.5536
  822MPD2    H512154   2.396   4.309  16.171 -0.0493 -0.9796 -0.8286
  822MPD2    N112155   2.621   3.985  15.943 -0.0263  0.1860  0.3994
  822MPD2    H712156   2.601   3.959  16.039 -1.7659  0.2742  0.0527
  823MPD2     C12157   2.218   4.502  16.881 -0.6898  0.4334 -0.3328
  823MPD2    C112158   2.205   4.425  16.771 -0.4503 -0.0324  0.8233
  823MPD2    C212159   2.243   4.291  16.777  0.3640 -0.4446 -0.1257
  823MPD2    C312160   2.289   4.240  16.895  0.7234  0.0685 -0.2773
  823MPD2    C412161   2.298   4.320  17.008 -0.1080 -0.1521  0.0581
  823MPD2    C512162   2.260   4.449  17.003  0.1214 -0.3232 -0.9630
  823MPD2     H12163   2.254   4.234  16.686 -3.0202 -0.9260 -0.2184
  823MPD2    H112164   2.328   4.279  17.104 -0.3085  3.4944  1.6707
  823MPD2    H212165   2.182   4.604  16.890 -1.5875  0.0334  0.6261
  823MPD2    H312166   2.257   4.500  17.098 -1.5561 -0.0045 -1.1754
  823MPD2     N12167   2.338   4.108  16.910  0.6131 -0.0489  0.2514
  823MPD2    H512168   2.365   4.093  17.007  0.9551  0.4589  0.2383
  823MPD2    N112169   2.177   4.499  16.647  0.2285 -0.7091 -0.3424
  823MPD2    H712170   2.158   4.598  16.655  0.9445 -0.4388 -2.0049
  824MPD2     C12171   2.844   3.234  15.655  0.1965  0.5506  0.8049
  824MPD2    C112172   2.937   3.309  15.732  0.4161 -1.0776  0.3427
  824MPD2    C212173   3.063   3.259  15.751  0.5793  0.2237  0.0319
  824MPD2    C312174   3.107   3.144  15.680 -0.0953  0.2003  0.3818
  824MPD2    C412175   3.019   3.075  15.598 -0.1915  0.3029  0.1631
  824MPD2    C512176   2.884   3.118  15.590 -0.0327 -0.1510  0.0444
  824MPD2     H12177   3.139   3.321  15.798 -0.4998  0.8992  0.8819
  824MPD2    H112178   3.043   2.975  15.564  1.9162  0.9112 -0.0854
  824MPD2    H212179   2.740   3.261  15.651 -0.1632 -1.4253 -2.4115
  824MPD2    H312180   2.812   3.051  15.545 -0.3568  0.3286 -0.1513
  824MPD2     N12181   3.247   3.108  15.687 -0.0388  0.0848 -0.7983
  824MPD2    H512182   3.304   3.178  15.732  0.9518 -0.9185 -0.5045
  824MPD2    N112183   2.886   3.421  15.797 -0.0092  0.7904  0.2276
  824MPD2    H712184   2.789   3.447  15.784 -0.4610 -0.0930  1.8460
  825MPD2     C12185   4.078   3.274  15.549 -0.0088  0.1018  0.3429
  825MPD2    C112186   3.946   3.317  15.551  0.3624 -0.0770 -0.5628
  825MPD2    C212187   3.916   3.451  15.523  0.8349 -0.3962 -0.0340
  825MPD2    C312188   4.021   3.542  15.507 -0.7411 -0.0453 -0.0600
  825MPD2    C412189   4.152   3.496  15.506  0.3774 -0.1666  0.0631
  825MPD2    C512190   4.176   3.365  15.529  0.4698  0.3155 -0.5961
  825MPD2     H12191   3.817   3.493  15.520  1.1380  0.1235 -2.7907
  825MPD2    H112192   4.231   3.569  15.494 -0.2206  0.6829  1.3115
  825MPD2    H212193   4.119   3.177  15.574 -0.9929 -0.3124  0.3791
  825MPD2    H312194   4.278   3.329  15.536  0.3353 -0.3233 -2.0240
  825MPD2     N12195   3.995   3.682  15.510  0.4153 -0.2817  0.6323
  825MPD2    H512196   4.077   3.739  15.529 -0.8539  1.1362  1.8511
  825MPD2    N112197   3.857   3.219  15.593 -0.4393 -1.0370  0.0346
  825MPD2    H712198   3.891   3.124  15.591 -0.1546 -0.9377  0.1770
  826MPD2     C12199   3.045   3.266  13.312  0.1964  0.0536  0.0782
  826MPD2    C112200   3.091   3.355  13.404 -0.5210  0.6809  0.2305
  826MPD2    C212201   3.000   3.445  13.454 -0.1765  0.1585  0.4710
  826MPD2    C312202   2.864   3.431  13.422 -0.3534 -0.3574 -0.5782
  826MPD2    C412203   2.817   3.325  13.348 -0.3787  0.4274 -0.3048
  826MPD2    C512204   2.912   3.255  13.285 -0.2923  0.0635  0.2981
  826MPD2     H12205   3.026   3.523  13.525 -1.7372  1.4084 -0.3223
  826MPD2    H112206   2.713   3.321  13.318  0.0085 -1.1572 -1.4529
  826MPD2    H212207   3.112   3.203  13.255  1.7170  1.0084  0.8301
  826MPD2    H312208   2.871   3.179  13.221 -0.1710 -1.7999  2.4146
  826MPD2     N12209   2.769   3.530  13.461  0.7771 -0.6649 -0.1413
  826MPD2    H512210   2.671   3.508  13.477  0.1931  1.6199 -0.5155
  826MPD2    N112211   3.231   3.360  13.433 -0.0445 -0.4306 -1.0015
  826MPD2    H712212   3.282   3.281  13.395 -0.0007  0.0528 -1.9469
  827MPD2     C12213   4.428   0.048  10.062 -0.0195 -0.3077 -0.5804
  827MPD2    C112214   4.342   4.687  10.123  0.0719 -0.3452  0.2396
  827MPD2    C212215   4.222   4.662  10.059 -0.4254 -0.3503 -0.0098
  827MPD2    C312216   4.186   4.715   9.943  0.1825  0.4569  0.4890
  827MPD2    C412217   4.279   0.064   9.879  0.0888  0.0765  0.6156
  827MPD2    C512218   4.404   0.098   9.934 -0.1267 -0.1486  0.2665
  827MPD2     H12219   4.162   4.579  10.094  1.5923 -0.9586  1.9457
  827MPD2    H112220   4.270   0.108   9.780  2.6948  1.3014  0.9199
  827MPD2    H212221   4.514   0.087  10.115 -0.0666 -2.2731  0.9354
  827MPD2    H312222   4.463   0.176   9.887 -0.7330 -0.6771 -1.3799
  827MPD2     N12223   4.052   4.695   9.894  0.9016  0.1788 -0.0741
  827MPD2    H512224   3.986   4.635   9.942  0.3027  1.1351  0.3057
  827MPD2    N112225   4.383   4.639  10.254 -0.3218  0.6797 -0.2213
  827MPD2    H712226   4.476   4.670  10.281 -0.7100  0.8013  0.9891
  828MPD2     C12227   2.352   4.134  12.709  0.0638  0.6954  0.1133
  828MPD2    C112228   2.396   4.182  12.586  0.4919 -0.6125  0.8501
  828MPD2    C212229   2.531   4.177  12.561 -0.2563 -0.1110 -0.0356
  828MPD2    C312230   2.622   4.131  12.649 -0.3583 -0.4529 -0.0034
  828MPD2    C412231   2.572   4.079  12.771  0.7710  0.5693  0.1433
  828MPD2    C512232   2.435   4.073  12.799  0.1286 -0.1516 -0.1367
  828MPD2     H12233   2.560   4.207  12.461 -0.6385 -1.7880 -0.6480
  828MPD2    H112234   2.635   4.033  12.847  0.6994  0.8391  0.3684
  828MPD2    H212235   2.246   4.138  12.731  0.1126  2.1921  0.0680
  828MPD2    H312236   2.400   4.036  12.895  0.1294 -2.7246 -1.1492
  828MPD2     N12237   2.762   4.120  12.611  0.2752 -0.7426  0.0935
  828MPD2    H512238   2.833   4.105  12.683  1.3326  1.7750 -0.4097
  828MPD2    N112239   2.317   4.222  12.479 -0.0695  0.0910  0.6665
  828MPD2    H712240   2.365   4.248  12.393 -0.7469  1.6033  0.7352
  829MPD2     C12241   2.572   4.093  11.668 -0.5377  0.1069 -0.0445
  829MPD2    C112242   2.451   4.153  11.652 -0.5750 -0.4889 -0.1521
  829MPD2    C212243   2.365   4.172  11.758  0.3967  0.7162 -0.0162
  829MPD2    C312244   2.396   4.130  11.884  0.4077 -0.1618  1.4348
  829MPD2    C412245   2.519   4.065  11.899 -0.4485 -0.8417  0.4102
  829MPD2    C512246   2.597   4.053  11.796  1.0850  0.1976 -0.0350
  829MPD2     H12247   2.262   4.203  11.743  0.1830  0.7317  1.5030
  829MPD2    H112248   2.558   4.025  11.993  2.1860 -2.0134 -1.1756
  829MPD2    H212249   2.646   4.085  11.589  0.8285 -3.3773  1.5842
  829MPD2    H312250   2.694   4.007  11.809 -0.0903 -2.2068  0.2825
  829MPD2     N12251   2.315   4.163  12.001  0.3497 -0.3730 -0.2181
  829MPD2    H512252   2.354   4.134  12.090 -1.1579  0.3643  0.6819
  829MPD2    N112253   2.426   4.188  11.515  0.0378  0.4868  0.1150
  829MPD2    H712254   2.490   4.149  11.446 -1.9185 -0.5955 -1.0970
  830MPD2     C12255   2.910   2.568  15.685 -0.0632  0.5114  0.2355
  830MPD2    C112256   2.800   2.643  15.650 -0.1093  0.3940 -0.5248
  830MPD2    C212257   2.806   2.727  15.541 -0.3432  0.3542  0.0313
  830MPD2    C312258   2.922   2.738  15.473  0.4892 -0.1912 -0.0192
  830MPD2    C412259   3.033   2.661  15.513 -0.3037  0.3628 -0.2259
  830MPD2    C512260   3.024   2.576  15.614  0.3016 -0.1481  0.2810
  830MPD2     H12261   2.720   2.783  15.506 -0.2307 -0.3261 -1.3567
  830MPD2    H112262   3.117   2.663  15.445  1.0852  0.9159  1.5040
  830MPD2    H212263   2.898   2.499  15.768 -1.9195 -1.8602 -2.0173
  830MPD2    H312264   3.117   2.530  15.646  2.1406  2.7987 -0.7402
  830MPD2     N12265   2.937   2.824  15.368  0.2224  0.5501  0.2067
  830MPD2    H512266   3.031   2.846  15.338  0.6517 -1.9564 -0.2843
  830MPD2    N112267   2.688   2.625  15.730  0.2141 -0.0987 -0.1172
  830MPD2    H712268   2.700   2.563  15.810 -0.0501 -0.8936 -0.6948
  831MPD2     C12269   2.693   4.402  16.427  0.3079 -0.0334  0.0436
  831MPD2    C112270   2.725   4.304  16.333  0.3771  0.0187  0.0384
  831MPD2    C212271   2.646   4.182  16.321  0.3074 -0.0016  0.1300
  831MPD2    C312272   2.537   4.171  16.393 -0.0689 -0.0578  1.2514
  831MPD2    C412273   2.513   4.265  16.487 -0.1652 -0.2289 -0.7526
  831MPD2    C512274   2.586   4.379  16.509 -0.1180  0.4644  0.4748
  831MPD2     H12275   2.681   4.108  16.250  2.4175  1.1156 -0.0291
  831MPD2    H112276   2.436   4.238  16.559  1.0227  2.3509  1.4820
  831MPD2    H212277   2.758   4.487  16.442  0.6513 -0.3175  0.1913
  831MPD2    H312278   2.561   4.448  16.588  0.9317  1.4471 -0.0470
  831MPD2     N12279   2.444   4.063  16.385 -0.5960  0.3876 -0.2008
  831MPD2    H512280   2.365   4.065  16.449  0.6668 -0.5427  1.3752
  831MPD2    N112281   2.843   4.328  16.256 -0.1455  0.4343 -0.0749
  831MPD2    H712282   2.874   4.423  16.272 -1.1025 -0.2088  5.7379
  832MPD2     C12283   1.355   4.610  17.131  0.5855  0.5566 -0.0134
  832MPD2    C112284   1.310   4.735  17.097  0.1592  0.0092  0.1632
  832MPD2    C212285   1.190   0.007  17.021  0.2252  0.2817  0.1698
  832MPD2    C312286   1.126   4.626  16.984  0.7150 -0.2128  0.3630
  832MPD2    C412287   1.179   4.504  17.011  0.1552  0.0994  1.0416
  832MPD2    C512288   1.292   4.496  17.088 -0.3151 -0.3218 -0.1311
  832MPD2     H12289   1.141   0.102  17.003 -1.3405 -0.9788 -2.1850
  832MPD2    H112290   1.139   4.410  16.972 -2.6034  1.8758 -0.4041
  832MPD2    H212291   1.437   4.602  17.202  0.9420  3.0033 -0.1452
  832MPD2    H312292   1.339   4.400  17.104  0.2926  0.4253  2.5761
  832MPD2     N12293   1.008   4.631  16.912 -0.6902  0.4478 -0.2004
  832MPD2    H512294   0.978   4.546  16.865 -0.9633  0.1120  0.5864
  832MPD2    N112295   1.383   0.113  17.141  0.1383  0.1699 -0.2939
  832MPD2    H712296   1.463   0.098  17.202 -0.0951 -1.6712 -0.4419
  833MPD2     C12297   3.434   1.601  12.096 -0.1384 -0.1791  0.0831
  833MPD2    C112298   3.441   1.735  12.119  0.2116  0.3862  0.0271
  833MPD2    C212299   3.415   1.821  12.016 -0.3327  0.3608 -0.4736
  833MPD2    C312300   3.373   1.771  11.896 -0.3262  0.1043  0.9152
  833MPD2    C412301   3.373   1.635  11.874 -0.8020 -0.2862  1.0912
  833MPD2    C512302   3.404   1.552  11.974 -0.7159 -0.5477  0.1906
  833MPD2     H12303   3.417   1.928  12.034 -0.5626  0.9157 -3.8564
  833MPD2    H112304   3.348   1.588  11.779 -1.7122  1.8709  0.2361
  833MPD2    H212305   3.433   1.530  12.178 -1.3717  0.4144  0.5792
  833MPD2    H312306   3.398   1.444  11.967 -1.5831 -0.4096 -1.1872
  833MPD2     N12307   3.320   1.850  11.793  0.0637 -0.3649 -0.0944
  833MPD2    H512308   3.280   1.800  11.714 -3.0680  2.2729 -0.1781
  833MPD2    N112309   3.484   1.778  12.243 -0.1103 -0.4686 -0.2907
  833MPD2    H712310   3.505   1.707  12.313  2.2226  1.6495  1.1105
  834MPD2     C12311   2.855   1.439  11.594 -0.0258  0.3387  0.0518
  834MPD2    C112312   2.840   1.518  11.485  0.2898  0.8238  0.4434
  834MPD2    C212313   2.855   1.659  11.499  0.3384 -0.0850 -0.8540
  834MPD2    C312314   2.883   1.711  11.624 -0.3152 -0.1089 -0.0252
  834MPD2    C412315   2.914   1.624  11.730  0.0492 -0.4047  0.4446
  834MPD2    C512316   2.894   1.488  11.716  0.3232 -0.7689  0.2461
  834MPD2     H12317   2.838   1.724  11.415  0.4405  2.2223  0.9089
  834MPD2    H112318   2.955   1.657  11.825  0.2765  1.5315 -0.3107
  834MPD2    H212319   2.842   1.332  11.583  0.5277  0.4075 -1.2199
  834MPD2    H312320   2.905   1.414  11.794 -0.7130 -0.5521  0.5928
  834MPD2     N12321   2.874   1.848  11.631  0.5481  0.0897 -0.6902
  834MPD2    H512322   2.875   1.895  11.541 -0.7672  1.5708  0.0776
  834MPD2    N112323   2.815   1.457  11.354 -0.6593 -0.1233  0.6702
  834MPD2    H712324   2.796   1.357  11.358 -3.0271  0.2861 -0.6653
  835MPD2     C12325   3.148   4.207  10.808  0.4569 -0.0249 -0.4581
  835MPD2    C112326   3.272   4.272  10.805 -0.7404 -0.1360  0.2913
  835MPD2    C212327   3.377   4.228  10.885  0.2015  0.6089  0.3485
  835MPD2    C312328   3.358   4.129  10.970  0.1147 -1.3625 -0.4072
  835MPD2    C412329   3.242   4.054  10.968 -0.2965  0.7349 -0.2430
  835MPD2    C512330   3.135   4.091  10.881  0.3208  0.2043 -0.0306
  835MPD2     H12331   3.468   4.287  10.895  0.2464  0.6043 -0.0333
  835MPD2    H112332   3.236   3.966  11.031 -0.7906  1.4684  0.7363
  835MPD2    H212333   3.068   4.242  10.744 -1.8977 -1.0912  1.8952
  835MPD2    H312334   3.041   4.037  10.881  0.5254 -0.1535 -0.5949
  835MPD2     N12335   3.445   4.104  11.076 -0.2555  0.6544 -0.3503
  835MPD2    H512336   3.406   4.044  11.147 -0.7154  0.3449 -0.8588
  835MPD2    N112337   3.290   4.400  10.749 -0.7570 -0.2308  0.0280
  835MPD2    H712338   3.385   4.435  10.755 -1.7319  2.3880  0.1030
  836MPD2     C12339   3.107   4.054  11.510 -0.0109  0.3791 -0.3128
  836MPD2    C112340   3.227   4.069  11.576 -0.2279  0.4512 -0.8021
  836MPD2    C212341   3.220   4.123  11.703 -0.1090 -0.7514 -0.3978
  836MPD2    C312342   3.095   4.136  11.771 -0.1468  0.5067  1.0256
  836MPD2    C412343   2.984   4.120  11.704 -0.3328  0.5308  0.4909
  836MPD2    C512344   2.992   4.085  11.574 -1.3950  0.4090 -0.1957
  836MPD2     H12345   3.313   4.146  11.754 -0.7292  2.7475 -0.7859
  836MPD2    H112346   2.884   4.122  11.748 -0.5096 -0.1214  0.1296
  836MPD2    H212347   3.096   4.028  11.405 -0.2498  1.4640 -0.5594
  836MPD2    H312348   2.899   4.078  11.519 -1.6202  1.7755  0.0017
  836MPD2     N12349   3.082   4.182  11.906  0.2892  0.2217 -0.5410
  836MPD2    H512350   2.988   4.214  11.930  0.0965 -1.2397  0.6691
  836MPD2    N112351   3.347   4.045  11.506 -0.2951 -1.3680 -0.5656
  836MPD2    H712352   3.333   4.007  11.413  2.4545 -0.9439 -1.1665
  837MPD2     C12353   1.282   4.505  10.561 -0.1298 -0.0306  0.2724
  837MPD2    C112354   1.302   4.534  10.425  1.0282  0.1299  0.1845
  837MPD2    C212355   1.327   4.663  10.389  0.3153 -0.3223  0.6148
  837MPD2    C312356   1.328   0.028  10.485 -0.2950  0.5149 -0.1394
  837MPD2    C412357   1.293   0.000  10.613 -0.1108  0.3322 -0.0961
  837MPD2    C512358   1.275   4.605  10.649  0.7470  1.0377 -0.2720
  837MPD2     H12359   1.355   4.678  10.286 -1.4089  0.4050  0.2473
  837MPD2    H112360   1.310   0.070  10.694 -4.6037  2.0698 -0.6084
  837MPD2    H212361   1.262   4.405  10.596 -1.2531 -0.5444 -1.8212
  837MPD2    H312362   1.252   4.577  10.752  0.5260 -0.0221 -0.6166
  837MPD2     N12363   1.320   0.159  10.430  0.0521 -0.1640 -0.5359
  837MPD2    H512364   1.346   0.153  10.332 -1.3184  1.9568 -1.0182
  837MPD2    N112365   1.291   4.447  10.316 -0.3883  0.7275  0.7138
  837MPD2    H712366   1.294   4.502  10.231  2.3887  0.1605  0.4216
  838MPD2     C12367   4.350   1.841  11.280  0.2338 -0.0964  0.9005
  838MPD2    C112368   4.319   1.938  11.373  0.0545 -0.4846  0.9412
  838MPD2    C212369   4.197   1.939  11.423  0.4886 -0.2750 -0.1049
  838MPD2    C312370   4.100   1.840  11.400  0.9541  0.3883 -0.4000
  838MPD2    C412371   4.140   1.740  11.314 -0.3332 -0.4747  0.1580
  838MPD2    C512372   4.261   1.746  11.250  0.0518 -0.2935  0.3981
  838MPD2     H12373   4.169   2.027  11.479 -0.0584 -0.9652  0.7055
  838MPD2    H112374   4.075   1.659  11.282 -3.0787  2.0205 -0.6541
  838MPD2    H212375   4.443   1.840  11.224  0.3523 -0.9610  1.1179
  838MPD2    H312376   4.295   1.672  11.177 -1.9569 -1.0354  0.1989
  838MPD2     N12377   3.971   1.848  11.458 -0.8064 -0.1249 -0.2930
  838MPD2    H512378   3.955   1.922  11.526 -0.7176 -0.7221  0.3785
  838MPD2    N112379   4.402   2.048  11.407 -0.1628 -0.3818  0.2319
  838MPD2    H712380   4.371   2.116  11.476  1.7266  1.5497 -0.8179
  839MPD2     C12381   4.536   1.904  12.210 -0.1674 -0.8350 -0.1489
  839MPD2    C112382   4.502   1.831  12.098 -0.6428 -0.4890  0.7105
  839MPD2    C212383   4.526   1.901  11.979  0.3147 -0.5167 -0.0161
  839MPD2    C312384   4.577   2.026  11.971  0.0026 -0.4408  0.4733
  839MPD2    C412385   4.596   2.102  12.082  0.0494  0.0494  0.7239
  839MPD2    C512386   4.580   2.033  12.206  0.3634  0.3439 -0.7770
  839MPD2     H12387   4.501   1.870  11.878 -0.8071 -0.1691  0.1564
  839MPD2    H112388   4.634   2.204  12.084  1.6025 -0.5062 -0.1076
  839MPD2    H212389   4.522   1.872  12.313  0.3995 -0.0140  0.1876
  839MPD2    H312390   4.606   2.075  12.303  1.6804 -1.4024 -0.3713
  839MPD2     N12391   4.600   2.075  11.841 -0.2908 -0.6126 -0.1346
  839MPD2    H512392   4.580   2.011  11.764  0.2789 -1.4505  0.4108
  839MPD2    N112393   4.444   1.698  12.087  0.2933  0.2886  0.9862
  839MPD2    H712394   4.440   1.665  11.991 -0.7574 -0.6156  1.3306
  840MPD2     C12395   4.714   0.335  10.573 -0.4123 -0.0401  0.0063
  840MPD2    C112396   4.699   0.237  10.660  0.1075  0.0539  0.4803
  840MPD2    C212397   0.029   0.246  10.781 -0.4957  0.2477 -0.1945
  840MPD2    C312398   0.113   0.350  10.809 -0.1298 -0.0032  0.6238
  840MPD2    C412399   0.128   0.444  10.714 -0.0517  0.1654  0.2706
  840MPD2    C512400   0.056   0.445  10.602 -0.1337 -0.0669  0.6850
  840MPD2     H12401   0.017   0.163  10.850 -2.2802 -0.3560 -1.2329
  840MPD2    H112402   0.185   0.535  10.726 -0.7798  1.1289 -3.6009
  840MPD2    H212403   4.662   0.336  10.478  0.0516 -1.3692 -0.2576
  840MPD2    H312404   0.080   0.519  10.526 -1.7602  0.2421  0.4910
  840MPD2     N12405   0.211   0.356  10.915 -0.3820  0.6586  0.9330
  840MPD2    H512406   0.261   0.444  10.915  1.2701 -0.2776 -1.2496
  840MPD2    N112407   4.605   0.140  10.621 -0.7566 -0.7514 -0.4204
  840MPD2    H712408   4.549   0.156  10.537  0.4856 -1.2546 -1.3440
  841MPD2     C12409   4.342   0.101  14.657  0.3239 -0.2553  0.2646
  841MPD2    C112410   4.402   4.711  14.641  0.0828  0.1149 -0.4752
  841MPD2    C212411   4.543   4.694  14.611  0.5830  0.4529  0.1902
  841MPD2    C312412   4.622   0.074  14.619 -0.2869 -0.0777 -0.1037
  841MPD2    C412413   4.554   0.196  14.618  0.2397  0.4749  0.4668
  841MPD2    C512414   4.425   0.205  14.628 -0.3598 -0.1664 -0.3790
  841MPD2     H12415   4.591   4.597  14.604 -0.9395 -0.3690  1.1376
  841MPD2    H112416   4.610   0.289  14.622  2.4017 -0.8248  0.7461
  841MPD2    H212417   4.237   0.113  14.683  0.5771 -0.5116  1.4035
  841MPD2    H312418   4.384   0.305  14.633 -1.9557 -0.9077  1.2223
  841MPD2     N12419   0.029   0.062  14.603  1.4564  0.7634  0.1789
  841MPD2    H512420   0.062   4.709  14.569  0.6475 -0.1318  1.7852
  841MPD2    N112421   4.325   4.592  14.630 -0.3197 -0.8469 -0.1094
  841MPD2    H712422   4.378   4.515  14.591 -1.9286 -1.1568 -1.6786
  842MPD2     C12423   4.583   0.372  16.281  0.3995 -0.7683 -0.4213
  842MPD2    C112424   4.470   0.403  16.358 -0.5411  1.2643  0.3360
  842MPD2    C212425   4.447   0.331  16.476 -0.0590  0.7843  0.2516
  842MPD2    C312426   4.528   0.224  16.511 -0.1874 -0.0818 -0.4932
  842MPD2    C412427   4.637   0.193  16.433 -0.4024  0.6061  0.0494
  842MPD2    C512428   4.670   0.281  16.328 -0.0171  0.5549 -0.0174
  842MPD2     H12429   4.352   0.354  16.524 -0.3073  1.3272 -0.4989
  842MPD2    H112430   4.695   0.104  16.453 -0.0779  1.2428  1.8953
  842MPD2    H212431   4.608   0.428  16.192 -1.1299 -1.1589 -1.1090
  842MPD2    H312432   0.022   0.263  16.268 -1.4926 -2.9357 -1.1803
  842MPD2     N12433   4.508   0.132  16.614  0.1226 -0.4596  0.0635
  842MPD2    H512434   4.568   0.050  16.611  1.8898  0.7644  1.4560
  842MPD2    N112435   4.397   0.511  16.305 -0.1347 -0.4425 -0.3888
  842MPD2    H712436   4.438   0.566  16.230 -1.3576  0.2708 -0.5299
  843MPD2     C12437   2.207   1.555  17.509 -0.6237  0.1744 -0.9030
  843MPD2    C112438   2.312   1.465  17.525 -0.1955  0.2812 -0.7886
  843MPD2    C212439   2.402   1.495  17.622  0.2906  0.0117 -0.4251
  843MPD2    C312440   2.403   1.608  17.700 -0.4606 -0.5790 -0.0281
  843MPD2    C412441   2.293   1.691  17.692 -0.1165  0.1766  0.1096
  843MPD2    C512442   2.205   1.672  17.586  0.2221  0.4545  0.1146
  843MPD2     H12443   2.483   1.424  17.632  1.2247  1.3203  1.3320
  843MPD2    H112444   2.277   1.780   0.005  1.0170  0.6738 -0.3527
  843MPD2    H212445   2.130   1.547  17.433 -1.6224  1.9360 -0.0486
  843MPD2    H312446   2.121   1.741  17.580 -0.2699 -0.2466 -1.1057
  843MPD2     N12447   2.498   1.637   0.051 -0.1357 -0.2118 -0.2459
  843MPD2    H512448   2.481   1.717   0.110 -2.6636 -0.8763 -0.0836
  843MPD2    N112449   2.305   1.337  17.454 -0.7387  0.5623 -0.7747
  843MPD2    H712450   2.227   1.321  17.391 -1.7560 -1.7123  1.0835
  844MPD2     C12451   1.330   4.402  16.074 -0.0540 -0.9678  0.7321
  844MPD2    C112452   1.221   4.412  16.158  0.3011  0.1281 -0.5286
  844MPD2    C212453   1.228   4.431  16.291 -0.4742 -0.6279 -0.6381
  844MPD2    C312454   1.347   4.458  16.347  0.7143 -0.2391  0.3675
  844MPD2    C412455   1.458   4.451  16.265  0.4675 -0.4239  0.5612
  844MPD2    C512456   1.445   4.423  16.134  0.5193  0.7484  0.0672
  844MPD2     H12457   1.138   4.452  16.348  1.5830 -0.7015  2.6520
  844MPD2    H112458   1.556   4.479  16.302  0.9942  0.3773 -1.4440
  844MPD2    H212459   1.319   4.397  15.966 -2.8559  0.0121  0.9755
  844MPD2    H312460   1.537   4.421  16.077  0.5525  2.0907  0.0760
  844MPD2     N12461   1.367   4.499  16.477 -0.3068 -0.1482 -0.1722
  844MPD2    H512462   1.453   4.544  16.507 -1.3710  1.0842  1.0186
  844MPD2    N112463   1.092   4.420  16.117  0.3873  0.1850 -0.4025
  844MPD2    H712464   1.022   4.421  16.191  1.7526  0.2039  0.9015
  845MPD2     C12465   1.050   0.656  16.626 -0.2599  0.0410  0.0214
  845MPD2    C112466   1.130   0.633  16.737 -0.1978  0.5022 -0.3041
  845MPD2    C212467   1.197   0.517  16.749  0.1731 -0.0396 -0.6704
  845MPD2    C312468   1.181   0.412  16.664 -0.2167 -0.4589 -0.2192
  845MPD2    C412469   1.093   0.429  16.557 -0.2113 -0.2214 -0.5273
  845MPD2    C512470   1.030   0.548  16.537 -0.8237 -0.0405 -0.3116
  845MPD2     H12471   1.271   0.503  16.827 -0.0904  1.8566 -0.0830
  845MPD2    H112472   1.071   0.347  16.489  2.2156 -0.7506 -0.6657
  845MPD2    H212473   1.001   0.748  16.597 -1.7405 -0.5023  0.8306
  845MPD2    H312474   0.960   0.554  16.455  1.5878  0.0306 -2.3386
  845MPD2     N12475   1.238   0.287  16.698  0.2325  0.2594  0.0681
  845MPD2    H512476   1.272   0.289  16.793  1.3039 -0.7961 -0.2922
  845MPD2    N112477   1.157   0.739  16.822  0.0734  0.0630  0.2290
  845MPD2    H712478   1.120   0.831  16.800 -1.3083 -0.6568 -0.5013
  846MPD2     C12479   2.977   1.453  14.073  0.8717  0.3058 -0.0534
  846MPD2    C112480   2.870   1.539  14.039  0.5445 -0.0852  0.0744
  846MPD2    C212481   2.786   1.579  14.141 -0.7918 -0.4712 -1.1935
  846MPD2    C312482   2.803   1.541  14.270 -0.0131  0.2020  0.5687
  846MPD2    C412483   2.913   1.466  14.304 -0.6117  0.5888  0.0850
  846MPD2    C512484   2.991   1.419  14.202 -0.2979 -0.5629 -0.2576
  846MPD2     H12485   2.691   1.626  14.121 -2.0505 -1.7102  1.9302
  846MPD2    H112486   2.935   1.443  14.407 -1.8024 -0.3694  0.1261
  846MPD2    H212487   3.043   1.421  13.993 -1.7915 -1.4511 -1.5501
  846MPD2    H312488   3.084   1.366  14.219  0.4918  0.8700 -0.1099
  846MPD2     N12489   2.700   1.572  14.361 -0.0254  0.0265  0.2540
  846MPD2    H512490   2.621   1.628  14.329  0.4448  0.1537 -0.7039
  846MPD2    N112491   2.849   1.591  13.912  0.2547  0.5881 -0.8221
  846MPD2    H712492   2.796   1.678  13.915 -0.2574  0.2765 -0.9453
  847MPD2     C12493   3.717   3.458  14.390 -0.2650  0.4256  0.9372
  847MPD2    C112494   3.621   3.396  14.469  0.9233  0.2261  0.4470
  847MPD2    C212495   3.659   3.365  14.605  0.3893 -1.1084  0.4851
  847MPD2    C312496   3.778   3.419  14.658  0.0761  0.0384  0.1426
  847MPD2    C412497   3.872   3.483  14.577  0.5658 -0.2846 -0.1855
  847MPD2    C512498   3.839   3.497  14.445  0.2501 -0.7057 -0.2589
  847MPD2     H12499   3.580   3.312  14.659 -1.2410  0.0862 -0.7319
  847MPD2    H112500   3.961   3.529  14.618  0.9820 -1.0796 -0.1959
  847MPD2    H212501   3.694   3.483  14.288 -1.2987  0.6377  1.2258
  847MPD2    H312502   3.927   3.538  14.397 -0.5100  0.6701 -0.4813
  847MPD2     N12503   3.809   3.410  14.795 -0.5708  0.1396  0.4282
  847MPD2    H512504   3.888   3.467  14.822  0.9243 -1.0780 -1.3591
  847MPD2    N112505   3.491   3.370  14.428 -0.4347  0.2780  0.2093
  847MPD2    H712506   3.424   3.335  14.497  0.3880 -1.1420  0.2905
  848MPD2     C12507   0.637   0.111  16.177 -0.5878  0.5644 -0.2306
  848MPD2    C112508   0.656   0.182  16.293 -0.2817 -0.0906  0.0470
  848MPD2    C212509   0.616   0.310  16.298  0.0892 -0.0752  0.2783
  848MPD2    C312510   0.548   0.367  16.192 -0.0335 -0.7024 -0.1646
  848MPD2    C412511   0.531   0.300  16.074 -0.0601 -0.8204  0.1232
  848MPD2    C512512   0.572   0.167  16.068 -0.4504 -0.3532 -0.5346
  848MPD2     H12513   0.658   0.367  16.380 -0.4582  0.5289  0.1439
  848MPD2    H112514   0.484   0.349  15.989  0.7089 -0.8929 -0.3441
  848MPD2    H212515   0.650   0.004  16.168  3.8386  0.9398  1.7727
  848MPD2    H312516   0.542   0.108  15.983  1.3689 -0.7524 -0.9024
  848MPD2     N12517   0.516   0.507  16.190  0.3955  0.7409 -0.4904
  848MPD2    H512518   0.467   0.548  16.111 -0.1885 -0.1532 -0.5904
  848MPD2    N112519   0.695   0.124  16.420  0.3408 -0.2595  0.3925
  848MPD2    H712520   0.675   0.184  16.499 -0.1137 -0.4535  0.4212
  849MPD2     C12521   0.167   0.840  13.670 -0.6844 -0.4343 -0.2622
  849MPD2    C112522   0.254   0.749  13.731  0.7451  0.6383 -0.3346
  849MPD2    C212523   0.209   0.669  13.841 -0.1169 -0.7798  0.0093
  849MPD2    C312524   0.086   0.689  13.904  0.1540  0.6200  0.3547
  849MPD2    C412525   0.011   0.795  13.854  0.6977 -0.3607  0.8205
  849MPD2    C512526   0.045   0.854  13.734  0.6490  0.5045 -1.1941
  849MPD2     H12527   0.276   0.599  13.889 -1.5339 -1.0705  1.5817
  849MPD2    H112528   4.652   0.818  13.897 -0.7091 -0.4777 -2.2699
  849MPD2    H212529   0.192   0.905  13.588 -0.3689 -2.9055 -2.1267
  849MPD2    H312530   4.710   0.930  13.707  2.4706  1.3940 -3.5283
  849MPD2     N12531   0.052   0.599  14.011 -0.5516  0.1756 -0.1054
  849MPD2    H512532   0.121   0.530  14.041  0.4803  1.5263  0.6528
  849MPD2    N112533   0.387   0.723  13.690  0.1598  0.1352 -0.2183
  849MPD2    H712534   0.441   0.658  13.746 -0.9241 -2.2351 -1.8929
  850MPD2     C12535   2.173   3.914  14.958 -0.2801  0.3633  0.0173
  850MPD2    C112536   2.224   3.942  15.082 -0.2996  0.2392 -0.4033
  850MPD2    C212537   2.363   3.953  15.101  0.4821 -0.2866  0.2893
  850MPD2    C312538   2.443   3.942  14.988 -0.3174 -0.0323 -0.5319
  850MPD2    C412539   2.397   3.904  14.866 -0.3477  0.5623 -0.4630
  850MPD2    C512540   2.258   3.894  14.852 -0.2150  0.4319 -0.7602
  850MPD2     H12541   2.391   3.987  15.200 -1.0637 -0.0074  0.6271
  850MPD2    H112542   2.467   3.901  14.783  1.8739 -1.5617  1.4694
  850MPD2    H212543   2.066   3.899  14.949 -0.1389  0.4641 -1.7550
  850MPD2    H312544   2.209   3.880  14.756 -0.5317 -0.7237 -0.4268
  850MPD2     N12545   2.579   3.954  14.992  0.1125 -0.0467  0.3986
  850MPD2    H512546   2.623   3.937  14.902 -0.0566  0.0811  0.2926
  850MPD2    N112547   2.130   3.941  15.191 -0.0893  0.2885 -0.0552
  850MPD2    H712548   2.035   3.936  15.155 -0.3431 -1.6191  0.9020
  851MPD2     C12549   2.898   3.737  15.519  0.3350 -0.0892 -0.1062
  851MPD2    C112550   2.777   3.687  15.471  0.2730 -0.3369 -0.7283
  851MPD2    C212551   2.783   3.572  15.395  0.6710  0.2478 -0.6240
  851MPD2    C312552   2.904   3.508  15.360 -0.0152  0.2225 -0.3374
  851MPD2    C412553   3.021   3.563  15.405 -0.9552 -0.0380  0.6838
  851MPD2    C512554   3.011   3.676  15.488 -0.3308  0.3471 -0.5227
  851MPD2     H12555   2.695   3.527  15.350  0.2278  2.0216 -1.5245
  851MPD2    H112556   3.120   3.531  15.374 -1.2639 -0.1101 -0.2243
  851MPD2    H212557   2.905   3.836  15.563  2.3053  0.3748 -1.4460
  851MPD2    H312558   3.100   3.722  15.531  0.3414  0.7663 -2.3549
  851MPD2     N12559   2.903   3.382  15.286 -0.1224  0.2679  0.1417
  851MPD2    H512560   2.811   3.345  15.261  0.4766 -1.9167  1.1985
  851MPD2    N112561   2.659   3.764  15.499  0.1330  0.0018 -0.4408
  851MPD2    H712562   2.666   3.851  15.550  1.2310 -1.0165  1.1685
  852MPD2     C12563   2.002   1.050   9.705 -0.5259  0.0968  0.2930
  852MPD2    C112564   2.073   1.030   9.827 -0.2397 -0.1967 -0.1182
  852MPD2    C212565   2.071   1.132   9.926  0.3670  0.1684 -0.2710
  852MPD2    C312566   1.994   1.243   9.904  0.4486 -0.1726 -0.2721
  852MPD2    C412567   1.916   1.254   9.790  1.0324  0.4850  0.7524
  852MPD2    C512568   1.922   1.159   9.696 -0.4758  0.7743  1.0324
  852MPD2     H12569   2.117   1.124  10.024  2.1147 -1.2314 -1.2077
  852MPD2    H112570   1.850   1.335   9.759 -0.3577 -0.4192  1.3181
  852MPD2    H212571   1.993   0.980   9.623 -3.7256 -0.6731  1.3382
  852MPD2    H312572   1.859   1.174   9.609 -0.7290 -1.9416  0.7708
  852MPD2     N12573   2.004   1.358   9.994 -0.4809  0.1117 -0.3671
  852MPD2    H512574   2.075   1.352  10.066 -0.1587  0.7582 -0.6265
  852MPD2    N112575   2.138   0.908   9.857 -0.7029  0.4427  0.2269
  852MPD2    H712576   2.167   0.895   9.954  0.8536  2.7653  0.0644
  853MPD2     C12577   4.168   0.940  12.441  0.7586 -0.3254 -0.5776
  853MPD2    C112578   4.054   1.010  12.402  0.5163 -0.6306  0.0651
  853MPD2    C212579   4.004   0.988  12.275 -0.0196  0.3383  0.6654
  853MPD2    C312580   4.070   0.899  12.190 -0.2478  0.5376  0.6974
  853MPD2    C412581   4.182   0.829  12.229  0.2305 -0.4303 -0.2336
  853MPD2    C512582   4.230   0.854  12.353  0.1211  0.0716 -0.2873
  853MPD2     H12583   3.908   1.033  12.252  0.8393  2.1720  0.6377
  853MPD2    H112584   4.228   0.756  12.163  2.7699  1.4446 -0.5089
  853MPD2    H212585   4.208   0.951  12.541  1.3231  0.0270 -0.8416
  853MPD2    H312586   4.321   0.805  12.384  0.4078  0.5910 -0.3129
  853MPD2     N12587   4.049   0.880  12.051  0.4391  0.1650  0.0494
  853MPD2    H512588   4.123   0.844  11.990 -0.5955 -0.4579 -0.8425
  853MPD2    N112589   3.994   1.090  12.500  0.4437 -0.5838  0.4187
  853MPD2    H712590   4.043   1.089  12.588 -1.0858  2.4068  1.2998
  854MPD2     C12591   0.834   1.260  13.029 -0.3818  0.0166  0.4178
  854MPD2    C112592   0.949   1.333  13.043 -0.2478  1.0679 -0.0221
  854MPD2    C212593   1.055   1.268  13.118 -0.4402 -0.3773 -0.8017
  854MPD2    C312594   1.048   1.133  13.148 -0.1177 -0.6217 -0.3157
  854MPD2    C412595   0.936   1.057  13.108  0.4098  0.1188 -0.6597
  854MPD2    C512596   0.824   1.126  13.057  0.5814 -0.3927 -0.1121
  854MPD2     H12597   1.151   1.316  13.132 -0.7314  0.3245 -1.1874
  854MPD2    H112598   0.934   0.949  13.116 -0.3653  0.2573  0.9940
  854MPD2    H212599   0.755   1.301  12.967  1.6132 -0.2724 -2.3300
  854MPD2    H312600   0.731   1.080  13.028  1.1234 -1.4098 -0.2261
  854MPD2     N12601   1.165   1.065  13.204  0.1891 -0.7138  0.6937
  854MPD2    H512602   1.174   0.965  13.185 -1.4292 -0.4185 -1.7311
  854MPD2    N112603   0.958   1.451  12.970 -0.3010  0.1515 -0.4623
  854MPD2    H712604   0.892   1.469  12.895 -0.8992  0.4287  0.1344
  855MPD2     C12605   2.101   0.839  13.765  0.5417  0.0968  0.0684
  855MPD2    C112606   1.975   0.846  13.822 -0.4906  0.7142  0.5195
  855MPD2    C212607   1.868   0.886  13.739 -0.8751  0.0345  0.3636
  855MPD2    C312608   1.884   0.904  13.596  0.5969 -0.1113  0.8646
  855MPD2    C412609   2.009   0.889  13.544  0.0139 -0.0284 -0.2928
  855MPD2    C512610   2.113   0.855  13.631 -0.3480  0.3570 -0.1540
  855MPD2     H12611   1.771   0.872  13.785 -0.9952  0.9309  0.3780
  855MPD2    H112612   2.044   0.887  13.441 -1.3535  0.4378 -0.7607
  855MPD2    H212613   2.189   0.814  13.823  0.8029  1.2032  0.1401
  855MPD2    H312614   2.214   0.853  13.590 -0.9169 -1.0984 -1.4571
  855MPD2     N12615   1.785   0.942  13.500 -0.7076  0.1246  0.3063
  855MPD2    H512616   1.817   0.948  13.404  0.2535 -0.7593  0.5780
  855MPD2    N112617   1.944   0.809  13.955 -0.1579  0.0522  0.9042
  855MPD2    H712618   1.850   0.833  13.987  0.0744  1.4228  0.5513
  856MPD2     C12619   3.901   2.089  14.072  0.5208  0.0160  1.1357
  856MPD2    C112620   3.960   2.207  14.031 -0.3845  0.0376  0.9836
  856MPD2    C212621   3.876   2.312  13.990  0.1898  0.0898 -0.2177
  856MPD2    C312622   3.738   2.296  13.985  0.4617  0.0528  0.1924
  856MPD2    C412623   3.684   2.177  14.039  0.5926  0.6933 -0.1782
  856MPD2    C512624   3.766   2.076  14.075  0.3304 -0.3010  0.3242
  856MPD2     H12625   3.920   2.401  13.948 -0.7935  2.1899  3.2009
  856MPD2    H112626   3.577   2.157  14.046  0.8604 -0.4801  0.5879
  856MPD2    H212627   3.952   2.005  14.118 -0.8042 -0.8633  0.9953
  856MPD2    H312628   3.712   1.991  14.116  0.0726 -0.6146 -0.6770
  856MPD2     N12629   3.651   2.397  13.947  0.0324  0.4129 -0.6561
  856MPD2    H512630   3.551   2.377  13.949  0.3072 -0.6314  2.2463
  856MPD2    N112631   4.099   2.225  14.017  0.1342 -0.1751 -0.8070
  856MPD2    H712632   4.133   2.306  13.965 -0.6437 -0.0860 -1.1857
  857MPD2     C12633   0.249   4.219  12.837  0.2860  0.2393  0.4475
  857MPD2    C112634   0.386   4.186  12.833 -0.2296 -0.6860  0.7313
  857MPD2    C212635   0.473   4.272  12.902  0.5873 -1.2143 -0.9440
  857MPD2    C312636   0.434   4.386  12.966 -0.5465  0.3751  0.0307
  857MPD2    C412637   0.296   4.409  12.977  0.1502 -0.0097  0.2929
  857MPD2    C512638   0.203   4.327  12.908 -0.5485 -0.1945 -0.0999
  857MPD2     H12639   0.580   4.256  12.894  0.7260  0.2199 -1.9731
  857MPD2    H112640   0.251   4.480  13.045 -1.0404 -1.8638  1.4475
  857MPD2    H212641   0.174   4.151  12.799  0.0940  2.0727 -2.5325
  857MPD2    H312642   0.096   4.336  12.915 -0.2201  2.5643  1.6575
  857MPD2     N12643   0.528   4.480  13.011  0.6835  0.4289  0.6177
  857MPD2    H512644   0.627   4.456  13.004  0.5141 -0.3388  0.8865
  857MPD2    N112645   0.440   4.076  12.772 -0.3139  0.3247 -0.4617
  857MPD2    H712646   0.539   4.060  12.781 -0.5405 -0.7385  0.2079
  858MPD2     C12647   1.580   2.973  16.500  0.7396 -0.0019 -0.0250
  858MPD2    C112648   1.566   2.836  16.537  0.3307 -0.7759  0.7074
  858MPD2    C212649   1.533   2.803  16.668  0.4710  0.3327  0.1146
  858MPD2    C312650   1.500   2.903  16.758 -0.0540  0.7922 -0.7262
  858MPD2    C412651   1.505   3.030  16.714  0.1273  0.3875  0.2329
  858MPD2    C512652   1.552   3.069  16.592 -0.4238  0.3248 -0.3889
  858MPD2     H12653   1.533   2.700  16.701  2.7143  0.9772  2.0715
  858MPD2    H112654   1.487   3.108  16.787  0.8139 -0.1842  1.0144
  858MPD2    H212655   1.610   2.998  16.399 -1.4634  3.3201  0.1485
  858MPD2    H312656   1.578   3.172  16.570  0.3326  0.2992  0.3628
  858MPD2     N12657   1.472   2.882  16.897  0.3708  0.5295 -0.6794
  858MPD2    H512658   1.453   2.969  16.944 -0.0115 -0.1569  0.4365
  858MPD2    N112659   1.586   2.738  16.430  0.4262 -0.5006 -0.4622
  858MPD2    H712660   1.604   2.774  16.337  0.3710 -1.5514 -0.8677
  859MPD2     C12661   4.064   0.255  15.272 -0.1709 -1.0911 -0.4451
  859MPD2    C112662   4.196   0.282  15.257  0.1083 -0.2569  0.1848
  859MPD2    C212663   4.284   0.174  15.290  0.5014 -1.2003  0.3310
  859MPD2    C312664   4.231   0.058  15.344 -0.0369 -1.0286  0.4532
  859MPD2    C412665   4.093   0.034  15.349 -0.4135 -0.0166 -0.4276
  859MPD2    C512666   4.015   0.141  15.313 -0.2965  0.2970  0.4891
  859MPD2     H12667   4.390   0.191  15.308 -0.3044  0.4473  3.5105
  859MPD2    H112668   4.054   4.680  15.391 -0.0090 -1.0915 -2.4066
  859MPD2    H212669   3.993   0.334  15.248 -0.3578 -0.9934  0.4521
  859MPD2    H312670   3.908   0.141  15.325 -0.3665  1.7966 -0.1243
  859MPD2     N12671   4.311   4.688  15.393  0.2691  0.4064  0.5446
  859MPD2    H512672   4.257   4.612  15.433  0.5516 -0.5618 -0.8947
  859MPD2    N112673   4.233   0.411  15.221  0.3953 -0.0913 -0.1800
  859MPD2    H712674   4.159   0.479  15.209 -1.2218 -1.5805  1.3280
  860MPD2     C12675   1.900   0.190  11.869  0.7032  0.3131 -0.4354
  860MPD2    C112676   1.981   0.288  11.931 -0.4383  0.9200 -0.3249
  860MPD2    C212677   1.929   0.412  11.955 -0.2002  0.2753 -0.8880
  860MPD2    C312678   1.805   0.441  11.917  0.2629 -0.2408 -0.1205
  860MPD2    C412679   1.717   0.340  11.872 -0.3150 -0.1407 -0.2280
  860MPD2    C512680   1.767   0.214  11.845  0.1898  0.2581 -0.2031
  860MPD2     H12681   1.992   0.484  12.006  0.6500  0.2121 -1.8589
  860MPD2    H112682   1.619   0.366  11.834 -0.4817 -0.1138  0.2199
  860MPD2    H212683   1.941   0.094  11.841 -1.9721 -0.8726 -0.2172
  860MPD2    H312684   1.710   0.136  11.795 -0.0885 -0.5807  1.4300
  860MPD2     N12685   1.751   0.571  11.936 -0.5539 -0.0664  0.5099
  860MPD2    H512686   1.653   0.579  11.913 -0.4140 -0.1491 -0.0975
  860MPD2    N112687   2.107   0.254  11.984 -0.1182  0.7768 -0.7695
  860MPD2    H712688   2.170   0.325  12.021  0.8477 -1.0270  1.0736
  861MPD2     C12689   0.528   3.889  11.322 -0.9246  0.8380 -0.5172
  861MPD2    C112690   0.616   3.976  11.393 -0.7324  0.2992 -0.9477
  861MPD2    C212691   0.624   4.106  11.351 -0.3986  1.1746 -0.4399
  861MPD2    C312692   0.547   4.146  11.243  0.2198  0.4165 -0.0732
  861MPD2    C412693   0.466   4.060  11.177  0.1851  0.1601 -0.0521
  861MPD2    C512694   0.459   3.938  11.218 -0.0692  0.7238 -0.4256
  861MPD2     H12695   0.679   4.179  11.410  1.5742 -1.9648  1.5979
  861MPD2    H112696   0.406   4.095  11.093  0.2491  0.6805  0.1208
  861MPD2    H212697   0.517   3.784  11.349  1.0587  1.2319  1.8143
  861MPD2    H312698   0.385   3.877  11.167 -0.1493 -0.9252  1.6376
  861MPD2     N12699   0.543   4.285  11.183 -0.8099 -0.5894  0.3341
  861MPD2    H512700   0.470   4.295  11.113 -0.6872 -0.1121  0.2754
  861MPD2    N112701   0.676   3.938  11.509  0.2130 -0.0467  0.0742
  861MPD2    H712702   0.721   4.010  11.565  0.4497 -0.3541  0.2789
  862MPD2     C12703   0.541   4.724  10.571  0.1959  0.5209 -0.1437
  862MPD2    C112704   0.570   4.614  10.647 -0.4652  0.3216  0.4812
  862MPD2    C212705   0.571   4.490  10.601  0.0232  1.0082  0.4784
  862MPD2    C312706   0.552   4.460  10.466  0.3835  0.3604  0.2173
  862MPD2    C412707   0.526   4.563  10.382  0.1048  0.2558  0.1774
  862MPD2    C512708   0.515   4.691  10.439 -0.9797  0.1877 -0.3707
  862MPD2     H12709   0.604   4.408  10.664 -0.8211 -0.3974 -0.9115
  862MPD2    H112710   0.501   4.544  10.278 -0.6864 -1.6466  0.7123
  862MPD2    H212711   0.535   0.089  10.605 -1.2253  0.4901 -0.2975
  862MPD2    H312712   0.475   0.022  10.364  0.1689  0.4762 -0.7141
  862MPD2     N12713   0.552   4.329  10.408  0.5001  0.1084 -0.3320
  862MPD2    H512714   0.511   4.314  10.316 -0.2628  0.9391 -0.1321
  862MPD2    N112715   0.597   4.615  10.782  0.1720  0.5676 -0.0057
  862MPD2    H712716   0.614   4.521  10.818 -1.6876  0.3597  0.3486
  863MPD2     C12717   4.477   2.056  16.796  0.3172  0.0367  0.0270
  863MPD2    C112718   4.380   2.063  16.898 -0.2864 -0.3052 -0.2692
  863MPD2    C212719   4.416   2.050  17.031  0.0625 -0.4205 -0.0259
  863MPD2    C312720   4.545   2.016  17.066  0.2592 -0.1409 -0.8332
  863MPD2    C412721   4.643   2.025  16.968 -0.6915  0.3072 -0.1651
  863MPD2    C512722   4.610   2.043  16.832  0.2584 -0.5332  0.1538
  863MPD2     H12723   4.341   2.037  17.108  0.1805 -4.9381 -0.6696
  863MPD2    H112724   0.011   2.019  16.995 -0.6539  1.8953  0.0267
  863MPD2    H212725   4.449   2.068  16.692 -0.0275  1.4494  0.2748
  863MPD2    H312726   4.686   2.060  16.757 -0.2322 -0.7528 -0.3945
  863MPD2     N12727   4.589   1.983  17.189  0.0162  0.5271 -0.1499
  863MPD2    H512728   4.689   1.976  17.206 -0.0980  1.9009  1.1359
  863MPD2    N112729   4.249   2.090  16.863  0.2727 -0.7809 -0.1988
  863MPD2    H712730   4.230   2.073  16.765 -1.0895 -0.8743  0.0730
  864MPD2     C12731   0.185   2.896  17.394  0.1590 -0.7266 -0.3118
  864MPD2    C112732   0.211   2.828  17.274 -0.4133 -0.2406 -0.3104
  864MPD2    C212733   0.297   2.887  17.183 -0.4355  0.4440 -0.4505
  864MPD2    C312734   0.339   3.020  17.202  0.3990  0.1139 -0.0174
  864MPD2    C412735   0.302   3.081  17.317  0.0530 -0.3089 -0.1818
  864MPD2    C512736   0.232   3.019  17.420  0.6106  0.0860 -0.5243
  864MPD2     H12737   0.325   2.826  17.097 -0.3764 -0.7067  0.3844
  864MPD2    H112738   0.321   3.186  17.333 -0.0470 -0.4224  0.6603
  864MPD2    H212739   0.128   2.846  17.471 -0.4339 -1.1357 -1.0081
  864MPD2    H312740   0.201   3.065  17.513  0.4263  0.5418 -0.8127
  864MPD2     N12741   0.417   3.092  17.112  0.1890  0.3554  0.2034
  864MPD2    H512742   0.438   3.188  17.139 -1.0493  1.0809 -1.3979
  864MPD2    N112743   0.146   2.704  17.264  0.7392 -0.0832  0.0043
  864MPD2    H712744   0.076   2.690  17.336 -1.1035  3.2514 -1.1660
  865MPD2     C12745   0.102   3.578  16.451  0.0267  0.1734 -0.1306
  865MPD2    C112746   0.103   3.442  16.473  0.4540  0.6048  0.3963
  865MPD2    C212747   0.187   3.393  16.571  0.6366 -0.0744 -1.1249
  865MPD2    C312748   0.280   3.473  16.633  0.2840 -0.5184  0.3502
  865MPD2    C412749   0.293   3.605  16.605  0.0870 -0.2333 -0.3720
  865MPD2    C512750   0.200   3.658  16.508  0.2412  0.2438 -0.2886
  865MPD2     H12751   0.199   3.288  16.596 -0.0109  0.1007 -0.0904
  865MPD2    H112752   0.368   3.669  16.650 -1.4302  1.9659 -0.9522
  865MPD2    H212753   0.032   3.616  16.377 -0.2127 -1.3464 -0.6916
  865MPD2    H312754   0.222   3.757  16.471 -1.9809  1.4812  1.7183
  865MPD2     N12755   0.378   3.413  16.717 -1.0496 -0.3333  0.4170
  865MPD2    H512756   0.353   3.318  16.743 -1.4761  0.0422  1.3517
  865MPD2    N112757   0.004   3.364  16.411  0.1062 -0.1496  0.1453
  865MPD2    H712758   4.700   3.400  16.326 -0.4821 -3.2081 -0.8709
  866MPD2     C12759   1.799   4.605  11.641 -0.0880  0.3589  0.0652
  866MPD2    C112760   1.715   4.498  11.667 -0.4444 -0.2415  0.4557
  866MPD2    C212761   1.579   4.502  11.644  0.0323  0.0501  0.0498
  866MPD2    C312762   1.525   4.619  11.589 -0.1819  0.6103 -0.1418
  866MPD2    C412763   1.606   4.725  11.570 -0.0881 -0.6059  0.9503
  866MPD2    C512764   1.742   4.716  11.583  0.4179  0.6110  0.8202
  866MPD2     H12765   1.514   4.418  11.664  0.5953 -0.2841  0.4467
  866MPD2    H112766   1.568   0.082  11.533  2.4115 -0.2380 -0.6902
  866MPD2    H212767   1.907   4.594  11.640 -0.3506 -2.3531  1.1330
  866MPD2    H312768   1.798   0.060  11.537  0.8050 -0.1777 -0.0946
  866MPD2     N12769   1.385   4.645  11.567  0.6661  0.0606  0.0564
  866MPD2    H512770   1.367   0.001  11.531 -2.0967 -0.7270 -0.5730
  866MPD2    N112771   1.787   4.386  11.692 -0.5395  0.3825 -0.5016
  866MPD2    H712772   1.887   4.388  11.677 -0.4377  1.1803  0.2776
  867MPD2     C12773   3.248   2.707  16.880 -0.3903  0.7747  0.0875
  867MPD2    C112774   3.353   2.800  16.910  0.1269 -0.0652 -0.3173
  867MPD2    C212775   3.330   2.884  17.022 -0.3490 -0.4355 -0.3598
  867MPD2    C312776   3.228   2.862  17.109 -1.2677 -0.1112  0.4717
  867MPD2    C412777   3.138   2.765  17.088  0.5978  0.0319 -0.3676
  867MPD2    C512778   3.144   2.704  16.968 -0.0733  0.4930  0.2328
  867MPD2     H12779   3.411   2.950  17.051 -2.1773  1.9909 -0.6706
  867MPD2    H112780   3.048   2.756  17.147  0.1881  0.3663 -0.9359
  867MPD2    H212781   3.250   2.643  16.793  0.4367  0.4005  0.3786
  867MPD2    H312782   3.064   2.635  16.945 -0.6984  1.1866  0.2993
  867MPD2     N12783   3.214   2.927  17.236  0.9460 -0.7602  0.5381
  867MPD2    H512784   3.138   2.901  17.298 -0.3058  0.4600 -0.4738
  867MPD2    N112785   3.475   2.806  16.833  0.4300 -0.4422  0.3846
  867MPD2    H712786   3.484   2.726  16.772 -0.3592 -2.7124  3.2397
  868MPD2     C12787   0.998   2.844  13.080  0.7960  0.6377  0.0693
  868MPD2    C112788   0.931   2.741  13.147  0.8155  1.0936 -0.1346
  868MPD2    C212789   0.808   2.771  13.206 -0.6503  0.1204  0.5910
  868MPD2    C312790   0.773   2.908  13.221 -0.7334  0.6313  0.1814
  868MPD2    C412791   0.844   3.005  13.159  0.4379  0.7897 -0.2372
  868MPD2    C512792   0.949   2.972  13.076  0.7254 -0.6529 -0.1649
  868MPD2     H12793   0.756   2.695  13.263 -2.5615  1.4855  0.6644
  868MPD2    H112794   0.804   3.106  13.159  0.7097  0.8967  0.3741
  868MPD2    H212795   1.082   2.822  13.015  0.9679  1.3963  0.0354
  868MPD2    H312796   1.005   3.050  13.025 -1.6849  1.8088  0.9590
  868MPD2     N12797   0.654   2.939  13.296 -0.2829  0.4363  0.7262
  868MPD2    H512798   0.599   2.857  13.321 -0.6325  0.5025  0.1703
  868MPD2    N112799   0.990   2.617  13.140  0.2352 -0.1925 -0.3684
  868MPD2    H712800   1.079   2.604  13.091  0.8676  2.8472 -0.0166
  869MPD2     C12801   1.436   0.060   0.804  0.0877  0.4906 -0.2515
  869MPD2    C112802   1.434   0.094   0.673 -0.1024  0.2947 -0.7939
  869MPD2    C212803   1.551   0.156   0.629  0.1298  0.4899 -0.6351
  869MPD2    C312804   1.655   0.199   0.709 -0.1950 -0.1351 -0.0556
  869MPD2    C412805   1.647   0.172   0.847 -0.2416 -0.4089 -0.0787
  869MPD2    C512806   1.537   0.096   0.889  0.3200  0.2926 -0.6501
  869MPD2     H12807   1.554   0.188   0.526 -2.6167  2.1733 -0.1812
  869MPD2    H112808   1.722   0.209   0.916  0.4143 -0.5747 -0.6991
  869MPD2    H212809   1.363   4.727   0.843 -1.4506  1.2748 -1.7034
  869MPD2    H312810   1.531   0.069   0.994 -1.0687  1.3819 -0.4436
  869MPD2     N12811   1.755   0.301   0.672  0.0965 -0.0702  0.0169
  869MPD2    H512812   1.818   0.338   0.743  1.2394 -0.1657 -0.9654
  869MPD2    N112813   1.334   0.036   0.594 -0.0736  0.0003  0.1684
  869MPD2    H712814   1.270   4.710   0.640  2.5638 -1.3381  1.9983
  870MPD2     C12815   1.651   3.729   2.104 -0.2475  0.5234 -0.2951
  870MPD2    C112816   1.654   3.664   1.983 -0.3824 -0.2037  0.8041
  870MPD2    C212817   1.576   3.712   1.878 -0.3725 -0.0326 -0.2783
  870MPD2    C312818   1.513   3.836   1.890 -0.6887  0.5715  0.1357
  870MPD2    C412819   1.508   3.901   2.014  0.2144 -0.0535 -0.4026
  870MPD2    C512820   1.581   3.843   2.120 -0.4256 -0.3849 -0.0334
  870MPD2     H12821   1.588   3.658   1.784  4.9861  3.4513 -1.5916
  870MPD2    H112822   1.462   3.997   2.030 -0.2638 -0.5070  0.9700
  870MPD2    H212823   1.683   3.680   2.196  0.5927  0.6470 -0.5201
  870MPD2    H312824   1.579   3.886   2.219 -0.7357 -3.0423  1.1115
  870MPD2     N12825   1.449   3.883   1.774  0.2242 -0.1117 -0.8042
  870MPD2    H512826   1.469   3.833   1.688  0.0029  0.7935 -1.3807
  870MPD2    N112827   1.735   3.549   1.984  0.6389 -0.1037 -0.0834
  870MPD2    H712828   1.791   3.527   2.066  2.5262  1.0232 -1.0603
  871MPD2     C12829   2.528   3.555  16.385 -0.4640  0.1833  0.4722
  871MPD2    C112830   2.522   3.497  16.505  0.3431 -0.5488  0.4541
  871MPD2    C212831   2.544   3.355  16.515 -0.2931  0.4150  0.0949
  871MPD2    C312832   2.560   3.275  16.402  0.3154  0.1296  0.1420
  871MPD2    C412833   2.552   3.338  16.281  0.0089  0.0602 -0.0756
  871MPD2    C512834   2.535   3.475  16.272 -0.0742  0.0988  0.2659
  871MPD2     H12835   2.543   3.309  16.613 -4.0366  0.1468 -0.0650
  871MPD2    H112836   2.541   3.277  16.192  1.0905 -1.5120  0.8630
  871MPD2    H212837   2.508   3.661  16.370  1.1789  0.5367  0.8555
  871MPD2    H312838   2.533   3.527  16.176 -2.7096 -0.5541 -0.0067
  871MPD2     N12839   2.574   3.141  16.428 -0.2878 -0.3344  0.2277
  871MPD2    H512840   2.562   3.106  16.522 -0.1175  1.4877  0.9223
  871MPD2    N112841   2.520   3.589  16.612 -0.2989  0.5672 -0.2751
  871MPD2    H712842   2.530   3.687  16.590 -1.5373  0.3106 -2.0281
  872MPD2     C12843   3.721   1.049  14.466 -0.3966  0.5345 -0.2519
  872MPD2    C112844   3.645   1.134  14.384  0.5271 -0.0526  0.3830
  872MPD2    C212845   3.510   1.161  14.420  0.0759  0.9330 -0.8581
  872MPD2    C312846   3.448   1.099  14.527 -0.6459  0.6848  0.2946
  872MPD2    C412847   3.525   1.013  14.599  0.2629  0.3723  0.5722
  872MPD2    C512848   3.659   0.995  14.579 -0.3287  0.0397 -0.4364
  872MPD2     H12849   3.455   1.217  14.345 -0.7788  0.4188 -0.6118
  872MPD2    H112850   3.490   0.963  14.688  0.2299 -1.7039 -0.6064
  872MPD2    H212851   3.821   1.012  14.443  0.6231  2.2339  1.4040
  872MPD2    H312852   3.712   0.927  14.645  0.5059  0.0388 -1.0962
  872MPD2     N12853   3.319   1.120  14.580  0.3145 -0.3392  0.6994
  872MPD2    H512854   3.294   1.067  14.663  0.4470 -1.4803  0.0055
  872MPD2    N112855   3.686   1.183  14.259 -0.1169  0.8677  0.3215
  872MPD2    H712856   3.627   1.252  14.215 -0.9239  0.3096  0.5175
  873MPD2     C12857   0.220   1.145   0.414  0.1188  0.2301  0.1797
  873MPD2    C112858   0.275   1.073   0.516  0.6639  0.4282  0.2721
  873MPD2    C212859   0.286   0.936   0.499  0.2717 -0.0033  0.1068
  873MPD2    C312860   0.247   0.872   0.386  0.4158 -0.8992  0.6176
  873MPD2    C412861   0.211   0.950   0.278 -0.3346  0.4776 -0.1476
  873MPD2    C512862   0.185   1.081   0.299 -0.1442 -0.0898 -0.0659
  873MPD2     H12863   0.324   0.881   0.584 -1.3807  0.4260  1.1119
  873MPD2    H112864   0.175   0.908   0.185  1.9088 -1.4944 -0.1369
  873MPD2    H212865   0.208   1.251   0.435 -0.9022  0.2730 -0.6482
  873MPD2    H312866   0.154   1.146   0.218  0.9994 -0.4714 -0.8124
  873MPD2     N12867   0.237   0.733   0.373  0.1406 -0.3274 -0.5139
  873MPD2    H512868   0.195   0.699   0.287  1.1666 -2.1988 -0.2847
  873MPD2    N112869   0.325   1.140   0.631  0.4460  0.3675 -0.7582
  873MPD2    H712870   0.321   1.242   0.636 -1.9396  0.2012  0.8057
  874MPD2     C12871   4.570   1.200  15.958  0.1461  0.0526 -0.3473
  874MPD2    C112872   4.573   1.071  16.012 -0.2830  0.2166 -0.2782
  874MPD2    C212873   4.692   1.015  16.043  0.3479 -0.2461 -1.0696
  874MPD2    C312874   0.075   1.077  16.014  0.3519  0.4737 -0.1421
  874MPD2    C412875   0.062   1.200  15.951  0.1832 -0.5357 -0.0510
  874MPD2    C512876   4.680   1.255  15.927  0.3436 -0.0056  0.2446
  874MPD2     H12877   4.704   0.924  16.100 -1.0720  0.0501 -0.2954
  874MPD2    H112878   0.148   1.258  15.919 -0.7874  0.1464 -1.4402
  874MPD2    H212879   4.473   1.242  15.934  0.0867 -0.2894 -0.7094
  874MPD2    H312880   4.676   1.361  15.903 -0.4390 -0.2075 -0.5253
  874MPD2     N12881   0.205   1.023  16.044  0.2418 -0.1934 -0.2675
  874MPD2    H512882   0.284   1.081  16.019 -0.9880  1.4959 -0.2449
  874MPD2    N112883   4.454   0.999  16.038 -0.6178 -0.6718  0.2185
  874MPD2    H712884   4.373   1.056  16.020 -0.9607 -0.4825  2.3693
  875MPD2     C12885   1.324   4.215  14.733 -0.1408 -0.0478 -0.4484
  875MPD2    C112886   1.207   4.254  14.792 -0.1389 -0.6342 -0.2532
  875MPD2    C212887   1.189   4.252  14.927  0.2301 -0.7912 -0.7920
  875MPD2    C312888   1.292   4.201  15.007  0.8493  0.5564 -0.0182
  875MPD2    C412889   1.407   4.159  14.951 -0.0751 -0.0058 -0.4272
  875MPD2    C512890   1.429   4.174  14.816  0.2978  0.3564  0.3948
  875MPD2     H12891   1.091   4.283  14.964  0.3159  0.2239 -1.4151
  875MPD2    H112892   1.496   4.134  15.008  0.6430 -3.2522 -2.9346
  875MPD2    H212893   1.342   4.221  14.626  0.9583 -1.5371 -0.3510
  875MPD2    H312894   1.517   4.133  14.767 -1.1975 -0.7597 -1.3821
  875MPD2     N12895   1.287   4.187  15.153  0.1434  0.3742  0.1300
  875MPD2    H512896   1.366   4.153  15.205 -0.4521 -1.2286 -0.0110
  875MPD2    N112897   1.097   4.297  14.723 -0.2580 -0.3151 -0.2922
  875MPD2    H712898   1.012   4.316  14.775  0.5200 -0.1365  0.9042
  876MPD2     C12899   4.303   0.782  15.749  0.8490  0.2492 -0.7875
  876MPD2    C112900   4.431   0.734  15.759  0.7679 -0.2866 -0.2176
  876MPD2    C212901   4.449   0.604  15.796  0.0735 -0.1752  0.3826
  876MPD2    C312902   4.347   0.527  15.850  0.2723 -0.3056 -0.0533
  876MPD2    C412903   4.215   0.581  15.847 -0.0038  0.4412 -0.2883
  876MPD2    C512904   4.196   0.705  15.787  0.3992 -0.6237  0.1247
  876MPD2     H12905   4.548   0.560  15.804 -0.2266 -0.9951 -0.4695
  876MPD2    H112906   4.124   0.533  15.881 -0.1810  0.8240 -0.2201
  876MPD2    H212907   4.291   0.884  15.713  1.1102  0.1406 -1.1870
  876MPD2    H312908   4.095   0.743  15.776 -0.2442 -2.3555  0.0652
  876MPD2     N12909   4.373   0.400  15.896  0.1263  0.4737  0.4268
  876MPD2    H512910   4.465   0.360  15.877  0.7653  1.1267  2.1591
  876MPD2    N112911   4.541   0.808  15.720  0.8724  0.1099 -0.4288
  876MPD2    H712912   4.519   0.901  15.685  0.2914 -0.0087 -0.3803
  877MPD2     C12913   4.614   1.267  15.200  0.3984 -0.0125  0.8075
  877MPD2    C112914   0.005   1.265  15.232  0.7685  0.3005  0.1343
  877MPD2    C212915   0.101   1.290  15.134 -0.2558  0.2271 -0.8019
  877MPD2    C312916   0.072   1.333  15.008  0.5022 -0.3203  0.6216
  877MPD2    C412917   4.679   1.344  14.979  0.6891  1.3339 -0.5207
  877MPD2    C512918   4.581   1.309  15.073  0.5729 -0.8509 -0.4531
  877MPD2     H12919   0.204   1.281  15.165 -1.1336  1.1544  2.3595
  877MPD2    H112920   4.646   1.352  14.876  0.7283  1.1440 -0.5490
  877MPD2    H212921   4.536   1.242  15.271 -1.2630  0.6237 -0.8089
  877MPD2    H312922   4.480   1.321  15.035  0.5757 -1.3756 -0.6214
  877MPD2     N12923   0.163   1.363  14.906  0.0025  0.2578 -0.3134
  877MPD2    H512924   0.126   1.385  14.814  1.4053  1.9316 -0.4832
  877MPD2    N112925   0.044   1.214  15.360 -0.1217  0.9019 -0.0892
  877MPD2    H712926   0.144   1.205  15.374 -0.0991 -0.3774 -1.0420
  878MPD2     C12927   0.175   0.284  12.959  0.6537  0.3921  0.2758
  878MPD2    C112928   0.169   0.418  12.991  0.2163 -0.1157  0.9915
  878MPD2    C212929   0.259   0.467  13.081 -0.1893  0.0264 -0.0467
  878MPD2    C312930   0.359   0.392  13.142 -0.1516  0.2848 -0.3132
  878MPD2    C412931   0.369   0.264  13.099 -0.2331 -0.6062 -0.0515
  878MPD2    C512932   0.284   0.206  13.008  0.2918 -0.2212 -0.0792
  878MPD2     H12933   0.242   0.568  13.117 -1.7897  0.4206 -1.9200
  878MPD2    H112934   0.457   0.201  13.105 -0.9366 -1.4202  1.9919
  878MPD2    H212935   0.103   0.229  12.899 -0.2701  0.9678  0.8486
  878MPD2    H312936   0.300   0.105  12.972  0.8966 -0.7221  1.5867
  878MPD2     N12937   0.443   0.447  13.242  0.0158 -0.1717 -0.3381
  878MPD2    H512938   0.423   0.543  13.268  2.6480  0.4770 -0.8082
  878MPD2    N112939   0.066   0.495  12.942 -0.2958  0.6145 -0.0165
  878MPD2    H712940   4.735   0.439  12.891  1.7806  0.9200 -3.0916
  879MPD2     C12941   0.491   1.824  16.932 -0.5533  0.7168 -0.3028
  879MPD2    C112942   0.476   1.713  17.013  0.0479 -0.0763 -0.4243
  879MPD2    C212943   0.456   1.597  16.940 -0.4849 -0.4125 -0.0920
  879MPD2    C312944   0.446   1.596  16.801 -0.2652  1.0237  0.0312
  879MPD2    C412945   0.449   1.709  16.729  0.6339 -0.0919 -0.2108
  879MPD2    C512946   0.469   1.825  16.797  0.4299 -0.4988 -0.0332
  879MPD2     H12947   0.443   1.501  16.987  1.3929 -1.0172 -0.8043
  879MPD2    H112948   0.443   1.706  16.621  1.2652 -1.2807 -0.2215
  879MPD2    H212949   0.506   1.924  16.973  1.9788  0.7050 -1.2347
  879MPD2    H312950   0.481   1.920  16.744 -0.8346 -0.4149 -0.1684
  879MPD2     N12951   0.431   1.471  16.730  0.5790  0.2070  0.2791
  879MPD2    H512952   0.406   1.484  16.633  3.1955  1.8616 -0.1869
  879MPD2    N112953   0.491   1.731  17.156  0.2429  0.0029  0.4553
  879MPD2    H712954   0.521   1.823  17.185 -0.7731  1.1955 -2.2016
  880MPD2     C12955   1.908   3.368   0.394  0.0360 -0.7484 -0.4222
  880MPD2    C112956   1.878   3.420   0.518 -0.4485  0.2050  0.3790
  880MPD2    C212957   1.838   3.330   0.613 -0.6741 -0.4924  0.3744
  880MPD2    C312958   1.839   3.194   0.584  0.1682  0.1075 -0.5253
  880MPD2    C412959   1.876   3.144   0.464 -0.4649  0.1117  0.0911
  880MPD2    C512960   1.895   3.237   0.364  0.0869  0.5953  0.0150
  880MPD2     H12961   1.798   3.359   0.709 -0.8879 -2.7289  0.9695
  880MPD2    H112962   1.867   3.037   0.451  0.3073  0.0537  0.0660
  880MPD2    H212963   1.948   3.433   0.317 -0.6315 -2.6252 -2.3402
  880MPD2    H312964   1.919   3.203   0.264 -2.6974 -0.8324 -0.1612
  880MPD2     N12965   1.813   3.105   0.691 -0.1736  0.7432 -0.1506
  880MPD2    H512966   1.793   3.152   0.779 -0.4822 -1.0922  0.7750
  880MPD2    N112967   1.878   3.560   0.530  0.6371 -0.4848 -0.6946
  880MPD2    H712968   1.887   3.614   0.445 -1.4359  1.8698  0.5975
  881MPD2     C12969   1.666   4.431   0.070 -0.4503 -0.0279  0.3916
  881MPD2    C112970   1.759   4.327   0.060  1.0429  0.7643 -0.5017
  881MPD2    C212971   1.772   4.227   0.155 -0.6384 -0.0880 -0.0170
  881MPD2    C312972   1.684   4.225   0.263  0.5748 -0.1394 -0.8649
  881MPD2    C412973   1.592   4.327   0.272 -0.0451 -0.2270  0.1744
  881MPD2    C512974   1.582   4.432   0.178  0.5508  0.0487  0.3021
  881MPD2     H12975   1.854   4.156   0.153  0.2085  0.8828  0.2286
  881MPD2    H112976   1.528   4.336   0.359  2.9323  2.1970  2.1187
  881MPD2    H212977   1.640   4.497  17.736  2.9739  0.0498 -0.6434
  881MPD2    H312978   1.515   4.517   0.192 -1.9061 -1.4461 -2.3810
  881MPD2     N12979   1.702   4.133   0.371  0.1120 -0.5018 -0.4287
  881MPD2    H512980   1.651   4.165   0.453  1.1975  1.0501 -0.3535
  881MPD2    N112981   1.811   4.310  17.680  0.3569  0.0759 -0.1748
  881MPD2    H712982   1.784   4.388  17.620 -0.1241 -0.0027 -0.0653
  882MPD2     C12983   0.161   1.096  14.215 -0.3858  0.1171 -0.5222
  882MPD2    C112984   0.120   1.188  14.315  0.1591  0.8187  0.4336
  882MPD2    C212985   4.726   1.182  14.351 -0.8636  1.0354 -0.5659
  882MPD2    C312986   4.639   1.091  14.293  0.1715  0.2446  0.1610
  882MPD2    C412987   4.689   1.001  14.206 -0.2199  0.3505 -0.1344
  882MPD2    C512988   0.078   1.000  14.165 -0.1125 -0.1743 -0.2889
  882MPD2     H12989   4.687   1.246  14.429  0.5699 -0.5263  1.4278
  882MPD2    H112990   4.628   0.920  14.167 -1.1375  1.2163 -0.4860
  882MPD2    H212991   0.262   1.080  14.177 -0.0040  0.2531  0.4253
  882MPD2    H312992   0.116   0.927  14.095 -1.2187  0.3902 -1.4630
  882MPD2     N12993   4.500   1.085  14.314 -0.3970  0.0318  0.1746
  882MPD2    H512994   4.441   1.016  14.268 -0.7456 -0.8128  1.8746
  882MPD2    N112995   0.217   1.270  14.377  0.0653 -0.5661  0.3938
  882MPD2    H712996   0.306   1.282  14.330 -0.8149 -2.2091 -1.6639
  883MPD2     C12997   2.057   0.795  15.776 -0.4177  0.2274  0.2792
  883MPD2    C112998   1.968   0.897  15.788  0.5625 -0.1945 -0.5111
  883MPD2    C212999   1.997   1.011  15.864 -0.4741 -0.3147 -1.1766
  883MPD2    C313000   2.119   1.022  15.925  0.3047 -0.3595  0.4231
  883MPD2    C413001   2.213   0.924  15.910 -0.2439  0.8763 -0.0483
  883MPD2    C513002   2.185   0.809  15.828  0.7096  0.2373 -0.3649
  883MPD2     H13003   1.930   1.096  15.865 -0.0152 -0.0179  2.4093
  883MPD2    H113004   2.313   0.924  15.951 -0.8016 -0.3678  1.3024
  883MPD2    H213005   2.037   0.713  15.708 -0.6283  0.4223  0.1078
  883MPD2    H313006   2.258   0.730  15.814 -0.1811 -0.8390  1.0605
  883MPD2     N13007   2.150   1.136  16.001  0.2436 -1.0102 -0.0043
  883MPD2    H513008   2.249   1.157  16.004  0.3769 -2.0506  3.0329
  883MPD2    N113009   1.854   0.896  15.715  0.6153  1.0712 -0.0246
  883MPD2    H713010   1.804   0.984  15.730  1.5052  2.0044 -2.5368
  884MPD2     C13011   3.836   1.782  15.322 -0.9781 -0.0408  0.2570
  884MPD2    C113012   3.851   1.876  15.227  0.8028  0.6568 -0.4849
  884MPD2    C213013   3.767   1.986  15.227 -0.0959  0.2184 -0.0984
  884MPD2    C313014   3.659   2.004  15.313  0.9605 -0.0910 -0.3727
  884MPD2    C413015   3.646   1.904  15.409 -0.0253  0.1421  0.5310
  884MPD2    C513016   3.734   1.799  15.412  0.3784  0.3124 -0.7051
  884MPD2     H13017   3.791   2.054  15.146 -0.5821 -1.1126 -1.3391
  884MPD2    H113018   3.566   1.903  15.482  1.4721 -0.4640  2.1697
  884MPD2    H213019   3.892   1.690  15.326 -2.2109 -0.7000  2.5751
  884MPD2    H313020   3.728   1.719  15.485 -1.5512  0.7358 -0.4050
  884MPD2     N13021   3.579   2.119  15.290 -0.2354 -0.4381  0.0348
  884MPD2    H513022   3.590   2.164  15.200 -1.7498  1.0743  0.6114
  884MPD2    N113023   3.959   1.874  15.131  0.4454  0.1869  0.2195
  884MPD2    H713024   3.973   1.955  15.072 -0.8564  0.8587  0.8293
  885MPD2     C13025   2.118   2.466   0.376  0.0462 -0.6689  0.5620
  885MPD2    C113026   2.201   2.362   0.336  0.3047  0.4391  0.4458
  885MPD2    C213027   2.223   2.348   0.200 -0.6020  0.8098 -0.2200
  885MPD2    C313028   2.187   2.447   0.108  0.4095  0.3188 -0.2080
  885MPD2    C413029   2.123   2.561   0.155  1.2915  0.0315  0.3773
  885MPD2    C513030   2.092   2.569   0.288  0.2386  0.7980 -0.7194
  885MPD2     H13031   2.262   2.259   0.151 -1.8837 -1.1320  2.3424
  885MPD2    H113032   2.097   2.645   0.093 -1.4384 -1.4346 -0.4628
  885MPD2    H213033   2.080   2.475   0.477  1.2990  1.9555  0.7933
  885MPD2    H313034   2.047   2.663   0.317  0.6228  0.2812  1.5523
  885MPD2     N13035   2.212   2.424  17.711  0.8394  0.3620 -0.4487
  885MPD2    H513036   2.276   2.349  17.685 -0.2748 -0.6609 -0.2448
  885MPD2    N113037   2.241   2.270   0.436  0.3006  0.3683  1.0792
  885MPD2    H713038   2.202   2.288   0.528 -1.0310  1.6730  0.2703
  886MPD2     C13039   3.149   0.869  15.367 -0.4042 -0.3431 -0.5315
  886MPD2    C113040   3.274   0.836  15.329 -0.1129  0.4241 -0.4600
  886MPD2    C213041   3.344   0.920  15.241 -0.4231 -0.5384 -0.4570
  886MPD2    C313042   3.288   1.035  15.193  0.6804  0.2446 -0.2181
  886MPD2    C413043   3.157   1.065  15.225  0.3841  0.3193  0.4361
  886MPD2    C513044   3.089   0.985  15.313  0.0231  0.2942 -0.1482
  886MPD2     H13045   3.447   0.894  15.221 -0.8086 -1.8082 -0.8044
  886MPD2    H113046   3.109   1.156  15.192  3.0267  1.5906  0.0662
  886MPD2    H213047   3.095   0.816  15.444  1.6279  1.3703  2.1064
  886MPD2    H313048   2.996   1.030  15.347  0.3326  0.2677  0.7495
  886MPD2     N13049   3.357   1.128  15.121 -0.2712  0.5278 -0.7109
  886MPD2    H513050   3.315   1.216  15.093 -1.4042  0.4852  0.8736
  886MPD2    N113051   3.352   0.727  15.385 -0.3150 -0.7765 -0.0168
  886MPD2    H713052   3.446   0.708  15.353  0.0330  0.4844  0.2671
  887MPD2     C13053   4.019   0.522  15.478 -0.2973 -0.3620 -0.1223
  887MPD2    C113054   3.910   0.596  15.457  0.2345 -0.6380 -0.9756
  887MPD2    C213055   3.925   0.734  15.433  0.2987  0.4081 -0.0144
  887MPD2    C313056   4.051   0.793  15.414 -0.0779 -0.2577  0.4087
  887MPD2    C413057   4.160   0.709  15.432  0.2875 -0.4327  0.5052
  887MPD2    C513058   4.146   0.577  15.472 -0.7521  0.2330 -0.0894
  887MPD2     H13059   3.832   0.788  15.422 -0.9294 -1.1658  2.6297
  887MPD2    H113060   4.265   0.736  15.418  0.2752  0.5941  2.4941
  887MPD2    H213061   3.998   0.417  15.497 -0.3988  0.0307  1.9609
  887MPD2    H313062   4.229   0.509  15.487  0.8441  2.2663  0.2987
  887MPD2     N13063   4.058   0.921  15.361  0.2079  0.3397 -0.0163
  887MPD2    H513064   3.966   0.962  15.351 -0.8778 -2.1980 -0.3177
  887MPD2    N113065   3.775   0.546  15.468  0.6050  0.5478  0.8259
  887MPD2    H713066   3.711   0.624  15.475 -1.2377 -1.0252  1.3431
  888MPD2     C13067   1.122   0.715  14.663 -0.1725 -0.7081 -0.1485
  888MPD2    C113068   1.082   0.767  14.790 -0.6938 -0.8149 -0.3672
  888MPD2    C213069   1.138   0.883  14.835 -0.3718 -0.2602  0.5018
  888MPD2    C313070   1.216   0.968  14.764 -0.3263  0.2299  0.0104
  888MPD2    C413071   1.253   0.919  14.639 -0.2920  0.0846  0.5675
  888MPD2    C513072   1.210   0.796  14.594  0.1756 -0.5581 -0.5666
  888MPD2     H13073   1.092   0.926  14.924  0.4428 -1.5252  1.5414
  888MPD2    H113074   1.315   0.977  14.572  0.7381 -1.8407 -0.1636
  888MPD2    H213075   1.079   0.630  14.612  0.1600  0.3857 -2.2403
  888MPD2    H313076   1.251   0.760  14.500  0.6323  0.2929 -0.6927
  888MPD2     N13077   1.261   1.099  14.815  0.2907  0.8055 -0.1428
  888MPD2    H513078   1.217   1.122  14.903 -0.1806  0.5303 -0.3058
  888MPD2    N113079   0.985   0.705  14.859  0.6271  0.2246 -0.2599
  888MPD2    H713080   0.979   0.740  14.955  2.5014  0.8837 -0.3943
  889MPD2     C13081   0.784   0.521  12.949  0.1334  0.1462  0.0963
  889MPD2    C113082   0.834   0.466  13.067  0.5478 -0.6348 -0.4449
  889MPD2    C213083   0.833   0.547  13.183 -0.3609 -0.0668  0.0449
  889MPD2    C313084   0.791   0.682  13.175  0.0077 -0.0749  0.5764
  889MPD2    C413085   0.752   0.732  13.053  0.6358 -0.3685  0.2617
  889MPD2    C513086   0.750   0.654  12.941 -0.6303  0.1777  0.5312
  889MPD2     H13087   0.848   0.507  13.283  0.5666  2.0621  0.7621
  889MPD2    H113088   0.718   0.834  13.041  0.6264 -0.3769  0.2190
  889MPD2    H213089   0.790   0.467  12.855  1.5867 -1.1445  0.9372
  889MPD2    H313090   0.731   0.698  12.844  3.2850  1.4174  0.3439
  889MPD2     N13091   0.793   0.756  13.292  0.4101  0.3144 -0.1954
  889MPD2    H513092   0.845   0.716  13.369  1.8403 -0.2014 -1.4276
  889MPD2    N113093   0.836   0.321  13.085  1.0232  0.1551  0.1998
  889MPD2    H713094   0.852   0.289  13.180 -3.5124  3.5034  2.1085
  890MPD2     C13095   0.408   1.923  14.550 -0.4323  0.6095 -0.7114
  890MPD2    C113096   0.525   1.926  14.619 -0.1734  0.1932 -0.4313
  890MPD2    C213097   0.537   1.843  14.733  0.7000  0.0632 -0.1650
  890MPD2    C313098   0.425   1.779  14.782  0.0634  0.4723  0.5019
  890MPD2    C413099   0.310   1.773  14.709 -0.0239 -0.0633  0.1334
  890MPD2    C513100   0.303   1.847  14.596 -0.1484 -0.1626 -0.1764
  890MPD2     H13101   0.630   1.855  14.788 -0.1077 -0.3958  1.3068
  890MPD2    H113102   0.222   1.720  14.742  0.1624 -1.2856 -1.3630
  890MPD2    H213103   0.397   1.998  14.473 -0.7035  0.6636 -0.6200
  890MPD2    H313104   0.210   1.855  14.541 -0.5445  0.7899  0.6264
  890MPD2     N13105   0.435   1.735  14.913  0.2478  0.0396 -0.1181
  890MPD2    H513106   0.519   1.750  14.967  0.3490 -1.2021  0.0826
  890MPD2    N113107   0.614   2.036  14.597 -0.5378 -0.2732 -0.9898
  890MPD2    H713108   0.597   2.103  14.523 -2.2323  0.4136  0.0269
  891MPD2     C13109   2.574   0.576  16.792 -1.0055 -0.1863  0.2867
  891MPD2    C113110   2.562   0.708  16.768 -0.7917  0.0288  0.0216
  891MPD2    C213111   2.651   0.793  16.820 -0.5577  0.6324 -0.7218
  891MPD2    C313112   2.742   0.747  16.920 -0.4501  0.0021 -0.6333
  891MPD2    C413113   2.744   0.614  16.945  0.2866 -0.2754 -0.5236
  891MPD2    C513114   2.665   0.529  16.877  0.2860  0.4344  0.1630
  891MPD2     H13115   2.646   0.899  16.795 -0.1021  0.8840  0.2567
  891MPD2    H113116   2.815   0.569  17.014  0.4569  0.4182 -0.2437
  891MPD2    H213117   2.517   0.499  16.741 -1.9123  1.1727 -0.7567
  891MPD2    H313118   2.688   0.423  16.882  0.2146  0.3299 -1.7512
  891MPD2     N13119   2.836   0.829  16.982  0.6190 -0.0538 -0.2643
  891MPD2    H513120   2.914   0.780  17.025 -0.5869 -0.5823  1.3206
  891MPD2    N113121   2.473   0.739  16.665 -0.1488 -0.3340  0.7389
  891MPD2    H713122   2.420   0.659  16.632  0.6435 -0.0313 -1.2632
  892MPD2     C13123   3.917   1.857  14.380 -0.7546  0.1807  0.5044
  892MPD2    C113124   3.848   1.771  14.467 -0.5453 -0.7404  0.3291
  892MPD2    C213125   3.892   1.643  14.481  0.6541  0.4385  0.2132
  892MPD2    C313126   3.987   1.593  14.390 -0.2198  0.2311 -0.2253
  892MPD2    C413127   4.041   1.679  14.293 -0.2972 -0.0007  0.2933
  892MPD2    C513128   4.021   1.813  14.295 -0.4728 -0.7276  0.3252
  892MPD2     H13129   3.849   1.579  14.557 -1.0894 -0.5031 -1.5632
  892MPD2    H113130   4.112   1.633  14.225 -2.3152 -1.2577 -0.9514
  892MPD2    H213131   3.886   1.961  14.378 -0.6127  0.3242  4.4034
  892MPD2    H313132   4.078   1.875  14.226 -0.5543 -0.8431  0.1540
  892MPD2     N13133   4.038   1.462  14.385  0.4915 -0.0184 -0.3835
  892MPD2    H513134   4.103   1.436  14.311  1.9031  0.5400  0.6708
  892MPD2    N113135   3.749   1.828  14.547 -0.4571 -0.2363  0.4374
  892MPD2    H713136   3.707   1.917  14.521  0.7676  0.0659 -0.4843
  893MPD2     C13137   0.341   4.382   1.690 -0.7472 -0.1955  0.3303
  893MPD2    C113138   0.335   4.441   1.570  0.0953 -0.1534 -0.7321
  893MPD2    C213139   0.218   4.446   1.501 -0.0344  0.0374  0.3243
  893MPD2    C313140   0.101   4.405   1.570 -0.3980  0.7793 -0.0728
  893MPD2    C413141   0.109   4.355   1.695 -0.4994 -0.4807 -0.3697
  893MPD2    C513142   0.228   4.344   1.753 -0.1792 -0.2834 -0.1735
  893MPD2     H13143   0.221   4.478   1.398 -1.2361  1.7468  0.8098
  893MPD2    H113144   0.021   4.322   1.749 -1.7135  0.8067 -1.5683
  893MPD2    H213145   0.437   4.361   1.736 -0.2969  0.6227 -0.2368
  893MPD2    H313146   0.225   4.305   1.854  2.3991  0.1359  0.0591
  893MPD2     N13147   4.709   4.410   1.522  0.0280  0.0752  0.3307
  893MPD2    H513148   4.639   4.361   1.576 -1.6109  1.1735 -0.8317
  893MPD2    N113149   0.462   4.466   1.521  0.0879  0.6932 -0.2730
  893MPD2    H713150   0.539   4.434   1.579  0.7184  2.0454 -0.3589
  894MPD2     C13151   4.209   2.472   1.290 -0.2067  0.0526  0.0575
  894MPD2    C113152   4.088   2.487   1.355  0.4470  0.5810  0.3786
  894MPD2    C213153   4.049   2.608   1.404  0.9989  0.0423  0.2505
  894MPD2    C313154   4.129   2.719   1.390  0.0671 -0.2486 -0.3500
  894MPD2    C413155   4.237   2.710   1.310  0.2523 -0.7627  1.0260
  894MPD2    C513156   4.274   2.587   1.262 -0.2957  0.3916  0.3101
  894MPD2     H13157   3.953   2.615   1.453  1.2881 -1.0848  0.9778
  894MPD2    H113158   4.315   2.781   1.281  0.0094 -2.3077 -3.4748
  894MPD2    H213159   4.246   2.380   1.246 -0.7728 -0.5291  0.7838
  894MPD2    H313160   4.357   2.586   1.192 -0.9543  0.8174 -0.4651
  894MPD2     N13161   4.087   2.840   1.455 -0.2032 -0.4533 -0.7221
  894MPD2    H513162   4.000   2.837   1.508  1.8383 -2.6041  2.5053
  894MPD2    N113163   4.004   2.380   1.380 -0.8073  0.1984 -0.6128
  894MPD2    H713164   3.914   2.398   1.423 -1.0405  1.3051 -1.5722
  895MPD2     C13165   3.330   0.720  13.985  0.6369  1.2899  0.1424
  895MPD2    C113166   3.246   0.698  13.875 -0.5936  0.5872  0.2725
  895MPD2    C213167   3.233   0.572  13.833  0.1055  0.7938 -0.8208
  895MPD2    C313168   3.287   0.464  13.892 -0.1271  0.6656 -0.8580
  895MPD2    C413169   3.379   0.493  13.990  0.4805  0.7480  0.6248
  895MPD2    C513170   3.392   0.613  14.043  0.2500  0.4501  0.9407
  895MPD2     H13171   3.148   0.561  13.766 -0.2205 -0.3890 -0.2120
  895MPD2    H113172   3.440   0.412  14.028 -0.3424  0.6085  1.6489
  895MPD2    H213173   3.347   0.822  14.020 -0.8745  0.6288  2.7721
  895MPD2    H313174   3.449   0.634  14.132 -1.0613  0.0839  1.8544
  895MPD2     N13175   3.279   0.326  13.843 -0.1986  0.9126  0.2906
  895MPD2    H513176   3.302   0.251  13.908  2.0808  1.3155 -0.0726
  895MPD2    N113177   3.166   0.797  13.808  0.6098 -0.1322 -0.1466
  895MPD2    H713178   3.100   0.771  13.736  1.1755  2.0098 -1.4280
  896MPD2     C13179   0.953   3.284   1.407  0.1001 -0.0486 -0.5027
  896MPD2    C113180   0.933   3.196   1.307  0.1553  0.1164  0.0842
  896MPD2    C213181   0.804   3.148   1.288  0.0087  0.3027  0.2001
  896MPD2    C313182   0.703   3.183   1.375  0.0523 -0.7424 -0.1200
  896MPD2    C413183   0.734   3.259   1.483  0.7264  0.8319  0.9399
  896MPD2    C513184   0.855   3.324   1.497 -0.2939  0.3306 -0.1858
  896MPD2     H13185   0.789   3.079   1.206 -2.0681  2.0410 -0.8774
  896MPD2    H113186   0.656   3.290   1.552 -1.9001 -0.0652 -1.6305
  896MPD2    H213187   1.052   3.320   1.429  0.4281 -0.4990 -1.2340
  896MPD2    H313188   0.874   3.393   1.578  0.1992 -0.7096  0.5825
  896MPD2     N13189   0.570   3.129   1.360 -0.8402  0.4521 -0.6361
  896MPD2    H513190   0.554   3.058   1.290  1.5915  0.7108 -1.4578
  896MPD2    N113191   1.039   3.159   1.229  0.2191 -0.7065 -0.2952
  896MPD2    H713192   1.129   3.189   1.264  0.4409 -1.2419 -0.4101
  897MPD2     C13193   1.649   0.438  10.333 -0.4608  0.0268 -0.5466
  897MPD2    C113194   1.604   0.530  10.423  0.3560 -0.1927 -0.3843
  897MPD2    C213195   1.560   0.493  10.554  0.3927  0.4504 -0.1853
  897MPD2    C313196   1.567   0.360  10.587 -0.0566 -0.5865 -1.0502
  897MPD2    C413197   1.615   0.266  10.501  0.6278 -0.3011  0.3050
  897MPD2    C513198   1.645   0.301  10.373 -0.0991 -0.0470 -0.2512
  897MPD2     H13199   1.504   0.556  10.622  1.3631  0.3047  0.7461
  897MPD2    H113200   1.620   0.160  10.524  2.8304 -0.2491  0.1338
  897MPD2    H213201   1.686   0.463  10.234 -2.3806  1.0539 -1.0166
  897MPD2    H313202   1.672   0.232  10.294 -1.5857 -1.0039  0.0846
  897MPD2     N13203   1.525   0.332  10.718  0.0102  0.0406  0.7550
  897MPD2    H513204   1.481   0.411  10.764 -1.9102 -0.8337  0.4621
  897MPD2    N113205   1.607   0.667  10.377  0.3077 -0.3672  0.2194
  897MPD2    H713206   1.647   0.681  10.285  3.4423  1.7602  1.9337
  898MPD2     C13207   4.174   0.668   0.466 -0.4069 -0.0195 -0.0058
  898MPD2    C113208   4.079   0.648   0.564  0.0957  0.0132  0.1216
  898MPD2    C213209   3.959   0.715   0.555 -0.3743  0.2399  0.2804
  898MPD2    C313210   3.936   0.797   0.449  0.1807 -0.1428  0.6355
  898MPD2    C413211   4.030   0.813   0.349  0.2019  0.0263 -0.0614
  898MPD2    C513212   4.153   0.757   0.366  0.4531 -0.7097 -0.1634
  898MPD2     H13213   3.880   0.710   0.629  0.3739 -0.9225  0.9831
  898MPD2    H113214   4.018   0.886   0.270  1.7778 -0.4512 -0.7388
  898MPD2    H213215   4.269   0.617   0.464 -0.0110  0.7059  0.1266
  898MPD2    H313216   4.232   0.785   0.298  0.0450  1.4095  0.2542
  898MPD2     N13217   3.815   0.872   0.457  0.4444 -0.8528  0.3206
  898MPD2    H513218   3.774   0.870   0.550 -1.4738  0.2191 -0.4900
  898MPD2    N113219   4.108   0.566   0.675  0.9191  0.2184 -0.0987
  898MPD2    H713220   4.034   0.580   0.743 -0.5990  1.2591 -1.9723
  899MPD2     C13221   4.376   1.648   0.168  0.2716  0.6541 -1.0275
  899MPD2    C113222   4.390   1.787   0.162  0.0793 -0.0276 -0.5724
  899MPD2    C213223   4.339   1.863   0.265 -0.3045  0.6868  0.0931
  899MPD2    C313224   4.292   1.806   0.381 -0.4427 -0.3177  0.4724
  899MPD2    C413225   4.286   1.671   0.387  0.2339 -0.6546  0.4673
  899MPD2    C513226   4.326   1.593   0.282 -0.6139 -0.0782  0.6068
  899MPD2     H13227   4.352   1.971   0.259 -1.1258  0.7228 -1.0306
  899MPD2    H113228   4.237   1.623   0.471 -2.9658  0.4185 -0.7622
  899MPD2    H213229   4.407   1.579   0.089  1.7900  0.7281 -0.5054
  899MPD2    H313230   4.314   1.485   0.286  2.9857 -0.5783 -2.3698
  899MPD2     N13231   4.242   1.892   0.490 -0.1380  0.2089 -0.3418
  899MPD2    H513232   4.228   1.842   0.578 -1.2897  0.6859 -0.2622
  899MPD2    N113233   4.441   1.839   0.043 -0.5075 -0.2554 -0.8259
  899MPD2    H713234   4.456   1.771  17.717 -0.4435  0.0615 -1.1094
  900MPD2     C13235   4.412   3.242  12.768  0.1907 -0.5948 -0.4922
  900MPD2    C113236   4.357   3.146  12.691  0.2670  0.7382  0.7002
  900MPD2    C213237   4.246   3.182  12.622 -0.0050 -0.3141  0.2045
  900MPD2    C313238   4.178   3.303  12.639 -0.0185  0.1295 -0.3003
  900MPD2    C413239   4.232   3.389  12.724  0.1731 -0.6100 -0.3265
  900MPD2    C513240   4.350   3.364  12.778  0.8215 -0.0190 -0.0943
  900MPD2     H13241   4.210   3.113  12.547 -1.6810  0.8711 -0.0979
  900MPD2    H113242   4.183   3.484  12.742  0.9254 -0.2031 -0.4113
  900MPD2    H213243   4.503   3.224  12.825  0.2188 -1.5614 -0.8305
  900MPD2    H313244   4.393   3.435  12.847  0.9656 -0.6433  0.4658
  900MPD2     N13245   4.063   3.330  12.563  0.0388  0.0596 -0.2105
  900MPD2    H513246   4.013   3.264  12.504  1.4806 -0.2972 -1.0530
  900MPD2    N113247   4.424   3.029  12.659  0.0064  0.1099  0.9200
  900MPD2    H713248   4.509   3.011  12.711  0.9688  0.1007 -0.6332
  901MPD2     C13249   4.250   2.160  12.139 -0.0007  0.3380  0.3924
  901MPD2    C113250   4.275   2.154  12.272 -0.1919  0.0455 -0.0939
  901MPD2    C213251   4.317   2.271  12.329 -0.3640  0.3119 -0.8589
  901MPD2    C313252   4.330   2.388  12.256  0.0916 -0.1971  0.2029
  901MPD2    C413253   4.301   2.385  12.126  0.0258 -0.5569  0.2855
  901MPD2    C513254   4.262   2.272  12.064 -0.2391 -0.5565  0.1107
  901MPD2     H13255   4.347   2.272  12.433  0.4969  0.9593 -1.1131
  901MPD2    H113256   4.305   2.467  12.056 -3.0091  0.1903  1.0062
  901MPD2    H213257   4.226   2.072  12.081 -1.3464  0.8775  0.1513
  901MPD2    H313258   4.236   2.269  11.959 -1.8860  0.6547  0.4753
  901MPD2     N13259   4.390   2.506  12.308  0.0952 -0.5253  0.4526
  901MPD2    H513260   4.414   2.496  12.406  1.7484  1.5654  0.2605
  901MPD2    N113261   4.267   2.025  12.335 -0.1484 -0.4980  0.3810
  901MPD2    H713262   4.243   1.945  12.276 -1.1877 -1.6015  2.3129
  902MPD2     C13263   3.742   0.807  12.420 -0.5464  0.0217 -0.0916
  902MPD2    C113264   3.619   0.784  12.380 -0.5384  0.4174 -0.0226
  902MPD2    C213265   3.588   0.658  12.338  0.3697  0.1009 -0.1723
  902MPD2    C313266   3.682   0.558  12.324 -0.4295  0.1430 -0.1000
  902MPD2    C413267   3.809   0.590  12.360 -0.0011 -0.3802  0.0838
  902MPD2    C513268   3.834   0.712  12.417  0.1572 -0.6186 -0.6082
  902MPD2     H13269   3.488   0.642  12.298 -0.7521 -0.6764  2.9435
  902MPD2    H113270   3.887   0.514  12.354 -1.0318 -1.4093 -0.1926
  902MPD2    H213271   3.773   0.908  12.446 -0.9371 -0.5779  2.6732
  902MPD2    H313272   3.934   0.742  12.448 -0.3607 -0.3330  0.8120
  902MPD2     N13273   3.653   0.437  12.263  0.5533  0.3325  0.5081
  902MPD2    H513274   3.733   0.381  12.234 -1.3533 -1.5620 -1.0590
  902MPD2    N113275   3.531   0.892  12.389 -0.5410  0.3480 -0.5312
  902MPD2    H713276   3.570   0.980  12.420  1.9150 -1.3470  1.2143
  903MPD2     C13277   3.090   4.541  11.860  0.3201 -0.4831 -0.1705
  903MPD2    C113278   3.088   4.661  11.937  0.9705 -0.0942 -0.1150
  903MPD2    C213279   2.969   4.721  11.963  0.3848  0.8198 -0.5456
  903MPD2    C313280   2.845   4.671  11.930  0.2495 -0.7861  0.1900
  903MPD2    C413281   2.848   4.562  11.847 -0.2033  0.0303 -0.6295
  903MPD2    C513282   2.971   4.506  11.811  0.3422  0.5885 -0.2000
  903MPD2     H13283   2.968   0.061  12.039  0.3104  1.6637 -1.4085
  903MPD2    H113284   2.756   4.521  11.808  1.3171 -2.7214 -1.2858
  903MPD2    H213285   3.175   4.475  11.847  2.5386  2.5510 -1.0387
  903MPD2    H313286   2.963   4.421  11.744  1.4515 -0.2680  0.7417
  903MPD2     N13287   2.731   4.731  11.981  0.0927  0.3448 -0.2870
  903MPD2    H513288   2.733   0.072  12.046  0.5690 -0.6562  0.8929
  903MPD2    N113289   3.216   4.709  11.974 -0.2610  0.3095 -0.4131
  903MPD2    H713290   3.294   4.652  11.946 -1.0007 -1.5743  1.3843
  904MPD2     C13291   3.107   4.707  14.704  0.1352 -0.3801 -0.5318
  904MPD2    C113292   3.131   0.088  14.635  0.2874  0.0045 -0.2995
  904MPD2    C213293   3.261   0.127  14.613  0.0287  0.9209  0.3356
  904MPD2    C313294   3.365   0.052  14.666 -0.1141  0.4583 -0.0838
  904MPD2    C413295   3.334   4.674  14.730  0.5329  0.4450  0.4399
  904MPD2    C513296   3.206   4.630  14.743  0.7850 -0.7165  0.1666
  904MPD2     H13297   3.280   0.217  14.554 -1.6241  1.8876  1.2894
  904MPD2    H113298   3.409   4.600  14.759  1.0187  1.0868  0.8306
  904MPD2    H213299   3.006   4.671  14.722  0.5824 -1.3280  0.0443
  904MPD2    H313300   3.180   4.535  14.788  1.4725 -0.5562  0.9159
  904MPD2     N13301   3.495   0.086  14.632  0.1218  0.0106  0.3829
  904MPD2    H513302   3.509   0.175  14.584 -1.0841  0.2747  0.5247
  904MPD2    N113303   3.028   0.159  14.564 -0.0114  0.3234  0.0058
  904MPD2    H713304   3.050   0.250  14.525  0.4340 -1.1840 -3.2057
  905MPD2     C13305   2.491   4.722  14.009  0.4929  0.3016 -0.9631
  905MPD2    C113306   2.595   0.067  14.012 -0.3818 -0.2587  0.7858
  905MPD2    C213307   2.693   0.055  13.915  0.3092 -0.3425 -0.2237
  905MPD2    C313308   2.677   4.694  13.821  0.4779  0.4795  0.8806
  905MPD2    C413309   2.561   4.616  13.814 -0.1942 -0.0839 -1.1531
  905MPD2    C513310   2.474   4.629  13.909 -1.0060 -0.4103  0.3447
  905MPD2     H13311   2.791   0.103  13.919 -0.1320  0.7865 -2.6277
  905MPD2    H113312   2.549   4.539  13.738 -0.4465 -2.3626  1.1849
  905MPD2    H213313   2.408   4.727  14.078  1.4206 -1.8601  0.3024
  905MPD2    H313314   2.382   4.572  13.905 -1.4824  0.3658  0.3371
  905MPD2     N13315   2.793   4.677  13.738  0.5379 -0.0958  0.9833
  905MPD2    H513316   2.800   4.584  13.697  1.3236  0.3938  0.0116
  905MPD2    N113317   2.606   0.159  14.122 -0.6628  0.5980 -0.1347
  905MPD2    H713318   2.544   0.145  14.201 -1.0143 -3.4874 -1.1156
  906MPD2     C13319   0.158   0.207  11.738 -0.2144  0.2111  0.3446
  906MPD2    C113320   0.118   0.170  11.612 -0.1453 -0.4052 -0.2893
  906MPD2    C213321   0.007   0.086  11.598  0.1474 -0.3140 -0.5234
  906MPD2    C313322   4.685   0.032  11.714  0.1312  0.2515  0.7965
  906MPD2    C413323   4.729   0.074  11.839  0.0171  0.2002 -0.1166
  906MPD2    C513324   0.091   0.164  11.849 -0.7362 -0.7961 -0.9849
  906MPD2     H13325   4.716   0.053  11.499 -1.0175 -0.4268 -0.1498
  906MPD2    H113326   4.686   0.042  11.933  0.8587  1.3360  0.6493
  906MPD2    H213327   0.246   0.267  11.756 -1.0845  1.2201  1.2371
  906MPD2    H313328   0.120   0.192  11.950 -1.4484  1.8885 -1.5326
  906MPD2     N13329   4.576   4.676  11.690  0.2306  0.4671 -0.1213
  906MPD2    H513330   4.558   4.648  11.594  1.7704 -2.7551  0.5117
  906MPD2    N113331   0.192   0.217  11.500  0.2220 -0.1413  0.3050
  906MPD2    H713332   0.181   0.176  11.408  2.4577 -0.9069  0.3641
  907MPD2     C13333   4.116   4.114  16.067  0.0397  0.0291  0.1357
  907MPD2    C113334   4.067   3.994  16.020  0.4030  0.4450 -0.2114
  907MPD2    C213335   4.107   3.878  16.082 -0.3016  0.3695  0.4003
  907MPD2    C313336   4.196   3.875  16.185 -0.0201 -0.5778  0.3995
  907MPD2    C413337   4.249   3.998  16.232  0.6856 -0.1664  0.1075
  907MPD2    C513338   4.209   4.113  16.172 -0.8552 -0.0320  0.2326
  907MPD2     H13339   4.069   3.784  16.045 -0.4476  0.7450 -0.4085
  907MPD2    H113340   4.322   4.009  16.311 -0.3310  0.4773  0.9654
  907MPD2    H213341   4.089   4.211  16.028 -1.0676 -1.0708 -1.8207
  907MPD2    H313342   4.250   4.205  16.211 -2.3630  0.0966  1.5305
  907MPD2     N13343   4.233   3.753  16.240 -0.5215 -0.1191 -0.0844
  907MPD2    H513344   4.188   3.673  16.196  1.0081 -0.5568 -0.8423
  907MPD2    N113345   4.003   3.971  15.894 -0.1637 -0.2583 -0.1843
  907MPD2    H713346   4.019   3.878  15.857  0.6642  0.1165 -0.7690
  908MPD2     C13347   1.754   0.790   9.609  0.7935  0.1944  0.4109
  908MPD2    C113348   1.785   0.703   9.714 -0.3265  0.3389  0.2137
  908MPD2    C213349   1.772   0.751   9.846 -0.0392 -0.2175  0.0582
  908MPD2    C313350   1.719   0.873   9.873 -0.5301 -0.4550 -0.2730
  908MPD2    C413351   1.688   0.961   9.771  0.2316 -0.4240  0.3479
  908MPD2    C513352   1.711   0.918   9.642  0.2113 -0.5608  0.3002
  908MPD2     H13353   1.800   0.680   9.923 -0.3379  0.2127  0.5680
  908MPD2    H113354   1.636   1.055   9.785  3.4857  1.2790  0.9744
  908MPD2    H213355   1.747   0.752   9.508 -1.6398 -0.0842  0.6973
  908MPD2    H313356   1.664   0.984   9.570  2.3486  0.9132  0.2585
  908MPD2     N13357   1.708   0.907  10.008  0.3548 -0.4762 -0.4342
  908MPD2    H513358   1.723   0.827  10.069 -0.2320  1.8250  2.7826
  908MPD2    N113359   1.828   0.573   9.674  0.1972 -0.0997  0.1044
  908MPD2    H713360   1.824   0.557   9.574  1.1503  2.3542 -0.3237
  909MPD2     C13361   2.255   2.944  12.044  0.4969  0.1183 -0.1573
  909MPD2    C113362   2.201   3.051  11.967 -0.4756 -0.4140  0.5212
  909MPD2    C213363   2.102   3.128  12.026 -0.7198  0.2173  0.7241
  909MPD2    C313364   2.048   3.110  12.150 -0.0533  0.1082  0.4021
  909MPD2    C413365   2.108   3.010  12.224  0.7446  0.4943  0.2378
  909MPD2    C513366   2.208   2.927  12.172  0.1801  0.4053  0.2230
  909MPD2     H13367   2.061   3.204  11.961 -0.6104  1.3043  1.9271
  909MPD2    H113368   2.070   2.978  12.320  1.3903 -1.6190 -0.1985
  909MPD2    H213369   2.337   2.883  12.008 -1.0224 -2.0199  0.0245
  909MPD2    H313370   2.254   2.851  12.235 -3.2848 -0.9667  1.1338
  909MPD2     N13371   1.952   3.206  12.194  0.0254  0.4374 -0.3804
  909MPD2    H513372   1.906   3.253  12.116 -0.4678  0.7893  0.1206
  909MPD2    N113373   2.250   3.087  11.836  0.0918  0.3823 -0.1286
  909MPD2    H713374   2.208   3.167  11.790 -1.6361  0.7567  2.1369
  910MPD2     C13375   3.098   0.399  16.553 -0.8794  0.2842  0.3004
  910MPD2    C113376   3.134   0.280  16.490 -0.1769 -0.7741  0.2277
  910MPD2    C213377   3.128   0.277  16.351 -0.6992 -0.6145  0.3358
  910MPD2    C313378   3.070   0.381  16.275 -0.0413  1.0815  0.2008
  910MPD2    C413379   3.031   0.499  16.343  0.2054  0.1631 -0.0708
  910MPD2    C513380   3.057   0.510  16.480  0.1197 -0.3877  0.3907
  910MPD2     H13381   3.159   0.189  16.295 -1.1712 -0.6095  0.0652
  910MPD2    H113382   2.974   0.576  16.293 -0.1185  1.0021  1.5718
  910MPD2    H213383   3.088   0.415  16.660 -1.3206 -0.8879  0.4285
  910MPD2    H313384   3.021   0.601  16.527 -0.1391 -1.2696  1.8716
  910MPD2     N13385   3.029   0.362  16.140  0.6902  0.2234  0.4668
  910MPD2    H513386   2.972   0.432  16.094  0.7259  0.6807  1.1324
  910MPD2    N113387   3.171   0.163  16.553 -0.1246 -0.0857  0.0089
  910MPD2    H713388   3.202   0.088  16.492  0.8382 -0.4115  0.9095
  911MPD2     C13389   1.040   0.415  16.179  0.8052 -0.2111  0.1339
  911MPD2    C113390   1.081   0.541  16.163 -0.3466 -0.1256 -0.2368
  911MPD2    C213391   0.994   0.633  16.100 -0.2435 -0.1958  0.9343
  911MPD2    C313392   0.883   0.591  16.038  0.5189  0.6032  0.5944
  911MPD2    C413393   0.850   0.453  16.042 -0.0597  0.0240 -0.2229
  911MPD2    C513394   0.930   0.365  16.113 -0.0935 -0.2362  1.1779
  911MPD2     H13395   1.016   0.739  16.099  1.7745 -0.6296 -0.5274
  911MPD2    H113396   0.756   0.424  15.996 -0.4270  1.9892 -0.7331
  911MPD2    H213397   1.093   0.362  16.258 -0.5328  0.2499  1.3573
  911MPD2    H313398   0.897   0.264  16.137  1.4883 -0.8170  0.9125
  911MPD2     N13399   0.791   0.670  15.980 -0.0677 -0.2629  0.8042
  911MPD2    H513400   0.721   0.616  15.929  1.5888 -0.0946 -1.6841
  911MPD2    N113401   1.198   0.575  16.238  0.7900  0.1381 -0.2988
  911MPD2    H713402   1.241   0.488  16.269 -1.8783 -1.3857 -0.9231
  912MPD2     C13403   0.480   0.280  15.483  0.5878 -0.4281  0.1207
  912MPD2    C113404   0.548   0.327  15.593 -0.1131  0.1161 -0.4499
  912MPD2    C213405   0.619   0.242  15.669  0.0274  0.5175 -0.3566
  912MPD2    C313406   0.622   0.105  15.642 -0.1875 -0.0495 -0.0140
  912MPD2    C413407   0.542   0.060  15.539 -0.0393 -0.1356  0.5242
  912MPD2    C513408   0.472   0.149  15.461 -0.6748  0.4209  0.5032
  912MPD2     H13409   0.663   0.283  15.759 -0.0900  2.0152 -0.9833
  912MPD2    H113410   0.527   4.691  15.526  1.9010 -0.0210 -2.6015
  912MPD2    H213411   0.416   0.347  15.427 -2.0332 -1.0854  2.3766
  912MPD2    H313412   0.404   0.108  15.386 -0.2068  0.7879 -0.1285
  912MPD2     N13413   0.689   0.019  15.737  0.2263 -0.0475 -0.4318
  912MPD2    H513414   0.753   0.066  15.800  0.9211 -1.8472  0.2088
  912MPD2    N113415   0.533   0.467  15.620 -0.2146 -0.0032 -0.2563
  912MPD2    H713416   0.488   0.517  15.544 -1.4844 -1.8757 -0.7526
  913MPD2     C13417   1.362   1.158  10.661  0.3607 -0.6967 -0.0002
  913MPD2    C113418   1.380   1.279  10.729 -0.2226  0.2803 -0.0720
  913MPD2    C213419   1.400   1.388  10.648  0.5162 -0.0661  0.2289
  913MPD2    C313420   1.406   1.380  10.513  0.4468  0.1012 -0.5299
  913MPD2    C413421   1.378   1.260  10.445  0.1791  0.3568  0.6371
  913MPD2    C513422   1.363   1.154  10.520 -0.1336  0.4506  0.6663
  913MPD2     H13423   1.432   1.481  10.693 -0.4466  1.6536 -2.6848
  913MPD2    H113424   1.390   1.254  10.338  2.2985  1.7502  0.7963
  913MPD2    H213425   1.347   1.069  10.721 -0.1144 -0.0862  0.7934
  913MPD2    H313426   1.342   1.061  10.468  1.8677 -0.4864  1.5310
  913MPD2     N13427   1.409   1.497  10.435  0.0529 -0.2306 -0.1959
  913MPD2    H513428   1.401   1.484  10.335  0.9355  2.0893 -0.5659
  913MPD2    N113429   1.387   1.279  10.874 -0.4460  0.1969 -0.5375
  913MPD2    H713430   1.349   1.202  10.928  0.6912 -1.0004 -1.4576
  914MPD2     C13431   3.889   1.350  12.002 -0.7567  0.3406  0.2554
  914MPD2    C113432   3.871   1.485  12.009  0.2043 -0.1803 -0.2761
  914MPD2    C213433   3.927   1.557  12.113  0.7278 -0.4971 -0.4528
  914MPD2    C313434   3.992   1.500  12.225 -0.4163  0.9270 -0.3382
  914MPD2    C413435   4.011   1.360  12.217  0.4406 -0.3320 -1.0435
  914MPD2    C513436   3.964   1.296  12.102 -0.7173  0.3959 -0.3251
  914MPD2     H13437   3.929   1.665  12.107  1.5838 -0.4803  0.0598
  914MPD2    H113438   4.085   1.306  12.274 -0.8288  0.3562  1.2463
  914MPD2    H213439   3.867   1.287  11.916  0.8186 -1.2836  1.0352
  914MPD2    H313440   3.999   1.194  12.087  1.4284  1.1920 -0.6732
  914MPD2     N13441   4.053   1.587  12.318  0.2689 -0.1460 -0.4335
  914MPD2    H513442   4.053   1.688  12.305  0.6079 -0.6078 -3.9948
  914MPD2    N113443   3.807   1.562  11.910  0.1100 -0.9056 -0.0914
  914MPD2    H713444   3.776   1.515  11.826  1.2678 -3.0445  0.6789
  915MPD2     C13445   2.648   1.966  15.469 -0.2966 -0.3034 -0.1628
  915MPD2    C113446   2.522   1.923  15.465  0.3654 -0.4395  0.2071
  915MPD2    C213447   2.447   1.930  15.579  0.3692 -0.0950  0.7455
  915MPD2    C313448   2.488   1.981  15.698  0.0984 -0.7061 -0.4066
  915MPD2    C413449   2.619   2.028  15.705  0.2228 -0.1283 -0.1007
  915MPD2    C513450   2.704   2.010  15.590 -0.1442 -0.4309  0.4538
  915MPD2     H13451   2.342   1.905  15.573  0.2829  0.7530 -1.2098
  915MPD2    H113452   2.663   2.081  15.788  0.9988 -1.7120  0.4945
  915MPD2    H213453   2.715   1.954  15.384 -0.7583  0.1300 -0.5878
  915MPD2    H313454   2.806   2.046  15.594 -0.5286  0.6584  0.5886
  915MPD2     N13455   2.390   2.001  15.800  0.0955 -0.0776 -0.5511
  915MPD2    H513456   2.305   1.944  15.802 -0.7841  1.2726  0.3867
  915MPD2    N113457   2.475   1.878  15.337 -0.2299 -0.3235 -0.0644
  915MPD2    H713458   2.543   1.885  15.262  0.2750 -0.8178  0.3395
  916MPD2     C13459   4.730   0.070  15.602 -0.2266  0.0410  0.2824
  916MPD2    C113460   4.694   4.706  15.693 -0.2643  0.6142 -0.2719
  916MPD2    C213461   0.032   4.582  15.700 -0.5689  0.4370 -0.7053
  916MPD2    C313462   0.132   4.557  15.604 -0.2324 -0.1072 -0.0911
  916MPD2    C413463   0.168   4.657  15.519  0.0755 -0.1246  0.5418
  916MPD2    C513464   0.104   0.037  15.523 -0.0015 -0.4440  0.5713
  916MPD2     H13465   0.014   4.512  15.781  2.5924  0.9299  0.4378
  916MPD2    H113466   0.235   4.639  15.436 -1.5313  0.6850 -0.9208
  916MPD2    H213467   4.680   0.166  15.601 -0.3651 -0.0305  0.4057
  916MPD2    H313468   0.137   0.113  15.453  0.1910 -0.2558  0.8690
  916MPD2     N13469   0.194   4.429  15.606  0.1017  0.5367  0.3565
  916MPD2    H513470   0.158   4.361  15.672 -1.5286 -0.4690 -1.6017
  916MPD2    N113471   4.600   0.011  15.791  0.3506  0.2152  0.0498
  916MPD2    H713472   4.571   0.108  15.798  1.6027  0.5824  0.1661
  917MPD2     C13473   0.711   2.495  11.107  0.1886 -0.2668  0.3861
  917MPD2    C113474   0.762   2.580  11.204 -0.6358 -0.0006 -0.0636
  917MPD2    C213475   0.811   2.704  11.166 -0.2934  0.3403 -0.5805
  917MPD2    C313476   0.793   2.747  11.033 -0.2919  0.1994  0.3367
  917MPD2    C413477   0.719   2.677  10.954 -0.5182  0.3973  0.0355
  917MPD2    C513478   0.681   2.552  10.990  0.8064 -0.5027  0.3853
  917MPD2     H13479   0.832   2.782  11.239 -0.6130  0.5642 -0.7269
  917MPD2    H113480   0.709   2.713  10.853 -0.1427 -1.5576 -0.7083
  917MPD2    H213481   0.699   2.389  11.125 -0.0556  0.1445  2.5691
  917MPD2    H313482   0.646   2.485  10.912  0.3720  0.2265 -0.0481
  917MPD2     N13483   0.820   2.878  10.993  0.4012 -0.2399 -0.0047
  917MPD2    H513484   0.774   2.909  10.908  0.3643  2.3176  0.9583
  917MPD2    N113485   0.771   2.535  11.336 -0.1275 -0.5604 -0.2349
  917MPD2    H713486   0.734   2.442  11.353  0.4815 -0.6667  0.4947
  918MPD2     C13487   0.983   3.041  12.192  0.0976 -0.1204  0.0385
  918MPD2    C113488   1.085   2.965  12.143 -0.2291  0.9450 -0.0174
  918MPD2    C213489   1.060   2.863  12.051 -0.4157  0.1921  0.2773
  918MPD2    C313490   0.931   2.833  12.020  0.0565 -0.3167 -0.5318
  918MPD2    C413491   0.824   2.901  12.080  0.0587  0.3738  0.0862
  918MPD2    C513492   0.850   3.007  12.160 -0.1437 -0.2371  0.4712
  918MPD2     H13493   1.142   2.812  12.002 -0.8658  0.7830 -1.0972
  918MPD2    H113494   0.722   2.874  12.054  1.6563 -3.2060 -2.3771
  918MPD2    H213495   1.004   3.119  12.264 -1.7823 -2.6193  3.3506
  918MPD2    H313496   0.771   3.071  12.197  0.2458  0.3331  0.3203
  918MPD2     N13497   0.911   2.734  11.922  0.0070 -0.0637  0.7394
  918MPD2    H513498   0.987   2.687  11.874 -1.7927 -0.3289 -1.8830
  918MPD2    N113499   1.222   2.975  12.191  0.1234  0.2151  0.1313
  918MPD2    H713500   1.290   2.914  12.145  0.3712  0.2217  0.4887
  919MPD2     C13501   1.319   1.658  12.050  0.3360 -0.4641 -0.7850
  919MPD2    C113502   1.234   1.556  12.007 -0.0687  0.1148 -0.2376
  919MPD2    C213503   1.157   1.582  11.888  0.2233 -0.3374  0.5470
  919MPD2    C313504   1.178   1.698  11.815  0.2449 -0.3826  0.6637
  919MPD2    C413505   1.269   1.789  11.857 -0.0495 -0.3446 -0.2088
  919MPD2    C513506   1.330   1.772  11.973 -0.2084 -0.0397  0.6441
  919MPD2     H13507   1.079   1.510  11.866  0.0586  0.0369 -0.0882
  919MPD2    H113508   1.295   1.879  11.803 -0.4005  0.6874  1.3427
  919MPD2    H213509   1.394   1.653  12.129  1.2878  1.3072 -1.5993
  919MPD2    H313510   1.405   1.849  11.989 -0.9978  0.3462  2.5125
  919MPD2     N13511   1.118   1.733  11.689  0.2426  0.4241  0.3079
  919MPD2    H513512   1.156   1.815  11.642 -0.5017  1.5944  1.7630
  919MPD2    N113513   1.214   1.435  12.071 -0.6538  0.0311  0.6166
  919MPD2    H713514   1.142   1.380  12.026 -1.7157  2.0064 -0.1032
  920MPD2     C13515   1.127   1.660  10.725 -0.8102 -0.0602  0.3070
  920MPD2    C113516   0.995   1.717  10.736 -0.9656 -0.2167 -0.0083
  920MPD2    C213517   0.959   1.778  10.855  0.1700 -0.0742 -0.0137
  920MPD2    C313518   1.044   1.775  10.965  0.3261  0.0099  0.0285
  920MPD2    C413519   1.172   1.723  10.948  0.5976  0.5923 -0.6183
  920MPD2    C513520   1.213   1.668  10.833 -0.1072 -0.2074 -0.3377
  920MPD2     H13521   0.853   1.800  10.855  0.0234 -0.7832 -0.1783
  920MPD2    H113522   1.239   1.721  11.033  0.6623 -0.2243 -0.6941
  920MPD2    H213523   1.157   1.602  10.638  1.1130  0.2248  0.7840
  920MPD2    H313524   1.307   1.614  10.832  0.0807  0.1147 -0.2597
  920MPD2     N13525   0.996   1.826  11.094  0.4826  0.1785  0.2760
  920MPD2    H513526   0.902   1.864  11.100  1.2896  1.7596  2.6375
  920MPD2    N113527   0.906   1.706  10.628 -0.0935  0.1874  0.6709
  920MPD2    H713528   0.822   1.761  10.642  0.4055  1.3082 -0.7745
  921MPD2     C13529   1.855   1.259  16.479  0.1792  0.5823  0.1998
  921MPD2    C113530   1.885   1.124  16.463 -0.2344  0.3052  0.3970
  921MPD2    C213531   1.783   1.034  16.475 -0.6575  0.2479  0.1947
  921MPD2    C313532   1.650   1.072  16.505  0.7783 -0.9527 -0.3248
  921MPD2    C413533   1.619   1.201  16.514  0.1648  0.1272  0.3017
  921MPD2    C513534   1.723   1.296  16.495 -0.3395  0.0977 -0.0494
  921MPD2     H13535   1.803   0.931  16.448 -2.5870 -0.3031  0.8457
  921MPD2    H113536   1.525   1.241  16.551 -0.8303 -1.8879 -0.0801
  921MPD2    H213537   1.934   1.333  16.486 -0.3648  1.0798  1.0636
  921MPD2    H313538   1.695   1.399  16.510 -1.5931 -0.5536  2.0992
  921MPD2     N13539   1.558   0.974  16.537 -0.4174 -0.2466  0.0814
  921MPD2    H513540   1.460   1.000  16.547 -0.1748 -0.1703  2.1574
  921MPD2    N113541   2.017   1.087  16.427  0.1002 -0.1790  0.4922
  921MPD2    H713542   2.089   1.158  16.418  0.5668 -0.5955  0.9724
  922MPD2     C13543   3.057   3.690  17.457 -0.3154 -0.8134 -0.2709
  922MPD2    C113544   2.990   3.652  17.570 -0.1795 -0.5563 -0.9856
  922MPD2    C213545   2.949   3.523  17.583 -0.8726 -0.3527 -0.6060
  922MPD2    C313546   2.984   3.421  17.495  0.1757 -0.0431  0.2417
  922MPD2    C413547   3.067   3.452  17.392 -0.8177  0.4293  0.1817
  922MPD2    C513548   3.088   3.586  17.370 -0.2364  0.9843  0.2145
  922MPD2     H13549   2.889   3.499  17.671  1.2018 -2.4803  0.2194
  922MPD2    H113550   3.106   3.383  17.317 -1.3203  3.2003 -2.6342
  922MPD2    H213551   3.079   3.793  17.431  2.6135 -1.1320  0.9160
  922MPD2    H313552   3.128   3.617  17.274 -0.5883  2.4864  0.5485
  922MPD2     N13553   2.928   3.294  17.523 -0.7502 -0.3293 -0.3142
  922MPD2    H513554   2.856   3.291  17.595 -0.4326  1.1641  0.0674
  922MPD2    N113555   2.944   3.741  17.671 -0.0499  0.2568  0.5402
  922MPD2    H713556   2.882   3.697  17.739  0.1719  0.1189  0.6507
  923MPD2     C13557   3.984   0.388   9.198 -0.5123 -0.2730 -0.6118
  923MPD2    C113558   4.025   0.514   9.162  0.5150  0.0492 -0.0700
  923MPD2    C213559   4.153   0.552   9.193 -0.2624  0.3150  0.8131
  923MPD2    C313560   4.236   0.465   9.266  0.0123  0.6167  0.0120
  923MPD2    C413561   4.192   0.339   9.294  0.6165 -0.0125  0.3270
  923MPD2    C513562   4.067   0.295   9.259  0.5504  0.0020  0.1417
  923MPD2     H13563   4.186   0.654   9.181 -0.1569  0.2494  0.5517
  923MPD2    H113564   4.250   0.270   9.355  3.0772  0.5675 -1.3255
  923MPD2    H213565   3.882   0.356   9.180  0.1715 -2.2953 -0.9090
  923MPD2    H313566   4.032   0.195   9.279  0.9613 -0.1646  0.0138
  923MPD2     N13567   4.357   0.496   9.331  0.5340  0.1904  0.0473
  923MPD2    H513568   4.414   0.423   9.372  0.8654 -0.2714 -1.2359
  923MPD2    N113569   3.928   0.596   9.104 -0.7953  0.7163 -0.0924
  923MPD2    H713570   3.835   0.556   9.095 -0.9342  0.1696  3.6530
  924MPD2     C13571   3.760   3.339  16.040 -0.9506  0.2311 -0.3034
  924MPD2    C113572   3.801   3.340  16.172  0.0888 -0.1978 -0.1937
  924MPD2    C213573   3.938   3.317  16.203 -0.2154 -0.0258 -0.2329
  924MPD2    C313574   4.032   3.313  16.105 -0.1011  0.1392 -0.3695
  924MPD2    C413575   3.992   3.318  15.973  0.1935 -0.8807  0.3715
  924MPD2    C513576   3.861   3.337  15.945 -0.0935 -1.1215  0.0062
  924MPD2     H13577   3.959   3.326  16.309  0.3156 -0.9623 -0.2625
  924MPD2    H113578   4.062   3.331  15.891 -1.2443  3.5294 -0.1462
  924MPD2    H213579   3.658   3.366  16.016 -1.6546 -0.8426  1.4888
  924MPD2    H313580   3.831   3.342  15.841 -1.5925  1.8615  0.5999
  924MPD2     N13581   4.167   3.313  16.145  0.4234 -0.0258  0.0599
  924MPD2    H513582   4.248   3.339  16.089  0.2417 -0.2031 -0.2837
  924MPD2    N113583   3.700   3.377  16.262  0.6242  0.7331 -0.2492
  924MPD2    H713584   3.608   3.397  16.223  0.2321 -0.1629  0.2149
  925MPD2     C13585   3.096   1.462  15.176  0.6664 -0.1898  0.8482
  925MPD2    C113586   2.973   1.425  15.136 -0.7688 -0.6294 -0.5652
  925MPD2    C213587   2.866   1.443  15.220 -0.3251  0.2842 -0.7709
  925MPD2    C313588   2.888   1.496  15.345 -0.1437 -0.1238 -0.3760
  925MPD2    C413589   3.009   1.528  15.392 -0.5139 -0.5605 -0.1440
  925MPD2    C513590   3.112   1.514  15.302 -0.1941 -1.0353 -0.6330
  925MPD2     H13591   2.774   1.392  15.191  0.1171 -1.2449  0.4960
  925MPD2    H113592   3.032   1.561  15.493 -1.3356  2.2104 -0.8689
  925MPD2    H213593   3.181   1.462  15.109  0.5726  0.6315  0.7261
  925MPD2    H313594   3.210   1.554  15.325 -1.7807  2.4055  0.1452
  925MPD2     N13595   2.784   1.505  15.437  0.0788 -0.0901 -0.3061
  925MPD2    H513596   2.805   1.502  15.537  0.9828 -1.4646 -0.5378
  925MPD2    N113597   2.946   1.358  15.013 -0.1304  0.4374 -0.2306
  925MPD2    H713598   2.851   1.336  14.985  0.1318 -0.4917 -0.3785
  926MPD2     C13599   1.646   4.270  13.920  0.2356  1.2238  0.4984
  926MPD2    C113600   1.583   4.382  13.870 -0.9354 -0.0971  0.2631
  926MPD2    C213601   1.621   4.439  13.753 -0.2682 -0.3783 -0.5126
  926MPD2    C313602   1.722   4.377  13.685 -0.0930  0.6553 -0.3752
  926MPD2    C413603   1.782   4.261  13.730 -0.0353  0.0984 -0.3723
  926MPD2    C513604   1.738   4.206  13.844 -0.2258 -0.4314 -0.1369
  926MPD2     H13605   1.575   4.529  13.712  0.1817  1.1413  2.3437
  926MPD2    H113606   1.848   4.207  13.663  0.5126  0.1836  0.1037
  926MPD2    H213607   1.608   4.227  14.011  0.2645 -0.6995 -0.3889
  926MPD2    H313608   1.790   4.121  13.887  0.7927 -1.0593 -2.6315
  926MPD2     N13609   1.760   4.417  13.556 -0.1768  0.5060 -0.9773
  926MPD2    H513610   1.820   4.354  13.504  0.9177  0.8347 -0.1208
  926MPD2    N113611   1.480   4.446  13.951  0.5475  0.2039 -0.2729
  926MPD2    H713612   1.465   4.543  13.926 -2.7349 -0.4105 -0.5997
  927MPD2     C13613   0.871   1.673  17.657  0.2574  0.5816  0.7171
  927MPD2    C113614   0.977   1.752  17.671 -0.0277  0.1340 -1.0902
  927MPD2    C213615   1.078   1.739  17.578  0.2658 -0.1632  0.3818
  927MPD2    C313616   1.077   1.638  17.483 -0.3193 -0.1587 -0.0352
  927MPD2    C413617   0.963   1.574  17.468 -0.1170  0.1582 -0.2267
  927MPD2    C513618   0.861   1.589  17.552 -1.3386  0.5328  0.1572
  927MPD2     H13619   1.169   1.797  17.575  0.4049 -0.4681 -0.9660
  927MPD2    H113620   0.948   1.495  17.395 -1.7513  1.3952 -1.2412
  927MPD2    H213621   0.788   1.668  17.726 -1.7397  0.2181 -1.6912
  927MPD2    H313622   0.770   1.531  17.542 -2.6807  2.1716  3.0066
  927MPD2     N13623   1.195   1.619  17.410 -0.4694  0.2585  0.7395
  927MPD2    H513624   1.278   1.674  17.429 -1.2068  0.9907  1.8683
  927MPD2    N113625   0.993   1.823   0.047 -0.2794  0.1403  0.4514
  927MPD2    H713626   0.915   1.822   0.112  0.8263  0.4346  1.7843
  928MPD2     C13627   3.588   0.249   0.744  0.8766 -0.3050 -0.1214
  928MPD2    C113628   3.724   0.229   0.778  0.5388 -0.4322  0.2822
  928MPD2    C213629   3.820   0.251   0.679  0.4015  0.0697  0.5575
  928MPD2    C313630   3.790   0.294   0.555  0.3720  0.1738 -0.3168
  928MPD2    C413631   3.661   0.324   0.529 -0.3458  0.3759 -0.9757
  928MPD2    C513632   3.560   0.295   0.619  0.5458 -0.2485  0.0133
  928MPD2     H13633   3.922   0.229   0.710 -0.1117 -2.9600  0.0694
  928MPD2    H113634   3.639   0.356   0.428 -0.6681 -3.3961 -2.1027
  928MPD2    H213635   3.503   0.225   0.806 -1.2063  1.6695 -2.2359
  928MPD2    H313636   3.456   0.313   0.596  0.5276 -1.6234 -1.0296
  928MPD2     N13637   3.884   0.311   0.448  0.5052 -0.1448 -0.2111
  928MPD2    H513638   3.842   0.353   0.366  0.7845 -1.0248 -0.8001
  928MPD2    N113639   3.748   0.186   0.912  0.0373 -0.3650  0.0815
  928MPD2    H713640   3.676   0.190   0.983 -0.3601 -1.0443 -0.2909
  929MPD2     C13641   4.178   0.831  10.127 -0.1787 -0.0781  0.4521
  929MPD2    C113642   4.178   0.728  10.035  0.5233 -0.3983 -0.2217
  929MPD2    C213643   4.191   0.751   9.896 -0.3687  0.1062 -0.1923
  929MPD2    C313644   4.207   0.885   9.856 -0.2166 -0.5917  0.3913
  929MPD2    C413645   4.198   0.988   9.948 -0.4804 -0.1017 -0.6885
  929MPD2    C513646   4.185   0.963  10.083  0.0120 -0.0200  0.4093
  929MPD2     H13647   4.172   0.669   9.828 -0.5222 -0.1553  0.1630
  929MPD2    H113648   4.205   1.093   9.921 -2.0313 -0.0909 -1.0556
  929MPD2    H213649   4.170   0.813  10.234  3.1634  0.7951  0.8673
  929MPD2    H313650   4.159   1.049  10.142 -0.6049  0.2992 -0.3267
  929MPD2     N13651   4.208   0.917   9.721 -0.4102 -0.3090  0.0261
  929MPD2    H513652   4.192   1.014   9.692 -0.2090 -0.6120 -1.1273
  929MPD2    N113653   4.164   0.597  10.089 -0.3524 -0.1977 -0.0467
  929MPD2    H713654   4.157   0.593  10.191 -0.3351  1.4850  0.0125
  930MPD2     C13655   1.202   2.584  13.962  0.1552  0.7651  0.0222
  930MPD2    C113656   1.131   2.693  13.923 -0.7579 -0.0477  1.3035
  930MPD2    C213657   1.034   2.677  13.829 -0.0473 -0.3128  0.0790
  930MPD2    C313658   1.001   2.551  13.775  0.5602 -0.3689 -0.3380
  930MPD2    C413659   1.063   2.444  13.828 -0.5188  0.5702 -0.3258
  930MPD2    C513660   1.171   2.461  13.908 -1.0028  0.6442 -0.6922
  930MPD2     H13661   0.966   2.758  13.806 -0.1942 -0.9824 -1.8577
  930MPD2    H113662   1.041   2.344  13.790  1.8213  0.2551 -0.8635
  930MPD2    H213663   1.288   2.587  14.028  0.0665 -2.5894  0.2771
  930MPD2    H313664   1.219   2.369  13.939 -0.3961  1.2986  0.3364
  930MPD2     N13665   0.902   2.533  13.671 -0.1158 -0.0103  0.0527
  930MPD2    H513666   0.850   2.447  13.655  0.6349  0.0133 -2.5894
  930MPD2    N113667   1.158   2.824  13.976  0.7086  0.2689  0.5873
  930MPD2    H713668   1.224   2.830  14.053  0.8936  1.8643  0.3012
  931MPD2     C13669   1.600   1.978   0.623 -0.5234  0.7167  0.0474
  931MPD2    C113670   1.482   1.902   0.638 -0.3299  0.3253 -0.3403
  931MPD2    C213671   1.462   1.808   0.738 -0.2982  0.0410  0.0807
  931MPD2    C313672   1.565   1.775   0.822 -0.8491  0.2525 -0.4048
  931MPD2    C413673   1.675   1.856   0.818 -0.2872  0.1308 -0.0401
  931MPD2    C513674   1.693   1.951   0.716  0.0143 -0.1802 -0.6446
  931MPD2     H13675   1.379   1.738   0.729 -2.2698  2.4196 -0.1390
  931MPD2    H113676   1.758   1.834   0.885 -0.7957  0.1458  0.5972
  931MPD2    H213677   1.601   2.065   0.559 -2.1475 -0.1591 -1.1646
  931MPD2    H313678   1.783   2.011   0.729  0.1671  0.1742 -3.3544
  931MPD2     N13679   1.577   1.672   0.918  0.7428  0.3750  0.0147
  931MPD2    H513680   1.671   1.658   0.954  0.6111 -0.5429  0.0090
  931MPD2    N113681   1.377   1.926   0.548 -0.1223 -0.4995  0.0238
  931MPD2    H713682   1.397   1.979   0.464  0.7367  1.6661  1.6013
  932MPD2     C13683   2.641   0.815  11.046 -0.3107  0.5761  0.0458
  932MPD2    C113684   2.769   0.856  11.013 -0.4496 -0.0572  0.3941
  932MPD2    C213685   2.875   0.765  11.015  0.1557 -0.2591 -0.4058
  932MPD2    C313686   2.851   0.627  11.045 -0.4398 -0.6875 -0.6078
  932MPD2    C413687   2.724   0.592  11.078  0.3557 -0.1032 -0.1541
  932MPD2    C513688   2.621   0.683  11.080 -0.1690 -0.2463  0.2572
  932MPD2     H13689   2.975   0.798  10.988 -0.5297  2.0507 -0.1326
  932MPD2    H113690   2.704   0.491  11.113 -1.0829  0.8249  1.7258
  932MPD2    H213691   2.559   0.879  11.076  0.3630  1.1151  0.7199
  932MPD2    H313692   2.528   0.645  11.123  0.4049 -0.0731  1.6517
  932MPD2     N13693   2.950   0.526  11.036 -0.2159 -1.0236  0.6314
  932MPD2    H513694   2.920   0.432  11.062 -1.0396 -0.4973  1.5520
  932MPD2    N113695   2.795   0.996  10.998  0.4964  0.3215  0.4567
  932MPD2    H713696   2.882   1.019  10.950 -0.8578  0.0718 -2.1001
  933MPD2     C13697   3.413   0.485   1.311 -0.0644 -0.5508  0.1756
  933MPD2    C113698   3.543   0.495   1.358  0.4620 -0.2531 -0.1034
  933MPD2    C213699   3.573   0.613   1.421  0.2568 -0.2080  0.1777
  933MPD2    C313700   3.489   0.718   1.436  0.5238 -0.4688 -0.1210
  933MPD2    C413701   3.364   0.707   1.392  0.3653  0.6773  0.0028
  933MPD2    C513702   3.328   0.595   1.322  0.1497  0.0721  0.0962
  933MPD2     H13703   3.670   0.619   1.470 -0.2884 -1.2636  1.3961
  933MPD2    H113704   3.285   0.780   1.402 -1.3055 -0.6009 -3.6868
  933MPD2    H213705   3.384   0.394   1.262 -0.3810 -0.3916  0.0658
  933MPD2    H313706   3.228   0.594   1.279  0.1194 -0.6562  0.1786
  933MPD2     N13707   3.548   0.829   1.499  0.4559 -0.1885 -0.2364
  933MPD2    H513708   3.648   0.823   1.510  0.5622 -1.6747 -2.0211
  933MPD2    N113709   3.628   0.383   1.336  0.4698 -0.3451 -0.5028
  933MPD2    H713710   3.583   0.310   1.282 -0.0272 -0.3145 -0.1363
  934MPD2     C13711   0.808   3.484   1.959 -0.7217 -0.4558  0.4003
  934MPD2    C113712   0.863   3.374   1.904  0.0464  0.4261 -0.3925
  934MPD2    C213713   0.782   3.265   1.869  1.1696 -0.1119  0.1291
  934MPD2    C313714   0.645   3.277   1.870  0.2647 -0.3583 -0.1596
  934MPD2    C413715   0.586   3.395   1.913 -0.2838  0.8826  1.3568
  934MPD2    C513716   0.675   3.494   1.955  0.6645  0.3296 -0.1332
  934MPD2     H13717   0.824   3.168   1.845  1.3771  0.1787 -0.7171
  934MPD2    H113718   0.479   3.413   1.903 -0.3929 -0.2446  0.4795
  934MPD2    H213719   0.869   3.570   1.984 -1.4838 -0.0727  0.9373
  934MPD2    H313720   0.621   3.587   1.965  0.5177  0.3316 -0.9183
  934MPD2     N13721   0.557   3.169   1.830  0.2888  0.3836  0.4011
  934MPD2    H513722   0.458   3.190   1.838  0.7888  3.0901 -0.3071
  934MPD2    N113723   1.003   3.350   1.891 -0.4806  0.3864  0.1390
  934MPD2    H713724   1.032   3.256   1.865 -0.2593  0.4670  0.0944
  935MPD2     C13725   0.836   2.379   1.312  0.1718 -0.5343 -0.0374
  935MPD2    C113726   0.702   2.394   1.291  0.2491  0.2444 -0.6399
  935MPD2    C213727   0.627   2.479   1.370  0.6919 -0.5091  0.2314
  935MPD2    C313728   0.676   2.541   1.485  0.9289 -1.1160  0.2690
  935MPD2    C413729   0.817   2.525   1.505  0.1951  0.8406  0.1270
  935MPD2    C513730   0.887   2.441   1.421  1.2562 -0.5633 -0.3229
  935MPD2     H13731   0.527   2.500   1.334  0.4520 -1.0841  0.5548
  935MPD2    H113732   0.863   2.573   1.591 -0.4207  2.0378 -0.2116
  935MPD2    H213733   0.892   2.310   1.250  1.2216 -0.3679  0.7357
  935MPD2    H313734   0.994   2.425   1.436  1.5194  2.8724  1.3086
  935MPD2     N13735   0.599   2.622   1.573  0.3164 -0.6331 -0.1838
  935MPD2    H513736   0.646   2.672   1.647 -0.0047 -1.3503  0.5066
  935MPD2    N113737   0.641   2.340   1.177 -0.3298  0.6114 -0.4145
  935MPD2    H713738   0.540   2.345   1.176 -0.2981 -0.0518 -4.8059
  936MPD2     C13739   3.425   3.638  12.729  0.1180 -0.8629  0.8222
  936MPD2    C113740   3.475   3.767  12.734 -0.4381 -0.0313 -0.9512
  936MPD2    C213741   3.572   3.801  12.639 -0.5123 -0.4893  1.0403
  936MPD2    C313742   3.593   3.728  12.529  0.0758 -0.1502 -0.1184
  936MPD2    C413743   3.530   3.608  12.517 -0.2715  0.1934 -1.3200
  936MPD2    C513744   3.448   3.562  12.616  0.4748 -0.2065 -0.3789
  936MPD2     H13745   3.620   3.897  12.648  2.0302 -1.6876  0.3815
  936MPD2    H113746   3.543   3.560  12.420 -1.6582 -0.7626 -1.0286
  936MPD2    H213747   3.350   3.619  12.805  0.8057 -1.8967  1.2500
  936MPD2    H313748   3.387   3.473  12.603 -0.5905  0.5924 -0.7844
  936MPD2     N13749   3.652   3.787  12.418 -0.0737 -0.0286  0.5285
  936MPD2    H513750   3.628   3.747  12.328 -2.4009  0.1103  1.0941
  936MPD2    N113751   3.464   3.867  12.836  0.0006 -0.1295 -0.1240
  936MPD2    H713752   3.525   3.948  12.826 -0.0992 -0.1356 -0.7756
  937MPD2     C13753   1.003   0.926  11.786  0.2753  0.4887  0.2387
  937MPD2    C113754   1.120   0.901  11.852 -0.4805 -0.5366  0.1600
  937MPD2    C213755   1.235   0.876  11.775 -0.0476 -0.1223  0.2784
  937MPD2    C313756   1.227   0.846  11.639 -0.8057 -0.2731  0.2466
  937MPD2    C413757   1.102   0.850  11.582  0.8506 -0.1688 -0.1319
  937MPD2    C513758   0.995   0.905  11.649  0.5706 -0.8600 -0.3675
  937MPD2     H13759   1.331   0.859  11.823 -0.6922 -2.2860  0.7702
  937MPD2    H113760   1.086   0.826  11.478  0.3613  2.7804 -0.7497
  937MPD2    H213761   0.914   0.956  11.840  0.2969 -0.0432  0.5621
  937MPD2    H313762   0.905   0.905  11.589  0.4020 -0.8224 -0.1108
  937MPD2     N13763   1.350   0.823  11.558  0.1290 -0.0338 -0.2314
  937MPD2    H513764   1.437   0.797  11.603 -0.7014 -2.0165  0.2801
  937MPD2    N113765   1.138   0.953  11.984  0.0764 -0.2305 -0.0575
  937MPD2    H713766   1.229   0.945  12.028 -0.1794 -0.7198  0.3843
  938MPD2     C13767   3.804   2.242   0.925 -0.2588 -0.0282 -0.3123
  938MPD2    C113768   3.929   2.265   0.971  0.7660  0.2218 -0.7370
  938MPD2    C213769   4.022   2.168   0.995  0.2632  0.1829  0.8534
  938MPD2    C313770   3.985   2.040   0.952 -0.0359  0.0839 -0.0639
  938MPD2    C413771   3.857   2.020   0.899  1.0329 -0.5061  0.2885
  938MPD2    C513772   3.769   2.120   0.886 -0.0634 -0.0270  0.3038
  938MPD2     H13773   4.119   2.201   1.033  1.5733  1.7289 -3.8240
  938MPD2    H113774   3.814   1.927   0.864  0.2166  0.0867 -0.2776
  938MPD2    H213775   3.723   2.313   0.916  0.4109  0.6287 -1.1060
  938MPD2    H313776   3.669   2.100   0.850 -0.3226  2.4741 -0.4057
  938MPD2     N13777   4.067   1.923   0.974  0.1192  0.1863  0.6609
  938MPD2    H513778   4.025   1.834   0.951 -1.5863  1.4296 -1.0918
  938MPD2    N113779   3.972   2.394   0.998  0.0852  0.9490 -0.2627
  938MPD2    H713780   4.065   2.409   1.037  0.9409 -1.4187 -1.4238
  939MPD2     C13781   0.377   3.125   0.927  0.1981  0.1250 -0.8420
  939MPD2    C113782   0.493   3.198   0.903 -0.4695 -0.2649 -0.7986
  939MPD2    C213783   0.548   3.188   0.783 -0.1432 -0.1288 -0.4312
  939MPD2    C313784   0.493   3.107   0.686  0.0343 -0.1933 -0.1498
  939MPD2    C413785   0.384   3.030   0.710  0.1140  1.2342 -0.1430
  939MPD2    C513786   0.327   3.041   0.832 -0.3854 -0.4199 -0.0450
  939MPD2     H13787   0.632   3.251   0.755  0.3606 -1.4418 -1.9009
  939MPD2    H113788   0.330   2.978   0.632 -0.3903  1.0980  0.2928
  939MPD2    H213789   0.327   3.121   1.024  1.2574  1.8433 -0.2252
  939MPD2    H313790   0.233   2.989   0.841 -0.7300  0.1913 -0.0982
  939MPD2     N13791   0.558   3.115   0.561  0.1193 -0.2403 -0.1166
  939MPD2    H513792   0.647   3.164   0.556 -0.8891  1.6157  0.3450
  939MPD2    N113793   0.540   3.287   1.003  0.0814  0.1290 -0.2551
  939MPD2    H713794   0.474   3.291   1.080  0.8905 -1.0245  0.4852
  940MPD2     C13795   3.865   3.847  13.057 -0.2873  0.0503 -0.0073
  940MPD2    C113796   3.998   3.826  13.076 -0.1140 -0.0965 -0.2994
  940MPD2    C213797   4.082   3.791  12.973  0.2759 -0.4428 -0.2114
  940MPD2    C313798   4.043   3.784  12.842 -0.5312  0.2597  0.6530
  940MPD2    C413799   3.908   3.787  12.823  0.7997  0.2128  0.4245
  940MPD2    C513800   3.823   3.822  12.935  0.1679  0.4634  0.0130
  940MPD2     H13801   4.184   3.777  13.007  1.2566 -0.9929 -3.4196
  940MPD2    H113802   3.857   3.762  12.730  3.6454 -0.2371 -1.0035
  940MPD2    H213803   3.794   3.878  13.133 -0.6043  0.2492 -0.3847
  940MPD2    H313804   3.716   3.814  12.916  0.1287  1.3427 -0.1574
  940MPD2     N13805   4.135   3.779  12.734  0.4712 -0.4162  0.0834
  940MPD2    H513806   4.093   3.744  12.648 -1.0496 -0.3011  0.7828
  940MPD2    N113807   4.053   3.834  13.204  0.0394 -0.0807 -0.5528
  940MPD2    H713808   4.132   3.773  13.226  1.1161  0.8846 -1.7552
  941MPD2     C13809   4.067   3.837  10.612  0.1755  0.2043  0.4090
  941MPD2    C113810   3.964   3.885  10.530 -1.0606 -0.2958  0.5356
  941MPD2    C213811   3.842   3.822  10.522  0.2185 -1.1910  0.4082
  941MPD2    C313812   3.817   3.708  10.593  0.4077 -0.2761  0.4454
  941MPD2    C413813   3.916   3.661  10.670 -0.5045 -0.2968 -0.0123
  941MPD2    C513814   4.042   3.718  10.673 -0.7297  0.3097  0.2281
  941MPD2     H13815   3.767   3.853  10.449  1.1132  0.5909  0.2394
  941MPD2    H113816   3.911   3.576  10.737  2.6950  0.6592  1.4628
  941MPD2    H213817   4.169   3.873  10.621  0.4815 -0.6773  0.5335
  941MPD2    H313818   4.131   3.676  10.719  0.9199  2.7877 -0.7167
  941MPD2     N13819   3.702   3.627  10.587  0.5490 -0.1518  0.1784
  941MPD2    H513820   3.696   3.538  10.635 -1.7495  1.1341  2.2878
  941MPD2    N113821   3.992   3.998  10.447  0.3559  0.3080 -0.3857
  941MPD2    H713822   3.921   4.018  10.377 -0.7024  2.3207  1.2777
  942MPD2     C13823   2.394   4.669  10.028 -0.0035  0.1570 -0.0042
  942MPD2    C113824   2.380   4.532  10.023 -0.3306  0.4352  0.5432
  942MPD2    C213825   2.395   4.475   9.896 -0.1276 -0.7737 -0.1994
  942MPD2    C313826   2.426   4.544   9.783 -0.2128 -0.0030 -0.0391
  942MPD2    C413827   2.463   4.681   9.803  0.6667  0.5057  0.1717
  942MPD2    C513828   2.445   0.000   9.920 -0.4070  0.2263  0.0723
  942MPD2     H13829   2.359   4.374   9.884 -1.4567 -0.3197 -0.0772
  942MPD2    H113830   2.503   4.736   9.719 -3.6714  3.3020 -0.0580
  942MPD2    H213831   2.372   4.722  10.120  2.2316 -0.5551  0.9590
  942MPD2    H313832   2.464   0.107   9.930  1.6374  0.0256 -1.5962
  942MPD2     N13833   2.427   4.491   9.652  0.0272 -0.2159 -0.3792
  942MPD2    H513834   2.441   4.559   9.579  0.9957  0.5436  0.5125
  942MPD2    N113835   2.352   4.458  10.134  0.3521 -0.3797 -0.9003
  942MPD2    H713836   2.375   4.360  10.119  0.0384 -0.4938 -0.6420
  943MPD2     C13837   1.867   3.351  10.117  0.1521  0.1664 -0.2134
  943MPD2    C113838   1.872   3.250  10.206  0.1883 -0.2205  0.3354
  943MPD2    C213839   1.931   3.269  10.334  0.5264 -0.0057 -0.3905
  943MPD2    C313840   1.994   3.392  10.369  0.1566  0.4156  0.0358
  943MPD2    C413841   1.997   3.487  10.268 -0.5038  0.2594 -0.1967
  943MPD2    C513842   1.929   3.470  10.149 -0.0284 -0.5835  0.1642
  943MPD2     H13843   1.931   3.177  10.392  0.7953 -0.3440 -0.9206
  943MPD2    H113844   2.066   3.570  10.281 -0.7098  0.5594 -1.0768
  943MPD2    H213845   1.816   3.333  10.023 -0.4886  2.1325 -0.2614
  943MPD2    H313846   1.937   3.541  10.068 -1.0237 -0.9550 -0.2705
  943MPD2     N13847   2.061   3.419  10.495 -0.0313  0.1240  0.2339
  943MPD2    H513848   2.097   3.513  10.508  0.7908 -0.4212  2.0166
  943MPD2    N113849   1.816   3.129  10.168 -0.2015  0.2179  0.2265
  943MPD2    H713850   1.772   3.129  10.076  2.5066 -1.3658 -1.0976
  944MPD2     C13851   2.171   1.783  11.831  0.2645 -0.0561  0.1851
  944MPD2    C113852   2.180   1.875  11.728  0.0599 -0.0942  0.0732
  944MPD2    C213853   2.224   2.000  11.757  0.7022  0.8254  0.1590
  944MPD2    C313854   2.246   2.038  11.887  0.2665  1.2638 -0.5591
  944MPD2    C413855   2.248   1.941  11.986 -0.5613 -0.3245  0.1208
  944MPD2    C513856   2.214   1.811  11.956 -0.8679 -0.1897  0.0429
  944MPD2     H13857   2.238   2.077  11.683 -0.1690  0.3613 -0.4813
  944MPD2    H113858   2.299   1.964  12.078 -0.4916 -0.1299  0.0335
  944MPD2    H213859   2.147   1.678  11.815 -0.1888  0.5156 -2.8926
  944MPD2    H313860   2.226   1.741  12.039  1.1228 -1.2529 -1.1311
  944MPD2     N13861   2.277   2.172  11.913  0.1526 -0.1530 -0.7801
  944MPD2    H513862   2.258   2.231  11.833 -0.4211 -0.6881 -1.0353
  944MPD2    N113863   2.139   1.835  11.595  0.6213 -0.3843  0.4424
  944MPD2    H713864   2.125   1.737  11.575 -0.9608 -0.0717  0.0242
    1TMC1    C113865   0.403   3.387  15.066 -0.3622 -0.2470  0.6792
    1TMC1    C213866   0.308   3.324  14.989  0.2320 -0.3076 -0.4712
    1TMC1    C313867   0.324   3.188  14.962  0.0936 -0.2390  0.0778
    1TMC1    C413868   0.492   3.314  15.139  0.2637  0.2892 -1.0360
    1TMC1    C513869   0.503   3.184  15.108 -0.3576 -0.2538  0.0001
    1TMC1    C613870   0.423   3.118  15.019 -0.1103  0.6357 -0.3879
    1TMC1     C13871   0.389   3.527  15.099  0.6961 -0.0502  0.2408
    1TMC1     O13872   0.440   3.575  15.200  0.1213 -0.1964 -0.0107
    1TMC1     H13873   0.218   3.380  14.968 -0.6812 -1.6836 -0.2041
    1TMC1    H113874   0.565   3.357  15.207 -3.0057 -0.3575  2.9009
    1TMC1    H213875   0.419   3.010  15.018 -3.1521  0.7239  0.9962
    1TMC1    C713876   0.620   3.127  15.159 -0.0343 -0.4003 -0.3723
    1TMC1    C813877   0.214   3.117  14.896 -0.0053 -0.2609 -0.5838
    1TMC1    O113878   0.667   3.161  15.265  0.2368 -0.1710 -0.3682
    1TMC1    O213879   0.105   3.170  14.872  0.1349 -0.4979 -0.8510
    1TMC1    O313880   0.657   3.020  15.084  0.0213 -0.0798  0.0248
    1TMC1    H313881   0.609   3.020  14.998 -0.5393  0.3047  0.3316
    1TMC1    O513882   0.247   2.993  14.852  0.0023  0.3003 -0.4564
    1TMC1    H513883   0.341   2.968  14.865 -0.0694  0.6347  0.7122
    2MPD2     C13884   0.176   3.990  15.048 -0.1231 -0.4923 -0.7863
    2MPD2    C113885   0.190   3.933  14.923  0.2598  0.6245  0.1975
    2MPD2    C213886   0.236   3.804  14.909 -0.5370 -0.2448 -0.6070
    2MPD2    C313887   0.284   3.737  15.019  0.0795  0.8116  0.4429
    2MPD2    C413888   0.274   3.798  15.147  0.5293 -0.7062  0.2722
    2MPD2    C513889   0.222   3.919  15.154 -0.7272  0.2667 -0.9314
    2MPD2     H13890   0.217   3.750  14.817 -2.0408  0.7623 -0.8870
    2MPD2    H113891   0.289   3.743  15.239  0.8170 -0.7356  0.2080
    2MPD2    H213892   0.140   4.091  15.063 -1.3118 -1.1519  0.7653
    2MPD2    H313893   0.193   3.956  15.251 -0.2885 -0.4323 -0.5317
    2MPD2     N13894   0.320   3.600  15.000  0.3040 -0.0484 -0.1917
    2MPD2    H513895   0.302   3.561  14.908  2.3258  1.2476 -1.1382
    2MPD2    N113896   0.149   4.016  14.818  0.1577  0.5684 -0.3042
    2MPD2    H713897   0.113   4.108  14.841  0.5646  1.0758 -1.6747
    3TMC2    C113898   0.134   4.082  14.603  0.1156 -0.2740 -0.1854
    3TMC2    C213899   0.144   4.211  14.651 -0.2115 -0.2555  1.0105
    3TMC2    C313900   0.106   4.296  14.551  0.5488 -0.0123 -0.1729
    3TMC2    C413901   0.104   4.046  14.475 -0.7310  0.0145 -0.1532
    3TMC2    C513902   0.066   4.139  14.383  0.3138  0.5270  0.3044
    3TMC2    C613903   0.064   4.268  14.426  0.5557  0.1776 -0.1610
    3TMC2     C13904   0.163   3.977  14.685 -0.0412 -0.3864  0.0812
    3TMC2     O13905   0.207   3.876  14.635 -0.0791  0.3006 -0.2362
    3TMC2     H13906   0.176   4.245  14.749  1.1223 -0.2450  0.5717
    3TMC2    H113907   0.083   3.941  14.456 -0.9543  0.2322 -1.1366
    3TMC2    H213908   0.025   4.349  14.366 -1.3883 -0.2969  0.4704
    3TMC2    C713909   0.003   4.094  14.261 -0.3844 -0.4003 -0.3773
    3TMC2    C813910   0.108   4.441  14.578 -0.2962  0.0078  0.3846
    3TMC2    O113911   4.697   3.980  14.263 -0.2115 -0.1152 -0.1601
    3TMC2    O213912   0.120   4.525  14.493  0.0972  0.3036  0.0154
    3TMC2    O513913   0.049   4.446  14.701 -0.6674  0.0032 -0.3150
    3TMC2    H513914   0.021   4.356  14.728  0.7248 -0.4285 -0.2613
    4TMC2    C113915   4.499   0.043  13.652 -0.0959 -0.3060 -0.1779
    4TMC2    C213916   4.564   0.157  13.682  0.0791  0.0553  0.4617
    4TMC2    C313917   4.692   0.150  13.710 -1.1225  0.1167 -0.0634
    4TMC2    C413918   4.547   4.651  13.667 -0.1580 -0.1342 -0.2392
    4TMC2    C513919   4.679   4.643  13.702 -0.3501  0.1228 -0.3460
    4TMC2    C613920   0.011   0.023  13.731 -0.5970  0.7266 -0.1920
    4TMC2     C13921   4.376   0.065  13.580  0.0417 -0.4850 -0.2278
    4TMC2     O13922   4.306   0.165  13.609 -0.3148  0.2650  0.4068
    4TMC2     H13923   4.520   0.256  13.685  2.1225  1.0247 -1.7987
    4TMC2    H113924   4.483   4.564  13.670 -0.5128  0.0617 -1.8672
    4TMC2    H213925   0.114   0.009  13.760 -0.4591  1.4384 -0.3210
    4TMC2    C713926   4.730   4.520  13.769 -0.1717 -0.0623 -0.2448
    4TMC2    C813927   0.037   0.272  13.721  0.0245  0.4040 -0.4550
    4TMC2    O113928   0.073   4.535  13.861 -0.2599  0.8838  0.2854
    4TMC2    O213929   4.726   0.373  13.772 -0.0583 -0.8735 -0.2151
    4TMC2    O513930   0.136   0.254  13.633  0.1813 -0.4804  0.0011
    4TMC2    H513931   0.145   0.163  13.597  5.7603  0.3899 -0.9257
    5MPD2     C13932   4.037   4.633  13.252  0.2640 -0.0101  0.6917
    5MPD2    C113933   4.166   4.605  13.202 -0.1429 -0.3944 -0.4561
    5MPD2    C213934   4.275   4.641  13.274  0.8538  0.3132  0.2550
    5MPD2    C313935   4.259   4.704  13.393  0.2490 -0.1996 -0.2111
    5MPD2    C413936   4.133   4.730  13.447 -0.4180  0.8420 -0.1140
    5MPD2    C513937   4.022   4.698  13.372  0.0674 -0.5461  0.1116
    5MPD2     H13938   4.376   4.622  13.239  0.2286 -1.4507 -0.6217
    5MPD2    H113939   4.121   0.024  13.550  0.0499 -1.1113  0.5433
    5MPD2    H213940   3.950   4.617  13.190  0.3982 -0.8624  0.7185
    5MPD2    H313941   3.922   4.723  13.405 -0.5725 -0.4890 -1.8414
    5MPD2     N13942   4.375   4.722  13.467  0.1597 -0.3108 -0.1528
    5MPD2    H513943   4.465   4.698  13.426  0.2134 -0.5726  0.1170
    5MPD2    N113944   4.164   4.565  13.063  0.2964 -0.6350  0.0051
    5MPD2    H713945   4.071   4.565  13.022  0.1029 -1.7391  0.4545
    6MPD1     C13946   2.999   0.918  12.600  0.0230  0.4747  0.2399
    6MPD1    C113947   3.080   1.014  12.656 -0.3713  0.2951 -0.3153
    6MPD1    C213948   3.212   0.976  12.691 -0.4193 -0.0897  0.5382
    6MPD1    C313949   3.248   0.845  12.670 -0.4289 -0.5172 -0.5496
    6MPD1    C413950   3.167   0.756  12.612  0.5483  0.2796  0.6387
    6MPD1    C513951   3.039   0.795  12.582  0.4155  0.0630 -0.2945
    6MPD1     H13952   3.277   1.042  12.746 -1.1580  2.2860 -1.4360
    6MPD1    H113953   3.195   0.653  12.591 -0.3471  0.3549 -0.9386
    6MPD1    H213954   2.892   0.930  12.587 -0.3609 -1.6864  1.4680
    6MPD1    H313955   2.970   0.725  12.536 -1.7721  1.5130  0.7783
    6MPD1     N13956   3.368   0.790  12.719 -0.3649 -0.1488  0.1741
    6MPD1    H513957   3.381   0.689  12.719 -0.0697 -0.1133  0.1242
    6MPD1    N113958   3.017   1.127  12.703  0.1455 -0.5279 -0.1374
    6MPD1    H613959   2.938   1.138  12.640 -0.3134  3.3760  1.0814
    6MPD1    H713960   3.072   1.211  12.718 -1.5447  0.3927  0.9108
    7MPD2     C13961   3.622   0.180  13.075  0.3415  0.3345 -0.0274
    7MPD2    C113962   3.696   0.224  12.967  0.1496 -0.5847  0.5210
    7MPD2    C213963   3.765   0.139  12.891 -0.1053 -0.3009 -0.7445
    7MPD2    C313964   3.768   0.008  12.918 -0.1014 -0.3115 -0.2356
    7MPD2    C413965   3.695   4.699  13.031  0.3518  0.0725  0.4781
    7MPD2    C513966   3.622   0.046  13.106 -0.4844  0.6615 -0.1497
    7MPD2     H13967   3.827   0.181  12.812  0.7483  3.3626  1.9045
    7MPD2    H113968   3.693   4.594  13.057  0.2821 -0.2303 -0.7190
    7MPD2    H213969   3.564   0.246  13.138  1.6321 -1.1465  2.7066
    7MPD2    H313970   3.578   0.011  13.199 -1.0700  1.1949 -0.2265
    7MPD2     N13971   3.857   4.659  12.845 -0.3842 -0.2706 -0.8918
    7MPD2    H513972   3.864   4.570  12.894 -2.3827 -0.1382 -0.3949
    7MPD2    N113973   3.713   0.361  12.937  0.1956 -0.0772 -0.3099
    7MPD2    H713974   3.769   0.375  12.853 -2.1898  2.2348 -1.4733
    8TMC3    C113975   4.056   4.616  12.696  0.1864 -0.4732  0.1595
    8TMC3    C213976   4.095   4.551  12.811 -0.0779 -0.4833 -0.8871
    8TMC3    C313977   4.225   4.569  12.844 -0.0695  0.4306  0.2701
    8TMC3    C413978   4.142   4.701  12.624 -0.1793 -0.6166 -0.0827
    8TMC3    C513979   4.267   4.712  12.663 -0.0854  0.0651 -0.5534
    8TMC3    C613980   4.310   4.663  12.783  0.2390 -0.0287  0.6062
    8TMC3     C13981   3.933   4.688  12.725 -0.2302  0.0080  0.4025
    8TMC3     O13982   3.912   0.046  12.646 -0.6971  0.4473 -0.4742
    8TMC3     H13983   4.023   4.480  12.850  0.0782  0.4856  1.1925
    8TMC3    H113984   4.109   0.002  12.528 -3.2604 -2.2234  0.3297
    8TMC3    H213985   4.409   4.679  12.825  0.0377  1.0502  0.6632
    8TMC3    C713986   4.316   0.108  12.627 -0.1996 -0.3646  0.7771
    8TMC3    C813987   4.271   4.534  12.983  0.1462 -0.3005 -0.4535
    8TMC3    O113988   4.433   0.136  12.638  0.7952  0.7516 -0.8386
    8TMC3    O213989   4.391   4.515  13.011  0.2118 -0.1414  0.3319
    9TMC3    C113990   3.586   0.776  12.805 -0.1537  0.2347  0.1102
    9TMC3    C213991   3.717   0.814  12.781 -0.1683  0.4340 -0.1439
    9TMC3    C313992   3.823   0.733  12.820 -0.2334 -0.2017 -0.0304
    9TMC3    C413993   3.551   0.657  12.869 -0.3402 -0.5606 -0.4715
    9TMC3    C513994   3.661   0.587  12.919 -0.1363 -0.0391  0.1342
    9TMC3    C613995   3.790   0.616  12.891 -0.8783 -0.0498 -0.7246
    9TMC3     C13996   3.481   0.864  12.749  0.2602 -0.0833  0.1419
    9TMC3     O13997   3.508   0.980  12.728 -0.0616  0.0045  0.4481
    9TMC3     H13998   3.744   0.898  12.718 -2.1800  1.3480  0.2159
    9TMC3    H113999   3.450   0.621  12.879  0.3902 -2.7842 -1.1356
    9TMC3    H214000   3.872   0.567  12.943  2.1010  2.4699 -2.9901
    9TMC3    C714001   3.636   0.464  12.989 -0.2692  0.4337  0.2639
    9TMC3    C814002   3.948   0.729  12.749 -0.3434 -0.5744 -0.0967
    9TMC3    O114003   3.537   0.468  13.059  0.0372 -0.2807 -0.8206
    9TMC3    O214004   4.021   0.827  12.763  0.4538  0.5117  0.0517
   10MPD2     C14005   4.326   0.411  12.589 -0.2392 -0.1513 -0.4384
   10MPD2    C114006   4.217   0.334  12.627  0.0014  0.4836  0.1932
   10MPD2    C214007   4.100   0.401  12.656 -0.6632  1.4079 -0.0893
   10MPD2    C314008   4.086   0.540  12.660 -0.5599  0.2520  0.1328
   10MPD2    C414009   4.194   0.613  12.631 -0.5590 -0.1599 -0.3920
   10MPD2    C514010   4.306   0.546  12.587  0.0683 -0.2913 -0.6889
   10MPD2     H14011   4.023   0.327  12.674 -0.0679  0.2197 -2.2796
   10MPD2    H114012   4.204   0.721  12.635  0.4023 -0.2137 -1.7772
   10MPD2    H214013   4.423   0.370  12.563 -0.5052 -2.9774  3.0394
   10MPD2    H314014   4.399   0.597  12.568  0.1571  0.6719  2.3257
   10MPD2     N14015   3.965   0.596  12.706 -0.3735  0.9921  0.9208
   10MPD2    H514016   3.891   0.527  12.719  0.0590  0.4356  0.4419
   10MPD2    N114017   4.212   0.196  12.623 -1.0865  0.8461  0.2615
   10MPD2    H714018   4.123   0.150  12.636 -0.8862  0.6861  1.0218
   11MPD2     C14019   4.577   4.092  13.997  0.0792  0.3818  0.2697
   11MPD2    C114020   4.659   4.195  14.046 -0.7651 -0.0485  0.0743
   11MPD2    C214021   4.675   4.305  13.960  0.4508  0.4441 -0.1666
   11MPD2    C314022   4.622   4.308  13.829  0.4652 -0.3166 -0.2471
   11MPD2    C414023   4.530   4.214  13.791  0.8590  0.0769  0.3482
   11MPD2    C514024   4.515   4.109  13.880  0.1147 -0.7991  0.4140
   11MPD2     H14025   4.733   4.389  13.996 -0.4016  1.8797 -2.1647
   11MPD2    H114026   4.470   4.203  13.702 -0.5752 -1.2182  1.4772
   11MPD2    H214027   4.576   3.996  14.048 -0.1957  0.1001 -0.2717
   11MPD2    H314028   4.455   4.022  13.856 -0.6968  0.2645 -1.3478
   11MPD2     N14029   4.655   4.407  13.736 -0.6879 -0.1603 -1.0096
   11MPD2    H514030   4.606   4.410  13.647 -3.0704 -0.2658  0.2897
   11MPD2    N114031   4.728   4.194  14.172  0.3096  0.4034 -0.1198
   11MPD2    H714032   0.050   4.272  14.199  0.5094  0.1244  0.2388
    1MPD1     C14033   2.512   1.804  16.838  0.4375 -0.2782  0.7737
    1MPD1    C114034   2.584   1.816  16.720  0.3987  0.1513 -0.2862
    1MPD1    C214035   2.711   1.762  16.712 -0.5644  0.6939  0.0304
    1MPD1    C314036   2.750   1.664  16.802 -0.2013 -0.0178  0.1268
    1MPD1    C414037   2.668   1.648  16.918  0.8111  0.2814 -0.0073
    1MPD1    C514038   2.561   1.726  16.938 -0.5044  0.3265  0.0933
    1MPD1     H14039   2.772   1.794  16.629  0.7867 -0.3557  0.6172
    1MPD1    H114040   2.705   1.589  17.001  1.6580  0.6459 -0.1259
    1MPD1    H214041   2.415   1.850  16.849  1.5766  1.9843  1.4268
    1MPD1    H314042   2.509   1.720  17.033 -1.5332 -0.7532 -0.5458
    1MPD1     N14043   2.878   1.603  16.787 -0.3874 -0.3369  0.8490
    1MPD1    H514044   2.913   1.541  16.860  0.9110  1.7553  2.0271
    1MPD1    N114045   2.552   1.914  16.624  0.3000  0.4323 -0.4038
    1MPD1    H614046   2.585   1.889  16.531  2.0122 -1.5059  0.7332
    1MPD1    H714047   2.451   1.932  16.627  0.6324  2.0778  0.5574
    2MPD1     C14048   3.838   1.861  16.993 -0.4140  0.1797 -0.0016
    2MPD1    C114049   3.710   1.900  17.033 -0.7637  0.9979  0.7697
    2MPD1    C214050   3.601   1.846  16.966 -0.0315  0.0463 -0.2255
    2MPD1    C314051   3.620   1.747  16.872 -0.1809  0.9551  0.1328
    2MPD1    C414052   3.746   1.709  16.837 -0.0498  0.2659 -0.1938
    2MPD1    C514053   3.855   1.769  16.895 -0.5568 -0.5270 -0.2724
    2MPD1     H14054   3.503   1.884  16.993  0.0302  0.1726 -0.1764
    2MPD1    H114055   3.766   1.639  16.757 -0.6851 -1.6394  1.3124
    2MPD1    H214056   3.923   1.911  17.038 -0.4403  1.0563 -0.9096
    2MPD1    H314057   3.956   1.740  16.866 -0.6024 -2.0464  1.0681
    2MPD1     N14058   3.517   1.679  16.803  0.3243  0.6885  0.3228
    2MPD1    H514059   3.547   1.599  16.748 -2.7723 -1.2074  1.3999
    2MPD1    N114060   3.689   2.010  17.116 -0.0328 -1.1226  0.1891
    2MPD1    H614061   3.608   1.991  17.174 -0.0614  1.4155  0.9949
    2MPD1    H714062   3.771   2.019  17.176 -0.9814  0.4661  1.2446
    3TMC3    C114063   3.293   1.626  16.733 -0.7572  0.1670 -0.2346
    3TMC3    C214064   3.346   1.546  16.637  0.1478  0.4200 -0.6319
    3TMC3    C314065   3.259   1.466  16.564  0.5595  0.0072 -0.0227
    3TMC3    C414066   3.157   1.626  16.763  0.3890  0.1143 -0.5298
    3TMC3    C514067   3.075   1.545  16.692 -0.0311  1.4268  0.8167
    3TMC3    C614068   3.126   1.476  16.583  0.6742 -0.0538  0.2419
    3TMC3     C14069   3.384   1.717  16.808 -0.2713  0.0569 -0.2117
    3TMC3     O14070   3.327   1.800  16.875 -0.4062 -0.4642  0.1496
    3TMC3     H14071   3.452   1.538  16.621 -0.1991 -0.7265 -2.2753
    3TMC3    H114072   3.119   1.687  16.844  0.0658  0.2876 -0.8120
    3TMC3    H214073   3.056   1.424  16.518  2.3852 -1.3575 -0.5603
    3TMC3    C714074   2.952   1.606  16.673 -0.0268 -0.3223  0.4792
    3TMC3    C814075   3.289   1.393  16.441 -0.2914  0.4200 -0.6454
    3TMC3    O114076   2.911   1.630  16.561 -0.2853 -0.0837  0.3031
    3TMC3    O214077   3.195   1.368  16.368 -0.4547 -0.3849  0.0996
    4MPD1     C14078   3.572   1.073  16.156  0.6425  0.1867 -0.9320
    4MPD1    C114079   3.631   1.080  16.279 -1.0115  1.1740 -0.4332
    4MPD1    C214080   3.574   1.170  16.367 -0.2360  0.1342  0.2246
    4MPD1    C314081   3.461   1.246  16.340 -0.7670 -0.3327  0.0314
    4MPD1    C414082   3.396   1.230  16.221  0.2876 -0.2509 -0.3741
    4MPD1    C514083   3.456   1.142  16.131 -0.1661  0.0172 -0.5198
    4MPD1     H14084   3.631   1.168  16.460 -0.9004 -1.3260  0.6104
    4MPD1    H114085   3.299   1.268  16.194  0.0909 -1.2935 -1.0987
    4MPD1    H214086   3.616   1.011  16.078  2.1768  0.6837 -0.4611
    4MPD1    H314087   3.405   1.126  16.036  1.8983 -2.7694 -1.1392
    4MPD1     N14088   3.417   1.338  16.439  0.1850  0.5531  0.0320
    4MPD1    H514089   3.487   1.361  16.509 -1.2716 -0.9958  2.0065
    4MPD1    N114090   3.759   1.011  16.300 -0.5220 -0.3831 -0.1222
    4MPD1    H614091   3.797   1.008  16.395 -0.2254 -0.2920 -0.2406
    4MPD1    H714092   3.778   0.928  16.245  0.1169 -0.6845  0.5483
    1TCq1    O114093   4.192   0.351  11.171  0.3123  0.3956 -0.4758
    1TCq1    C114094   4.143   0.335  11.298  0.0211 -0.5816  0.4060
    1TCq1    O214095   4.206   0.341  11.399 -0.0946 -0.5225  0.0199
    1TCq1    C214096   4.005   0.321  11.283 -0.1894  0.3633 -0.7741
    1TCq1    C314097   3.962   0.303  11.159  0.9720  0.9957  0.1781
    1TCq1    C414098   3.835   0.346  11.127 -0.3290 -0.1054  0.2085
    1TCq1    C514099   3.749   0.405  11.218 -0.5570  0.0744  0.1643
    1TCq1    C614100   3.803   0.434  11.340 -0.2428 -0.4323  1.0575
    1TCq1    C714101   3.930   0.392  11.377 -0.0843  0.0434  0.3117
    1TCq1    C814102   3.719   0.496  11.441  0.6810  0.5107 -0.2019
    1TCq1    O414103   3.632   0.573  11.402 -0.0816  0.6586 -0.3788
    1TCq1    C914104   3.772   0.277  11.020  0.8451  0.0643  0.6727
    1TCq1    O514105   3.650   0.262  11.025 -0.2654  0.2554  0.5019
    1TCq1    O614106   3.845   0.208  10.947  0.2444  0.3217  0.3634
    1TCq1    H114107   4.116   0.367  11.111 -0.3705 -0.2698  0.2095
    1TCq1    H214108   4.016   0.231  11.099  0.5645  1.8453 -1.1919
    1TCq1    H314109   3.645   0.417  11.188 -0.6602 -0.9242  0.0906
    1TCq1    H414110   3.987   0.414  11.467 -0.0560  0.2677  0.2396
    2MPD1     C14111   3.704   0.674  11.926 -0.0036  0.9742 -0.1919
    2MPD1    C114112   3.794   0.574  11.921  0.7849  0.4642  0.2665
    2MPD1    C214113   3.809   0.511  11.802  0.3264  0.6186  0.0955
    2MPD1    C314114   3.741   0.546  11.684  0.4413 -0.1511  0.3500
    2MPD1    C414115   3.643   0.643  11.697 -1.1647  0.0781 -0.0539
    2MPD1    C514116   3.631   0.705  11.818  0.3476  0.2958  0.1082
    2MPD1     H14117   3.886   0.436  11.783 -0.7289  0.4719 -3.5053
    2MPD1    H114118   3.583   0.669  11.611 -1.6961 -0.3782  0.1792
    2MPD1    H214119   3.679   0.718  12.022 -1.1787 -0.6111  0.2500
    2MPD1    H314120   3.545   0.771  11.818  0.6707  0.7281  3.3994
    2MPD1     N14121   3.774   0.479  11.565 -0.5558 -0.6851 -0.1593
    2MPD1    H514122   3.850   0.411  11.569  0.9641  1.1500  1.7726
    2MPD1    N114123   3.868   0.535  12.035  0.1731  0.5130  0.2795
    2MPD1    H614124   3.889   0.611  12.099  2.1749 -0.0322  0.2615
    2MPD1    H714125   3.954   0.486  12.010  0.8899  1.5042  0.8156
    1TMC1    C114126   0.585   1.758   0.388  0.1563  0.4703  0.0752
    1TMC1    C214127   0.515   1.666   0.463 -0.3557  0.1465  1.0172
    1TMC1    C314128   0.383   1.669   0.467  0.2459  0.0209  0.5201
    1TMC1    C414129   0.522   1.850   0.305 -0.5592  0.3323 -0.6027
    1TMC1    C514130   0.386   1.858   0.322 -0.8628 -0.3838 -0.8851
    1TMC1    C614131   0.320   1.769   0.403 -0.3737  0.0024  0.3310
    1TMC1     C14132   0.721   1.720   0.343 -0.0662 -0.8072  0.4622
    1TMC1     O14133   0.745   1.738   0.226 -0.3738 -0.3758  0.8418
    1TMC1     H14134   0.566   1.596   0.527  1.5566  0.5117 -0.0911
    1TMC1    H114135   0.580   1.907   0.234 -0.2532  0.8800  0.0849
    1TMC1    H214136   0.212   1.770   0.396 -0.3357  0.3555 -0.1829
    1TMC1    C714137   0.312   1.921   0.213  0.4565  0.5591 -0.5999
    1TMC1    C814138   0.301   1.563   0.521 -0.7895 -0.2368 -0.2816
    1TMC1    O114139   0.357   1.930   0.097 -0.0278 -0.1997  0.8216
    1TMC1    O214140   0.196   1.608   0.555  0.1627  0.1091  0.6375
    1TMC1    O314141   0.222   2.005   0.266  0.5509  0.7775  0.1376
    1TMC1    H314142   0.236   2.006   0.364  1.3951  0.5098  0.0273
    1TMC1    O514143   0.386   1.466   0.576  0.2686  0.1287  0.3847
    1TMC1    H514144   0.473   1.457   0.532 -0.5943  0.1014 -1.3418
    2MPD1     C14145   1.196   1.531   0.373  0.5230  0.2086  1.3217
    2MPD1    C114146   1.156   1.574   0.494  0.5364 -0.3353 -0.2906
    2MPD1    C214147   1.020   1.605   0.516 -0.3699 -0.5169 -1.1128
    2MPD1    C314148   0.933   1.612   0.412 -0.7400  0.9220 -0.1254
    2MPD1    C414149   0.976   1.577   0.284  0.6167  0.1572  0.8938
    2MPD1    C514150   1.107   1.530   0.269  0.1164 -0.4807 -0.0980
    2MPD1     H14151   0.993   1.613   0.621 -0.1068 -2.2535 -0.9085
    2MPD1    H114152   0.920   1.582   0.192 -2.3768 -0.8648  2.6683
    2MPD1    H214153   1.293   1.483   0.366  1.7195  2.3014  3.3630
    2MPD1    H314154   1.135   1.484   0.175 -1.1559  0.2023 -0.8135
    2MPD1     N14155   0.804   1.656   0.439 -0.0858  0.2730  0.2630
    2MPD1    H514156   0.778   1.658   0.538  2.5872  2.0693  0.9383
    2MPD1    N114157   1.245   1.554   0.603 -0.3556  0.6280 -0.7105
    2MPD1    H614158   1.336   1.551   0.557  0.8491  2.8381  1.5508
    2MPD1    H714159   1.236   1.624   0.676 -3.0105  0.1878 -0.6306
    1MPD1     C14160   0.395   4.545  12.653 -0.5317  0.3011  0.3198
    1MPD1    C114161   0.500   4.631  12.626 -0.4058  0.1385 -0.4288
    1MPD1    C214162   0.476   0.034  12.616 -0.1792  0.3292 -0.2905
    1MPD1    C314163   0.351   0.079  12.656 -0.0496 -0.9928 -0.5389
    1MPD1    C414164   0.262   4.727  12.713 -0.6643  0.0566 -0.3789
    1MPD1    C514165   0.276   4.593  12.690  0.4469 -0.0996  0.1222
    1MPD1     H14166   0.555   0.105  12.599 -1.0985  1.2902 -0.5673
    1MPD1    H114167   0.162   0.020  12.743 -0.5415 -0.8109  0.9029
    1MPD1    H214168   0.398   4.438  12.639  1.0947  0.3253  0.4727
    1MPD1    H314169   0.194   4.525  12.712 -0.8940  1.1842 -0.9478
    1MPD1     N14170   0.316   0.214  12.633 -0.9286 -0.5239  0.0448
    1MPD1    H514171   0.392   0.271  12.598 -0.3022 -0.9531  0.7032
    1MPD1    N114172   0.620   4.574  12.586  0.0113  0.6728 -0.5217
    1MPD1    H614173   0.636   4.478  12.619 -1.4036  0.6298  0.0304
    1MPD1    H714174   0.693   4.637  12.621 -1.7422  2.3060  0.1698
    2MPD1     C14175   4.244   1.367  11.177 -0.0023  0.4818  0.3457
    2MPD1    C114176   4.271   1.334  11.045  0.4153  0.7186  0.2891
    2MPD1    C214177   4.405   1.320  11.013  0.3652 -0.3884  0.0764
    2MPD1    C314178   4.511   1.325  11.105  0.2415 -0.0795  0.3426
    2MPD1    C414179   4.477   1.357  11.229 -0.1196  0.5955 -0.3079
    2MPD1    C514180   4.343   1.380  11.267 -0.3427 -0.0558  0.1226
    2MPD1     H14181   4.433   1.301  10.910 -0.9771 -2.4030  0.0964
    2MPD1    H114182   4.554   1.371  11.303  1.4184  0.3052 -1.8502
    2MPD1    H214183   4.144   1.376  11.220 -1.1355 -2.6505 -1.6430
    2MPD1    H314184   4.336   1.399  11.373 -0.8750  0.7896 -0.0730
    2MPD1     N14185   4.647   1.317  11.073  0.2383 -0.3658  0.1937
    2MPD1    H514186   4.708   1.330  11.153  1.0639  0.1976 -0.5237
    2MPD1    N114187   4.179   1.323  10.941 -0.3767  0.4817  0.1162
    2MPD1    H614188   4.219   1.286  10.855 -1.6090 -0.6407  0.0138
    2MPD1    H714189   4.144   1.415  10.915 -1.5437 -0.3284 -1.1916
    3MPD1     C14190   0.251   0.783  10.397 -0.1352 -0.0659 -0.1750
    3MPD1    C114191   0.212   0.912  10.356  0.5381 -0.1793  0.0622
    3MPD1    C214192   0.239   1.021  10.441  1.0528 -0.0103  0.7931
    3MPD1    C314193   0.301   1.000  10.564 -0.0879 -0.4124 -0.6598
    3MPD1    C414194   0.357   0.878  10.593 -0.7820  0.3985 -0.2580
    3MPD1    C514195   0.335   0.776  10.506 -0.7050 -0.5771 -0.0827
    3MPD1     H14196   0.209   1.120  10.411 -0.2818 -0.0591  1.9926
    3MPD1    H114197   0.422   0.852  10.675 -0.0946  0.3028 -0.8297
    3MPD1    H214198   0.233   0.692  10.341 -0.2510 -0.7317  0.9497
    3MPD1    H314199   0.385   0.683  10.532 -1.1575 -0.7325  0.2315
    3MPD1     N14200   0.301   1.113  10.647  0.2405  0.3249 -0.0871
    3MPD1    H514201   0.259   1.196  10.607  0.2670  1.4518  2.2151
    3MPD1    N114202   0.115   0.932  10.254  0.1373  0.0469 -0.7823
    3MPD1    H614203   0.099   1.027  10.220  0.2561  0.4467  0.2974
    3MPD1    H714204   0.148   0.880  10.172  2.0461  0.3848 -0.2197
    4MPD2     C14205   4.635   0.797  12.213  0.4757  0.1737  1.0432
    4MPD2    C114206   0.004   0.824  12.302  0.3233  0.9553  0.0836
    4MPD2    C214207   0.105   0.917  12.269 -0.0177  0.5516 -0.2464
    4MPD2    C314208   0.097   0.986  12.147 -0.4181 -1.0023  0.4256
    4MPD2    C414209   4.719   0.973  12.066 -0.7840 -0.3123 -0.1412
    4MPD2    C514210   4.624   0.881  12.102 -0.2378  0.2435  0.3326
    4MPD2     H14211   0.194   0.921  12.331 -0.6451 -3.1604  0.8797
    4MPD2    H114212   4.696   1.031  11.978 -3.4821  2.6460  2.4876
    4MPD2    H214213   4.559   0.724  12.236  1.4064 -1.2201 -0.3476
    4MPD2    H314214   4.524   0.882  12.060 -0.5987  0.0451  1.1897
    4MPD2     N14215   0.206   1.076  12.122 -0.3078 -0.0065  0.8288
    4MPD2    H514216   0.273   1.075  12.198  1.2923 -1.5310 -0.6181
    4MPD2    N114217   0.036   0.744  12.413  0.0205  0.0367 -0.0908
    4MPD2    H714218   0.122   0.768  12.461  1.3815  1.2924 -3.1538
    5TMC3    C114219   0.030   0.581  12.581 -0.3891  0.4869  0.3107
    5TMC3    C214220   0.049   0.449  12.589  0.4847  0.2769  0.1952
    5TMC3    C314221   0.176   0.401  12.609 -0.0607  0.6143  0.0436
    5TMC3    C414222   0.133   0.666  12.620 -0.4297  0.1900  0.9599
    5TMC3    C514223   0.261   0.625  12.647 -0.4000 -0.3412 -0.1759
    5TMC3    C614224   0.282   0.488  12.634 -0.1214  0.9511  0.5101
    5TMC3     C14225   4.706   0.632  12.455  0.4751 -0.7460 -0.3209
    5TMC3     O14226   4.607   0.574  12.412  0.4315  0.9014 -0.4078
    5TMC3     H14227   4.709   0.381  12.554 -0.7615  1.2372  1.0777
    5TMC3    H114228   0.120   0.768  12.651 -1.4740  0.3599 -0.0139
    5TMC3    H214229   0.381   0.449  12.655 -0.5905 -0.2528  0.4911
    5TMC3    C714230   0.361   0.714  12.588  0.0237  0.4177 -0.1040
    5TMC3    C814231   0.187   0.261  12.634  0.3471  1.1109 -0.2503
    5TMC3    O114232   0.311   0.809  12.534 -0.6221  0.5798 -0.0930
    5TMC3    O214233   0.080   0.204  12.644  0.7596  0.4195 -0.6005
    6TMC3    C114234   0.110   1.306  10.949 -0.6796 -0.3677 -0.4982
    6TMC3    C214235   0.173   1.252  10.845  1.2305  0.7177 -0.3912
    6TMC3    C314236   0.308   1.234  10.847 -0.1151 -0.1879 -0.0175
    6TMC3    C414237   0.176   1.323  11.072 -0.1493 -0.3288 -0.2645
    6TMC3    C514238   0.301   1.285  11.071  0.1867 -0.3720 -0.1188
    6TMC3    C614239   0.374   1.250  10.961  0.5221  0.4922 -0.2154
    6TMC3     C14240   4.700   1.314  10.943 -0.5627 -1.1114  0.4997
    6TMC3     O14241   4.652   1.333  10.831 -0.5167 -0.2770  0.4574
    6TMC3     H14242   0.120   1.247  10.750  0.8592 -0.3511 -0.1313
    6TMC3    H114243   0.137   1.372  11.160  1.9490  0.5672  0.1614
    6TMC3    H214244   0.480   1.228  10.976 -0.0130 -2.0837 -0.2041
    6TMC3    C714245   0.364   1.261  11.201  0.2458  0.0431 -0.8419
    6TMC3    C814246   0.362   1.117  10.770 -0.1479 -0.0097  0.1310
    6TMC3    O114247   0.284   1.240  11.296 -0.2232  0.4395  0.4574
    6TMC3    O214248   0.446   1.045  10.827 -0.2392  0.1485  0.1235
    7MPD2     C14249   0.797   0.773  12.307  0.1821 -0.3498  0.5855
    7MPD2    C114250   0.678   0.846  12.316 -0.2846 -0.0120  0.7040
    7MPD2    C214251   0.575   0.814  12.402 -0.4205  0.0687 -0.0062
    7MPD2    C314252   0.582   0.702  12.487 -0.2556  0.3920  0.5161
    7MPD2    C414253   0.706   0.632  12.481 -0.8899 -0.5107  0.2949
    7MPD2    C514254   0.800   0.666  12.388  0.2044 -0.2555  0.1523
    7MPD2     H14255   0.492   0.882  12.414  0.6105  1.3588 -0.2736
    7MPD2    H114256   0.728   0.540  12.533  1.4497  0.2173  0.5943
    7MPD2    H214257   0.877   0.796  12.238  0.0412  1.4548  1.0345
    7MPD2    H314258   0.892   0.608  12.391 -0.0399 -0.5849  1.3905
    7MPD2     N14259   0.485   0.653  12.571  0.3157  0.3125  0.8262
    7MPD2    H514260   0.512   0.568  12.619  1.6348  0.4748  0.3515
    7MPD2    N114261   0.671   0.957  12.228  0.0561 -0.0480  0.2691
    7MPD2    H714262   0.748   0.960  12.162  1.1523 -0.7192  1.5169
    8TMC3    C114263   0.551   1.140  12.123 -0.3643  0.4407  0.4093
    8TMC3    C214264   0.612   1.111  12.008 -0.3700  0.2254 -0.0965
    8TMC3    C314265   0.561   1.147  11.888  0.3709 -0.7314  0.1616
    8TMC3    C414266   0.423   1.190  12.121  0.6113  0.6254 -0.4927
    8TMC3    C514267   0.357   1.198  12.001  0.0541  0.0811 -0.5677
    8TMC3    C614268   0.426   1.181  11.879 -0.3188  0.1046 -0.3418
    8TMC3     C14269   0.572   1.052  12.238  0.0076  0.1596  0.5700
    8TMC3     O14270   0.488   1.070  12.324 -0.2546 -0.0261 -0.3524
    8TMC3     H14271   0.706   1.057  12.004 -0.6069 -0.1321 -0.9173
    8TMC3    H114272   0.367   1.222  12.209  0.3434 -2.0241  0.2993
    8TMC3    H214273   0.376   1.212  11.789  1.5857 -2.6164 -2.3376
    8TMC3    C714274   0.226   1.142  12.006  0.2418 -0.1012  0.6231
    8TMC3    C814275   0.647   1.180  11.777  0.0594 -0.3926  0.1402
    8TMC3    O114276   0.159   1.152  11.906 -0.1086  0.1930 -0.4811
    8TMC3    O214277   0.766   1.199  11.802 -0.2039 -0.1958 -0.1704
    9MPD2     C14278   0.751   1.297  11.532  0.5108  0.3104  0.4756
    9MPD2    C114279   0.634   1.233  11.538  0.3002 -0.8734 -0.2652
    9MPD2    C214280   0.548   1.240  11.429 -0.5597  0.0952  0.1481
    9MPD2    C314281   0.585   1.293  11.305  0.0685 -0.1870  0.4605
    9MPD2    C414282   0.713   1.341  11.297  0.1532  0.9825 -0.3047
    9MPD2    C514283   0.784   1.353  11.412  0.3419  0.2937  0.0582
    9MPD2     H14284   0.449   1.201  11.452 -0.3303  0.3870  1.6218
    9MPD2    H114285   0.765   1.360  11.204 -1.8638 -0.9109 -1.8249
    9MPD2    H214286   0.823   1.310  11.612  0.4436  0.9541  0.4261
    9MPD2    H314287   0.885   1.393  11.409  1.0172 -1.4302 -0.4793
    9MPD2     N14288   0.495   1.287  11.197 -0.6545  0.4397  0.1872
    9MPD2    H514289   0.533   1.330  11.113 -0.7910 -0.6643 -0.4450
    9MPD2    N114290   0.581   1.182  11.661 -0.1741  0.0453 -0.2196
    9MPD2    H714291   0.485   1.151  11.658 -0.5560  1.3004 -0.8918
    1MPD1     C14292   4.443   4.725  14.069  0.2791  0.1050  0.0676
    1MPD1    C114293   4.476   4.719  14.205 -0.6518  0.0004  0.1500
    1MPD1    C214294   4.480   4.594  14.257 -0.6673 -0.0907 -0.0073
    1MPD1    C314295   4.442   4.474  14.201  0.8247  0.1091 -0.2899
    1MPD1    C414296   4.414   4.479  14.065  0.7800 -0.1424  0.0170
    1MPD1    C514297   4.410   4.603  14.006  0.8923  0.0136 -0.1871
    1MPD1     H14298   4.504   4.598  14.363 -1.5589 -0.4393  0.2098
    1MPD1    H114299   4.397   4.394  14.000  0.7326  1.1964 -1.7134
    1MPD1    H214300   4.426   0.080  14.014  0.8141  0.3961  0.3800
    1MPD1    H314301   4.372   4.609  13.905 -1.6757  0.3696  0.8004
    1MPD1     N14302   4.429   4.348  14.264 -0.2918 -0.1023  0.4280
    1MPD1    H514303   4.413   4.268  14.203 -1.6910 -0.5373  1.3601
    1MPD1    N114304   4.526   0.100  14.274 -0.2198  0.0600  0.6836
    1MPD1    H614305   4.489   0.184  14.230  1.0705 -1.2383 -2.8836
    1MPD1    H714306   4.503   0.096  14.373 -0.7019 -0.6900  0.5477
    2TMC2    C114307   4.455   4.013  14.589  0.1425  0.2069  0.2361
    2TMC2    C214308   4.425   3.920  14.491  0.8528 -0.0804  0.5968
    2TMC2    C314309   4.414   3.957  14.363 -0.1948  0.2555  0.6015
    2TMC2    C414310   4.460   4.148  14.556 -1.2319  0.2849 -0.4693
    2TMC2    C514311   4.429   4.183  14.428  0.1689 -0.0794 -0.1112
    2TMC2    C614312   4.413   4.088  14.328  0.1504 -0.2209 -0.2117
    2TMC2     C14313   4.478   3.972  14.728 -0.7500 -0.2770 -1.5030
    2TMC2     O14314   4.492   4.063  14.807 -0.1444 -0.3836  0.1310
    2TMC2     H14315   4.420   3.813  14.509 -1.7885 -0.1073 -0.3067
    2TMC2    H114316   4.461   4.220  14.636  0.0437  0.9137 -1.0431
    2TMC2    H214317   4.392   4.122  14.227  0.3168 -2.9442 -1.1618
    2TMC2    C714318   4.451   4.321  14.390 -0.1010 -1.0122  0.2114
    2TMC2    C814319   4.383   3.863  14.255 -0.1760 -0.2451  0.2718
    2TMC2    O114320   4.480   4.399  14.478 -0.5363  0.2144  0.1215
    2TMC2    O214321   4.345   3.904  14.145  0.6268 -0.2394  0.1894
    2TMC2    O514322   4.455   3.752  14.281  0.5037  0.2133 -0.1193
    2TMC2    H514323   4.501   3.756  14.367  1.8089  1.8057 -0.8871
    3MPD1     C14324   4.656   3.659  15.093 -0.5864 -0.7156  0.2543
    3MPD1    C114325   4.651   3.591  14.980 -0.8702  0.2592 -0.6502
    3MPD1    C214326   4.587   3.649  14.869 -0.7411 -0.3193  0.5207
    3MPD1    C314327   4.549   3.781  14.870 -0.4318  0.8656 -0.1764
    3MPD1    C414328   4.561   3.854  14.983 -0.2370 -0.4796 -0.8402
    3MPD1    C514329   4.612   3.790  15.096  0.2485  0.2312 -0.0034
    3MPD1     H14330   4.571   3.589  14.780 -1.9253 -0.9649  1.1577
    3MPD1    H114331   4.546   3.961  14.989  0.6177 -0.3595 -0.8239
    3MPD1    H214332   4.688   3.616  15.187  1.9912  0.9572  0.1326
    3MPD1    H314333   4.637   3.867  15.168  0.6572 -1.1033  1.2660
    3MPD1     N14334   4.511   3.841  14.746  0.1524 -0.0432  0.7346
    3MPD1    H514335   4.523   3.778  14.667  2.7346  3.6638 -1.8423
    3MPD1    N114336   4.650   3.451  14.993 -0.0110 -0.3606 -0.1556
    3MPD1    H614337   4.673   3.414  14.901 -2.2826 -2.9146  0.2780
    3MPD1    H714338   4.711   3.413  15.065 -0.1447 -1.0532 -0.4059
    1TMC1    C114339   3.317   3.478  13.072 -0.3588 -0.0968  0.9882
    1TMC1    C214340   3.197   3.543  13.109 -0.2255 -0.3050 -0.2240
    1TMC1    C314341   3.078   3.496  13.057 -0.4508 -0.7503  0.2066
    1TMC1    C414342   3.317   3.373  12.980 -0.0612 -0.2492  0.0717
    1TMC1    C514343   3.200   3.330  12.929  0.0030 -0.3461  0.0565
    1TMC1    C614344   3.083   3.390  12.966  0.2859  0.9037 -0.5410
    1TMC1     C14345   3.436   3.538  13.123  0.7890 -1.1522 -0.2537
    1TMC1     O14346   3.429   3.649  13.176  0.8927  0.6990 -0.1192
    1TMC1     H14347   3.194   3.596  13.204 -0.8013  0.8013 -0.8566
    1TMC1    H114348   3.409   3.332  12.938  0.8556  0.5026  1.3554
    1TMC1    H214349   2.987   3.355  12.930  0.7420 -0.1704 -0.7226
    1TMC1    C714350   3.183   3.197  12.873 -0.0542  0.2383  0.2422
    1TMC1    C814351   2.962   3.582  13.054  0.2420  0.6194  0.3018
    1TMC1    O114352   3.082   3.161  12.821  0.4025 -0.0606  0.1095
    1TMC1    O214353   2.850   3.551  13.012 -0.2613  0.6459  0.2747
    1TMC1    O314354   3.257   3.114  12.949 -0.1077  0.1597 -0.2702
    1TMC1    H314355   3.344   3.151  12.974  0.2894 -0.9184 -0.0552
    1TMC1    O514356   3.019   3.700  13.026 -0.5464 -0.3796  0.0065
    1TMC1    H514357   3.117   3.697  13.032 -0.5600  0.0812  0.3748
    2MPD2     C14358   3.709   3.595  13.245 -0.9749  0.4243  0.0914
    2MPD2    C114359   3.667   3.472  13.195 -0.0384  0.0504  0.8622
    2MPD2    C214360   3.742   3.363  13.222 -0.6017  0.0762  0.1917
    2MPD2    C314361   3.861   3.374  13.297 -0.3196 -0.3958  0.0293
    2MPD2    C414362   3.905   3.497  13.332  0.3506  0.0345 -0.1716
    2MPD2    C514363   3.823   3.605  13.311  0.3262 -0.0326  0.0201
    2MPD2     H14364   3.704   3.265  13.196  0.5340 -0.4708  0.6014
    2MPD2    H114365   3.998   3.523  13.382  0.5573 -0.4732 -0.2940
    2MPD2    H214366   3.645   3.683  13.244  1.7441  2.3827  0.0128
    2MPD2    H314367   3.849   3.698  13.360  0.0102 -0.2045  0.5145
    2MPD2     N14368   3.930   3.250  13.344 -0.4377  0.1385 -0.1926
    2MPD2    H514369   3.885   3.161  13.325  0.8952 -0.7963  1.0665
    2MPD2    N114370   3.537   3.449  13.126 -0.6708 -0.1614  0.0283
    2MPD2    H714371   3.506   3.362  13.083 -0.6376 -0.4898  0.6699
    3TCq1    O114372   4.305   2.822  13.732 -0.0896  0.3947  0.0883
    3TCq1    C114373   4.281   2.957  13.710 -0.2178  0.1936 -0.1041
    3TCq1    O214374   4.327   3.053  13.765 -0.7663  0.4247  0.0481
    3TCq1    C214375   4.199   2.966  13.590 -0.2005  0.2299  1.3013
    3TCq1    C314376   4.178   2.865  13.501 -0.8093 -0.0251 -0.8968
    3TCq1    C414377   4.118   2.892  13.380  0.2761  0.3596  0.0303
    3TCq1    C514378   4.063   3.020  13.350 -0.0551  0.0335 -0.4576
    3TCq1    C614379   4.091   3.117  13.449 -0.8220  0.0041  0.0172
    3TCq1    C714380   4.151   3.089  13.569 -0.4665 -0.6169 -0.2220
    3TCq1    C814381   4.036   3.248  13.428  0.5176 -0.4514  0.1730
    3TCq1    O414382   4.086   3.345  13.482 -0.2283  0.2312 -0.2805
    3TCq1    C914383   4.122   2.798  13.275 -0.7491 -0.0215  0.5678
    3TCq1    O514384   4.024   2.812  13.201  0.0816 -0.2369  0.3080
    3TCq1    O614385   4.187   2.692  13.297  0.5332  0.0592  0.5954
    3TCq1    H114386   4.228   2.770  13.700 -1.8003  3.0885 -0.2507
    3TCq1    H214387   4.223   2.768  13.516 -0.9340  0.0172 -0.2774
    3TCq1    H314388   4.022   3.045  13.253 -2.8608 -1.8557  0.2570
    3TCq1    H414389   4.152   3.166  13.644  1.2414 -0.0826 -0.8009
    1MPD2     C14390   2.608   0.349  15.154 -0.4417  0.6607  0.3546
    1MPD2    C114391   2.631   0.232  15.087 -0.0604  0.7652 -0.5205
    1MPD2    C214392   2.746   0.159  15.120  0.6278 -0.3031  0.3220
    1MPD2    C314393   2.839   0.211  15.208 -0.3934  0.4367 -0.1991
    1MPD2    C414394   2.814   0.332  15.269  0.2716  0.3611  0.2283
    1MPD2    C514395   2.701   0.405  15.244 -0.3291 -0.1909 -0.4006
    1MPD2     H14396   2.762   0.057  15.087 -2.8642 -1.4227  2.1136
    1MPD2    H114397   2.892   0.372  15.332 -1.5725  1.5944  1.7214
    1MPD2    H214398   2.510   0.394  15.148 -0.6412  0.2843  0.7628
    1MPD2    H314399   2.675   0.493  15.301  1.6087  0.8592 -1.1622
    1MPD2     N14400   2.957   0.139  15.235 -0.2853  0.1856 -0.6790
    1MPD2    H514401   3.016   0.167  15.313  0.9880 -1.6814 -0.9643
    1MPD2    N114402   2.542   0.186  14.986 -0.6136  0.2033  0.6932
    1MPD2    H714403   2.457   0.240  14.971 -0.5113  0.3724  0.7310
    2TMC3    C114404   2.441   0.042  14.818 -0.0822  0.5587  0.1064
    2TMC3    C214405   2.469   4.644  14.792  0.4836 -0.3033  0.6542
    2TMC3    C314406   2.482   4.605  14.654  0.0321  0.2366  0.1658
    2TMC3    C414407   2.429   0.132  14.709 -0.7981 -0.3848 -0.7541
    2TMC3    C514408   2.422   0.078  14.584 -0.0488  0.0184  0.7653
    2TMC3    C614409   2.451   4.689  14.554  0.5026 -0.2631 -0.5624
    2TMC3     C14410   2.551   0.071  14.911 -0.1427 -0.7805  0.5098
    2TMC3     O14411   2.639   4.730  14.897 -0.0860  0.2946  0.1429
    2TMC3     H14412   2.470   4.565  14.866 -0.6289 -1.1791 -0.2564
    2TMC3    H114413   2.392   0.233  14.723  0.3497 -0.0681 -0.0346
    2TMC3    H214414   2.449   4.655  14.451 -1.2402  0.8571 -0.9028
    2TMC3    C714415   2.406   0.171  14.466 -0.2486  0.0565 -0.2434
    2TMC3    C814416   2.574   4.496  14.633 -0.5968  0.5459 -0.2251
    2TMC3    O114417   2.396   0.121  14.355  0.0051  0.4450 -0.0928
    2TMC3    O214418   2.577   4.428  14.528  0.0830 -0.4103 -0.0205
    3TCq1    O114419   3.222   0.972  14.234  0.1013  0.5624  0.7061
    3TCq1    C114420   3.096   1.020  14.209 -0.4453 -0.7193 -1.3093
    3TCq1    O214421   3.046   1.072  14.105  0.0771 -0.6291 -0.1166
    3TCq1    C214422   3.020   0.930  14.291 -0.4308 -0.1212  0.3221
    3TCq1    C314423   3.063   0.906  14.418 -0.2629 -0.5046 -0.5499
    3TCq1    C414424   2.978   0.851  14.509 -0.2157 -0.4748 -0.0976
    3TCq1    C514425   2.846   0.809  14.470 -0.6876  0.9415  0.4184
    3TCq1    C614426   2.814   0.833  14.339 -0.6428  0.3630 -0.4975
    3TCq1    C714427   2.899   0.896  14.252  0.4462  0.5581 -0.2204
    3TCq1    C814428   2.696   0.761  14.281 -0.6487  0.4513  0.4304
    3TCq1    O414429   2.689   0.763  14.161 -0.2296  0.0006  0.3120
    3TCq1    C914430   3.014   0.855  14.651 -0.0116 -0.4451  0.6222
    3TCq1    O514431   2.938   0.801  14.740 -0.3402  0.5681 -0.2881
    3TCq1    O614432   3.106   0.929  14.686 -0.6303 -0.7238 -0.3106
    3TCq1    H114433   3.226   0.935  14.324  0.1136 -0.9291  0.0944
    3TCq1    H214434   3.155   0.943  14.460  0.3304 -0.0129 -2.2871
    3TCq1    H314435   2.778   0.772  14.546 -1.5702  0.8209 -0.4384
    3TCq1    H414436   2.860   0.920  14.153  0.9300 -2.1499 -1.0542
    4MPD2     C14437   2.451   0.619  14.238 -0.4128  0.7689 -0.4131
    4MPD2    C114438   2.516   0.621  14.354 -0.0464  0.3393 -0.4289
    4MPD2    C214439   2.495   0.523  14.452  0.2741  0.0302 -0.7252
    4MPD2    C314440   2.425   0.410  14.414 -0.1980  0.2010 -0.3042
    4MPD2    C414441   2.361   0.399  14.294 -0.0909  0.5857 -0.4051
    4MPD2    C514442   2.380   0.501  14.206 -0.1798 -0.4747  0.4369
    4MPD2     H14443   2.542   0.538  14.549 -0.8844  1.0519 -0.3140
    4MPD2    H114444   2.312   0.307  14.265 -0.2532  0.9573 -1.2974
    4MPD2    H214445   2.471   0.688  14.156  1.3010  1.2403  0.3966
    4MPD2    H314446   2.331   0.492  14.109  1.9172  1.2379 -0.7829
    4MPD2     N14447   2.426   0.305  14.503 -0.1811  0.0104  0.2165
    4MPD2    H514448   2.461   0.320  14.597  0.5940 -2.1861  0.2708
    4MPD2    N114449   2.617   0.712  14.379 -0.3665 -0.3678 -0.2421
    4MPD2    H714450   2.645   0.720  14.477 -2.0926  0.7536  0.1731
    5TMC2    C114451   3.218   4.498  15.150 -0.0785  0.3942  0.4841
    5TMC2    C214452   3.211   4.447  15.277 -0.2626 -0.7426  0.4638
    5TMC2    C314453   3.141   4.520  15.364  0.0780 -0.2395  0.6912
    5TMC2    C414454   3.177   4.630  15.132  0.1744  0.3568  0.0254
    5TMC2    C514455   3.125   4.718  15.226 -0.2478 -0.0125 -0.2640
    5TMC2    C614456   3.097   4.651  15.337 -0.0451 -0.2083  0.5788
    5TMC2     C14457   3.159   4.411  15.054 -0.0255 -0.2331 -0.3228
    5TMC2     O14458   3.173   4.289  15.069 -0.2460  0.1883 -0.3686
    5TMC2     H14459   3.224   4.340  15.292  1.8833 -0.5934 -0.3475
    5TMC2    H114460   3.197   4.667  15.033  1.3781  0.3642  0.2731
    5TMC2    H214461   3.023   4.698  15.400 -1.9756  0.6488 -2.3426
    5TMC2    C714462   3.008   0.035  15.162 -0.3405  0.0017  0.3117
    5TMC2    C814463   3.086   4.458  15.472 -0.2701  0.3129  0.0780
    5TMC2    O114464   2.976   4.715  15.058 -0.4114 -0.4577 -0.6331
    5TMC2    O214465   3.164   4.395  15.549  0.1961  0.3704  0.4786
    5TMC2    O514466   2.955   4.449  15.456  0.2242  0.2718 -0.5015
    5TMC2    H514467   2.903   4.483  15.380 -0.0188  0.1273 -0.3993
    6MPD2     C14468   2.797   4.293  14.703 -0.1345 -0.3855  0.0377
    6MPD2    C114469   2.773   4.421  14.752 -0.2643 -0.5984 -0.1346
    6MPD2    C214470   2.870   4.473  14.834 -0.1864 -0.1232  0.0640
    6MPD2    C314471   2.975   4.401  14.888 -0.2462  0.7092  0.3953
    6MPD2    C414472   2.998   4.279  14.835 -0.0073  0.3369 -0.0524
    6MPD2    C514473   2.905   4.224  14.747  0.6504  0.3050  0.0181
    6MPD2     H14474   2.854   4.577  14.858 -2.7968 -0.2125 -1.2987
    6MPD2    H114475   3.082   4.215  14.859 -0.8061 -0.8139 -0.3371
    6MPD2    H214476   2.733   4.256  14.624 -0.9838 -2.4519  1.7039
    6MPD2    H314477   2.927   4.126  14.707  1.5415  0.2799  0.5749
    6MPD2     N14478   3.063   4.473  14.981 -0.1430  0.6635 -0.9235
    6MPD2    H514479   3.041   4.568  15.007  1.2163  1.4459 -2.5995
    6MPD2    N114480   2.667   4.510  14.724  0.4973  0.3653 -0.5581
    6MPD2    H714481   2.666   4.596  14.779 -4.0825 -0.3804  0.5224
  945NH4     N114482   2.714   2.993  10.517  0.1320 -0.4997  0.0129
  945NH4     H214483   2.753   2.921  10.582  2.7537  1.0372  0.1433
  945NH4     H314484   2.794   3.051  10.485  0.2799 -1.0121 -0.5443
  945NH4     H414485   2.643   3.058  10.557  0.3708 -0.9858  1.2401
  945NH4     H514486   2.666   2.938  10.443  1.0058 -2.8389  1.1930
  946SOD     NA14487   1.898   4.707   8.395  0.4987  0.2080  0.1277
  947SOD     NA14488   0.557   4.400  17.129  0.0310  0.2013  0.2386
  948SOD     NA14489   3.071   4.578  12.802 -0.2153  0.0751  0.0760
  949SOD     NA14490   3.442   3.475  15.692  0.2511 -0.3515  0.0693
  950SOD     NA14491   4.100   3.554  13.960 -0.1016  0.1154  0.1138
  951SOD     NA14492   2.696   0.735  13.949  0.3009  0.2831  0.4897
  952SOD     NA14493   1.130   1.907  13.447 -0.5453  0.7321  0.4970
  953SOL     OW14494   1.731   1.337   0.620 -0.1399 -0.1053  0.4158
  953SOL    HW114495   1.650   1.307   0.581 -0.2468  0.6142  0.0957
  953SOL    HW214496   1.735   1.302   0.710 -2.4107 -0.3190  0.4164
  954SOL     OW14497   2.828   1.798   9.198  0.4748 -0.5770 -0.2599
  954SOL    HW114498   2.917   1.820   9.225  0.8571 -1.5263 -0.7132
  954SOL    HW214499   2.778   1.818   9.278 -1.0830 -0.1384 -1.3403
  955SOL     OW14500   2.322   4.275   6.406  0.2235  0.0758 -0.0543
  955SOL    HW114501   2.369   4.244   6.483  0.5618  0.1681 -0.2280
  955SOL    HW214502   2.262   4.202   6.394  1.2799 -0.7323 -0.3239
  956SOL     OW14503   1.985   1.717   6.850 -0.3268  0.0954  0.1145
  956SOL    HW114504   1.917   1.681   6.793 -0.6378  0.6365  0.1425
  956SOL    HW214505   1.944   1.712   6.937  1.6912 -0.0736  1.0581
  957SOL     OW14506   2.243   3.062  16.556 -0.5159 -0.5409 -0.0541
  957SOL    HW114507   2.151   3.043  16.574 -0.1812 -1.1553  0.9874
  957SOL    HW214508   2.229   3.151  16.522 -0.2748  0.0613  1.4015
  958SOL     OW14509   1.909   4.608  16.873 -0.5621  0.5441 -0.6816
  958SOL    HW114510   1.920   4.545  16.945 -0.6652  1.3478  0.0357
  958SOL    HW214511   1.815   4.621  16.876 -0.6601 -0.1012 -0.9958
  959SOL     OW14512   3.234   2.534   5.520  0.1469 -0.2844  0.0272
  959SOL    HW114513   3.247   2.462   5.458  0.0186 -1.0341  0.8542
  959SOL    HW214514   3.294   2.510   5.591 -0.2515 -2.4411 -0.3694
  960SOL     OW14515   4.614   4.391   6.373  0.0626  0.3972 -0.2366
  960SOL    HW114516   4.609   4.355   6.461  0.7115  1.0294  0.0569
  960SOL    HW214517   4.523   4.416   6.362 -0.1058 -1.0673 -2.1353
  961SOL     OW14518   3.328   3.950   1.047  0.4759 -0.0294  0.2351
  961SOL    HW114519   3.255   3.943   1.108  1.7465  0.4104  1.8277
  961SOL    HW214520   3.384   4.016   1.089  0.0605 -0.8785  2.1207
  962SOL     OW14521   0.326   2.995  16.693 -0.1619 -0.1355  0.3189
  962SOL    HW114522   0.351   2.942  16.768 -1.7215 -0.5692  0.5455
  962SOL    HW214523   0.285   3.063  16.747 -0.7970 -0.7924  0.6701
  963SOL     OW14524   4.447   3.939   2.515  0.3970  0.2647  0.1851
  963SOL    HW114525   4.404   3.924   2.430 -0.1044  4.8963 -0.3822
  963SOL    HW214526   4.379   3.981   2.568 -0.9131 -2.1658  0.4448
  964SOL     OW14527   3.654   4.186   6.587 -0.4742  0.1088  0.0502
  964SOL    HW114528   3.688   4.216   6.503  0.3762  0.8095  0.6433
  964SOL    HW214529   3.578   4.132   6.565  0.4449 -0.5147 -1.5766
  965SOL     OW14530   3.261   3.033   2.565 -0.0690 -0.9117  0.2589
  965SOL    HW114531   3.186   2.974   2.560 -0.2309 -0.6722 -0.1197
  965SOL    HW214532   3.271   3.053   2.658 -0.1015  0.4512 -0.0353
  966SOL     OW14533   0.916   0.171   5.186 -0.0671  0.5824  0.3550
  966SOL    HW114534   0.871   0.199   5.107  0.6027  0.3892 -0.0906
  966SOL    HW214535   0.909   0.243   5.248 -0.9654 -0.4278  1.4433
  967SOL     OW14536   1.821   3.316   2.738  0.2874 -0.1070 -0.1818
  967SOL    HW114537   1.750   3.256   2.764  1.3737 -1.8783 -1.2706
  967SOL    HW214538   1.867   3.323   2.822  1.7998  0.7446 -1.0893
  968SOL     OW14539   3.087   4.118   3.029 -0.0655  0.3301  0.0398
  968SOL    HW114540   3.104   4.043   2.971 -2.2307  0.4117 -0.6979
  968SOL    HW214541   3.175   4.153   3.040 -0.4160  1.0040  0.6784
  969SOL     OW14542   4.207   3.767   5.184 -0.1829  0.1096  0.1733
  969SOL    HW114543   4.221   3.678   5.151  0.5460 -0.1928  1.3067
  969SOL    HW214544   4.207   3.743   5.277 -0.7696 -0.8369 -0.0732
  970SOL     OW14545   2.266   1.425   0.216  0.2693 -0.0635  0.5782
  970SOL    HW114546   2.335   1.458   0.273 -0.0468  0.2248  0.8008
  970SOL    HW214547   2.316   1.364   0.163 -1.0122 -1.2468  0.7169
  971SOL     OW14548   2.166   4.726  11.630  0.0420 -0.3850 -0.1064
  971SOL    HW114549   2.232   4.656  11.631 -0.6565 -1.0823 -2.8360
  971SOL    HW214550   2.141   4.736  11.722 -1.5608  0.2932 -0.6144
  972SOL     OW14551   2.171   3.329   5.523 -0.1779 -0.5027 -0.6338
  972SOL    HW114552   2.120   3.361   5.598 -0.5329  1.4745 -1.7094
  972SOL    HW214553   2.230   3.404   5.515  0.2075 -0.6438  0.7635
  973SOL     OW14554   1.785   0.441   8.411 -0.0380  0.0223  0.5916
  973SOL    HW114555   1.872   0.435   8.450  1.2487  0.5562 -2.2060
  973SOL    HW214556   1.797   0.475   8.322 -1.9611  2.2442  1.1563
  974SOL     OW14557   0.808   0.287   2.942  0.0995 -0.6514 -0.1648
  974SOL    HW114558   0.903   0.290   2.956  0.0571  0.4123 -0.1165
  974SOL    HW214559   0.791   0.381   2.939 -0.7821 -0.8690 -2.3209
  975SOL     OW14560   3.841   4.043   0.340 -0.0660 -0.2917  0.9616
  975SOL    HW114561   3.856   3.950   0.329 -0.9593 -0.2047 -1.0081
  975SOL    HW214562   3.783   4.047   0.264  2.0100  0.4849 -0.5903
  976SOL     OW14563   2.706   2.406   6.025 -0.6741 -0.2507  0.1712
  976SOL    HW114564   2.645   2.433   5.957 -0.2998 -0.3156 -0.1890
  976SOL    HW214565   2.675   2.456   6.101  0.2003 -0.4912  0.6855
  977SOL     OW14566   0.296   2.320   7.361 -0.1975 -0.5037  0.1950
  977SOL    HW114567   0.348   2.276   7.428  2.3146  2.0502 -0.1165
  977SOL    HW214568   0.275   2.400   7.408 -0.4378 -1.8155  2.3418
  978SOL     OW14569   3.046   3.814   2.478 -0.4627 -0.0743 -0.5751
  978SOL    HW114570   3.124   3.764   2.501 -1.2751 -0.4674  1.3242
  978SOL    HW214571   2.979   3.770   2.530 -0.1992 -0.5051 -0.6032
  979SOL     OW14572   4.684   4.539   1.904 -0.0210  0.0440 -0.8001
  979SOL    HW114573   0.008   4.565   1.835  0.8130  3.1180  1.1034
  979SOL    HW214574   4.640   4.462   1.868  1.5803 -1.0703 -0.3390
  980SOL     OW14575   3.261   1.295  10.449 -0.0081  0.0176 -0.3914
  980SOL    HW114576   3.259   1.239  10.527 -3.0668 -0.6787 -0.9521
  980SOL    HW214577   3.276   1.223  10.388  2.0508  0.5514 -0.5152
  981SOL     OW14578   2.873   3.882   6.040  0.0435 -0.5777  0.0673
  981SOL    HW114579   2.838   3.964   6.005 -0.7629 -0.2377  1.6929
  981SOL    HW214580   2.968   3.894   6.034 -0.3734  1.5453 -2.3715
  982SOL     OW14581   1.810   4.032   3.686 -0.1719 -0.0438 -0.1409
  982SOL    HW114582   1.906   4.034   3.683 -0.2111  1.9789  0.1025
  982SOL    HW214583   1.775   4.117   3.711 -0.7278 -0.4231  0.3687
  983SOL     OW14584   3.679   4.728   3.831  0.0748  0.3228 -0.1702
  983SOL    HW114585   3.716   0.053   3.769 -2.9268  2.5154  0.2247
  983SOL    HW214586   3.645   4.665   3.768 -0.1281 -1.0971  1.3609
  984SOL     OW14587   4.707   4.137   5.403 -0.1846  0.1293  0.6764
  984SOL    HW114588   4.657   4.185   5.469 -0.0691  0.6259  0.3970
  984SOL    HW214589   0.050   4.129   5.456  0.3751  1.8195  0.0580
  985SOL     OW14590   1.777   2.087   9.839  0.2575 -0.2102  0.3960
  985SOL    HW114591   1.795   2.083   9.932  1.2162 -2.4910  0.1020
  985SOL    HW214592   1.740   2.001   9.821  0.3368 -0.2452  0.4023
  986SOL     OW14593   4.631   2.258  15.511 -0.0393 -0.5207 -0.0046
  986SOL    HW114594   4.621   2.349  15.536  2.8922  0.0554 -0.8756
  986SOL    HW214595   4.674   2.265  15.426 -0.4210 -0.9510 -0.2289
  987SOL     OW14596   1.868   2.694   1.821 -0.3329 -0.0215 -0.8141
  987SOL    HW114597   1.845   2.652   1.904  1.8284  1.0517  0.3336
  987SOL    HW214598   1.798   2.660   1.765 -1.1910  1.7900 -0.8363
  988SOL     OW14599   1.200   1.177   2.838  0.2398  0.1007  0.0350
  988SOL    HW114600   1.259   1.205   2.908 -0.0870 -0.0135  0.3558
  988SOL    HW214601   1.112   1.190   2.874 -0.0684 -1.9598  0.0018
  989SOL     OW14602   2.644   0.510   7.486  0.1909 -0.2301 -0.0338
  989SOL    HW114603   2.671   0.583   7.541 -2.1851  1.4468 -1.0899
  989SOL    HW214604   2.630   0.561   7.406  2.2614 -2.2391 -1.6827
  990SOL     OW14605   1.124   3.181   4.835 -0.6942  0.0822  0.0734
  990SOL    HW114606   1.106   3.189   4.928  0.7114 -0.1183  0.3682
  990SOL    HW214607   1.218   3.163   4.840 -0.3428  2.1908  1.2371
  991SOL     OW14608   2.858   3.556   4.372  0.4306  0.2324  0.6333
  991SOL    HW114609   2.916   3.552   4.296 -0.3822 -0.6023  0.0697
  991SOL    HW214610   2.840   3.463   4.382 -0.0131  0.5422  2.8704
  992SOL     OW14611   0.370   4.462  16.426  0.1449 -0.3889 -0.5777
  992SOL    HW114612   0.407   4.402  16.361 -1.1875 -0.3014 -1.4008
  992SOL    HW214613   0.317   4.520  16.371 -0.3053 -1.4513 -1.2769
  993SOL     OW14614   1.331   1.099  17.426  0.1119 -0.0057 -0.1522
  993SOL    HW114615   1.353   1.092  17.519  0.6932 -1.4364 -0.3974
  993SOL    HW214616   1.337   1.193  17.406 -0.9176  0.3973  1.4801
  994SOL     OW14617   2.621   1.349   8.439  0.1266  0.0980  0.2115
  994SOL    HW114618   2.571   1.426   8.412 -0.3525 -0.1227  0.4655
  994SOL    HW214619   2.708   1.385   8.455  0.5072 -0.2743 -0.9993
  995SOL     OW14620   0.825   2.476   6.786  0.5130  0.1619  0.4323
  995SOL    HW114621   0.769   2.513   6.854 -0.2862  0.3885 -0.3471
  995SOL    HW214622   0.901   2.448   6.837  0.4385 -1.5914 -0.4168
  996SOL     OW14623   0.638   4.216   9.070  0.0979  0.1391 -0.1925
  996SOL    HW114624   0.674   4.127   9.078 -1.4379 -0.5361 -0.8029
  996SOL    HW214625   0.701   4.269   9.021  0.2545 -0.3990 -0.5859
  997SOL     OW14626   1.093   2.398   8.420  0.1937  0.6711 -0.3545
  997SOL    HW114627   1.175   2.357   8.393 -0.2746 -1.1020  0.9335
  997SOL    HW214628   1.122   2.409   8.511  0.6222  0.6142 -0.4825
  998SOL     OW14629   2.763   1.717   6.453  0.1919 -0.5033 -0.5608
  998SOL    HW114630   2.692   1.774   6.423  1.1147  0.8663 -0.1236
  998SOL    HW214631   2.737   1.641   6.400 -1.1349 -0.6188  0.2766
  999SOL     OW14632   0.901   4.090   3.235 -0.1895 -0.2821  0.1788
  999SOL    HW114633   0.996   4.106   3.232 -0.0850 -0.2668  3.1442
  999SOL    HW214634   0.863   4.168   3.275 -0.5177 -0.4952  0.2771
 1000SOL     OW14635   0.353   0.305  16.628  0.0799 -0.1454  0.0623
 1000SOL    HW114636   0.378   0.276  16.540  2.0464  0.2515  0.4870
 1000SOL    HW214637   0.285   0.241  16.650 -0.9896  0.4394 -1.5069
 1001SOL     OW14638   0.945   0.758   3.251  0.0653 -0.0920  0.5107
 1001SOL    HW114639   1.009   0.758   3.179  0.9441  1.6714  1.2985
 1001SOL    HW214640   0.991   0.727   3.329  1.0940  0.6259  0.1803
 1002SOL     OW14641   0.057   2.055   6.724  0.2851 -0.1284 -0.2400
 1002SOL    HW114642   0.145   2.074   6.690  0.6637  0.8832  1.3329
 1002SOL    HW214643   0.077   2.055   6.817 -0.1676  0.7344 -0.1417
 1003SOL     OW14644   0.246   2.409   6.575 -0.5074 -0.7848 -0.0743
 1003SOL    HW114645   0.269   2.324   6.611  1.6657  0.5121  1.6062
 1003SOL    HW214646   0.152   2.411   6.557 -0.3240 -0.8750 -1.0856
 1004SOL     OW14647   4.542   4.319  16.001 -0.2337  0.2898  0.6136
 1004SOL    HW114648   4.537   4.412  15.976  1.6901 -0.0516 -1.0375
 1004SOL    HW214649   4.614   4.297  15.942 -0.5402  0.6899  0.0962
 1005SOL     OW14650   1.958   0.427   4.417  0.3535 -0.9278  0.0470
 1005SOL    HW114651   1.892   0.438   4.486  0.5387  0.6651 -0.0301
 1005SOL    HW214652   1.979   0.515   4.385 -2.8435 -0.3181 -0.3461
 1006SOL     OW14653   2.252   1.185  10.407 -0.5792 -0.1099  0.1434
 1006SOL    HW114654   2.193   1.173  10.482 -0.2610  2.2139  0.7655
 1006SOL    HW214655   2.257   1.280  10.406 -1.6112 -0.0402  1.7378
 1007SOL     OW14656   0.275   1.919  12.873  0.1954 -0.0924  0.5787
 1007SOL    HW114657   0.242   1.878  12.793 -1.6238  2.3736  0.0397
 1007SOL    HW214658   0.227   1.874  12.942 -2.7141 -1.3530 -2.2382
 1008SOL     OW14659   2.768   3.594  17.136 -0.0713 -0.2919  0.0930
 1008SOL    HW114660   2.805   3.670  17.091 -1.0428 -0.9124 -1.7780
 1008SOL    HW214661   2.770   3.625  17.226 -1.3909  0.1610 -0.0219
 1009SOL     OW14662   3.694   0.471   6.025 -0.1177  0.1977  0.1209
 1009SOL    HW114663   3.635   0.456   5.952  0.3974 -1.5409  0.0465
 1009SOL    HW214664   3.654   0.541   6.077 -0.9885 -0.9343  0.9640
 1010SOL     OW14665   1.971   3.783   4.964  0.1708  0.0013 -0.1760
 1010SOL    HW114666   1.902   3.742   5.018  0.7541 -0.4745  0.2097
 1010SOL    HW214667   1.954   3.877   4.964 -1.5790 -0.3363 -2.5290
 1011SOL     OW14668   1.017   1.837   2.746  0.0134 -0.3232  0.3200
 1011SOL    HW114669   1.047   1.864   2.833 -0.2386 -0.1935  0.3682
 1011SOL    HW214670   1.099   1.842   2.698  0.0211  2.4049  0.6684
 1012SOL     OW14671   1.211   4.156   3.427 -0.1398  0.9396 -0.2037
 1012SOL    HW114672   1.194   4.077   3.376  2.2898  0.6166 -0.5028
 1012SOL    HW214673   1.167   4.135   3.509 -0.9463 -0.7774 -1.0899
 1013SOL     OW14674   2.216   1.718   6.679  0.2912 -0.2834  0.0451
 1013SOL    HW114675   2.147   1.720   6.745 -1.2755 -1.8743 -1.5320
 1013SOL    HW214676   2.195   1.802   6.639  0.6122  0.8922  2.3758
 1014SOL     OW14677   3.636   2.962  17.637 -0.2238 -0.3739 -0.0015
 1014SOL    HW114678   3.695   2.898  17.597  0.9690  0.3839  0.5453
 1014SOL    HW214679   3.554   2.913  17.646 -1.0972  0.9722 -0.5955
 1015SOL     OW14680   1.891   1.871   5.086 -0.6257 -0.8395  0.3371
 1015SOL    HW114681   1.943   1.791   5.080 -0.5493 -0.8458  1.0874
 1015SOL    HW214682   1.802   1.838   5.100 -1.2278  1.4713  1.8666
 1016SOL     OW14683   0.556   0.991   5.408  0.0328  0.2391 -0.7379
 1016SOL    HW114684   0.638   0.954   5.440 -0.3856  0.0143  0.0863
 1016SOL    HW214685   0.500   0.993   5.486 -1.0517 -0.7448 -1.4880
 1017SOL     OW14686   1.419   0.502   1.211 -0.0655 -0.1985 -0.3746
 1017SOL    HW114687   1.475   0.471   1.282 -0.0786  0.2549 -0.1668
 1017SOL    HW214688   1.393   0.593   1.225  0.1414 -0.1489 -0.3117
 1018SOL     OW14689   1.677   0.680  10.803  0.0738  0.4820 -0.5429
 1018SOL    HW114690   1.732   0.758  10.812  0.1565  0.6175 -2.2016
 1018SOL    HW214691   1.737   0.618  10.761 -0.1962 -0.1080 -0.0515
 1019SOL     OW14692   0.110   2.049   4.292 -0.1491  0.1772 -0.7804
 1019SOL    HW114693   0.022   2.040   4.329 -0.3448  1.6481 -0.9065
 1019SOL    HW214694   0.139   2.116   4.354  0.3085  1.9256 -2.8713
 1020SOL     OW14695   1.582   2.932   4.895  0.9114  0.3781 -0.4557
 1020SOL    HW114696   1.567   2.931   4.990 -0.5378  0.9924 -0.6946
 1020SOL    HW214697   1.611   3.023   4.888  2.3400  0.1733  2.6965
 1021SOL     OW14698   1.293   0.820   6.228 -0.6999 -0.1375 -0.7412
 1021SOL    HW114699   1.262   0.815   6.137  0.5880  0.3241 -1.2017
 1021SOL    HW214700   1.212   0.811   6.278  0.7803 -0.8668  1.5551
 1022SOL     OW14701   0.613   0.688   7.818  0.2029  0.0983  0.1329
 1022SOL    HW114702   0.697   0.729   7.838  0.4630  0.5042 -1.7627
 1022SOL    HW214703   0.656   0.616   7.773 -1.3033 -1.9648  2.0009
 1023SOL     OW14704   2.053   1.777  13.173  0.5015  0.7059  0.3221
 1023SOL    HW114705   2.016   1.823  13.098  1.8450  0.9834 -0.1673
 1023SOL    HW214706   2.140   1.814  13.190  0.9713 -0.6838  0.9931
 1024SOL     OW14707   3.531   0.017   4.640 -0.1393  0.1390 -0.4272
 1024SOL    HW114708   3.546   4.693   4.712 -0.4570 -0.5316 -0.9198
 1024SOL    HW214709   3.586   0.088   4.672  0.3130 -0.1057 -0.6585
 1025SOL     OW14710   0.881   2.911   1.570  1.0997  0.5628 -0.0686
 1025SOL    HW114711   0.826   2.983   1.600  0.0427  0.6855 -2.3352
 1025SOL    HW214712   0.859   2.845   1.636  1.6597 -0.2985 -0.7354
 1026SOL     OW14713   3.509   0.332   0.226  0.2645 -0.0563 -0.0573
 1026SOL    HW114714   3.482   0.282   0.149 -0.2317  0.5374 -0.2648
 1026SOL    HW214715   3.594   0.373   0.212 -1.7760  4.2544  0.2916
 1027SOL     OW14716   3.775   2.608   8.009 -0.4056  0.5836 -0.0061
 1027SOL    HW114717   3.845   2.564   7.961 -1.2766 -0.1208 -0.6509
 1027SOL    HW214718   3.755   2.668   7.937  0.1713  1.8587  0.8989
 1028SOL     OW14719   0.113   1.366  13.385  0.4825 -0.3148  0.1473
 1028SOL    HW114720   0.107   1.350  13.480 -2.3615 -3.0761 -0.4978
 1028SOL    HW214721   0.172   1.295  13.358  2.3010  1.3608 -0.2605
 1029SOL     OW14722   3.510   3.337   2.388  0.3744 -0.3163  0.4747
 1029SOL    HW114723   3.428   3.368   2.426  0.9917  0.4857  1.1733
 1029SOL    HW214724   3.526   3.252   2.429 -1.1995 -0.5361  0.6301
 1030SOL     OW14725   3.899   4.641  15.095 -0.5006 -0.3772 -0.1881
 1030SOL    HW114726   3.816   4.684  15.116  0.2315  1.5482 -1.2810
 1030SOL    HW214727   3.955   4.719  15.095 -0.2824 -0.5351  0.5277
 1031SOL     OW14728   4.166   0.067   5.433 -0.5672  0.0535  0.7148
 1031SOL    HW114729   4.085   0.044   5.387 -0.0847 -1.6611  0.6986
 1031SOL    HW214730   4.230   0.029   5.371 -0.7455  0.1240  0.4875
 1032SOL     OW14731   0.034   3.019  16.999  0.2583  0.0640  0.2518
 1032SOL    HW114732   0.047   2.926  16.980 -1.8429 -0.0593 -0.5958
 1032SOL    HW214733   4.724   3.018  17.082 -0.3271 -2.7977 -0.1199
 1033SOL     OW14734   3.878   4.069  14.097  0.0206 -0.1759  0.5853
 1033SOL    HW114735   3.949   4.101  14.153  0.6244  1.3660 -1.0620
 1033SOL    HW214736   3.902   3.976  14.097 -0.5585 -0.3296  1.6523
 1034SOL     OW14737   0.152   0.808   9.150 -0.2389  0.0594 -0.1862
 1034SOL    HW114738   0.062   0.811   9.183 -0.3692 -2.7991 -0.2295
 1034SOL    HW214739   0.206   0.783   9.226  1.1753  1.8724 -0.5967
 1035SOL     OW14740   4.523   2.783  11.019 -0.1324 -0.2135  0.2163
 1035SOL    HW114741   4.562   2.764  11.104  0.5814 -3.2647 -0.8127
 1035SOL    HW214742   4.530   2.878  11.009 -1.0366 -0.3524 -1.7416
 1036SOL     OW14743   0.154   0.151   3.242  0.4076  0.0437  0.6324
 1036SOL    HW114744   0.145   0.172   3.149 -0.6047  0.4032  0.8006
 1036SOL    HW214745   0.060   0.157   3.260  0.0142  0.2516 -1.4485
 1037SOL     OW14746   2.254   2.634  12.440 -0.7188  0.0305  0.1817
 1037SOL    HW114747   2.186   2.569  12.457  0.4682 -1.4750 -0.8465
 1037SOL    HW214748   2.234   2.693  12.513  1.4417  1.1645 -0.1339
 1038SOL     OW14749   0.884   0.978   3.930 -0.2787  0.6932  0.0493
 1038SOL    HW114750   0.885   1.029   3.849  0.8986 -0.4186 -0.6391
 1038SOL    HW214751   0.820   1.033   3.974  1.8559  2.2885  1.1858
 1039SOL     OW14752   1.806   1.383   0.152 -0.4882 -0.1722  0.1320
 1039SOL    HW114753   1.864   1.433   0.210 -1.4142 -1.0792  1.8350
 1039SOL    HW214754   1.815   1.300   0.200 -0.7012  0.2574  0.9114
 1040SOL     OW14755   1.703   0.254   2.188 -0.0353  0.1329  0.0299
 1040SOL    HW114756   1.725   0.198   2.263 -0.7957  1.2211  1.0715
 1040SOL    HW214757   1.684   0.333   2.239  1.1408  0.7379 -0.4651
 1041SOL     OW14758   0.463   3.419   8.994 -0.0789 -0.2475 -0.2498
 1041SOL    HW114759   0.487   3.490   9.054  0.1199  0.2069 -0.8653
 1041SOL    HW214760   0.543   3.419   8.940  0.1540  0.4598  0.1035
 1042SOL     OW14761   1.451   0.461   4.621 -0.1561 -0.2548 -0.3527
 1042SOL    HW114762   1.498   0.509   4.552 -0.4777  2.1494  1.1015
 1042SOL    HW214763   1.506   0.440   4.696  1.2053 -0.3949 -1.3907
 1043SOL     OW14764   0.362   2.637  16.691  0.2835  0.3341 -0.0346
 1043SOL    HW114765   0.327   2.555  16.725  0.5390 -0.5386 -1.9060
 1043SOL    HW214766   0.402   2.678  16.768 -0.1040  2.6202 -1.0647
 1044SOL     OW14767   2.069   0.033  11.011  0.0140  0.2050 -0.3186
 1044SOL    HW114768   2.011   0.038  10.935 -1.2950 -1.3341  0.6083
 1044SOL    HW214769   2.052   4.679  11.031  0.8063 -0.2066 -1.5034
 1045SOL     OW14770   2.814   4.323   7.178  0.2523 -1.0070  0.0954
 1045SOL    HW114771   2.727   4.342   7.212  1.2472 -0.1351  2.1777
 1045SOL    HW214772   2.810   4.233   7.145  0.2183 -0.4629 -1.3912
 1046SOL     OW14773   3.847   1.138   7.308 -0.6830 -0.0013 -0.0346
 1046SOL    HW114774   3.823   1.117   7.398  0.1901  2.9419  0.8571
 1046SOL    HW214775   3.769   1.110   7.260  1.3361 -1.2529 -2.5941
 1047SOL     OW14776   0.781   0.316  12.466 -0.8232 -0.1489 -0.2596
 1047SOL    HW114777   0.845   0.359  12.410 -0.5841  3.5707  2.8598
 1047SOL    HW214778   0.826   0.233  12.477  0.6142  0.7590  0.7560
 1048SOL     OW14779   3.722   0.857  15.199 -0.2534  0.3281  0.0792
 1048SOL    HW114780   3.792   0.878  15.138 -1.4900  2.3863 -0.5970
 1048SOL    HW214781   3.660   0.927  15.179  1.1998  1.7961  0.7116
 1049SOL     OW14782   4.285   2.936   8.124  0.0275 -0.1687  0.3549
 1049SOL    HW114783   4.368   2.981   8.105 -1.2852  0.6287 -3.4696
 1049SOL    HW214784   4.282   2.945   8.219 -1.0032 -2.3970  0.5254
 1050SOL     OW14785   0.407   0.427   4.566 -1.0666  0.5298  0.0627
 1050SOL    HW114786   0.395   0.412   4.472 -1.0845 -0.2857  0.1966
 1050SOL    HW214787   0.484   0.375   4.585 -0.8461  1.6681  2.2898
 1051SOL     OW14788   3.615   1.977  11.237 -0.0259 -0.6290  0.5375
 1051SOL    HW114789   3.675   2.051  11.247 -1.6454  0.7467 -0.0451
 1051SOL    HW214790   3.590   1.984  11.145  3.2220  1.7482 -0.1467
 1052SOL     OW14791   4.113   4.593   4.535 -0.0426 -0.1370  0.0114
 1052SOL    HW114792   4.106   4.554   4.448 -2.8068  2.4068 -0.9190
 1052SOL    HW214793   4.104   4.513   4.587  0.3392  0.5654  1.1689
 1053SOL     OW14794   0.096   2.705   8.986 -0.3035 -0.2308 -0.5465
 1053SOL    HW114795   0.027   2.661   9.035 -2.0283  2.0765 -0.9099
 1053SOL    HW214796   0.160   2.720   9.055  0.1014  0.4354 -1.0683
 1054SOL     OW14797   3.716   3.937   0.878  0.3354 -0.0286 -0.7435
 1054SOL    HW114798   3.788   3.899   0.928  0.8171  0.8765 -0.7406
 1054SOL    HW214799   3.735   4.026   0.909 -0.1748 -1.1451  2.8605
 1055SOL     OW14800   2.439   2.496   9.003  0.4475  0.4071  0.1987
 1055SOL    HW114801   2.349   2.501   9.035  0.3022  0.0694 -0.1597
 1055SOL    HW214802   2.479   2.478   9.088  3.0972  0.8364 -0.9577
 1056SOL     OW14803   2.054   2.840   2.327  0.1654 -0.3312  0.4324
 1056SOL    HW114804   1.999   2.874   2.397 -1.1724 -1.0971 -0.2400
 1056SOL    HW214805   2.015   2.882   2.251  2.5940  2.0107  0.4759
 1057SOL     OW14806   1.604   1.681  16.505 -0.8062 -0.2255 -0.1474
 1057SOL    HW114807   1.537   1.613  16.513 -1.0188 -0.4603 -3.8295
 1057SOL    HW214808   1.651   1.664  16.423  0.1725 -2.8558  0.9576
 1058SOL     OW14809   2.577   3.115   2.923  0.1227  0.1201 -0.2622
 1058SOL    HW114810   2.594   3.023   2.908 -0.5423 -0.1301  0.4860
 1058SOL    HW214811   2.515   3.136   2.854  1.6333  1.3719 -1.2418
 1059SOL     OW14812   4.137   2.893  17.325 -0.4298  0.0165  0.6822
 1059SOL    HW114813   4.191   2.950  17.271 -1.8952 -1.1984 -2.0721
 1059SOL    HW214814   4.054   2.940  17.332 -0.5830 -0.3714  1.4430
 1060SOL     OW14815   1.906   1.227  17.091 -0.0038  0.1129  0.0973
 1060SOL    HW114816   1.986   1.203  17.045  1.9130  4.2482  1.2698
 1060SOL    HW214817   1.871   1.295  17.034 -2.6544 -0.6220  0.8604
 1061SOL     OW14818   4.635   2.948   7.296  0.4014  0.1646  0.0179
 1061SOL    HW114819   4.696   2.974   7.365  0.6997 -1.0942  0.2308
 1061SOL    HW214820   4.690   2.913   7.226 -0.0102  1.3435 -0.9040
 1062SOL     OW14821   4.198   0.963  10.904  0.3955 -0.2940 -0.4630
 1062SOL    HW114822   4.151   0.894  10.858 -2.2119 -0.5582  2.6723
 1062SOL    HW214823   4.191   1.031  10.836  1.7984  0.3565  0.0280
 1063SOL     OW14824   0.670   1.491   2.575  0.1207 -0.1069 -0.3993
 1063SOL    HW114825   0.694   1.487   2.482  1.1434 -0.1237 -0.1334
 1063SOL    HW214826   0.753   1.516   2.615 -0.6958  2.1273 -0.1065
 1064SOL     OW14827   2.776   2.933   8.941 -0.2317  0.1161 -0.2068
 1064SOL    HW114828   2.713   3.005   8.944 -2.2843 -1.6952  0.6142
 1064SOL    HW214829   2.725   2.854   8.920  1.0304 -0.5787 -0.6727
 1065SOL     OW14830   3.758   3.104   8.164  0.5294  0.9570 -0.1373
 1065SOL    HW114831   3.748   3.195   8.191  0.3513  0.2713  2.1019
 1065SOL    HW214832   3.690   3.095   8.097  0.0642  1.8846  0.2173
 1066SOL     OW14833   4.590   1.351  13.336  0.0130 -0.3785  0.3587
 1066SOL    HW114834   4.563   1.336  13.426 -1.7697 -0.0757 -0.1201
 1066SOL    HW214835   4.684   1.366  13.333 -0.2751  0.9616 -2.5419
 1067SOL     OW14836   1.037   0.109  15.667  0.3691 -0.1805  0.5617
 1067SOL    HW114837   1.108   0.164  15.700  0.3991 -0.8506  1.6060
 1067SOL    HW214838   1.095   0.068  15.603  0.9250  1.3886  0.0534
 1068SOL     OW14839   3.410   1.307   8.761 -0.3150 -0.3141  0.2191
 1068SOL    HW114840   3.474   1.235   8.763 -0.3283 -0.3324 -0.0315
 1068SOL    HW214841   3.384   1.311   8.853  1.8229 -0.4722  0.8334
 1069SOL     OW14842   0.327   3.240  10.190 -0.1240  0.5158 -0.6531
 1069SOL    HW114843   0.237   3.270  10.202 -0.1222 -0.0822  0.8420
 1069SOL    HW214844   0.321   3.144  10.192 -1.0151  0.5902  0.0308
 1070SOL     OW14845   4.509   2.445   9.281 -0.3837  0.2880 -0.6453
 1070SOL    HW114846   4.480   2.354   9.273 -1.8030  0.6294  0.7549
 1070SOL    HW214847   4.503   2.454   9.376  1.3443  1.1535 -0.6135
 1071SOL     OW14848   1.008   2.454   8.937  0.0412 -0.1580  0.0257
 1071SOL    HW114849   0.935   2.514   8.917  0.1010 -0.1737 -0.2419
 1071SOL    HW214850   0.985   2.381   8.879  0.5891 -0.6735  0.4581
 1072SOL     OW14851   0.689   4.302   1.701  0.4110 -0.3950  0.0097
 1072SOL    HW114852   0.698   4.250   1.781 -1.4216 -1.0754 -0.2045
 1072SOL    HW214853   0.765   4.264   1.657  0.4573 -0.0596 -0.1968
 1073SOL     OW14854   1.544   3.099  15.380  0.2606 -0.7729 -0.0231
 1073SOL    HW114855   1.634   3.085  15.352 -0.3018  0.4880 -2.4220
 1073SOL    HW214856   1.511   3.128  15.295 -2.4101  2.4303  2.1112
 1074SOL     OW14857   4.336   1.361   4.640  0.0824  0.2380  0.2840
 1074SOL    HW114858   4.300   1.293   4.583 -0.4080 -0.2968  1.2174
 1074SOL    HW214859   4.430   1.356   4.621 -0.3024  1.9148 -2.0607
 1075SOL     OW14860   3.920   4.253   5.614 -0.7596  0.0447  0.2647
 1075SOL    HW114861   3.985   4.183   5.625 -1.4276 -0.2700  2.0977
 1075SOL    HW214862   3.961   4.312   5.552  2.4975 -0.8724  1.5597
 1076SOL     OW14863   0.019   3.744   7.436 -0.5819 -0.1506  0.7004
 1076SOL    HW114864   4.672   3.772   7.473 -0.1952  2.3633 -0.3108
 1076SOL    HW214865   0.021   3.772   7.345 -1.0425  2.2824  1.4422
 1077SOL     OW14866   0.598   1.373   0.465  0.6139 -0.4187 -0.0554
 1077SOL    HW114867   0.666   1.314   0.496  3.1104  2.2885 -0.4766
 1077SOL    HW214868   0.585   1.347   0.374  0.7556 -0.5540 -0.0368
 1078SOL     OW14869   4.122   3.305   3.338 -0.3206  0.3667  0.0454
 1078SOL    HW114870   4.092   3.324   3.427 -0.7202 -0.6744  0.1376
 1078SOL    HW214871   4.216   3.294   3.355  0.1593  0.0715 -2.7731
 1079SOL     OW14872   2.443   0.443   7.901 -0.0781  0.2237 -0.3359
 1079SOL    HW114873   2.493   0.412   7.825 -0.4553 -0.4283 -0.3168
 1079SOL    HW214874   2.504   0.509   7.934  0.3171 -1.1255  1.6226
 1080SOL     OW14875   3.407   3.302  15.860 -0.6365 -0.1611  0.2120
 1080SOL    HW114876   3.353   3.331  15.933 -0.9807 -0.6772  0.1575
 1080SOL    HW214877   3.440   3.220  15.895 -2.8055 -1.6779 -1.3237
 1081SOL     OW14878   4.094   1.105  17.119  0.2400 -0.5283  0.1573
 1081SOL    HW114879   4.133   1.192  17.126 -2.7234  0.6574  2.2602
 1081SOL    HW214880   4.028   1.115  17.188 -0.4135 -0.3117 -0.4988
 1082SOL     OW14881   3.066   0.356  14.855 -0.0645 -0.5174  0.0326
 1082SOL    HW114882   3.067   0.409  14.935 -1.6499  2.8802 -2.1786
 1082SOL    HW214883   3.159   0.338  14.844  0.1886  0.1233  1.2254
 1083SOL     OW14884   1.459   2.885   8.478  0.1049  0.0533  0.0188
 1083SOL    HW114885   1.371   2.848   8.473 -0.4265  1.5897 -1.9294
 1083SOL    HW214886   1.453   2.953   8.411 -1.3431 -0.2995 -0.2216
 1084SOL     OW14887   2.175   3.163  12.546  0.2325 -0.3361  0.0706
 1084SOL    HW114888   2.080   3.162  12.543  0.2750  0.4368 -1.5608
 1084SOL    HW214889   2.187   3.233  12.483 -1.8935  1.5098  1.7379
 1085SOL     OW14890   1.958   3.772   2.065 -0.3153 -0.0003 -0.0590
 1085SOL    HW114891   2.008   3.845   2.100 -2.0311  1.1360  0.0132
 1085SOL    HW214892   1.940   3.725   2.146  0.0387 -0.0613 -0.0168
 1086SOL     OW14893   3.765   2.423   3.070  0.1622 -0.0433 -0.1993
 1086SOL    HW114894   3.779   2.328   3.066 -0.5792 -0.1101 -1.1985
 1086SOL    HW214895   3.795   2.447   2.982 -1.4722  1.2245 -0.3993
 1087SOL     OW14896   0.297   3.071   0.017 -0.7304 -0.2272  0.0841
 1087SOL    HW114897   0.300   3.165   0.034 -0.4309  0.0170 -1.3161
 1087SOL    HW214898   0.374   3.068  17.708 -1.1449 -1.4796 -0.4245
 1088SOL     OW14899   2.021   0.173   4.094 -0.1885 -0.7480  0.2146
 1088SOL    HW114900   2.086   0.235   4.127 -0.6882  0.0121 -0.2285
 1088SOL    HW214901   2.065   0.091   4.117  1.2938  0.6018  2.1335
 1089SOL     OW14902   2.619   1.560   9.161  0.2935 -0.2107  0.4590
 1089SOL    HW114903   2.702   1.588   9.197  0.6015 -1.8427  1.0421
 1089SOL    HW214904   2.570   1.642   9.156  1.0314  0.3908  3.3129
 1090SOL     OW14905   1.081   3.879   6.734 -0.7495  0.3839  0.1556
 1090SOL    HW114906   1.128   3.947   6.686 -1.0407 -2.0094 -3.5444
 1090SOL    HW214907   1.112   3.883   6.824  2.0360 -1.9725 -0.7215
 1091SOL     OW14908   0.698   2.551   5.237  0.2719  0.6942 -0.0674
 1091SOL    HW114909   0.666   2.614   5.173 -0.3590  0.7607  0.3159
 1091SOL    HW214910   0.778   2.599   5.258  1.8432 -1.0375 -2.0509
 1092SOL     OW14911   1.881   4.222   8.296  0.3840 -0.0893  0.5283
 1092SOL    HW114912   1.840   4.233   8.210 -0.1897  1.9123  1.0612
 1092SOL    HW214913   1.924   4.139   8.279 -0.4553 -0.6034  0.9385
 1093SOL     OW14914   0.160   2.222  12.064  0.3574  0.2290  0.7520
 1093SOL    HW114915   0.121   2.292  12.117  0.6416 -1.1367  2.7585
 1093SOL    HW214916   0.116   2.248  11.983 -1.9771  2.2493  2.6650
 1094SOL     OW14917   1.162   3.173  10.219  0.0101  0.0501  0.3460
 1094SOL    HW114918   1.173   3.139  10.131  1.8254  0.5721  0.3730
 1094SOL    HW214919   1.077   3.217  10.217 -0.3697 -0.6230  1.5785
 1095SOL     OW14920   1.758   2.494   3.983  0.6001  0.4329 -0.2622
 1095SOL    HW114921   1.668   2.512   4.008  0.3103  0.3068 -1.1948
 1095SOL    HW214922   1.795   2.464   4.066 -1.8087  0.2789  0.7565
 1096SOL     OW14923   4.677   4.534   8.517 -0.3678 -0.2133 -0.0613
 1096SOL    HW114924   4.681   4.570   8.606 -0.8251 -0.2568 -0.0263
 1096SOL    HW214925   4.651   4.444   8.536 -0.0251 -0.5616 -1.2607
 1097SOL     OW14926   1.205   0.091   7.743  0.4131  0.4864  0.2803
 1097SOL    HW114927   1.300   0.078   7.748  0.2944  0.0077  1.2104
 1097SOL    HW214928   1.177   0.003   7.767 -0.0300  0.6835  0.4750
 1098SOL     OW14929   0.069   4.547  12.436  0.1837 -0.0520 -0.0485
 1098SOL    HW114930   0.084   4.631  12.391 -0.3718 -0.8106 -1.6637
 1098SOL    HW214931   0.027   4.579  12.515  0.6489 -1.7768  0.8890
 1099SOL     OW14932   4.704   2.925   8.637  0.4735 -0.5646 -0.1601
 1099SOL    HW114933   4.667   2.989   8.577  0.2231 -0.3296  0.2407
 1099SOL    HW214934   4.686   2.839   8.600  2.3588 -1.3340  0.7001
 1100SOL     OW14935   0.324   2.006   2.054  0.0178 -0.4328 -0.0280
 1100SOL    HW114936   0.399   1.991   1.997  1.2561  3.2477  0.6272
 1100SOL    HW214937   0.347   2.077   2.114  0.5429 -0.7225  0.1137
 1101SOL     OW14938   4.076   2.860  14.869 -0.0732 -0.0889  0.3004
 1101SOL    HW114939   4.103   2.779  14.911  1.7672  0.9446  1.1041
 1101SOL    HW214940   4.073   2.918  14.945  2.5999  0.5637 -0.0716
 1102SOL     OW14941   1.983   0.363  11.258  0.0119  0.0766 -0.3158
 1102SOL    HW114942   1.978   0.458  11.246 -2.7456 -0.3409 -2.3971
 1102SOL    HW214943   2.079   0.361  11.256  0.0287  0.2467  0.3582
 1103SOL     OW14944   2.042   2.184   8.256 -0.1847  0.1146 -0.2671
 1103SOL    HW114945   2.065   2.254   8.194  0.4174  0.0875 -0.0783
 1103SOL    HW214946   1.998   2.233   8.324 -1.0637  0.3754 -1.0272
 1104SOL     OW14947   1.130   0.561   6.552 -0.1514  0.4314  0.3933
 1104SOL    HW114948   1.200   0.583   6.491  1.3076 -1.8244  1.2239
 1104SOL    HW214949   1.145   0.607   6.635 -0.7479 -0.6143  1.0778
 1105SOL     OW14950   0.320   3.720   9.168  0.0556 -0.0792  0.3920
 1105SOL    HW114951   0.258   3.743   9.237  0.8539 -0.5856  1.2698
 1105SOL    HW214952   0.362   3.806   9.170 -1.2805  0.5480  1.3685
 1106SOL     OW14953   1.970   0.380   0.884  0.1754 -0.0311  0.6724
 1106SOL    HW114954   1.903   0.406   0.947  1.0200 -2.7142  2.7140
 1106SOL    HW214955   1.991   0.292   0.917  0.3236  0.0594  0.8223
 1107SOL     OW14956   2.806   1.449   3.210 -0.0958  0.3577 -0.5871
 1107SOL    HW114957   2.776   1.533   3.174  0.3739  1.8372  2.4065
 1107SOL    HW214958   2.885   1.420   3.164  0.1202 -0.2926  0.1982
 1108SOL     OW14959   3.688   3.354  10.328  0.4107 -0.0037  0.1013
 1108SOL    HW114960   3.692   3.280  10.268  1.1944 -0.3726  0.5985
 1108SOL    HW214961   3.780   3.377  10.314  0.0776  1.0771 -0.3510
 1109SOL     OW14962   0.631   4.547   6.284 -0.3126 -1.1720 -0.5545
 1109SOL    HW114963   0.625   4.609   6.211 -0.0944 -0.0236  0.4080
 1109SOL    HW214964   0.616   4.467   6.234 -1.0823  0.3247 -2.7504
 1110SOL     OW14965   3.429   2.885   7.562 -0.3300  0.6103 -0.4691
 1110SOL    HW114966   3.390   2.814   7.612  2.0312  0.4777  1.1776
 1110SOL    HW214967   3.347   2.917   7.524 -0.7178  0.5906  0.3580
 1111SOL     OW14968   2.196   3.134   5.932 -0.0519 -0.2466  0.2480
 1111SOL    HW114969   2.204   3.049   5.888 -0.6374  0.2416 -0.8087
 1111SOL    HW214970   2.267   3.190   5.899  1.5363 -2.9294 -0.8301
 1112SOL     OW14971   0.118   3.549   0.310  0.5106 -0.6811  0.5954
 1112SOL    HW114972   0.151   3.501   0.386 -0.9563 -0.0387  1.6152
 1112SOL    HW214973   0.060   3.482   0.274 -1.4922  0.5611  1.5259
 1113SOL     OW14974   0.447   1.203   4.440  0.1068  0.1830 -0.5162
 1113SOL    HW114975   0.469   1.117   4.404 -1.6894 -0.2376 -0.5926
 1113SOL    HW214976   0.535   1.227   4.468 -0.1417 -0.5606  0.8969
 1114SOL     OW14977   3.262   1.292   8.096 -0.4660 -0.1221 -0.2240
 1114SOL    HW114978   3.317   1.370   8.100  1.3738 -1.6106  3.3443
 1114SOL    HW214979   3.320   1.244   8.037  2.6655  0.6175  2.2461
 1115SOL     OW14980   2.702   1.865   3.369 -0.2315  1.0400 -0.2721
 1115SOL    HW114981   2.698   1.946   3.419 -2.8813 -0.7616  2.4945
 1115SOL    HW214982   2.791   1.835   3.387 -1.0606 -0.1974  1.7711
 1116SOL     OW14983   3.119   1.435   6.792 -0.5106 -0.4220  0.4082
 1116SOL    HW114984   3.032   1.443   6.830 -0.5682 -2.0030  0.5938
 1116SOL    HW214985   3.118   1.348   6.753  2.1198 -0.4391  0.3327
 1117SOL     OW14986   3.944   2.503  11.892 -0.0875  0.3099 -0.1532
 1117SOL    HW114987   3.876   2.472  11.952 -0.9793 -0.1009 -1.3674
 1117SOL    HW214988   3.994   2.570  11.938  0.7036  0.0310 -0.5981
 1118SOL     OW14989   1.625   0.649   5.540 -0.4765  0.3682  0.1608
 1118SOL    HW114990   1.592   0.619   5.456  1.8732  0.7308 -0.8566
 1118SOL    HW214991   1.685   0.578   5.562 -0.1763  0.0594 -1.7365
 1119SOL     OW14992   2.736   3.952   9.107  0.6253 -0.1955 -0.2063
 1119SOL    HW114993   2.752   3.996   9.024 -1.8110  1.8351  0.4152
 1119SOL    HW214994   2.681   3.878   9.083  1.1876 -0.1167 -1.7539
 1120SOL     OW14995   4.200   3.022  10.872  0.2959 -0.0541  0.0162
 1120SOL    HW114996   4.109   3.047  10.884 -0.0549 -0.6003 -1.5069
 1120SOL    HW214997   4.197   2.956  10.803 -0.6224 -0.5323  0.5226
 1121SOL     OW14998   1.010   2.806   3.177  0.2268 -0.2881 -0.0257
 1121SOL    HW114999   1.055   2.732   3.137  0.2092 -1.1513  1.5622
 1121SOL    HW215000   0.935   2.822   3.119 -0.5296 -2.1409  0.4448
 1122SOL     OW15001   1.001   1.270   3.527  0.0114  0.2721  0.0730
 1122SOL    HW115002   1.047   1.205   3.474 -1.5568  2.2553 -3.7397
 1122SOL    HW215003   0.929   1.299   3.471  0.1061  1.1992  0.4246
 1123SOL     OW15004   4.645   0.311  15.877  0.6612 -0.3728 -0.7531
 1123SOL    HW115005   4.656   0.405  15.886  2.5765 -0.8575  1.7995
 1123SOL    HW215006   4.736   0.286  15.893  0.3363 -2.1281 -1.6133
 1124SOL     OW15007   3.122   1.237   7.023 -0.4017 -0.4708  0.5096
 1124SOL    HW115008   3.077   1.320   7.035  2.4197  1.2504 -0.7041
 1124SOL    HW215009   3.207   1.257   7.062  0.0762  0.6354 -1.1042
 1125SOL     OW15010   1.416   2.277   1.312  0.2523  0.1326 -0.4530
 1125SOL    HW115011   1.420   2.225   1.393  0.9979 -0.0146 -0.5829
 1125SOL    HW215012   1.326   2.268   1.282 -0.2725 -0.4245  1.2595
 1126SOL     OW15013   0.258   2.741  14.588 -0.5308 -0.1982 -0.3645
 1126SOL    HW115014   0.197   2.705  14.523 -0.5779 -0.0526 -0.4004
 1126SOL    HW215015   0.253   2.672  14.655  1.7211 -1.2466 -1.2789
 1127SOL     OW15016   4.598   4.337  17.370  0.0789 -0.2644 -0.5742
 1127SOL    HW115017   4.553   4.405  17.319  1.1836 -0.5118 -1.8814
 1127SOL    HW215018   4.559   4.261  17.328 -0.2389 -1.9833  2.8451
 1128SOL     OW15019   3.859   2.530   2.566 -0.1311  0.5744 -0.2315
 1128SOL    HW115020   3.921   2.587   2.522  1.0649  0.3590  1.1798
 1128SOL    HW215021   3.779   2.535   2.514 -0.2701  3.7962  0.2928
 1129SOL     OW15022   0.862   2.568   2.259  0.2227 -0.4639  0.2084
 1129SOL    HW115023   0.780   2.519   2.252  1.0885 -2.0931  1.4968
 1129SOL    HW215024   0.921   2.494   2.268 -0.1701 -0.9168 -0.9325
 1130SOL     OW15025   4.365   0.742   3.619 -0.0657  0.6496  0.5059
 1130SOL    HW115026   4.298   0.713   3.557  1.4826 -1.2071 -0.3013
 1130SOL    HW215027   4.349   0.678   3.688 -2.6286 -1.4083 -1.9615
 1131SOL     OW15028   1.626   1.154   9.347  0.1112 -0.2608 -0.0800
 1131SOL    HW115029   1.691   1.174   9.279  1.6435  0.9501  1.7201
 1131SOL    HW215030   1.610   1.236   9.394 -0.4740  0.2311 -1.1225
 1132SOL     OW15031   0.903   3.485   7.875 -0.6672 -0.0664 -0.0998
 1132SOL    HW115032   0.881   3.419   7.940  1.5709 -1.2334 -0.5139
 1132SOL    HW215033   0.839   3.553   7.898 -1.0208 -0.4558  0.0507
 1133SOL     OW15034   3.079   3.662   8.018 -0.2580  0.2191 -0.1941
 1133SOL    HW115035   3.042   3.750   8.024 -0.2119  0.1373  1.2921
 1133SOL    HW215036   3.088   3.641   8.111  0.0835  0.4792 -0.1692
 1134SOL     OW15037   1.375   1.025   5.276  0.2423 -0.4722  0.5537
 1134SOL    HW115038   1.455   0.975   5.291  0.7406  0.4030  0.8042
 1134SOL    HW215039   1.317   0.949   5.270 -1.9828  1.2196  0.4865
 1135SOL     OW15040   1.855   2.722   6.133 -0.8623 -0.5544 -0.3266
 1135SOL    HW115041   1.838   2.636   6.094  2.2311 -1.1040 -0.4714
 1135SOL    HW215042   1.802   2.725   6.212  1.0981 -2.0141  1.0390
 1136SOL     OW15043   1.836   1.810   0.070  0.3361 -0.5811 -0.1646
 1136SOL    HW115044   1.904   1.743   0.077  2.4585  1.5509 -0.4750
 1136SOL    HW215045   1.811   1.812   0.162  0.2616  1.2794 -0.2152
 1137SOL     OW15046   1.290   4.247   5.603 -0.2479  0.3739 -0.1189
 1137SOL    HW115047   1.367   4.228   5.657  0.7117 -2.0097 -2.3607
 1137SOL    HW215048   1.303   4.333   5.562  1.8134  0.2231  0.2087
 1138SOL     OW15049   2.830   0.821  17.292 -0.7383 -0.2280 -0.5729
 1138SOL    HW115050   2.893   0.782  17.232  0.6073  1.8657 -0.5113
 1138SOL    HW215051   2.747   0.785  17.261  0.1288 -3.3007  0.6801
 1139SOL     OW15052   1.070   3.436   0.202 -0.5050  0.1266  0.3321
 1139SOL    HW115053   1.104   3.525   0.215 -2.6671  0.7512  1.5920
 1139SOL    HW215054   1.034   3.453   0.115  2.1042 -0.0685 -0.7984
 1140SOL     OW15055   0.550   3.382  15.571  0.1547  0.1159 -0.0720
 1140SOL    HW115056   0.456   3.366  15.576  0.2643  0.0009  1.6875
 1140SOL    HW215057   0.577   3.293  15.591  0.3092 -0.2615 -2.0207
 1141SOL     OW15058   2.026   0.850  10.229  0.4686 -0.3226 -0.1417
 1141SOL    HW115059   1.984   0.919  10.280 -0.3636  0.1897 -1.4966
 1141SOL    HW215060   2.100   0.836  10.288  0.3713  2.5490  0.6504
 1142SOL     OW15061   4.458   3.932   7.846 -0.2092 -0.3421  0.2733
 1142SOL    HW115062   4.400   3.956   7.918 -1.1543  0.0245 -0.6025
 1142SOL    HW215063   4.516   4.008   7.844  1.1755 -1.4027  0.2155
 1143SOL     OW15064   1.836   1.382   2.441  0.1309  0.8454  0.3189
 1143SOL    HW115065   1.810   1.292   2.461 -0.6645  0.6313 -1.6433
 1143SOL    HW215066   1.799   1.401   2.355 -0.5351  1.4804  0.7486
 1144SOL     OW15067   3.392   1.542   7.714  0.3466  0.3273  0.2541
 1144SOL    HW115068   3.401   1.600   7.638  0.9487  0.2738  0.2835
 1144SOL    HW215069   3.326   1.592   7.761 -0.0667 -0.5764  0.6359
 1145SOL     OW15070   2.349   3.709   8.563 -0.2243  0.2065 -0.4102
 1145SOL    HW115071   2.275   3.683   8.509  0.1687 -0.6355 -0.5346
 1145SOL    HW215072   2.419   3.645   8.551 -0.7383 -0.1883 -1.2711
 1146SOL     OW15073   3.287   2.688   7.689  0.2062  0.1101 -0.3243
 1146SOL    HW115074   3.244   2.725   7.766  1.6700 -1.7868  1.4214
 1146SOL    HW215075   3.330   2.608   7.720  0.6935  0.9238  1.0984
 1147SOL     OW15076   4.201   0.176   8.981 -0.3176  0.3636 -0.4197
 1147SOL    HW115077   4.141   0.248   8.995 -1.6860 -1.0499  1.0349
 1147SOL    HW215078   4.259   0.211   8.913 -0.9974  2.1740 -0.0542
 1148SOL     OW15079   1.247   2.119   8.600  0.5660  0.0094 -0.0209
 1148SOL    HW115080   1.335   2.084   8.611  0.6196  0.2544  0.3230
 1148SOL    HW215081   1.265   2.213   8.594 -0.0686  0.0832 -0.8319
 1149SOL     OW15082   3.845   0.862  10.048 -0.0362  0.3561  0.8586
 1149SOL    HW115083   3.846   0.777  10.004  2.2410  1.1727 -0.6248
 1149SOL    HW215084   3.792   0.831  10.122 -1.2434  0.5505  0.0816
 1150SOL     OW15085   0.571   3.560   0.781 -0.1345  0.0687  0.5936
 1150SOL    HW115086   0.614   3.643   0.803  0.5427 -0.1945  0.2792
 1150SOL    HW215087   0.647   3.502   0.789  1.2602  1.8572  0.3781
 1151SOL     OW15088   0.438   4.385  14.483 -0.0950  0.2405  0.3788
 1151SOL    HW115089   0.456   4.353  14.571 -1.6424  1.0733  1.0171
 1151SOL    HW215090   0.429   4.300  14.440  1.9559 -0.7312  1.8956
 1152SOL     OW15091   0.121   4.412  16.554  0.0726 -0.1048  0.1952
 1152SOL    HW115092   0.209   4.430  16.521 -0.4571  0.4089 -0.9197
 1152SOL    HW215093   0.121   4.317  16.567 -1.4679 -0.1074  0.1921
 1153SOL     OW15094   4.266   2.445   3.327  0.3127  0.1513  0.0765
 1153SOL    HW115095   4.297   2.468   3.239  0.5387 -1.6934 -0.3304
 1153SOL    HW215096   4.312   2.362   3.340 -1.9464 -0.8982  1.3057
 1154SOL     OW15097   2.505   0.069   4.447 -0.3199  0.3823 -0.2000
 1154SOL    HW115098   2.447   0.032   4.514  1.4402  0.0600  1.1643
 1154SOL    HW215099   2.588   0.024   4.465  1.5985  3.2233 -2.0058
 1155SOL     OW15100   4.330   2.327   8.460  0.2331  0.6008 -0.2473
 1155SOL    HW115101   4.417   2.290   8.450  0.5690  1.5045 -0.6870
 1155SOL    HW215102   4.276   2.249   8.466  1.6331 -0.4321 -1.1296
 1156SOL     OW15103   1.535   0.737   0.642 -0.0039  0.3637  0.0426
 1156SOL    HW115104   1.518   0.725   0.736 -2.7797 -3.0618 -0.9044
 1156SOL    HW215105   1.543   0.832   0.647  0.8733  0.2837  0.1172
 1157SOL     OW15106   3.755   3.691   7.858 -0.0292 -0.1337 -0.0089
 1157SOL    HW115107   3.838   3.739   7.861 -0.5490  0.8643 -1.5834
 1157SOL    HW215108   3.690   3.743   7.812 -0.9397  0.3257  1.7813
 1158SOL     OW15109   4.598   2.457   4.042 -0.1349  0.3506  0.0511
 1158SOL    HW115110   4.670   2.518   4.029 -0.2085  1.0406  2.7560
 1158SOL    HW215111   4.618   2.378   3.991 -1.2480  0.9518 -1.3124
 1159SOL     OW15112   0.159   0.348   2.480  0.9685 -0.5258 -0.1924
 1159SOL    HW115113   0.249   0.379   2.468  1.6695 -1.6516  2.2759
 1159SOL    HW215114   0.147   0.326   2.572  0.0528  2.2446  0.3354
 1160SOL     OW15115   2.587   0.398  17.201  0.1818  0.3786 -0.1135
 1160SOL    HW115116   2.531   0.387  17.277 -1.3169  2.6271 -0.8896
 1160SOL    HW215117   2.640   0.318  17.207 -1.7440 -1.0521 -2.0676
 1161SOL     OW15118   3.050   2.342   5.222 -0.1435  0.8002 -0.0307
 1161SOL    HW115119   3.123   2.389   5.182 -0.6496  0.3536 -1.4621
 1161SOL    HW215120   3.100   2.302   5.293  0.3978 -0.9920 -1.4408
 1162SOL     OW15121   4.466   2.725   7.716 -0.6434  0.1782 -0.1615
 1162SOL    HW115122   4.483   2.804   7.665  1.4182 -0.1831 -0.0439
 1162SOL    HW215123   4.539   2.727   7.777  0.9913 -0.2882 -2.1142
 1163SOL     OW15124   4.113   2.716  12.286  0.2064  0.2572  0.2686
 1163SOL    HW115125   4.056   2.779  12.330 -0.8153 -2.5173  2.9643
 1163SOL    HW215126   4.109   2.645  12.350 -2.0894  0.9105  0.8266
 1164SOL     OW15127   2.994   3.421   9.419  0.0073 -0.3096 -0.3435
 1164SOL    HW115128   3.079   3.464   9.419 -0.0072 -0.2766  1.3459
 1164SOL    HW215129   3.004   3.381   9.333 -0.5318  0.9063 -0.9753
 1165SOL     OW15130   0.252   2.057   5.309  0.4152 -0.2481 -0.0644
 1165SOL    HW115131   0.343   2.085   5.313 -0.0090  1.6135 -3.1548
 1165SOL    HW215132   0.268   1.963   5.301 -0.6082 -0.3185 -1.2765
 1166SOL     OW15133   0.175   0.937  14.690 -0.0436  0.0255 -0.5057
 1166SOL    HW115134   0.181   0.857  14.637  0.1068  0.6101 -1.3706
 1166SOL    HW215135   0.266   0.957  14.712 -0.3710  1.2791 -0.3129
 1167SOL     OW15136   4.705   2.268  14.757  0.1664  0.0636 -0.0094
 1167SOL    HW115137   4.681   2.330  14.688 -0.6800  1.3722  1.4502
 1167SOL    HW215138   4.698   2.186  14.710  0.1054  0.1596 -0.1665
 1168SOL     OW15139   2.849   0.279  11.079 -0.0529  0.3888 -0.1406
 1168SOL    HW115140   2.905   0.208  11.049 -0.1274 -0.4381  1.6501
 1168SOL    HW215141   2.771   0.261  11.027 -1.8002  2.0073  1.9250
 1169SOL     OW15142   1.269   4.555   4.171 -0.2674 -0.0139 -0.4250
 1169SOL    HW115143   1.301   4.591   4.253  2.0605 -0.8736 -0.9555
 1169SOL    HW215144   1.176   4.576   4.177 -0.0980  0.3480  0.9331
 1170SOL     OW15145   2.892   2.478   8.921  0.0518  0.3177  0.0141
 1170SOL    HW115146   2.895   2.434   9.006  1.0612  1.4695  0.5911
 1170SOL    HW215147   2.951   2.554   8.923 -1.0612  1.1625  1.7312
 1171SOL     OW15148   3.776   3.307   0.081 -0.6628  0.1606  0.4848
 1171SOL    HW115149   3.857   3.278   0.123  0.2200  2.0878  0.0914
 1171SOL    HW215150   3.721   3.260   0.143 -1.3470 -1.3711 -1.2505
 1172SOL     OW15151   2.394   2.883   4.903  0.4424 -1.3935  0.5397
 1172SOL    HW115152   2.387   2.979   4.898 -1.1740 -1.5801 -0.7604
 1172SOL    HW215153   2.416   2.863   4.812 -0.4448  0.3210 -0.0608
 1173SOL     OW15154   3.690   4.287   1.340 -0.3145  0.5484 -0.0986
 1173SOL    HW115155   3.642   4.339   1.274  0.7990  1.5624 -0.1054
 1173SOL    HW215156   3.627   4.285   1.412 -0.9863  1.4542 -0.6382
 1174SOL     OW15157   4.003   1.224   6.879 -0.0607  0.2635 -0.1345
 1174SOL    HW115158   3.951   1.300   6.903 -1.0912 -0.1137 -1.1724
 1174SOL    HW215159   3.978   1.168   6.951  2.3520 -2.5708 -1.4731
 1175SOL     OW15160   0.435   0.193   3.099 -0.3606  0.3235  0.2460
 1175SOL    HW115161   0.454   0.142   3.020 -2.2464 -1.7275  1.1052
 1175SOL    HW215162   0.353   0.155   3.130  0.0032  0.1493  0.9816
 1176SOL     OW15163   0.479   2.412   1.766 -0.2109  0.6685 -0.1246
 1176SOL    HW115164   0.482   2.450   1.678  0.8020  0.2027 -0.2942
 1176SOL    HW215165   0.526   2.330   1.755 -0.5852  0.7834 -2.5579
 1177SOL     OW15166   0.417   0.091   4.301 -0.4468  0.2408  1.0394
 1177SOL    HW115167   0.432   0.185   4.294  2.1834 -0.3586 -1.5897
 1177SOL    HW215168   0.400   0.073   4.208  3.9513  0.4249  0.1724
 1178SOL     OW15169   0.282   1.855   5.792  0.1231 -0.4255  0.8132
 1178SOL    HW115170   0.367   1.879   5.756 -0.3544 -0.0158 -0.0247
 1178SOL    HW215171   0.236   1.939   5.789  0.6639  0.0215  5.0623
 1179SOL     OW15172   0.573   3.106  15.565 -0.2366  0.0267  0.1797
 1179SOL    HW115173   0.601   3.114  15.474 -0.5031 -1.2183 -0.0153
 1179SOL    HW215174   0.504   3.041  15.558 -0.1907 -0.1315  1.1810
 1180SOL     OW15175   2.386   1.774   7.862 -0.3918  0.2880 -0.5820
 1180SOL    HW115176   2.339   1.830   7.923  0.7649  1.8590 -1.1476
 1180SOL    HW215177   2.454   1.740   7.920 -0.5001  1.2159  0.0902
 1181SOL     OW15178   3.755   2.608   4.174 -0.3779  0.1012  0.4591
 1181SOL    HW115179   3.748   2.683   4.233 -1.3196  0.4225 -0.0622
 1181SOL    HW215180   3.798   2.654   4.102 -0.6685  0.3720  0.4554
 1182SOL     OW15181   3.235   4.267   5.944 -0.1380  0.4485  0.1423
 1182SOL    HW115182   3.248   4.185   5.896 -2.1339 -0.2729  0.8221
 1182SOL    HW215183   3.324   4.299   5.929 -0.8865  0.9424 -3.1506
 1183SOL     OW15184   1.120   4.684   8.208  0.0745  0.4146  0.2461
 1183SOL    HW115185   1.194   0.008   8.209 -0.4656  1.0857 -2.3493
 1183SOL    HW215186   1.128   4.638   8.292 -1.5389  0.7349  0.5697
 1184SOL     OW15187   4.002   0.423  16.598  0.2128  0.2594  0.1699
 1184SOL    HW115188   3.954   0.378  16.528 -0.7547  0.8077  0.4738
 1184SOL    HW215189   4.075   0.473  16.561 -0.0141  0.2279 -0.3233
 1185SOL     OW15190   1.464   0.875  13.797 -0.1278 -0.3373  0.2809
 1185SOL    HW115191   1.500   0.946  13.744 -0.7202 -1.2210 -1.3068
 1185SOL    HW215192   1.500   0.797  13.755 -0.3484 -1.2162  1.7337
 1186SOL     OW15193   2.702   3.183  12.604 -0.2329  0.1361  0.4035
 1186SOL    HW115194   2.678   3.176  12.511 -0.0354 -0.1867  0.3774
 1186SOL    HW215195   2.795   3.208  12.599 -0.2861  0.3515  0.4579
 1187SOL     OW15196   3.182   0.304   0.559  0.0028  0.1751 -0.7242
 1187SOL    HW115197   3.222   0.382   0.521  1.8604 -0.7513 -0.6430
 1187SOL    HW215198   3.090   0.331   0.554 -0.0099  0.4266  0.8364
 1188SOL     OW15199   3.691   1.411  12.260  0.0050 -0.3409 -0.3181
 1188SOL    HW115200   3.721   1.466  12.187 -1.4355  1.1064  0.1618
 1188SOL    HW215201   3.732   1.326  12.246 -1.6775 -1.3329  0.7701
 1189SOL     OW15202   3.729   0.691  14.807 -0.6475  0.3062 -0.2565
 1189SOL    HW115203   3.645   0.735  14.809 -0.1786  1.0950  2.5421
 1189SOL    HW215204   3.795   0.751  14.842 -0.7077 -0.1192  0.5741
 1190SOL     OW15205   2.784   3.049  13.022 -0.7888 -0.3273 -0.1618
 1190SOL    HW115206   2.777   3.018  12.931 -0.0348  0.0356 -0.3400
 1190SOL    HW215207   2.867   3.004  13.041  0.3181  1.7072 -0.2013
 1191SOL     OW15208   2.314   2.947   7.842  0.2455 -0.0229  0.1000
 1191SOL    HW115209   2.295   2.869   7.893  0.4294 -1.6579 -2.3297
 1191SOL    HW215210   2.409   2.943   7.843  0.2463  0.5303  2.1002
 1192SOL     OW15211   3.914   4.040   9.264 -0.4359 -0.3081 -0.3860
 1192SOL    HW115212   3.841   4.036   9.202 -0.2190  4.3667 -0.9765
 1192SOL    HW215213   3.986   4.050   9.203  0.1668 -0.2153  0.3359
 1193SOL     OW15214   0.420   1.758   4.524  0.0472  0.1443  0.1554
 1193SOL    HW115215   0.402   1.668   4.495 -0.1419  0.8561 -1.9637
 1193SOL    HW215216   0.332   1.793   4.515  0.1010 -0.1499 -1.4711
 1194SOL     OW15217   2.149   3.100  10.092  0.5575  0.1124 -0.0283
 1194SOL    HW115218   2.113   3.013  10.074 -1.2330  0.6798  0.7464
 1194SOL    HW215219   2.097   3.169  10.051 -0.5573 -0.1390  0.9684
 1195SOL     OW15220   1.607   4.037   6.815  0.1126  0.4820 -0.1345
 1195SOL    HW115221   1.649   4.079   6.740  1.4022 -0.8655 -0.1565
 1195SOL    HW215222   1.579   4.119   6.856  1.0008 -0.0987  1.6705
 1196SOL     OW15223   2.512   0.881   9.119 -0.0589 -0.3056  0.3126
 1196SOL    HW115224   2.584   0.937   9.091 -1.0808  1.7152  1.7901
 1196SOL    HW215225   2.457   0.951   9.153  0.2521 -0.4204  1.0481
 1197SOL     OW15226   3.089   0.812  13.377 -0.6264 -0.2392 -0.1590
 1197SOL    HW115227   3.178   0.811  13.413 -0.0711  0.2243 -1.5121
 1197SOL    HW215228   3.088   0.892  13.325 -0.9100  0.1664  0.4691
 1198SOL     OW15229   4.706   2.793   4.621  0.2951  0.1276 -0.3808
 1198SOL    HW115230   4.719   2.739   4.699  0.5491 -0.7138 -1.0061
 1198SOL    HW215231   4.674   2.723   4.564 -0.4780 -1.0375  1.4956
 1199SOL     OW15232   1.565   1.021  12.914  0.0877  0.0189  0.1730
 1199SOL    HW115233   1.589   1.092  12.974 -0.6220  0.5082 -0.1279
 1199SOL    HW215234   1.597   1.058  12.831 -2.6946 -1.1944 -1.4098
 1200SOL     OW15235   1.000   1.637   4.346 -0.3521  0.2530  0.0013
 1200SOL    HW115236   0.927   1.676   4.298 -0.0196  0.0082 -0.7182
 1200SOL    HW215237   1.073   1.699   4.341  0.3250 -0.6276 -1.2763
 1201SOL     OW15238   3.846   3.597   5.332 -0.2784 -0.1189  0.5113
 1201SOL    HW115239   3.903   3.559   5.265 -1.2913  0.7667 -0.8356
 1201SOL    HW215240   3.760   3.603   5.292  0.7556 -0.0307 -1.6830
 1202SOL     OW15241   2.947   2.423   2.798 -0.6343  0.0548 -0.0533
 1202SOL    HW115242   3.029   2.406   2.845 -0.8718 -0.5052  0.1634
 1202SOL    HW215243   2.888   2.442   2.871 -2.1139  0.9359 -1.4852
 1203SOL     OW15244   2.931   2.743   8.199 -0.0896  0.4059  0.5252
 1203SOL    HW115245   2.850   2.739   8.250 -0.9342  0.9247 -0.7756
 1203SOL    HW215246   2.896   2.694   8.125  3.8246 -1.1183 -0.3056
 1204SOL     OW15247   1.384   3.447   3.974  0.2372  0.7199  0.2777
 1204SOL    HW115248   1.328   3.503   4.028  0.0585  0.5366  0.2779
 1204SOL    HW215249   1.436   3.506   3.918 -2.3014  0.4991 -2.2786
 1205SOL     OW15250   4.429   4.013   0.248 -0.1600  0.7018 -0.1297
 1205SOL    HW115251   4.393   4.101   0.264  0.2384  0.6742  0.9046
 1205SOL    HW215252   4.438   4.012   0.153  0.5330  0.6000 -0.0655
 1206SOL     OW15253   0.186   2.806  12.750  0.5452 -0.1336  0.0888
 1206SOL    HW115254   0.145   2.720  12.746 -2.5882  1.3261  1.4470
 1206SOL    HW215255   0.211   2.804  12.658  0.6812  0.9093  0.0999
 1207SOL     OW15256   4.669   1.681   3.242  0.2413  0.1307  0.7021
 1207SOL    HW115257   4.723   1.650   3.314 -0.5804  0.6996  1.5733
 1207SOL    HW215258   4.679   1.609   3.180  0.7111 -0.4900  1.4938
 1208SOL     OW15259   0.463   1.536   1.812  0.5237  0.9398  0.2532
 1208SOL    HW115260   0.401   1.594   1.768  0.0835 -0.5328 -1.1147
 1208SOL    HW215261   0.413   1.516   1.891 -0.3898 -0.5494 -0.6871
 1209SOL     OW15262   4.032   4.133  15.107 -0.2018 -0.2236  0.0649
 1209SOL    HW115263   4.123   4.117  15.083 -0.1240 -2.1307  1.6649
 1209SOL    HW215264   3.999   4.183  15.032  0.9067  0.3412 -0.0534
 1210SOL     OW15265   2.392   1.815   8.226 -0.3344 -0.2974 -0.2047
 1210SOL    HW115266   2.314   1.859   8.260 -0.0649  0.5533 -0.6905
 1210SOL    HW215267   2.464   1.864   8.265  0.2676 -0.5551 -0.9804
 1211SOL     OW15268   3.258   2.942  16.070 -0.3131 -0.1883 -0.7887
 1211SOL    HW115269   3.236   2.903  15.985  0.6209 -1.9832 -0.2132
 1211SOL    HW215270   3.223   2.874  16.128  2.5711 -0.9984 -0.0274
 1212SOL     OW15271   1.439   3.483   5.965 -0.1418  0.4712 -0.3128
 1212SOL    HW115272   1.424   3.513   6.054 -1.4847  0.6047 -0.5888
 1212SOL    HW215273   1.378   3.410   5.955  0.1366 -0.0194  1.5500
 1213SOL     OW15274   2.829   4.113   7.606 -0.7333 -0.3154 -0.5563
 1213SOL    HW115275   2.787   4.044   7.554 -3.5038  0.4453  0.6989
 1213SOL    HW215276   2.785   4.099   7.689  2.0072 -3.0461  0.4316
 1214SOL     OW15277   3.223   1.775   7.771 -0.2744  0.4026 -0.5217
 1214SOL    HW115278   3.307   1.811   7.800  0.0656 -0.9131  0.1292
 1214SOL    HW215279   3.182   1.857   7.743 -1.0858  0.5158  1.0076
 1215SOL     OW15280   1.960   2.855   5.125 -0.2521 -0.5114  0.5460
 1215SOL    HW115281   1.909   2.922   5.171 -0.4634 -0.5072  0.3007
 1215SOL    HW215282   1.937   2.876   5.035  0.1853 -0.5687  0.4163
 1216SOL     OW15283   2.310   0.641   7.656 -0.2137  0.2029  0.1308
 1216SOL    HW115284   2.291   0.549   7.643  1.1160 -0.2887  1.5946
 1216SOL    HW215285   2.320   0.657   7.750 -2.9893 -0.7188  0.5652
 1217SOL     OW15286   1.786   0.991   7.165 -0.1889  0.0186  0.1849
 1217SOL    HW115287   1.751   0.959   7.082  2.0434 -1.0863 -0.3308
 1217SOL    HW215288   1.784   1.086   7.151  1.3126  0.1652  0.8918
 1218SOL     OW15289   3.208   2.139  13.202 -0.2495 -0.2769 -1.1326
 1218SOL    HW115290   3.226   2.046  13.195  2.6965  0.1600  0.2400
 1218SOL    HW215291   3.202   2.172  13.113 -2.2203 -0.1321 -0.9378
 1219SOL     OW15292   3.154   0.262   0.191  0.1167  0.4524 -0.2524
 1219SOL    HW115293   3.077   0.239   0.243 -0.0474 -0.0744 -0.7295
 1219SOL    HW215294   3.196   0.325   0.249  2.0626 -0.2100 -0.9447
 1220SOL     OW15295   0.615   4.535   2.927 -0.2184 -0.3686  0.0157
 1220SOL    HW115296   0.672   4.479   2.874  1.7539  1.2713  0.3838
 1220SOL    HW215297   0.623   4.495   3.014 -0.5431 -0.8774 -0.1876
 1221SOL     OW15298   4.708   2.606   4.852  0.0483  0.5131  0.0664
 1221SOL    HW115299   4.705   2.511   4.862  0.0902  0.7231  2.1007
 1221SOL    HW215300   4.624   2.633   4.889  0.1337  1.8723 -0.7420
 1222SOL     OW15301   1.248   2.994   3.164  0.4954 -0.2624 -0.3631
 1222SOL    HW115302   1.286   3.010   3.250  0.2380 -0.2466 -0.2494
 1222SOL    HW215303   1.171   2.939   3.183 -0.1497 -0.1598 -2.7164
 1223SOL     OW15304   4.124   2.932   6.714 -0.3608  0.3335 -0.1138
 1223SOL    HW115305   4.206   2.916   6.762 -0.8472  1.3003  1.0534
 1223SOL    HW215306   4.068   2.949   6.790  2.1666  1.0578  1.5814
 1224SOL     OW15307   2.433   1.309   9.257 -0.5557  0.2184 -0.1869
 1224SOL    HW115308   2.381   1.389   9.246 -1.0070 -0.1460 -0.6813
 1224SOL    HW215309   2.519   1.341   9.285 -0.6014  0.7242 -0.6375
 1225SOL     OW15310   1.948   3.986   9.925  0.5810  0.1885  0.1015
 1225SOL    HW115311   1.985   4.014   9.841 -1.4923 -2.8833 -1.8417
 1225SOL    HW215312   2.012   4.007   9.993  0.7047  0.4269 -0.0880
 1226SOL     OW15313   0.798   4.593   8.714  0.4368 -0.1253  0.2850
 1226SOL    HW115314   0.818   4.509   8.672  0.4317 -0.0535  0.1427
 1226SOL    HW215315   0.767   4.563   8.800  1.3712 -1.1395  0.2785
 1227SOL     OW15316   4.408   3.134  17.258 -0.1466 -0.2652  0.0735
 1227SOL    HW115317   4.429   3.167  17.171  1.6842  1.7266  1.2471
 1227SOL    HW215318   4.321   3.167  17.280  0.0273 -0.3919  0.9778
 1228SOL     OW15319   2.152   1.301   2.723  0.0854 -0.0462 -0.2655
 1228SOL    HW115320   2.209   1.225   2.737 -0.1747 -0.1373  0.2782
 1228SOL    HW215321   2.120   1.319   2.811 -1.6052  1.2671 -1.1624
 1229SOL     OW15322   0.987   1.445   6.406 -0.1853  0.1248  0.3428
 1229SOL    HW115323   0.965   1.419   6.317  1.1513  0.1039  0.0291
 1229SOL    HW215324   0.901   1.425   6.445 -0.4774 -2.1673 -1.4645
 1230SOL     OW15325   0.082   3.717   4.687 -0.8798  0.2873 -0.5606
 1230SOL    HW115326   0.119   3.785   4.631  0.7204  1.3517  1.7572
 1230SOL    HW215327   0.065   3.772   4.763  2.5747 -0.4680  0.7747
 1231SOL     OW15328   1.248   3.568   0.815 -0.1240 -0.7753 -0.0981
 1231SOL    HW115329   1.339   3.558   0.789  0.4881 -1.6719  2.4264
 1231SOL    HW215330   1.241   3.663   0.824  0.5578 -0.9720  2.5158
 1232SOL     OW15331   2.015   4.652   2.816  0.5458  0.0223 -0.2558
 1232SOL    HW115332   2.008   4.557   2.828  0.4129 -0.1868 -1.8987
 1232SOL    HW215333   1.965   4.672   2.736  0.0704  0.4621  0.1515
 1233SOL     OW15334   4.346   0.493  17.174 -0.0862  0.0781 -0.1122
 1233SOL    HW115335   4.340   0.541  17.257 -1.8589 -2.0823  1.0156
 1233SOL    HW215336   4.375   0.405  17.197  0.2842  0.2612  0.1401
 1234SOL     OW15337   1.976   1.018   4.246 -0.1901  0.7548  0.8009
 1234SOL    HW115338   2.034   0.968   4.189 -0.7454  0.3685  0.5699
 1234SOL    HW215339   1.930   1.072   4.182  1.2847 -1.0612 -1.7915
 1235SOL     OW15340   3.687   2.225   3.484  0.4795 -0.7124 -0.0084
 1235SOL    HW115341   3.737   2.194   3.408  0.2903  2.2011 -1.3282
 1235SOL    HW215342   3.739   2.215   3.564  1.3754  1.1936 -0.3576
 1236SOL     OW15343   4.473   1.032   9.404  0.1420 -1.0632  0.2962
 1236SOL    HW115344   4.451   0.971   9.333 -0.8287  0.0815 -0.3759
 1236SOL    HW215345   4.480   1.116   9.359 -2.1509  0.2511  2.4223
 1237SOL     OW15346   0.408   1.638   5.978 -0.0091  0.1239  0.0633
 1237SOL    HW115347   0.406   1.709   5.914  0.4106 -0.2546 -0.3648
 1237SOL    HW215348   0.476   1.662   6.041 -0.4022 -0.2994  0.6441
 1238SOL     OW15349   1.442   4.650   5.228  0.3661 -0.0843 -0.6540
 1238SOL    HW115350   1.373   4.715   5.210  0.9705  0.8712  0.5611
 1238SOL    HW215351   1.460   4.670   5.319  0.7126  0.7095 -0.9032
 1239SOL     OW15352   1.572   1.718   1.667  0.3595 -0.1822 -0.1325
 1239SOL    HW115353   1.626   1.734   1.744  1.4916  0.2211 -1.0084
 1239SOL    HW215354   1.634   1.706   1.595  1.2328  1.0595  0.4183
 1240SOL     OW15355   0.622   1.748   2.488  0.1357 -0.0968 -0.1190
 1240SOL    HW115356   0.715   1.749   2.463 -0.1476 -0.7996 -1.2103
 1240SOL    HW215357   0.637   1.791   2.572  1.7164  0.8902 -0.8987
 1241SOL     OW15358   0.361   0.314   1.034  0.5227  0.3339  0.5069
 1241SOL    HW115359   0.359   0.323   0.939 -1.7411 -0.4915  0.4856
 1241SOL    HW215360   0.351   0.219   1.036  0.4731  0.2884 -2.3906
 1242SOL     OW15361   1.582   0.804   6.159  0.6769 -0.5733  0.0268
 1242SOL    HW115362   1.495   0.821   6.195  1.6770  0.6168  1.8995
 1242SOL    HW215363   1.599   0.713   6.184 -0.7341 -0.9002 -0.2239
 1243SOL     OW15364   0.659   0.854   5.825 -0.2988  0.1419 -0.2757
 1243SOL    HW115365   0.752   0.876   5.820 -0.6614  2.0145  1.4848
 1243SOL    HW215366   0.661   0.771   5.777  0.2612 -0.2592  0.4475
 1244SOL     OW15367   1.666   4.149   3.993  0.5911 -0.2615 -0.1212
 1244SOL    HW115368   1.586   4.203   3.997  1.3620  1.0410 -2.5844
 1244SOL    HW215369   1.680   4.122   4.084 -0.2860  1.2722  0.4719
 1245SOL     OW15370   1.999   1.056   0.277  0.4881  0.5544 -0.5685
 1245SOL    HW115371   2.017   0.965   0.252  1.1480  0.4691  0.1947
 1245SOL    HW215372   1.911   1.056   0.314  0.3011  2.0937 -0.9997
 1246SOL     OW15373   1.513   0.836   7.261  0.2484 -0.4136  0.3980
 1246SOL    HW115374   1.432   0.817   7.308 -1.0830  0.9889 -1.3676
 1246SOL    HW215375   1.575   0.859   7.330  2.1415 -0.4828 -1.2895
 1247SOL     OW15376   1.677   3.180   4.961  0.1586 -0.0377 -0.2875
 1247SOL    HW115377   1.715   3.246   4.904  0.4164  0.5051  0.5081
 1247SOL    HW215378   1.721   3.191   5.045  0.9099  3.0503 -1.1054
 1248SOL     OW15379   3.227   0.903   4.911 -0.0219 -0.3549  0.1233
 1248SOL    HW115380   3.274   0.826   4.940  0.2310 -0.9954 -1.9935
 1248SOL    HW215381   3.145   0.899   4.962 -1.1582 -0.4406 -1.7216
 1249SOL     OW15382   1.539   1.916   2.839 -0.0484  0.1296  0.2677
 1249SOL    HW115383   1.596   1.895   2.913 -1.6535 -2.1727  0.8408
 1249SOL    HW215384   1.557   1.835   2.791 -1.2651 -0.0697  0.1497
 1250SOL     OW15385   1.797   0.714   6.484 -0.3912  0.5936 -0.7438
 1250SOL    HW115386   1.891   0.729   6.473 -0.1258 -1.0615 -0.7887
 1250SOL    HW215387   1.793   0.645   6.550 -1.2252  0.6861 -0.7088
 1251SOL     OW15388   3.457   2.745   5.904 -0.1068  0.0760 -0.5702
 1251SOL    HW115389   3.380   2.769   5.956  0.6055  0.4299  0.3275
 1251SOL    HW215390   3.464   2.821   5.847  0.4175  0.0518 -0.5369
 1252SOL     OW15391   4.024   3.637   0.011  0.3806 -0.1815  0.4211
 1252SOL    HW115392   3.984   3.711   0.057 -2.3938 -2.1649  1.2322
 1252SOL    HW215393   3.941   3.592  17.740 -0.3719  2.1006 -1.8285
 1253SOL     OW15394   3.466   4.314   5.561 -0.7153 -0.2209 -0.7673
 1253SOL    HW115395   3.423   4.234   5.531  1.4545 -0.6070 -2.8177
 1253SOL    HW215396   3.530   4.294   5.629 -0.1274  0.0141 -1.2555
 1254SOL     OW15397   1.173   1.186   6.081  0.1957  0.4459  0.2008
 1254SOL    HW115398   1.163   1.215   6.172  1.7774 -1.2656  0.9213
 1254SOL    HW215399   1.081   1.162   6.069  1.0979 -2.0783 -1.4637
 1255SOL     OW15400   1.075   2.354   7.404 -0.0782  0.4216 -0.1906
 1255SOL    HW115401   1.045   2.433   7.359  3.6452  1.1332 -1.3524
 1255SOL    HW215402   1.122   2.305   7.337  2.0306 -0.3948  1.8717
 1256SOL     OW15403   4.556   1.377   3.229  0.2526 -0.0844 -0.5145
 1256SOL    HW115404   4.494   1.311   3.260  0.7972 -0.8025 -0.9560
 1256SOL    HW215405   4.547   1.363   3.134  2.0915  0.9473 -0.8314
 1257SOL     OW15406   1.516   1.395   7.680 -0.0849 -0.2353 -0.2265
 1257SOL    HW115407   1.515   1.320   7.739  2.8964 -1.2327 -1.4447
 1257SOL    HW215408   1.526   1.346   7.598  0.8502 -1.4562  0.6313
 1258SOL     OW15409   1.289   0.483   7.167  0.1502  0.0930 -0.1069
 1258SOL    HW115410   1.254   0.449   7.085 -1.6586 -0.8326  1.0447
 1258SOL    HW215411   1.335   0.406   7.200 -0.8984  0.0192  1.1605
 1259SOL     OW15412   3.157   3.920   8.213  0.0591 -0.5687  0.6496
 1259SOL    HW115413   3.154   3.888   8.303  0.6891 -0.2019  0.7960
 1259SOL    HW215414   3.062   3.925   8.201 -0.0365 -1.0750  1.2410
 1260SOL     OW15415   3.483   2.171  16.289  0.3563 -0.1393 -0.2218
 1260SOL    HW115416   3.402   2.130  16.259 -0.0173 -0.7252  1.5991
 1260SOL    HW215417   3.521   2.088  16.317  0.6329  0.1218  0.1732
 1261SOL     OW15418   1.489   3.264   3.370 -0.0956 -0.2585 -0.2732
 1261SOL    HW115419   1.543   3.342   3.385  0.7754 -0.5111 -2.0641
 1261SOL    HW215420   1.417   3.279   3.431  1.6762 -0.9715  2.0121
 1262SOL     OW15421   4.404   4.009  15.261 -0.7349 -0.3531  0.0742
 1262SOL    HW115422   4.365   3.993  15.175 -0.4277  0.5714 -0.2330
 1262SOL    HW215423   4.377   4.100  15.271  1.1697  0.2211 -0.0554
 1263SOL     OW15424   1.463   2.802   0.494  0.0236  0.0443 -0.1770
 1263SOL    HW115425   1.503   2.889   0.492 -1.4080  0.7500  1.5385
 1263SOL    HW215426   1.480   2.773   0.405 -1.4338  2.6072 -1.2722
 1264SOL     OW15427   1.069   4.737  11.942  0.4533 -0.2175  0.3902
 1264SOL    HW115428   1.110   0.086  11.935 -0.1756  0.2456  2.5546
 1264SOL    HW215429   1.003   4.728  11.873  2.2490  1.6120 -1.5769
 1265SOL     OW15430   1.063   4.609   3.260 -0.6604 -0.3014 -0.7054
 1265SOL    HW115431   1.057   4.632   3.168 -0.4083  4.6358  0.5335
 1265SOL    HW215432   1.076   4.700   3.284  0.6696 -0.6980  0.0507
 1266SOL     OW15433   3.644   3.910   9.449  0.1506  0.2297 -0.1059
 1266SOL    HW115434   3.717   3.859   9.485 -2.6066 -1.7661  2.6675
 1266SOL    HW215435   3.581   3.847   9.415 -0.1549 -0.8952  2.5791
 1267SOL     OW15436   1.347   4.151  16.604 -0.5289 -0.0707 -0.3588
 1267SOL    HW115437   1.379   4.208  16.674 -1.0157  0.0472 -0.2338
 1267SOL    HW215438   1.429   4.150  16.554 -0.2409  1.2103  0.0990
 1268SOL     OW15439   2.621   2.596   1.743  0.2337 -0.0457 -0.0463
 1268SOL    HW115440   2.537   2.642   1.735 -1.2859 -2.7778  0.1275
 1268SOL    HW215441   2.682   2.669   1.733 -0.3660  0.1086 -2.4468
 1269SOL     OW15442   0.518   4.088   9.874  0.0205  0.5425 -0.4005
 1269SOL    HW115443   0.476   4.082   9.960  1.3118  0.3255  0.2222
 1269SOL    HW215444   0.607   4.116   9.898 -0.2407  0.6094  0.4890
 1270SOL     OW15445   2.826   2.618   2.660 -0.1940  0.8772 -0.3341
 1270SOL    HW115446   2.828   2.582   2.571  0.1082 -0.1809  0.1029
 1270SOL    HW215447   2.867   2.543   2.702 -0.3218  0.3648 -1.1096
 1271SOL     OW15448   2.057   1.332  17.306  0.1236  0.2987  0.0701
 1271SOL    HW115449   2.060   1.422  17.275 -1.5172  0.6070  0.7962
 1271SOL    HW215450   1.985   1.292  17.257  0.4315 -0.4299  0.2037
 1272SOL     OW15451   1.025   4.250  11.383  0.4158  0.0810 -0.7863
 1272SOL    HW115452   1.001   4.160  11.364  1.9698 -0.1603 -1.5862
 1272SOL    HW215453   1.120   4.242  11.391  0.1848 -1.1926  0.5651
 1273SOL     OW15454   2.512   2.047   4.951 -0.9332  0.4715  0.6004
 1273SOL    HW115455   2.559   1.993   4.888 -0.5860  1.5167 -0.0385
 1273SOL    HW215456   2.450   1.980   4.982 -0.9950  0.0069 -0.5448
 1274SOL     OW15457   0.903   3.264   3.288 -0.2968  1.0716 -0.1072
 1274SOL    HW115458   0.964   3.228   3.223 -1.3296 -0.6375 -0.1014
 1274SOL    HW215459   0.971   3.302   3.344  0.2468  0.7017 -0.5186
 1275SOL     OW15460   4.625   4.436   7.397 -0.1094 -0.3125  0.2628
 1275SOL    HW115461   4.647   4.385   7.475  2.5420  0.3782 -0.0383
 1275SOL    HW215462   4.534   4.463   7.409  0.1790  1.5487 -1.5576
 1276SOL     OW15463   0.361   0.459  14.649 -0.1101 -0.3160 -0.3024
 1276SOL    HW115464   0.436   0.413  14.688 -1.5737 -1.8450  0.7184
 1276SOL    HW215465   0.293   0.392  14.644  0.3643 -0.8560  0.3388
 1277SOL     OW15466   2.345   3.158   3.523  0.3454  0.5471  0.4503
 1277SOL    HW115467   2.343   3.089   3.456 -0.3693 -0.3595  1.3935
 1277SOL    HW215468   2.437   3.147   3.546  0.2030 -1.3785  0.1097
 1278SOL     OW15469   4.032   4.046   7.813 -0.8408 -0.1089 -0.1711
 1278SOL    HW115470   4.001   4.043   7.722 -2.0089  0.7731  0.2038
 1278SOL    HW215471   4.112   4.099   7.808  0.1263 -1.4470  1.2479
 1279SOL     OW15472   2.471   3.560   8.267 -0.3602  0.0316 -0.7055
 1279SOL    HW115473   2.397   3.505   8.292  1.1588 -2.0538 -0.8036
 1279SOL    HW215474   2.450   3.599   8.182 -0.2745  1.8223  0.0759
 1280SOL     OW15475   0.990   4.532   7.466 -0.0171  0.6877 -0.1965
 1280SOL    HW115476   0.915   4.533   7.526  0.0687 -0.2467 -0.0654
 1280SOL    HW215477   1.050   4.480   7.519 -0.1277  0.8165  0.0602
 1281SOL     OW15478   2.717   1.350  13.361 -0.7707 -0.0654 -0.0692
 1281SOL    HW115479   2.736   1.361  13.268 -3.1483  1.7437 -0.3446
 1281SOL    HW215480   2.792   1.294  13.379 -0.1726  0.7608 -0.0172
 1282SOL     OW15481   4.642   4.469  12.736  0.1768 -0.0508 -0.5531
 1282SOL    HW115482   4.648   4.561  12.707  0.5317  0.7424  2.0491
 1282SOL    HW215483   4.666   4.470  12.829  1.2195 -5.2246 -0.7973
 1283SOL     OW15484   0.198   1.118   4.072  0.2491  0.3338  0.5206
 1283SOL    HW115485   0.142   1.114   3.994  1.7593 -2.3765 -0.4157
 1283SOL    HW215486   0.178   1.032   4.109 -0.6444  0.3040 -0.0226
 1284SOL     OW15487   3.996   2.264   8.376 -0.1197 -0.5161 -0.2729
 1284SOL    HW115488   3.970   2.347   8.417  0.6626  0.5900 -2.0336
 1284SOL    HW215489   4.056   2.229   8.443 -0.7900  0.3192  0.7828
 1285SOL     OW15490   1.664   0.173   6.913 -0.4498  0.0642 -0.1112
 1285SOL    HW115491   1.634   0.246   6.968 -2.3654  0.0069 -1.0647
 1285SOL    HW215492   1.666   0.098   6.972 -0.6617  0.0290 -0.1473
 1286SOL     OW15493   4.450   3.225   6.850 -0.1023  0.8131 -0.3557
 1286SOL    HW115494   4.444   3.163   6.778  1.9721  1.9637 -1.5111
 1286SOL    HW215495   4.461   3.309   6.806 -0.3719 -0.0690 -2.0864
 1287SOL     OW15496   4.005   2.407   2.321 -0.3157 -0.4764  0.8398
 1287SOL    HW115497   4.090   2.424   2.360 -0.5683  2.3192  0.1789
 1287SOL    HW215498   3.944   2.383   2.391 -0.1691  1.1545  1.5101
 1288SOL     OW15499   2.692   2.858   2.655 -0.2583 -0.2343 -0.5474
 1288SOL    HW115500   2.649   2.877   2.739  0.0097 -1.0731 -0.2211
 1288SOL    HW215501   2.750   2.788   2.685 -1.1234  0.4202  2.7646
 1289SOL     OW15502   4.074   1.163   4.578  0.1271 -0.3789 -0.1664
 1289SOL    HW115503   4.094   1.071   4.562  1.0946  0.4653 -3.9143
 1289SOL    HW215504   4.003   1.181   4.516 -0.6828 -1.0533  0.5562
 1290SOL     OW15505   0.948   4.037   4.944 -0.0848 -0.5741 -0.5223
 1290SOL    HW115506   0.979   4.127   4.933  2.1630 -1.0951  1.5181
 1290SOL    HW215507   0.871   4.040   5.001 -0.0237 -2.0824 -0.3729
 1291SOL     OW15508   0.477   1.667  14.346  0.4272 -0.2162  0.6270
 1291SOL    HW115509   0.494   1.716  14.426  1.7421  1.3296 -0.6020
 1291SOL    HW215510   0.457   1.741  14.290  1.3029 -0.3024  0.2044
 1292SOL     OW15511   4.213   0.318   7.335 -0.4224 -0.3431  0.0828
 1292SOL    HW115512   4.152   0.391   7.339 -0.6457 -0.6138  1.6037
 1292SOL    HW215513   4.274   0.335   7.407 -0.7894  1.1297  0.0575
 1293SOL     OW15514   3.081   0.083   7.475 -0.3217 -0.5568 -0.2894
 1293SOL    HW115515   3.035   0.137   7.410  0.1781 -1.5787 -1.5057
 1293SOL    HW215516   3.063   0.139   7.550 -0.5686 -1.2040  0.1254
 1294SOL     OW15517   1.625   4.332   6.088 -0.3404 -0.8215  0.5838
 1294SOL    HW115518   1.663   4.245   6.087  1.2727 -0.0845 -2.5542
 1294SOL    HW215519   1.639   4.366   6.000  1.5109  0.1602  1.2521
 1295SOL     OW15520   3.862   2.069  14.901 -0.1765  0.1657  0.0658
 1295SOL    HW115521   3.928   2.137  14.900 -0.8811  0.8329 -1.1270
 1295SOL    HW215522   3.862   2.038  14.811  0.2014  0.3018  0.0221
 1296SOL     OW15523   0.439   3.810   8.500  0.2474 -0.3975 -0.0715
 1296SOL    HW115524   0.509   3.785   8.440  0.9121  2.1826 -0.3865
 1296SOL    HW215525   0.396   3.725   8.509 -0.1900 -0.4543 -2.8081
 1297SOL     OW15526   3.915   1.260   3.341  0.2612 -0.0000 -0.3463
 1297SOL    HW115527   3.983   1.309   3.294  1.9994 -1.1061  1.0549
 1297SOL    HW215528   3.878   1.332   3.393  0.8574  0.3853 -0.4541
 1298SOL     OW15529   3.934   3.782   5.773 -0.2808 -0.0501 -0.1629
 1298SOL    HW115530   4.007   3.737   5.817  0.6126 -1.4710 -3.1464
 1298SOL    HW215531   3.903   3.835   5.846  0.3869 -0.7159  0.6122
 1299SOL     OW15532   0.656   2.568   8.710  0.1942 -0.5579  0.2669
 1299SOL    HW115533   0.694   2.513   8.641  0.9424 -0.1557  0.3530
 1299SOL    HW215534   0.660   2.652   8.664  4.0569 -1.0064 -0.2145
 1300SOL     OW15535   1.068   0.820   6.401 -0.1512 -0.0236 -0.3860
 1300SOL    HW115536   1.085   0.854   6.489 -1.9438 -2.1100  0.7736
 1300SOL    HW215537   0.973   0.810   6.413  0.0880  0.2127  1.6380
 1301SOL     OW15538   1.735   0.247   0.155  0.3459 -0.4300  0.2669
 1301SOL    HW115539   1.657   0.303   0.167  1.6621  1.4703 -0.0577
 1301SOL    HW215540   1.746   0.214   0.244 -0.0019 -1.1133  0.0547
 1302SOL     OW15541   3.328   0.078   0.580 -0.4348 -0.5720  0.2122
 1302SOL    HW115542   3.368   0.075   0.493 -1.9671  1.3912 -0.5630
 1302SOL    HW215543   3.263   0.146   0.564 -0.1190  0.2447  2.2711
 1303SOL     OW15544   1.768   2.960   3.492 -0.4758  0.2079  0.0936
 1303SOL    HW115545   1.716   2.947   3.413 -2.0181  0.1597  1.1263
 1303SOL    HW215546   1.848   2.911   3.473 -1.6014 -1.5888 -0.0465
 1304SOL     OW15547   1.951   2.014   1.610 -0.5338 -0.2186 -0.2049
 1304SOL    HW115548   1.959   1.980   1.699  0.9787 -0.9591 -0.6356
 1304SOL    HW215549   2.016   2.085   1.611 -0.8625  0.0874 -0.3896
 1305SOL     OW15550   0.408   0.766   8.002  0.2534 -0.2116 -0.4366
 1305SOL    HW115551   0.440   0.854   8.023  0.3922  0.0732 -1.8555
 1305SOL    HW215552   0.480   0.736   7.947  1.3341 -0.8776  1.3264
 1306SOL     OW15553   1.825   4.188  16.628  0.7711  0.2497 -0.0318
 1306SOL    HW115554   1.844   4.199  16.721  1.9630  0.1635 -0.2657
 1306SOL    HW215555   1.746   4.135  16.623  0.8289  0.1968 -0.4342
 1307SOL     OW15556   2.609   3.129   3.223 -0.0788  0.2591 -0.0700
 1307SOL    HW115557   2.588   3.121   3.130 -0.8516  2.6956 -0.0994
 1307SOL    HW215558   2.634   3.039   3.246 -0.5590  0.4329  1.1107
 1308SOL     OW15559   2.564   0.720   4.675  0.2309 -0.3322 -0.0673
 1308SOL    HW115560   2.651   0.696   4.645 -0.5847 -2.1017 -0.9666
 1308SOL    HW215561   2.536   0.647   4.730 -1.4801  2.1762  2.4105
 1309SOL     OW15562   3.697   3.464   4.111 -0.3031  0.2890 -0.7857
 1309SOL    HW115563   3.694   3.506   4.197  3.2120 -0.5943 -0.2086
 1309SOL    HW215564   3.613   3.481   4.068  0.8667 -0.1794 -3.2702
 1310SOL     OW15565   4.084   1.492   4.563  0.2171 -0.0799 -0.4689
 1310SOL    HW115566   4.176   1.516   4.554 -0.3774  2.3477  0.1047
 1310SOL    HW215567   4.093   1.406   4.606  2.0873  0.4539  0.2158
 1311SOL     OW15568   3.299   1.306   5.672  0.6503 -0.0032  0.2213
 1311SOL    HW115569   3.252   1.381   5.710 -0.9132 -1.1544  0.5602
 1311SOL    HW215570   3.345   1.351   5.601  2.9460  0.4550  1.9647
 1312SOL     OW15571   1.870   3.236   4.351 -0.0886 -0.3446 -0.0643
 1312SOL    HW115572   1.797   3.268   4.299 -0.2594  2.5899  1.9711
 1312SOL    HW215573   1.876   3.310   4.411  1.3875  1.2797 -2.2158
 1313SOL     OW15574   1.231   1.355   7.675 -0.2940 -0.1434  0.4073
 1313SOL    HW115575   1.269   1.329   7.759  1.5978 -1.4619 -0.8571
 1313SOL    HW215576   1.235   1.274   7.624 -1.5129 -1.2369  2.0130
 1314SOL     OW15577   4.727   1.944   1.517 -0.0010  0.2958 -0.0521
 1314SOL    HW115578   0.014   1.884   1.447  0.1196 -0.9816  1.0883
 1314SOL    HW215579   4.687   2.017   1.470  0.2943 -1.1801 -2.5981
 1315SOL     OW15580   2.778   3.993   6.784 -0.4241 -0.3633 -0.2470
 1315SOL    HW115581   2.689   3.958   6.783 -0.8744  0.8025 -0.9675
 1315SOL    HW215582   2.815   4.017   6.699  0.1871  0.3645  0.2276
 1316SOL     OW15583   3.401   1.692   4.893 -0.5897  0.4354  0.2613
 1316SOL    HW115584   3.391   1.620   4.955  0.1065  0.5810  0.5423
 1316SOL    HW215585   3.483   1.735   4.918 -1.3377  1.4694  0.9750
 1317SOL     OW15586   3.392   1.259   7.640 -0.1892 -0.2730 -0.4300
 1317SOL    HW115587   3.411   1.228   7.729  1.1042 -0.9526 -0.9603
 1317SOL    HW215588   3.400   1.352   7.662 -0.5481 -0.3423  0.0050
 1318SOL     OW15589   1.883   0.606  13.354  0.0527  0.3010 -0.4037
 1318SOL    HW115590   1.976   0.609  13.333  0.6636  0.6846  2.2522
 1318SOL    HW215591   1.848   0.648  13.276 -1.0359 -0.1402 -0.1588
 1319SOL     OW15592   2.567   0.364   9.642  0.4298 -0.5603 -0.2483
 1319SOL    HW115593   2.557   0.442   9.588 -2.2626 -0.9167 -0.2950
 1319SOL    HW215594   2.476   0.334   9.649  0.4779 -0.8147 -0.7053
 1320SOL     OW15595   3.255   1.592   4.178  0.5365  0.6362 -0.2725
 1320SOL    HW115596   3.196   1.632   4.242  0.3483  0.6885 -0.4758
 1320SOL    HW215597   3.241   1.498   4.188 -1.1519  1.1221  1.9948
 1321SOL     OW15598   3.970   3.482   8.071  0.3149 -0.3356  0.4197
 1321SOL    HW115599   4.026   3.415   8.031  0.7358 -2.7926  5.2095
 1321SOL    HW215600   4.022   3.562   8.064 -1.4481  0.9587  2.3085
 1322SOL     OW15601   4.537   0.977   1.761 -0.6251 -0.5941 -0.0242
 1322SOL    HW115602   4.620   0.976   1.809  0.3619 -0.2688 -1.7342
 1322SOL    HW215603   4.519   0.883   1.750  2.2765 -0.9687 -1.7430
 1323SOL     OW15604   2.422   3.223  10.397  0.3807 -0.4501  0.1710
 1323SOL    HW115605   2.440   3.277  10.474  1.2795  0.3207 -0.5854
 1323SOL    HW215606   2.480   3.267  10.334 -0.0022  0.9382  0.7726
 1324SOL     OW15607   2.310   0.242   9.422 -0.6304  0.1719 -0.1918
 1324SOL    HW115608   2.230   0.294   9.416 -1.0389 -0.7004 -2.2389
 1324SOL    HW215609   2.370   0.315   9.406  0.1526 -0.6236 -0.8802
 1325SOL     OW15610   0.632   1.407   8.883  0.2356 -0.2743 -0.0229
 1325SOL    HW115611   0.698   1.344   8.911 -0.6340 -0.8471  0.7614
 1325SOL    HW215612   0.649   1.428   8.791  0.0334 -3.1265 -0.7090
 1326SOL     OW15613   2.693   0.583   3.675  0.2081  1.0350  0.6349
 1326SOL    HW115614   2.782   0.571   3.708 -0.2148  0.2122  1.4851
 1326SOL    HW215615   2.698   0.588   3.580  1.5300 -0.7646  0.6158
 1327SOL     OW15616   2.824   0.892   8.028 -0.7203  1.2271 -0.0629
 1327SOL    HW115617   2.893   0.926   7.971 -0.8228  1.2706 -0.1596
 1327SOL    HW215618   2.847   0.799   8.036 -2.0209  0.8438 -0.8185
 1328SOL     OW15619   1.375   4.466   8.571 -0.0630 -0.1838 -0.1991
 1328SOL    HW115620   1.388   4.375   8.544  3.0204 -0.6652  2.8394
 1328SOL    HW215621   1.450   4.480   8.630  0.8874  0.1757 -1.4901
 1329SOL     OW15622   4.460   2.931   6.734  0.3789 -0.2026 -0.5557
 1329SOL    HW115623   4.445   2.852   6.682  1.6471  0.6112 -2.1635
 1329SOL    HW215624   4.460   2.995   6.663  1.3900 -0.3239 -0.6716
 1330SOL     OW15625   0.647   2.308   5.505 -0.3467  0.3589  0.0872
 1330SOL    HW115626   0.733   2.283   5.541 -0.7066 -2.1785 -0.8461
 1330SOL    HW215627   0.657   2.403   5.505  1.1258  0.2121  0.3666
 1331SOL     OW15628   4.519   1.740   8.966 -0.0121  0.0525  0.0146
 1331SOL    HW115629   4.531   1.697   9.050 -1.5320 -0.6779 -0.1403
 1331SOL    HW215630   4.434   1.708   8.936 -1.9553  4.2178  1.0632
 1332SOL     OW15631   3.175   3.088  14.408  0.0045  0.8612 -0.2498
 1332SOL    HW115632   3.232   3.083  14.332 -0.4909 -3.1883 -0.3307
 1332SOL    HW215633   3.137   3.000  14.415 -0.5781  1.1091 -0.2832
 1333SOL     OW15634   3.600   4.349   2.021 -0.2660  0.4122 -0.3464
 1333SOL    HW115635   3.637   4.413   2.082 -0.3610 -0.1328  0.2941
 1333SOL    HW215636   3.511   4.330   2.051 -0.3020 -0.4364 -0.9797
 1334SOL     OW15637   4.636   3.506  13.491 -0.2597  0.1457 -0.2565
 1334SOL    HW115638   4.727   3.531  13.504 -0.2321  0.8966 -1.8083
 1334SOL    HW215639   4.636   3.410  13.493 -1.2039  0.1116 -1.2734
 1335SOL     OW15640   4.280   0.520   8.411 -0.1353  0.5899 -0.2283
 1335SOL    HW115641   4.313   0.443   8.365  1.2555  0.9769  0.1421
 1335SOL    HW215642   4.361   0.567   8.428  1.6246 -3.1245  1.6611
 1336SOL     OW15643   1.598   4.094   7.793  0.3910 -0.2568  0.2691
 1336SOL    HW115644   1.537   4.026   7.765 -0.0786  0.9239 -1.5338
 1336SOL    HW215645   1.569   4.116   7.882  1.6461  2.1346  0.0967
 1337SOL     OW15646   2.730   3.048   7.334  0.1115  0.1200 -0.2650
 1337SOL    HW115647   2.645   3.080   7.305  0.4477  0.3873 -0.9602
 1337SOL    HW215648   2.753   3.120   7.392  3.9299  0.6350 -2.4173
 1338SOL     OW15649   0.238   1.668   1.721  0.0510 -0.2493  0.2970
 1338SOL    HW115650   0.187   1.642   1.645  1.9664 -1.7369 -0.4537
 1338SOL    HW215651   0.196   1.751   1.746  1.1978  0.4791 -0.1840
 1339SOL     OW15652   0.287   4.464   5.420 -0.1928 -0.3936  0.0253
 1339SOL    HW115653   0.377   4.432   5.426 -0.3283 -0.7391  0.2413
 1339SOL    HW215654   0.279   4.488   5.513 -0.1700  1.6629 -0.5060
 1340SOL     OW15655   3.229   2.850   1.055  0.0601 -0.7226 -0.2655
 1340SOL    HW115656   3.270   2.867   1.139 -3.3616  0.5800  1.1707
 1340SOL    HW215657   3.159   2.916   1.053  1.6220  0.9409  0.3907
 1341SOL     OW15658   0.287   2.203   8.560  0.1227 -0.1681  0.0608
 1341SOL    HW115659   0.234   2.124   8.575 -1.3064  0.3321 -2.3067
 1341SOL    HW215660   0.232   2.274   8.595  0.3984 -0.0515  0.2533
 1342SOL     OW15661   0.699   3.018   8.444 -0.0750 -0.8741 -0.1400
 1342SOL    HW115662   0.771   3.060   8.397 -2.4346  2.3374 -0.8993
 1342SOL    HW215663   0.635   2.989   8.380 -2.7889  0.1383  2.1309
 1343SOL     OW15664   2.030   2.054  10.472 -0.3254 -0.1547 -0.0559
 1343SOL    HW115665   2.050   2.004  10.551 -1.7241 -0.5945  0.0370
 1343SOL    HW215666   2.104   2.114  10.467  0.2159 -0.8614 -0.4029
 1344SOL     OW15667   3.284   3.143   5.325  0.2153  0.7569 -0.4184
 1344SOL    HW115668   3.265   3.237   5.330 -0.6660  0.6629 -2.1909
 1344SOL    HW215669   3.259   3.130   5.417  2.3132  1.6600  0.2932
 1345SOL     OW15670   1.902   3.713   7.582  0.1841 -0.0445 -0.1809
 1345SOL    HW115671   1.823   3.755   7.549 -0.1998 -0.9344 -0.3905
 1345SOL    HW215672   1.873   3.666   7.661  1.2868 -0.6555 -0.1282
 1346SOL     OW15673   1.648   2.520   1.777  0.3575  0.3165  0.0754
 1346SOL    HW115674   1.562   2.543   1.742  0.2315 -0.0672  0.1251
 1346SOL    HW215675   1.668   2.436   1.736 -0.1962  0.8980 -1.3832
 1347SOL     OW15676   0.397   1.069   9.234 -0.1795  0.1517 -0.7070
 1347SOL    HW115677   0.490   1.062   9.215 -0.4131 -2.2513 -0.9022
 1347SOL    HW215678   0.377   0.976   9.237 -1.3728  0.3684 -1.7935
 1348SOL     OW15679   0.613   1.166   6.549  0.1074 -0.1831 -0.2280
 1348SOL    HW115680   0.619   1.078   6.584  0.0602 -0.2946 -0.5001
 1348SOL    HW215681   0.525   1.188   6.580  0.3664 -0.0362  0.3987
 1349SOL     OW15682   2.107   0.036   1.911  0.2465  0.2416 -0.8119
 1349SOL    HW115683   2.023   0.033   1.864 -0.1691  1.0350 -0.1290
 1349SOL    HW215684   2.137   4.682   1.906 -0.0799  0.1315 -0.8229
 1350SOL     OW15685   4.712   2.866  11.219 -0.4136 -0.7437 -0.5565
 1350SOL    HW115686   0.030   2.831  11.289  0.7595 -0.3343 -1.3006
 1350SOL    HW215687   0.020   2.820  11.148  0.4948  1.5468 -1.4381
 1351SOL     OW15688   2.738   1.829   4.205 -0.0324 -0.2141  0.4768
 1351SOL    HW115689   2.808   1.881   4.165  1.0679  0.0121  2.7150
 1351SOL    HW215690   2.695   1.782   4.134  0.1152 -2.3734  1.8285
 1352SOL     OW15691   1.039   0.839   0.716 -0.3414  0.2854  0.1219
 1352SOL    HW115692   0.979   0.770   0.688 -1.7689  0.8753  1.6987
 1352SOL    HW215693   0.977   0.899   0.758  1.9120  2.4068  0.3963
 1353SOL     OW15694   2.751   4.065   0.514 -0.1275 -0.1958 -0.2383
 1353SOL    HW115695   2.747   4.151   0.556 -1.4085  0.9540 -2.7205
 1353SOL    HW215696   2.692   4.015   0.570 -1.1955  0.7244 -0.5443
 1354SOL     OW15697   3.871   0.902  17.435 -0.4097  0.1779  0.4471
 1354SOL    HW115698   3.929   0.853  17.377 -0.0908 -0.4554  1.3065
 1354SOL    HW215699   3.888   0.991  17.403 -1.6445  0.5567  0.8565
 1355SOL     OW15700   3.162   1.182   6.062 -0.2107 -0.6167 -0.1107
 1355SOL    HW115701   3.101   1.254   6.078 -0.3660 -0.7039 -0.3006
 1355SOL    HW215702   3.240   1.230   6.090 -1.3313  1.0177  0.2326
 1356SOL     OW15703   2.575   3.307  10.197 -0.0123 -0.3195  0.3410
 1356SOL    HW115704   2.647   3.369  10.189 -1.1318  0.9006 -0.3070
 1356SOL    HW215705   2.565   3.266  10.111  0.3058 -2.0060  1.0996
 1357SOL     OW15706   3.701   1.075   7.893  0.0405  0.6880 -0.3701
 1357SOL    HW115707   3.726   1.093   7.984  1.2617  1.0631 -0.7703
 1357SOL    HW215708   3.749   0.995   7.872 -0.6508  0.0688  0.4516
 1358SOL     OW15709   1.463   3.817  10.405  0.2576  0.1166 -0.2152
 1358SOL    HW115710   1.421   3.897  10.439  0.3395 -0.1199  0.4382
 1358SOL    HW215711   1.407   3.745  10.433 -0.5910  0.9046  0.1159
 1359SOL     OW15712   1.921   0.277  13.589 -0.1291  0.2060 -0.2490
 1359SOL    HW115713   1.929   0.368  13.615 -0.3775 -0.0606  0.7594
 1359SOL    HW215714   2.003   0.233  13.610 -0.9144 -0.9202  0.5007
 1360SOL     OW15715   3.510   3.692   1.976 -0.0044 -0.1984  1.0070
 1360SOL    HW115716   3.527   3.605   1.940  0.4544  0.4814 -0.4341
 1360SOL    HW215717   3.528   3.756   1.907  1.6910  0.5891  2.1706
 1361SOL     OW15718   0.364   2.300   5.798  0.0757 -0.0833 -0.1181
 1361SOL    HW115719   0.284   2.331   5.839  0.6677  0.1417  0.8603
 1361SOL    HW215720   0.424   2.289   5.872 -1.9554  0.0015  1.5233
 1362SOL     OW15721   3.707   1.017   6.041  0.2051 -0.0845 -0.0876
 1362SOL    HW115722   3.687   1.025   6.134 -0.9299  3.1454 -0.5898
 1362SOL    HW215723   3.694   1.106   6.008 -2.4307 -1.4330 -2.6789
 1363SOL     OW15724   0.072   2.405   3.643  0.9764 -0.4662 -0.0808
 1363SOL    HW115725   4.723   2.427   3.680 -0.5880 -1.2101 -3.2698
 1363SOL    HW215726   0.048   2.366   3.560 -0.5757 -2.2538  1.2082
 1364SOL     OW15727   2.950   4.377  11.462  0.0525 -0.2703  0.4302
 1364SOL    HW115728   2.996   4.294  11.445 -1.2027 -1.1954  1.5895
 1364SOL    HW215729   2.928   4.410  11.375 -1.0366 -1.4260  0.2795
 1365SOL     OW15730   3.512   2.696   3.607 -0.1487  0.3194  0.0012
 1365SOL    HW115731   3.441   2.742   3.652 -0.2325 -0.4068  0.6182
 1365SOL    HW215732   3.461   2.639   3.550  0.1756 -0.0445  0.0800
 1366SOL     OW15733   2.782   3.113   6.948 -0.3270 -0.3166 -0.1356
 1366SOL    HW115734   2.871   3.121   6.980 -0.2108  1.3604 -0.9023
 1366SOL    HW215735   2.752   3.026   6.978 -0.9917  0.0545  0.2789
 1367SOL     OW15736   4.356   2.692   2.577  0.4414  0.3433  0.1480
 1367SOL    HW115737   4.309   2.772   2.553  0.7651  0.2670 -0.7387
 1367SOL    HW215738   4.375   2.715   2.668  0.1017 -1.6082  0.7069
 1368SOL     OW15739   1.519   0.485   1.487 -0.3640 -0.1423 -0.7496
 1368SOL    HW115740   1.487   0.415   1.544 -3.1576  2.9061  1.4749
 1368SOL    HW215741   1.533   0.554   1.552  1.6654 -1.4751  0.2337
 1369SOL     OW15742   4.412   1.695   9.224  0.1235  0.2223 -0.3838
 1369SOL    HW115743   4.349   1.746   9.274  0.9412  0.9652 -0.1160
 1369SOL    HW215744   4.447   1.646   9.299 -0.6262  1.9118  1.0612
 1370SOL     OW15745   4.312   2.083  13.668  0.2455 -0.5021  0.4785
 1370SOL    HW115746   4.382   2.131  13.624  0.9290 -1.9970 -0.0557
 1370SOL    HW215747   4.359   2.003  13.692 -1.6841 -1.5491  0.7688
 1371SOL     OW15748   0.257   1.765   8.346  0.2569 -0.3874  0.3546
 1371SOL    HW115749   0.187   1.829   8.354  0.2709 -0.3550  0.2017
 1371SOL    HW215750   0.319   1.832   8.319  0.6919 -0.8001  0.3274
 1372SOL     OW15751   1.221   1.076   8.377  0.0197 -0.0179 -0.3142
 1372SOL    HW115752   1.130   1.052   8.361 -0.5522  1.4129  0.8316
 1372SOL    HW215753   1.226   1.041   8.466 -0.9231 -0.2904 -0.3689
 1373SOL     OW15754   3.198   2.769   5.124  0.3975 -0.1768 -0.1273
 1373SOL    HW115755   3.224   2.777   5.216  1.8194  0.8757 -0.6158
 1373SOL    HW215756   3.103   2.762   5.134  0.4242  0.0921  0.3234
 1374SOL     OW15757   3.374   2.284  14.056  0.1863 -0.2741  0.0538
 1374SOL    HW115758   3.321   2.205  14.046  1.6470 -1.0057 -1.9086
 1374SOL    HW215759   3.394   2.291  14.149 -0.1887  0.1943  0.1004
 1375SOL     OW15760   1.274   1.654   7.133  0.7073 -0.2153  0.0680
 1375SOL    HW115761   1.202   1.626   7.190  1.4902  1.3221  1.8243
 1375SOL    HW215762   1.272   1.596   7.057 -0.6902  1.4603 -1.1939
 1376SOL     OW15763   4.246   2.949   5.552 -0.6778 -0.1249 -0.6527
 1376SOL    HW115764   4.221   2.878   5.611 -1.2170  0.5666 -0.0416
 1376SOL    HW215765   4.172   3.008   5.538 -2.7657 -2.9345 -1.5165
 1377SOL     OW15766   0.159   0.494  15.653  0.3780 -0.7285  0.1568
 1377SOL    HW115767   0.116   0.563  15.703 -1.3120  0.6443 -3.1973
 1377SOL    HW215768   0.096   0.484  15.582  1.2594  0.0777 -0.7528
 1378SOL     OW15769   1.266   1.694   6.659 -0.5205  0.2125 -0.0414
 1378SOL    HW115770   1.185   1.646   6.675 -1.0308  1.4154  0.8857
 1378SOL    HW215771   1.240   1.764   6.599 -2.2459 -1.0915 -0.8357
 1379SOL     OW15772   1.249   0.010   8.680  0.4512  0.2428 -0.2986
 1379SOL    HW115773   1.213   0.027   8.593 -0.0359  2.0173  0.2760
 1379SOL    HW215774   1.332   4.700   8.665  1.6390  2.1091  0.3980
 1380SOL     OW15775   0.024   1.959   7.377  0.4819  0.0342  0.1844
 1380SOL    HW115776   0.073   1.894   7.326 -0.4115 -1.8781  1.7905
 1380SOL    HW215777   0.020   2.034   7.317  0.6643 -0.8233 -0.8990
 1381SOL     OW15778   1.301   3.651   1.320  0.0368 -0.3440  0.1465
 1381SOL    HW115779   1.210   3.676   1.334  0.4008  0.4835  1.0207
 1381SOL    HW215780   1.333   3.713   1.254 -2.4673 -1.6645 -2.3139
 1382SOL     OW15781   3.975   4.427  17.226  0.1275  0.3422 -0.3496
 1382SOL    HW115782   3.897   4.477  17.203  0.6462  0.2078 -2.4771
 1382SOL    HW215783   3.938   4.386  17.303  0.1136  0.0309 -0.5224
 1383SOL     OW15784   0.272   4.266  12.114  0.5900 -0.6308 -0.4749
 1383SOL    HW115785   0.363   4.292  12.129  0.0904  0.0103  1.4271
 1383SOL    HW215786   0.223   4.312  12.181 -0.4055 -1.8144 -0.3894
 1384SOL     OW15787   2.868   0.209   2.461 -0.5130  0.4539  0.2378
 1384SOL    HW115788   2.824   0.258   2.392  1.7195 -1.6165 -2.6434
 1384SOL    HW215789   2.961   0.211   2.439 -0.5958 -0.6495 -0.1715
 1385SOL     OW15790   3.746   3.863   4.404  0.1188 -0.1469  0.1626
 1385SOL    HW115791   3.729   3.813   4.484  0.1423 -2.4690 -1.2818
 1385SOL    HW215792   3.830   3.904   4.422  0.5448 -1.0939  0.3296
 1386SOL     OW15793   0.965   0.212  14.387  0.1943  0.1729  0.4057
 1386SOL    HW115794   0.944   0.242  14.475 -1.3827  1.4261 -0.4205
 1386SOL    HW215795   0.915   0.130  14.381  2.5135 -1.4556  2.9166
 1387SOL     OW15796   3.474   0.762   8.226 -0.4712 -0.5661  0.2504
 1387SOL    HW115797   3.553   0.815   8.238 -0.6447 -0.6771  1.9806
 1387SOL    HW215798   3.506   0.691   8.171  1.3380  1.3139 -1.1120
 1388SOL     OW15799   0.249   0.962  17.120  1.0019 -1.0111  0.1524
 1388SOL    HW115800   0.272   1.029  17.184 -1.7345  0.5890 -0.5740
 1388SOL    HW215801   0.167   0.926  17.154 -1.0033  1.8285 -1.6820
 1389SOL     OW15802   4.093   2.078   6.732  0.1332  0.0487  0.2879
 1389SOL    HW115803   4.121   2.103   6.820 -0.0600  1.0641  0.0627
 1389SOL    HW215804   4.167   2.042   6.683  2.7974  1.5300  3.1746
 1390SOL     OW15805   4.700   2.361   4.942  0.4541  0.0995 -0.3443
 1390SOL    HW115806   0.052   2.327   4.932  0.5622  0.7543 -1.5224
 1390SOL    HW215807   4.647   2.281   4.946  1.9866 -0.9916 -1.3584
 1391SOL     OW15808   2.297   1.751   5.466  0.2631  0.1909  0.3089
 1391SOL    HW115809   2.276   1.719   5.378 -1.0291 -0.0717  0.7168
 1391SOL    HW215810   2.267   1.682   5.526 -0.4312 -0.4940 -0.8391
 1392SOL     OW15811   0.349   1.794   2.223  0.5990 -0.1336  0.1019
 1392SOL    HW115812   0.278   1.731   2.217 -0.2509  0.6780  1.6180
 1392SOL    HW215813   0.325   1.866   2.164  1.5112 -0.7689 -1.0358
 1393SOL     OW15814   1.424   0.230  13.397 -0.0972  0.3188  0.5972
 1393SOL    HW115815   1.417   0.213  13.303 -3.5131 -2.5095  1.3570
 1393SOL    HW215816   1.519   0.222  13.406  0.0919  1.6423 -0.2453
 1394SOL     OW15817   4.387   0.260   8.720 -0.0081 -0.0594 -0.0541
 1394SOL    HW115818   4.359   0.219   8.638 -0.6075  3.1573 -1.4589
 1394SOL    HW215819   4.354   0.350   8.717  0.2305 -0.0468 -2.1861
 1395SOL     OW15820   4.675   3.331   5.082 -0.1729 -0.1699 -0.1375
 1395SOL    HW115821   4.685   3.400   5.148 -2.1297 -1.0141  1.0183
 1395SOL    HW215822   4.581   3.334   5.067 -0.1096  1.3911 -0.2305
 1396SOL     OW15823   4.386   4.513   6.314  0.0520 -1.0254 -0.0339
 1396SOL    HW115824   4.390   4.599   6.272  1.0426 -1.2107 -0.3010
 1396SOL    HW215825   4.294   4.513   6.340 -0.5106 -1.6489 -2.0217
 1397SOL     OW15826   1.578   4.212   5.361 -0.2249  0.5793  0.3183
 1397SOL    HW115827   1.640   4.234   5.291 -1.4848  0.4744 -0.8229
 1397SOL    HW215828   1.580   4.117   5.370  0.2247  0.4367 -1.3447
 1398SOL     OW15829   3.287   1.903   3.390 -0.7338 -0.1897  0.0655
 1398SOL    HW115830   3.379   1.917   3.411 -0.9990  1.5393  0.0399
 1398SOL    HW215831   3.293   1.810   3.365 -2.0497 -0.1587 -0.3585
 1399SOL     OW15832   0.474   1.997   4.391  0.3671 -0.1592 -0.0952
 1399SOL    HW115833   0.555   2.014   4.440 -1.2145  4.4045  0.9091
 1399SOL    HW215834   0.439   1.920   4.437 -0.1609 -0.3112 -0.7474
 1400SOL     OW15835   0.003   3.909   9.182 -0.4322 -0.0358  0.0484
 1400SOL    HW115836   0.056   3.983   9.155  0.2198  0.2416  2.1155
 1400SOL    HW215837   0.063   3.869   9.246 -2.3151  0.9425  2.4438
 1401SOL     OW15838   1.817   1.519   6.521 -0.2284 -0.1129  0.0590
 1401SOL    HW115839   1.771   1.436   6.510 -1.7528  0.7676 -0.2265
 1401SOL    HW215840   1.807   1.532   6.616 -0.0509  0.0234  0.0584
 1402SOL     OW15841   2.851   1.731  12.069  0.7140  0.6172  0.3110
 1402SOL    HW115842   2.859   1.796  12.000  0.9922 -1.5929 -1.7375
 1402SOL    HW215843   2.938   1.730  12.109  1.4938 -2.5908 -1.4267
 1403SOL     OW15844   1.572   4.560   2.305 -0.2739  0.4370 -0.3686
 1403SOL    HW115845   1.510   4.574   2.377  0.2139  1.2101 -0.0954
 1403SOL    HW215846   1.560   4.467   2.286  0.2644  0.4150 -0.5818
 1404SOL     OW15847   2.999   2.391   7.021  0.4378 -0.5071  0.0676
 1404SOL    HW115848   2.915   2.346   7.028  0.1312  0.4821  2.9956
 1404SOL    HW215849   2.999   2.458   7.090  0.1369 -0.9704  0.5229
 1405SOL     OW15850   2.767   1.495   8.786  0.3130 -0.2330 -0.0223
 1405SOL    HW115851   2.813   1.508   8.869 -0.1271  0.2448  0.1481
 1405SOL    HW215852   2.789   1.578   8.743  2.2387  0.4703  2.3236
 1406SOL     OW15853   0.053   1.852  16.506 -0.1869 -0.5536  0.2820
 1406SOL    HW115854   0.095   1.917  16.563  0.0419  0.4912 -1.0681
 1406SOL    HW215855   0.038   1.905  16.428 -1.9707 -0.3942  0.7183
 1407SOL     OW15856   0.760   0.872  16.875  0.0551 -0.3556 -0.0937
 1407SOL    HW115857   0.762   0.799  16.937  0.4494 -0.1251  0.1678
 1407SOL    HW215858   0.747   0.946  16.935  0.6786  1.1420 -1.8083
 1408SOL     OW15859   3.067   3.290   4.425 -0.2089  0.3354 -0.1120
 1408SOL    HW115860   3.028   3.245   4.500  0.6494 -2.2819 -1.2399
 1408SOL    HW215861   3.059   3.380   4.456  0.3651  0.1089  0.6725
 1409SOL     OW15862   3.031   3.572  11.467  0.4095  0.2025  0.0638
 1409SOL    HW115863   2.968   3.500  11.463  0.5523  0.1799 -2.1002
 1409SOL    HW215864   3.105   3.530  11.510  0.1310 -1.8562 -1.4431
 1410SOL     OW15865   4.505   2.871   5.439  0.4457  0.5127  0.4887
 1410SOL    HW115866   4.417   2.901   5.459 -0.2347 -2.2911  1.7947
 1410SOL    HW215867   4.483   2.778   5.447  0.8456  0.6036  2.6181
 1411SOL     OW15868   1.785   3.010   5.278 -0.3767 -0.1283  0.1412
 1411SOL    HW115869   1.791   3.051   5.364  0.1735 -0.0230  0.0508
 1411SOL    HW215870   1.692   2.996   5.259 -0.3975  1.5241 -0.9854
 1412SOL     OW15871   0.439   2.874   4.754  0.6476 -0.1493 -0.0370
 1412SOL    HW115872   0.396   2.815   4.692 -0.0166 -0.3468  0.6003
 1412SOL    HW215873   0.522   2.901   4.715  0.9824 -1.0580  0.0250
 1413SOL     OW15874   1.326   0.745   4.843  0.6942  0.2203  0.0735
 1413SOL    HW115875   1.305   0.772   4.753  1.9256 -0.8250 -0.5412
 1413SOL    HW215876   1.414   0.782   4.851  1.2468 -1.2297  0.6251
 1414SOL     OW15877   4.401   1.820  13.755 -0.3086 -0.2681  0.6704
 1414SOL    HW115878   4.419   1.763  13.830 -1.8350 -2.5067 -0.6849
 1414SOL    HW215879   4.329   1.765  13.724 -1.1883 -0.1441  2.4439
 1415SOL     OW15880   1.986   0.988   5.768  0.0542  0.5814 -0.3572
 1415SOL    HW115881   1.953   1.062   5.818 -0.7498  1.1520 -1.7223
 1415SOL    HW215882   1.976   1.038   5.686  1.0713  1.3556 -0.0019
 1416SOL     OW15883   4.357   1.970   6.681  0.0289 -0.0721 -0.5208
 1416SOL    HW115884   4.435   1.987   6.734  0.5938  1.8147 -1.9395
 1416SOL    HW215885   4.385   1.891   6.635 -1.3522 -0.7270 -0.2339
 1417SOL     OW15886   4.051   4.219   0.376  0.0542 -0.4102 -0.1483
 1417SOL    HW115887   4.104   4.186   0.449  0.9288 -2.8279 -1.8911
 1417SOL    HW215888   3.994   4.144   0.362  0.7912 -0.8002 -1.1096
 1418SOL     OW15889   1.395   4.083  15.635  0.3090  0.1718 -0.4436
 1418SOL    HW115890   1.362   4.170  15.656 -0.7273  0.2634 -2.3999
 1418SOL    HW215891   1.473   4.095  15.582  1.3799  2.1350  1.6097
 1419SOL     OW15892   3.926   0.412   2.902  0.3253  0.2845  0.0256
 1419SOL    HW115893   3.875   0.463   2.964  0.3475 -1.3808  1.4292
 1419SOL    HW215894   3.928   0.463   2.821  0.0079 -0.4741 -0.4621
 1420SOL     OW15895   3.720   4.290   7.201 -0.0951 -0.2009  0.0400
 1420SOL    HW115896   3.705   4.365   7.143 -0.6087 -1.2026 -1.1141
 1420SOL    HW215897   3.632   4.290   7.238  1.2759  0.9239  3.2505
 1421SOL     OW15898   2.979   3.291   2.804  0.1314 -0.8513  0.0251
 1421SOL    HW115899   2.985   3.222   2.870 -0.9360 -1.4971 -0.5496
 1421SOL    HW215900   2.894   3.333   2.815  0.2414 -0.1703 -1.7345
 1422SOL     OW15901   3.500   4.377   5.924 -0.0049 -0.2384 -0.0352
 1422SOL    HW115902   3.554   4.428   5.984 -0.9262  1.7653 -0.9000
 1422SOL    HW215903   3.567   4.347   5.862 -0.2452  0.3136 -0.5678
 1423SOL     OW15904   2.798   3.149   0.302  0.0457  0.4251  0.0003
 1423SOL    HW115905   2.838   3.116   0.383 -0.1408 -1.7603 -0.8062
 1423SOL    HW215906   2.708   3.119   0.310  0.3381 -0.7285 -1.0977
 1424SOL     OW15907   0.762   3.594   6.423  0.2201 -0.1913  0.2095
 1424SOL    HW115908   0.694   3.618   6.485  1.6969 -2.7994  2.8388
 1424SOL    HW215909   0.731   3.504   6.429 -0.8428  0.0871 -0.9265
 1425SOL     OW15910   3.739   4.591  12.242  0.0707  0.2143  0.6754
 1425SOL    HW115911   3.680   4.666  12.238  0.7719  0.6268 -2.1939
 1425SOL    HW215912   3.713   4.558  12.156 -0.5372 -0.2629  1.0463
 1426SOL     OW15913   4.395   0.847  14.186 -0.2631  0.0595 -0.3920
 1426SOL    HW115914   4.324   0.786  14.166 -1.5112  1.6909 -0.9444
 1426SOL    HW215915   4.473   0.794  14.170 -0.8496 -0.3810 -1.8025
 1427SOL     OW15916   0.033   3.194   5.408  0.1268  0.6580  0.4265
 1427SOL    HW115917   4.729   3.184   5.322  0.2240  2.6822  0.1504
 1427SOL    HW215918   4.703   3.231   5.466  0.2866 -0.7026  1.4907
 1428SOL     OW15919   3.929   0.193  14.079 -0.1493 -0.1772 -0.1526
 1428SOL    HW115920   3.841   0.163  14.101 -0.3331  0.4218 -0.0806
 1428SOL    HW215921   3.952   0.153  13.995 -1.9175  0.9416 -1.1737
 1429SOL     OW15922   4.248   3.226   1.107 -0.0318  0.5686 -0.1863
 1429SOL    HW115923   4.256   3.131   1.099 -1.9506  0.3564  0.4474
 1429SOL    HW215924   4.231   3.227   1.201  1.9827 -1.9670  0.1975
 1430SOL     OW15925   0.080   2.478   1.559  0.4240  0.2606 -0.0943
 1430SOL    HW115926   0.123   2.476   1.645  1.1034 -1.2806 -0.4714
 1430SOL    HW215927   0.104   2.393   1.522 -2.5827 -1.5007  2.0042
 1431SOL     OW15928   3.801   0.656   2.075 -0.0398 -0.1454 -0.2077
 1431SOL    HW115929   3.889   0.689   2.096 -0.0151  0.6043 -1.4551
 1431SOL    HW215930   3.828   0.576   2.030  1.1861 -0.1803  0.5994
 1432SOL     OW15931   0.559   2.576  13.387 -0.0861 -0.2719 -0.2527
 1432SOL    HW115932   0.620   2.606  13.455 -0.0304  0.8956 -0.8093
 1432SOL    HW215933   0.485   2.624  13.423  1.6486  1.2577  1.2905
 1433SOL     OW15934   0.476   3.720  10.858  0.7796  0.4688 -0.0421
 1433SOL    HW115935   0.534   3.658  10.902 -0.0000 -2.4518 -3.0658
 1433SOL    HW215936   0.529   3.741  10.780  0.5914  1.3682  0.0766
 1434SOL     OW15937   0.744   1.265   5.565  0.6032 -0.3337 -0.2915
 1434SOL    HW115938   0.793   1.344   5.589 -0.0402 -0.2103  0.6315
 1434SOL    HW215939   0.808   1.208   5.522  2.7925  0.5784  1.7148
 1435SOL     OW15940   4.146   3.623   5.858  0.3570  0.2776 -0.3220
 1435SOL    HW115941   4.146   3.528   5.850  0.0670  0.3884 -1.6722
 1435SOL    HW215942   4.145   3.640   5.953 -2.6140 -2.3022  0.1306
 1436SOL     OW15943   4.615   3.716   5.089 -0.2100  0.1438  0.2261
 1436SOL    HW115944   4.578   3.802   5.105 -1.5081 -0.7862  2.1957
 1436SOL    HW215945   4.619   3.710   4.994  0.0855  0.1358  0.2413
 1437SOL     OW15946   0.290   3.858   1.794  0.4211  0.3394 -0.4119
 1437SOL    HW115947   0.336   3.924   1.741  0.6408 -0.5951 -1.3720
 1437SOL    HW215948   0.352   3.849   1.867 -0.8274 -0.9749  0.4937
 1438SOL     OW15949   3.753   3.257   7.008  0.2475  0.1011  0.1200
 1438SOL    HW115950   3.658   3.271   7.002  0.1966 -0.9645 -1.4736
 1438SOL    HW215951   3.765   3.164   6.988  0.4229  0.7287 -2.6240
 1439SOL     OW15952   2.234   1.406  10.709  0.5508 -0.0441 -0.5383
 1439SOL    HW115953   2.195   1.325  10.676  0.7072  0.3801 -1.7306
 1439SOL    HW215954   2.327   1.386  10.698  0.3291 -0.2023 -2.0329
 1440SOL     OW15955   3.438   4.627  17.191  0.0092 -0.0776  0.2110
 1440SOL    HW115956   3.508   4.651  17.251 -0.1198 -1.4771  0.9093
 1440SOL    HW215957   3.485   4.646  17.110 -0.5030 -0.6582 -0.2210
 1441SOL     OW15958   3.680   4.068  13.328 -0.3679 -0.1020 -0.6170
 1441SOL    HW115959   3.767   4.027  13.328  0.1126  0.9101 -0.2164
 1441SOL    HW215960   3.621   3.994  13.340  0.3158 -0.6553 -0.6977
 1442SOL     OW15961   4.131   0.383  12.276 -0.6116  0.0977 -0.6395
 1442SOL    HW115962   4.147   0.441  12.351 -2.0597 -1.2445  0.6947
 1442SOL    HW215963   4.196   0.426  12.221  0.6047 -0.7002  0.1786
 1443SOL     OW15964   1.235   4.616   7.290  0.2804  0.0243  0.2080
 1443SOL    HW115965   1.149   4.620   7.332  0.3209 -1.0001  0.3708
 1443SOL    HW215966   1.221   4.566   7.210  4.7422  1.1293 -1.2393
 1444SOL     OW15967   2.375   2.799   6.456 -0.2198 -0.2852 -0.1271
 1444SOL    HW115968   2.310   2.820   6.389  1.0119  1.6813 -0.6761
 1444SOL    HW215969   2.348   2.713   6.490 -0.0389  0.3575  1.6351
 1445SOL     OW15970   3.177   2.842  15.840 -0.6408  0.5208  0.3144
 1445SOL    HW115971   3.183   2.856  15.746 -0.5455  3.8160  0.8006
 1445SOL    HW215972   3.231   2.766  15.863  0.7721  1.9411  1.7267
 1446SOL     OW15973   0.249   0.711  11.576 -0.0413 -0.4788 -0.0320
 1446SOL    HW115974   0.193   0.738  11.649  1.4250 -1.6966  1.5773
 1446SOL    HW215975   0.187   0.697  11.505  2.1087 -2.2589 -1.5527
 1447SOL     OW15976   3.573   0.131   5.733  0.4053 -0.0951 -0.5672
 1447SOL    HW115977   3.536   0.062   5.678  0.4993  1.0373 -2.0749
 1447SOL    HW215978   3.487   0.159   5.764  0.8193 -1.2643  1.6397
 1448SOL     OW15979   2.929   1.863   4.524 -0.3707  0.3763 -0.3102
 1448SOL    HW115980   2.872   1.902   4.590  0.6811 -0.9580  1.3667
 1448SOL    HW215981   2.882   1.792   4.480 -3.4552  2.4522 -0.3232
 1449SOL     OW15982   1.416   1.446   8.741  0.7204  0.3209  0.3880
 1449SOL    HW115983   1.336   1.421   8.695  1.4122  2.1066 -1.8054
 1449SOL    HW215984   1.462   1.483   8.666  1.0279  0.7872  0.8004
 1450SOL     OW15985   3.849   2.547  12.370  0.3623 -0.3844  0.1018
 1450SOL    HW115986   3.940   2.529  12.392 -0.0553  0.2572  2.4562
 1450SOL    HW215987   3.845   2.643  12.366  2.0004 -0.3925 -1.7238
 1451SOL     OW15988   0.767   0.833   2.767 -0.0386 -0.2647 -0.0042
 1451SOL    HW115989   0.858   0.864   2.767 -0.6353  1.5063  1.9870
 1451SOL    HW215990   0.740   0.843   2.858  1.5764  0.5097  0.4056
 1452SOL     OW15991   2.160   1.249   5.145 -0.1144 -0.0403  0.2379
 1452SOL    HW115992   2.183   1.158   5.131  0.2857 -0.1472  1.5642
 1452SOL    HW215993   2.235   1.275   5.199 -0.4212 -0.3494  0.8106
 1453SOL     OW15994   1.075   0.618   7.992 -0.5233  0.7284 -0.2140
 1453SOL    HW115995   1.025   0.620   7.911 -0.1071 -0.3828 -0.5051
 1453SOL    HW215996   1.127   0.698   7.982  2.2499 -1.0504 -0.1191
 1454SOL     OW15997   2.494   1.025   8.707 -0.4153 -0.2874  0.2835
 1454SOL    HW115998   2.534   1.043   8.792 -0.2857 -0.5729  0.2810
 1454SOL    HW215999   2.505   1.106   8.657  1.3465 -1.7491 -1.7132
 1455SOL     OW16000   0.928   1.739   6.424 -0.4175 -0.2364  0.1950
 1455SOL    HW116001   0.834   1.737   6.408 -0.2054 -1.5729 -0.9102
 1455SOL    HW216002   0.932   1.652   6.465 -2.0428 -0.0435  0.7576
 1456SOL     OW16003   1.698   2.234   2.476  0.7734  0.2247  0.7407
 1456SOL    HW116004   1.638   2.160   2.483 -0.7022  1.4758  1.2128
 1456SOL    HW216005   1.679   2.281   2.394 -0.9383 -1.2726  0.2889
 1457SOL     OW16006   1.714   1.375  17.282  0.1471 -0.1637 -0.3196
 1457SOL    HW116007   1.777   1.309  17.253  0.9434 -0.1191  1.3013
 1457SOL    HW216008   1.733   1.445  17.220  0.7433  1.3706  1.5802
 1458SOL     OW16009   1.549   4.647   3.736 -0.0961  0.0933  0.4027
 1458SOL    HW116010   1.557   4.736   3.769  0.4667  0.0066  0.5024
 1458SOL    HW216011   1.541   4.593   3.815  2.7089  0.0902  0.7121
 1459SOL     OW16012   0.628   0.540   4.167 -0.6515  0.5135  0.1992
 1459SOL    HW116013   0.637   0.541   4.071 -4.4750  0.4338 -0.1755
 1459SOL    HW216014   0.636   0.633   4.190  0.3035  0.2746  0.8209
 1460SOL     OW16015   2.742   4.285   8.756 -0.0286 -0.3558 -0.6486
 1460SOL    HW116016   2.677   4.329   8.703 -2.1464 -0.8465  1.5281
 1460SOL    HW216017   2.694   4.250   8.831  0.7260 -1.0822 -0.5120
 1461SOL     OW16018   2.564   0.884  12.592  0.4134 -0.1753 -0.3100
 1461SOL    HW116019   2.628   0.887  12.521 -1.4959 -0.0514 -2.0061
 1461SOL    HW216020   2.575   0.974  12.622  1.9327 -0.2906 -0.4835
 1462SOL     OW16021   1.118   2.822  11.378 -0.4392 -0.0010 -0.1418
 1462SOL    HW116022   1.063   2.887  11.334 -1.5852  0.5729  2.1479
 1462SOL    HW216023   1.095   2.741  11.334  1.1939 -0.9464  0.7651
 1463SOL     OW16024   1.829   4.433  16.475  0.0393  0.2753 -0.1766
 1463SOL    HW116025   1.855   4.361  16.533  0.6790  0.8577  0.2655
 1463SOL    HW216026   1.809   4.384  16.396 -0.1171  1.5165 -0.9002
 1464SOL     OW16027   0.458   0.890  16.962  0.2865 -0.0672 -0.0700
 1464SOL    HW116028   0.388   0.911  17.024 -0.8829 -0.2492 -1.3257
 1464SOL    HW216029   0.497   0.811  16.999  1.5001  0.7956  0.4966
 1465SOL     OW16030   0.768   0.383   5.005  0.3080  0.3073  0.2164
 1465SOL    HW116031   0.759   0.466   4.959  1.2378  0.2306 -0.1068
 1465SOL    HW216032   0.691   0.394   5.061  0.5796 -0.1949  0.6944
 1466SOL     OW16033   1.238   3.930   7.941  0.7677 -0.2163  0.2555
 1466SOL    HW116034   1.166   3.906   8.000 -0.7935 -0.2359 -1.6526
 1466SOL    HW216035   1.227   4.024   7.930 -1.1763 -0.3194  1.4053
 1467SOL     OW16036   2.742   1.323   5.736  0.6241  0.0352  0.0459
 1467SOL    HW116037   2.785   1.266   5.672  1.1829  1.0641 -0.5050
 1467SOL    HW216038   2.648   1.304   5.731  0.8785 -1.5169  1.0508
 1468SOL     OW16039   4.580   1.955   9.455  0.2570 -0.5878 -0.1443
 1468SOL    HW116040   4.540   1.878   9.495  1.7267 -1.0431  0.4375
 1468SOL    HW216041   4.507   2.016   9.467  0.0881 -0.7762 -0.2240
 1469SOL     OW16042   2.795   2.766   7.323  0.1033  0.2151 -0.5365
 1469SOL    HW116043   2.831   2.775   7.235  1.6997 -1.3666 -0.0389
 1469SOL    HW216044   2.764   2.856   7.327 -0.2915  0.0609 -0.1342
 1470SOL     OW16045   4.056   4.699  17.379  0.3668  0.0124  0.2369
 1470SOL    HW116046   4.147   4.718  17.358  0.6007 -0.3663  0.8829
 1470SOL    HW216047   4.018   4.679  17.293  1.7545 -1.2828 -0.0941
 1471SOL     OW16048   2.240   3.306   0.458  0.1213  0.3530 -0.4582
 1471SOL    HW116049   2.314   3.300   0.518 -2.1774 -4.3488  1.8812
 1471SOL    HW216050   2.201   3.385   0.494 -0.5561  0.1507 -0.7510
 1472SOL     OW16051   3.322   2.286   3.851  0.1725  0.1009  0.0893
 1472SOL    HW116052   3.267   2.349   3.806 -0.2867 -0.7071 -0.4890
 1472SOL    HW216053   3.414   2.306   3.834  0.5721 -1.4560  0.3406
 1473SOL     OW16054   2.664   4.132   3.003 -0.1611 -0.0012 -0.8556
 1473SOL    HW116055   2.631   4.088   3.082  0.5598  0.8602 -0.0800
 1473SOL    HW216056   2.757   4.120   3.022 -0.0952 -1.3221 -1.9876
 1474SOL     OW16057   1.706   3.367   9.632 -0.4580  0.2501 -0.7278
 1474SOL    HW116058   1.708   3.298   9.565 -1.2525 -0.3770 -0.1050
 1474SOL    HW216059   1.673   3.440   9.581 -0.3332  0.7028 -0.1587
 1475SOL     OW16060   2.063   0.603   4.070  0.6051  0.0890  0.4879
 1475SOL    HW116061   2.159   0.594   4.068  0.6721  1.0386 -0.3483
 1475SOL    HW216062   2.052   0.580   3.977 -1.3542 -0.5292  0.8774
 1476SOL     OW16063   3.949   3.138   4.550  0.4082  0.3140  0.0808
 1476SOL    HW116064   3.856   3.142   4.573  0.1540 -1.9215 -0.5464
 1476SOL    HW216065   3.964   3.049   4.582  0.9459 -0.6117 -2.7409
 1477SOL     OW16066   2.870   1.117   6.607  0.3654  0.2141 -0.7140
 1477SOL    HW116067   2.811   1.183   6.644  1.0492  0.1012  0.5910
 1477SOL    HW216068   2.818   1.039   6.623 -1.1177  1.3013 -0.1966
 1478SOL     OW16069   1.470   3.659  16.602  0.8348 -0.0339 -0.0427
 1478SOL    HW116070   1.446   3.615  16.520  0.2450  0.4059 -0.1098
 1478SOL    HW216071   1.559   3.682  16.577  1.1657  0.0516  1.2265
 1479SOL     OW16072   3.485   1.502  11.553 -0.5485 -0.0927  0.0484
 1479SOL    HW116073   3.436   1.431  11.510  1.2782 -1.4533  0.2172
 1479SOL    HW216074   3.558   1.505  11.491 -2.2516 -2.6728 -2.1396
 1480SOL     OW16075   2.922   1.692   6.649 -0.1400  0.0126 -0.8888
 1480SOL    HW116076   2.846   1.681   6.593 -0.8918  0.6983 -0.0007
 1480SOL    HW216077   2.980   1.619   6.628  1.7284  1.6288 -1.3998
 1481SOL     OW16078   0.552   4.094   2.502  0.1284  0.0620 -0.1159
 1481SOL    HW116079   0.647   4.101   2.491  0.4245  0.1019  2.3998
 1481SOL    HW216080   0.511   4.132   2.424  1.9370 -0.1159 -1.1717
 1482SOL     OW16081   2.287   0.250   6.966 -0.2311 -0.0262  0.2115
 1482SOL    HW116082   2.236   0.176   6.998  0.8536 -1.6387 -1.7755
 1482SOL    HW216083   2.229   0.297   6.905  1.3321  1.6931  0.0351
 1483SOL     OW16084   0.159   0.749   8.055 -0.2996 -0.2008 -0.1933
 1483SOL    HW116085   0.250   0.743   8.024 -0.2139  1.8652 -0.3490
 1483SOL    HW216086   0.112   0.814   8.004  0.7000  1.2330  0.7084
 1484SOL     OW16087   0.860   3.696   7.085 -0.0225 -0.7104 -0.2834
 1484SOL    HW116088   0.857   3.636   7.010  1.6622 -2.2069  0.8298
 1484SOL    HW216089   0.770   3.725   7.078 -0.7129 -1.8269  3.8769
 1485SOL     OW16090   3.960   2.460   7.317 -0.0352 -0.3364  0.2018
 1485SOL    HW116091   4.023   2.489   7.383 -0.6808  1.1672  0.1662
 1485SOL    HW216092   4.005   2.467   7.233  0.4792 -0.3013  0.4807
 1486SOL     OW16093   3.061   0.371   1.883 -0.4746  0.0097  0.1170
 1486SOL    HW116094   2.974   0.409   1.895 -1.6620 -1.7453 -2.8233
 1486SOL    HW216095   3.105   0.455   1.895 -0.8788  0.0688  1.1294
 1487SOL     OW16096   4.196   0.590   2.991 -0.0817 -0.0054 -0.5318
 1487SOL    HW116097   4.177   0.516   3.048 -1.7830 -0.0994 -1.2389
 1487SOL    HW216098   4.169   0.659   3.052  0.6442  1.6872 -2.1245
 1488SOL     OW16099   4.580   2.803   4.216 -0.1063  0.5748  0.0759
 1488SOL    HW116100   4.588   2.889   4.258 -0.4652  2.4728 -3.7642
 1488SOL    HW216101   4.601   2.811   4.123  0.4797 -0.6393  0.1065
 1489SOL     OW16102   2.642   0.476   1.626 -0.4666 -0.4385 -0.8328
 1489SOL    HW116103   2.565   0.487   1.682  0.4224  0.9083  0.1399
 1489SOL    HW216104   2.687   0.413   1.681  0.0083  0.5933 -0.0263
 1490SOL     OW16105   3.077   4.713   6.202  0.0634  0.2374 -0.0435
 1490SOL    HW116106   3.092   4.720   6.107  0.8742  1.9617  0.2018
 1490SOL    HW216107   3.142   0.039   6.233  1.6202 -2.2626  1.7774
 1491SOL     OW16108   2.091   0.646   9.395 -0.2112  0.2975  0.2397
 1491SOL    HW116109   2.142   0.718   9.358  2.4929 -2.0408 -0.6027
 1491SOL    HW216110   2.122   0.653   9.485  0.1559 -1.2017  0.2193
 1492SOL     OW16111   3.721   0.421   1.690  0.3075  0.0581 -0.6356
 1492SOL    HW116112   3.640   0.383   1.656  0.0772 -0.5835  0.6304
 1492SOL    HW216113   3.777   0.415   1.612  2.8941 -0.6007  1.2528
 1493SOL     OW16114   1.375   2.508  11.758 -0.1975  0.1901  0.0672
 1493SOL    HW116115   1.465   2.500  11.791  0.2408  0.0130 -1.1924
 1493SOL    HW216116   1.394   2.551  11.675  0.8240 -0.5496 -0.0915
 1494SOL     OW16117   0.801   0.637   2.554 -0.4022  0.3528 -0.6080
 1494SOL    HW116118   0.880   0.682   2.526 -1.2341  3.4291  2.0181
 1494SOL    HW216119   0.775   0.705   2.616 -0.6839  0.0720 -0.4187
 1495SOL     OW16120   0.876   1.859   7.653 -0.0992 -0.4147 -0.0684
 1495SOL    HW116121   0.790   1.862   7.694 -0.4682 -0.4368 -0.8481
 1495SOL    HW216122   0.917   1.818   7.729 -2.4727 -1.5086  0.6271
 1496SOL     OW16123   0.303   4.454  12.347  0.1318 -0.1486 -0.0996
 1496SOL    HW116124   0.296   4.528  12.286 -1.2735  0.6884  1.0608
 1496SOL    HW216125   0.241   4.491  12.410  0.3872 -0.4619  0.3399
 1497SOL     OW16126   1.708   1.354  14.886  0.1023 -0.4778  0.1101
 1497SOL    HW116127   1.716   1.259  14.878 -2.0081 -0.6557  0.1080
 1497SOL    HW216128   1.780   1.367  14.948  0.2506  0.8135 -0.3366
 1498SOL     OW16129   4.178   3.953   4.204 -0.1863  0.3134  0.0229
 1498SOL    HW116130   4.100   3.903   4.228  1.0342 -1.9299 -0.7444
 1498SOL    HW216131   4.221   3.959   4.289  1.0504  1.1323 -0.6570
 1499SOL     OW16132   1.151   3.076   7.344 -0.7569 -0.1616  0.1724
 1499SOL    HW116133   1.139   3.112   7.432 -1.6731  0.3343 -0.1503
 1499SOL    HW216134   1.201   2.996   7.362 -0.1861 -0.1199 -1.2284
 1500SOL     OW16135   4.384   0.232   3.757  0.8102  0.3689  0.5876
 1500SOL    HW116136   4.337   0.201   3.679 -2.2936 -0.1488  2.6770
 1500SOL    HW216137   4.469   0.252   3.718  1.3111  0.0809  1.5445
 1501SOL     OW16138   0.120   0.695  16.375 -0.0203 -0.4392 -0.2269
 1501SOL    HW116139   0.049   0.750  16.409  0.6372  0.3748 -0.1907
 1501SOL    HW216140   0.128   0.739  16.290  2.0348  0.0529  0.2338
 1502SOL     OW16141   3.946   1.309   6.442  0.2481  0.9717  0.2347
 1502SOL    HW116142   4.007   1.337   6.374 -0.7986  2.9310  0.0784
 1502SOL    HW216143   4.009   1.278   6.507  0.6550  1.1865 -0.0585
 1503SOL     OW16144   3.955   4.371  15.315 -0.3885 -0.4521  0.3706
 1503SOL    HW116145   3.904   4.424  15.254 -0.7254  0.5506  1.5223
 1503SOL    HW216146   3.925   4.412  15.396  1.4480 -0.2747  0.9625
 1504SOL     OW16147   3.938   2.671   2.055  0.4444  0.5570  0.2794
 1504SOL    HW116148   3.951   2.684   1.961 -1.2247  2.2199  0.2708
 1504SOL    HW216149   3.968   2.755   2.090  0.2633  0.7716 -0.0768
 1505SOL     OW16150   4.589   2.179  10.736 -0.0727 -0.7423  0.5102
 1505SOL    HW116151   4.532   2.126  10.680 -2.4864  1.4318  0.9231
 1505SOL    HW216152   4.577   2.138  10.822  2.4358  0.2973  1.3647
 1506SOL     OW16153   4.166   3.952   6.713 -0.0848 -0.9103  0.0280
 1506SOL    HW116154   4.077   3.954   6.678  1.2790  1.0127 -3.3091
 1506SOL    HW216155   4.149   4.000   6.794 -1.7448 -1.8557  0.2268
 1507SOL     OW16156   2.657   3.794   3.416 -0.8432  0.0628 -0.2198
 1507SOL    HW116157   2.666   3.802   3.511 -0.8157  0.1931 -0.2341
 1507SOL    HW216158   2.577   3.741   3.412  0.0803 -1.3115 -0.6346
 1508SOL     OW16159   3.713   0.345   5.620  0.3885  0.6601  0.4737
 1508SOL    HW116160   3.648   0.407   5.588  1.4216  0.8921 -1.1790
 1508SOL    HW216161   3.668   0.266   5.650  1.0184 -1.4950 -4.1886
 1509SOL     OW16162   3.568   4.360   4.046  0.0144  0.2639 -0.1550
 1509SOL    HW116163   3.550   4.441   4.094  1.6513 -0.0669  0.9940
 1509SOL    HW216164   3.595   4.307   4.120 -0.2023  0.4153  0.0338
 1510SOL     OW16165   3.397   1.263   7.103  0.2093 -0.0585  0.1533
 1510SOL    HW116166   3.408   1.237   7.194  1.2436  1.7737  0.5571
 1510SOL    HW216167   3.464   1.332   7.098  0.4840 -0.2679  0.9270
 1511SOL     OW16168   3.742   1.146   6.584  0.5625 -0.5498 -0.0942
 1511SOL    HW116169   3.827   1.172   6.550 -0.2940 -0.5402 -2.2153
 1511SOL    HW216170   3.725   1.234   6.618 -0.7643 -0.0630 -1.9958
 1512SOL     OW16171   1.363   2.010   5.345 -0.1486  0.3953  0.1575
 1512SOL    HW116172   1.351   1.988   5.253  2.4176 -3.2873  0.6794
 1512SOL    HW216173   1.429   2.079   5.340 -0.4716  0.3922 -3.7121
 1513SOL     OW16174   4.683   3.003   4.828  0.7585 -0.2562 -0.8044
 1513SOL    HW116175   4.734   2.966   4.755  0.5642  2.9496 -2.5677
 1513SOL    HW216176   4.602   2.955   4.846  0.4018  0.5608 -0.2203
 1514SOL     OW16177   1.897   1.408   7.348 -0.7289 -0.0248  0.3956
 1514SOL    HW116178   1.893   1.430   7.255 -0.5137 -1.4388  0.0465
 1514SOL    HW216179   1.927   1.492   7.383  1.3507  0.5704 -2.7801
 1515SOL     OW16180   2.495   3.253   7.388  0.2221 -0.2401 -0.2992
 1515SOL    HW116181   2.433   3.241   7.460  0.3357  0.4983 -0.0748
 1515SOL    HW216182   2.431   3.282   7.323 -0.9040  0.6096  1.1854
 1516SOL     OW16183   1.879   3.866   4.208 -0.1647  0.2232 -0.3685
 1516SOL    HW116184   1.831   3.922   4.269 -0.0616 -1.0597  0.8641
 1516SOL    HW216185   1.839   3.893   4.125 -0.7487  2.4324  0.6396
 1517SOL     OW16186   1.072   0.251   5.852 -0.4281  0.4750 -0.4072
 1517SOL    HW116187   1.083   0.338   5.815  1.4166  0.6819  0.6192
 1517SOL    HW216188   1.108   0.266   5.940 -2.0736 -0.9514  0.5202
 1518SOL     OW16189   0.770   0.065   9.149 -0.2674  0.0335  0.0832
 1518SOL    HW116190   0.730   0.149   9.171  1.8394  0.5837  1.8381
 1518SOL    HW216191   0.705   0.003   9.181 -1.4704  0.2587 -1.9225
 1519SOL     OW16192   4.701   3.789  15.961  0.1953  0.2248  0.1051
 1519SOL    HW116193   0.025   3.723  15.995 -1.6085 -1.7569 -0.4511
 1519SOL    HW216194   4.668   3.830  16.041 -0.4674 -1.6058  0.7738
 1520SOL     OW16195   4.228   4.037  15.593  0.0758  0.0098  0.2260
 1520SOL    HW116196   4.173   4.068  15.520 -2.8146 -0.1852  2.3083
 1520SOL    HW216197   4.251   4.111  15.648  0.4041 -0.6431  0.9735
 1521SOL     OW16198   2.216   3.093  14.820 -0.6846  0.2484 -0.2758
 1521SOL    HW116199   2.150   3.132  14.764 -1.7661  1.8725  2.1173
 1521SOL    HW216200   2.214   3.007  14.777 -1.4884  1.1062 -1.9178
 1522SOL     OW16201   2.302   1.253   8.792 -0.1796  0.0100  0.3048
 1522SOL    HW116202   2.272   1.276   8.703  0.7157  3.5784  0.9089
 1522SOL    HW216203   2.379   1.200   8.771 -1.9627 -2.1316 -0.7455
 1523SOL     OW16204   4.732   3.546  17.453  0.4098  0.1541  0.0724
 1523SOL    HW116205   0.006   3.465  17.404 -1.3028  0.9220 -1.5830
 1523SOL    HW216206   4.656   3.523  17.508  0.1176  0.7924 -0.0661
 1524SOL     OW16207   4.413   3.102   5.255 -0.4409 -0.2908 -0.5573
 1524SOL    HW116208   4.478   3.052   5.206 -1.3891 -0.6701 -1.4297
 1524SOL    HW216209   4.371   3.035   5.308 -0.2214  0.6572  0.8143
 1525SOL     OW16210   3.745   1.491   6.327 -0.5525 -0.1469  0.5504
 1525SOL    HW116211   3.661   1.456   6.358  0.2651 -0.0843  2.7956
 1525SOL    HW216212   3.808   1.443   6.380 -0.0677  1.1256  1.1240
 1526SOL     OW16213   2.077   3.237   4.132  0.4332 -0.2420  0.7060
 1526SOL    HW116214   2.028   3.157   4.151 -0.7578  0.6325  1.3365
 1526SOL    HW216215   2.020   3.305   4.169 -0.9056 -0.7497 -0.4145
 1527SOL     OW16216   2.177   1.955   3.680 -0.5211 -0.4892  0.3720
 1527SOL    HW116217   2.145   1.952   3.770  1.2949 -0.6585  1.0038
 1527SOL    HW216218   2.102   1.921   3.632 -1.6254  1.9528  0.3525
 1528SOL     OW16219   2.697   1.380   6.583  0.0571 -0.3878  0.3037
 1528SOL    HW116220   2.649   1.463   6.577 -0.5770 -0.6864  1.3220
 1528SOL    HW216221   2.683   1.356   6.675 -0.6194  0.7389  0.5020
 1529SOL     OW16222   3.686   0.133  12.439  0.5731 -0.1955  0.1732
 1529SOL    HW116223   3.738   0.106  12.514  1.2208  1.6154  0.3734
 1529SOL    HW216224   3.747   0.175  12.378 -1.0662  1.7534 -0.1316
 1530SOL     OW16225   0.918   1.453   5.640 -0.0609  0.7933  0.0567
 1530SOL    HW116226   1.003   1.467   5.598  0.5937  1.1068  1.4624
 1530SOL    HW216227   0.884   1.543   5.635  1.8056  1.4004 -1.5764
 1531SOL     OW16228   0.177   2.357   2.461  0.0547 -0.4792 -0.1043
 1531SOL    HW116229   0.133   2.403   2.389  0.2206 -0.2140 -0.0398
 1531SOL    HW216230   0.259   2.406   2.469 -0.3520  0.0747  0.6803
 1532SOL     OW16231   2.251   0.224   4.939  0.4191  0.4654  0.0357
 1532SOL    HW116232   2.300   0.180   4.870  0.8179 -0.4792  0.9110
 1532SOL    HW216233   2.196   0.292   4.901  1.9004  1.4566 -0.3506
 1533SOL     OW16234   1.455   0.938   9.343 -0.4592  0.1843  0.0854
 1533SOL    HW116235   1.532   0.995   9.348 -1.4317  1.6181 -1.5885
 1533SOL    HW216236   1.386   1.003   9.353 -0.2046  0.5345 -0.4681
 1534SOL     OW16237   2.302   3.807   1.139 -0.6403 -0.3850  0.1473
 1534SOL    HW116238   2.391   3.804   1.175 -0.1046  0.3166 -1.1313
 1534SOL    HW216239   2.314   3.865   1.064 -0.4968  1.8891  1.9223
 1535SOL     OW16240   3.507   0.446   3.201 -0.3195 -0.2020 -0.4310
 1535SOL    HW116241   3.459   0.363   3.191 -1.7421  0.5667  0.0843
 1535SOL    HW216242   3.482   0.500   3.126  0.0391  0.3737 -0.1337
 1536SOL     OW16243   1.800   4.231  16.272  0.1730 -1.1376  0.5059
 1536SOL    HW116244   1.818   4.289  16.198 -0.6486 -0.7398  0.6155
 1536SOL    HW216245   1.869   4.166  16.284 -0.1008 -1.7736 -1.4491
 1537SOL     OW16246   3.559   3.356   4.812  0.2006  1.0675 -0.1679
 1537SOL    HW116247   3.653   3.342   4.807  0.0599  0.2656 -0.5264
 1537SOL    HW216248   3.548   3.344   4.906 -1.6996  0.7559 -0.4341
 1538SOL     OW16249   0.949   1.754   8.693 -0.3782 -0.1235 -0.0196
 1538SOL    HW116250   0.931   1.734   8.601 -0.0399  0.2164 -0.1593
 1538SOL    HW216251   0.986   1.676   8.734 -2.2127 -1.4217 -0.8325
 1539SOL     OW16252   1.089   4.097  15.938  1.1394 -0.1950  0.0735
 1539SOL    HW116253   1.077   4.123  16.029 -0.6683 -1.4256  0.1796
 1539SOL    HW216254   0.995   4.093  15.922  1.1838  1.5805 -0.6321
 1540SOL     OW16255   0.210   1.783   7.999 -0.6540  0.2335 -0.2073
 1540SOL    HW116256   0.121   1.817   8.004 -0.7128 -0.2376  1.8116
 1540SOL    HW216257   0.266   1.855   7.969  0.9919 -1.1471 -0.4367
 1541SOL     OW16258   4.627   3.294   7.032 -0.3189  0.1626  0.3262
 1541SOL    HW116259   4.563   3.265   6.967  1.0571  2.8020 -2.2027
 1541SOL    HW216260   4.568   3.320   7.102 -0.0575 -0.0006  0.6051
 1542SOL     OW16261   1.613   3.947  17.480  0.2921 -0.7772 -0.1066
 1542SOL    HW116262   1.553   3.879  17.449 -1.5157 -0.1526  2.1171
 1542SOL    HW216263   1.560   4.023  17.502  1.4045  0.1408 -0.5651
 1543SOL     OW16264   1.752   0.201  16.103  0.2728 -0.4955 -0.0607
 1543SOL    HW116265   1.704   0.282  16.088  0.8102  0.3669  2.7268
 1543SOL    HW216266   1.710   0.158  16.178  0.0756  3.0344  1.8712
 1544SOL     OW16267   3.566   0.379   4.341  0.4472 -0.3119  0.8189
 1544SOL    HW116268   3.547   0.406   4.431 -0.3420  1.2269  0.1965
 1544SOL    HW216269   3.546   0.459   4.291 -0.8191 -0.4197  1.1547
 1545SOL     OW16270   3.705   3.912  16.892 -0.3884  0.4801 -0.5136
 1545SOL    HW116271   3.615   3.886  16.911 -0.2251 -0.8279 -1.5191
 1545SOL    HW216272   3.759   3.862  16.953  0.4627 -0.8505 -2.3459
 1546SOL     OW16273   3.787   1.896   7.942 -0.6372  0.0002 -0.0061
 1546SOL    HW116274   3.843   1.821   7.920  0.8542  1.5340 -1.4670
 1546SOL    HW216275   3.836   1.972   7.911 -2.4650  1.2583  0.2213
 1547SOL     OW16276   1.506   3.047   9.551 -0.0136  0.6080  0.3871
 1547SOL    HW116277   1.450   3.069   9.476  1.6529 -1.2834 -1.4011
 1547SOL    HW216278   1.467   3.095   9.625 -2.6663 -0.5542 -0.2357
 1548SOL     OW16279   0.218   1.804   3.778 -0.8074 -0.6431 -0.7588
 1548SOL    HW116280   0.270   1.724   3.782  1.3453  0.7526 -0.7707
 1548SOL    HW216281   0.172   1.810   3.861  1.4053  0.1029  0.4009
 1549SOL     OW16282   3.150   0.290  17.616 -0.1109 -0.3663 -0.3010
 1549SOL    HW116283   3.138   0.312  17.709 -0.9071  0.3979 -0.5840
 1549SOL    HW216284   3.108   0.362  17.569  0.3260  1.5571  2.2649
 1550SOL     OW16285   3.244   1.694   9.810  0.1759  0.1545  0.5355
 1550SOL    HW116286   3.337   1.673   9.813  0.5017  1.0128 -3.7215
 1550SOL    HW216287   3.209   1.611   9.779 -1.2893  1.0716 -0.2426
 1551SOL     OW16288   4.571   4.193   7.252 -0.2994 -0.0475 -0.8462
 1551SOL    HW116289   4.602   4.283   7.241  0.7939 -0.3731 -0.3587
 1551SOL    HW216290   4.658   4.156   7.241 -0.3088 -0.1391 -0.6145
 1552SOL     OW16291   2.326   1.473   6.390  0.0280 -0.0905 -0.2183
 1552SOL    HW116292   2.369   1.402   6.342  2.6461  2.3241 -1.3988
 1552SOL    HW216293   2.399   1.509   6.440 -1.1155  0.1020  1.3158
 1553SOL     OW16294   0.970   2.964   9.297  0.8084 -0.3142  0.6933
 1553SOL    HW116295   1.042   2.924   9.247 -0.1450 -1.5670  0.3147
 1553SOL    HW216296   0.951   2.890   9.355 -2.0524  2.9965  4.0166
 1554SOL     OW16297   1.148   0.382  15.160 -0.2241  0.2530 -0.0312
 1554SOL    HW116298   1.104   0.299  15.179  1.2393 -0.8591 -1.4857
 1554SOL    HW216299   1.166   0.368  15.067 -1.2231  0.8789 -0.3091
 1555SOL     OW16300   1.163   2.109   2.682 -0.3052 -0.0337  0.1879
 1555SOL    HW116301   1.187   2.053   2.756  0.8025  0.9681  0.5991
 1555SOL    HW216302   1.228   2.180   2.684 -0.4694  0.1370 -0.6537
 1556SOL     OW16303   3.974   0.214   8.074  0.3874  0.0162 -0.0183
 1556SOL    HW116304   4.069   0.226   8.080  0.5463  0.3739 -3.2761
 1556SOL    HW216305   3.971   0.126   8.037  1.0540  0.2701 -0.6779
 1557SOL     OW16306   0.895   3.511   6.770 -0.0586 -0.2101 -0.0783
 1557SOL    HW116307   0.838   3.440   6.800  1.1665 -1.1401  0.0691
 1557SOL    HW216308   0.965   3.453   6.740  2.5813  0.9925  3.6878
 1558SOL     OW16309   3.628   0.013   7.027  0.4877 -0.1778  0.8179
 1558SOL    HW116310   3.644   0.082   7.091 -0.4454  0.0711  0.7926
 1558SOL    HW216311   3.558   0.054   6.976 -0.3802  0.5865  2.6158
 1559SOL     OW16312   3.494   3.496   6.446  0.3342 -0.0310  0.0081
 1559SOL    HW116313   3.541   3.526   6.368 -2.1011  2.0790 -0.6283
 1559SOL    HW216314   3.562   3.507   6.513  0.7540  0.8043 -0.5452
 1560SOL     OW16315   0.363   1.073   8.452 -0.2428  0.4648  0.3358
 1560SOL    HW116316   0.286   1.117   8.489 -1.0373  0.3403 -1.1637
 1560SOL    HW216317   0.400   1.141   8.395 -0.0455  1.3079  1.4620
 1561SOL     OW16318   4.370   4.471   4.184 -0.5600 -0.3841 -0.2600
 1561SOL    HW116319   4.407   4.490   4.270 -1.8482 -1.1402  0.4750
 1561SOL    HW216320   4.281   4.506   4.186  0.4909  2.3841 -1.8557
 1562SOL     OW16321   3.336   1.864   0.767  0.0467  0.5498 -0.3579
 1562SOL    HW116322   3.256   1.885   0.815  0.9082 -0.1813  1.4057
 1562SOL    HW216323   3.297   1.798   0.710  0.8342  0.0081 -0.2568
 1563SOL     OW16324   4.035   0.036   3.106  0.1084 -0.7111  0.0382
 1563SOL    HW116325   3.954   0.087   3.109 -0.4366 -1.4799 -1.8882
 1563SOL    HW216326   4.038   0.009   3.015  1.4530 -1.8611  0.4332
 1564SOL     OW16327   4.621   2.180   8.128  0.1610  0.1683 -0.5843
 1564SOL    HW116328   4.597   2.271   8.111 -3.1284 -0.3220  1.4720
 1564SOL    HW216329   4.713   2.193   8.151  0.3265 -0.8490 -0.6653
 1565SOL     OW16330   4.639   3.589   2.247  0.0143  0.8184  0.5212
 1565SOL    HW116331   4.564   3.602   2.189  0.4284 -0.3649 -0.2771
 1565SOL    HW216332   4.625   3.662   2.308 -3.8930 -0.3276  0.9848
 1566SOL     OW16333   1.428   4.550   3.967  0.2222 -0.7607  0.0433
 1566SOL    HW116334   1.355   4.553   4.028  0.7730  0.7095  0.6298
 1566SOL    HW216335   1.504   4.539   4.025  0.7677 -0.1191 -0.5606
 1567SOL     OW16336   3.238   1.603   8.826  0.2452 -0.2125 -0.1569
 1567SOL    HW116337   3.210   1.664   8.895 -0.1813 -1.1001  0.4531
 1567SOL    HW216338   3.216   1.521   8.869 -0.5656  0.3024  0.4219
 1568SOL     OW16339   3.434   3.038  15.028  0.1149  0.5360 -0.2288
 1568SOL    HW116340   3.517   3.009  14.989  1.1972  0.2535  2.2864
 1568SOL    HW216341   3.361   3.020  14.968  0.1177  1.9214 -0.6328
 1569SOL     OW16342   0.163   3.516   2.295  0.1179  0.0370 -0.5157
 1569SOL    HW116343   0.075   3.527   2.261 -0.9085 -1.0833  1.8249
 1569SOL    HW216344   0.221   3.565   2.237 -0.3904 -2.5895 -3.2017
 1570SOL     OW16345   3.011   2.643   5.616 -0.8832  0.5059 -0.3060
 1570SOL    HW116346   3.098   2.628   5.579 -1.5130  1.2751 -2.0723
 1570SOL    HW216347   2.973   2.563   5.581 -0.4808 -0.2474  1.0059
 1571SOL     OW16348   0.040   1.808   1.271 -0.0113 -0.2215  0.2006
 1571SOL    HW116349   4.722   1.752   1.217 -1.0481  0.2773  0.7561
 1571SOL    HW216350   0.012   1.886   1.223 -1.4441 -0.4266  0.7191
 1572SOL     OW16351   2.549   2.385   3.122  0.2207 -0.1805  0.1388
 1572SOL    HW116352   2.589   2.312   3.170 -1.2217 -0.6657  0.5975
 1572SOL    HW216353   2.492   2.333   3.066  1.5039 -0.4243 -0.9372
 1573SOL     OW16354   2.525   0.738   3.230 -0.0425 -0.1139 -0.0224
 1573SOL    HW116355   2.581   0.749   3.153 -0.2718 -0.7905 -0.2891
 1573SOL    HW216356   2.456   0.684   3.190 -0.3633 -1.8412  2.8839
 1574SOL     OW16357   3.420   3.857  17.201  0.1370 -0.5846  0.4163
 1574SOL    HW116358   3.461   3.942  17.181 -0.1394 -0.8900 -1.4647
 1574SOL    HW216359   3.416   3.844  17.296 -2.1387 -0.5080  0.3242
 1575SOL     OW16360   4.413   1.022   3.671 -0.2547  0.0310  0.2581
 1575SOL    HW116361   4.437   0.929   3.672  0.1693  0.1450  0.8744
 1575SOL    HW216362   4.415   1.039   3.577 -0.3741  2.2682  0.6676
 1576SOL     OW16363   3.884   1.597   5.381  0.5238 -0.3323  0.5569
 1576SOL    HW116364   3.864   1.611   5.288  3.9947  2.3953  0.2191
 1576SOL    HW216365   3.930   1.513   5.371  2.4359  1.0097 -1.8231
 1577SOL     OW16366   2.377   2.966  15.601  0.0423  0.4997 -0.4060
 1577SOL    HW116367   2.380   2.973  15.506  2.8075 -1.3803 -0.4551
 1577SOL    HW216368   2.428   2.885  15.603 -0.1093  0.4279  0.4991
 1578SOL     OW16369   3.471   0.436   4.611  0.1040  0.4110  0.3613
 1578SOL    HW116370   3.433   0.349   4.625  1.0237 -0.3434 -1.8523
 1578SOL    HW216371   3.388   0.481   4.627  0.9954  1.1523  2.9890
 1579SOL     OW16372   0.142   1.906   1.839 -0.4339  0.1896  0.0585
 1579SOL    HW116373   0.105   1.991   1.817  0.3537  0.9517  1.6695
 1579SOL    HW216374   0.224   1.937   1.879 -1.3139 -1.4618  3.1367
 1580SOL     OW16375   3.490   2.515   4.181 -0.9321  0.2764 -0.2893
 1580SOL    HW116376   3.569   2.562   4.151 -0.9462 -0.0690 -0.8748
 1580SOL    HW216377   3.513   2.506   4.273 -2.1109 -2.3096 -0.2778
 1581SOL     OW16378   2.782   2.377  13.688  0.0399  0.6761 -0.1076
 1581SOL    HW116379   2.826   2.361  13.772  3.5291  0.1716 -2.0633
 1581SOL    HW216380   2.718   2.307  13.701 -0.3676  1.3284  1.4525
 1582SOL     OW16381   2.547   1.057   2.771 -1.1292 -0.4062 -0.1076
 1582SOL    HW116382   2.629   1.056   2.720 -1.1331  1.0527 -0.1443
 1582SOL    HW216383   2.527   1.150   2.758 -0.3678  0.0624  1.9898
 1583SOL     OW16384   0.141   0.179   8.166 -0.1128  0.3677  0.1022
 1583SOL    HW116385   0.173   0.090   8.151 -0.4748  0.2233  0.2032
 1583SOL    HW216386   0.223   0.226   8.184  0.3883 -0.0406 -1.1242
 1584SOL     OW16387   0.878   2.125   5.297  0.0107  0.1183  0.2228
 1584SOL    HW116388   0.832   2.194   5.249 -2.4105 -1.4072  0.3873
 1584SOL    HW216389   0.887   2.058   5.230 -0.8407  1.4325 -1.2000
 1585SOL     OW16390   2.267   2.509   0.656 -0.4731  0.3286 -0.2462
 1585SOL    HW116391   2.310   2.534   0.574  2.6071  0.7308  1.4918
 1585SOL    HW216392   2.296   2.570   0.724  0.6685 -1.7372  1.0936
 1586SOL     OW16393   0.562   4.333   6.124  0.3086  0.2737  0.5032
 1586SOL    HW116394   0.555   4.238   6.135  0.7458  0.3180  1.1480
 1586SOL    HW216395   0.507   4.354   6.048  1.2591 -0.2500 -0.3192
 1587SOL     OW16396   0.165   0.006  10.547 -0.1941  0.9369 -0.1482
 1587SOL    HW116397   0.218   0.081  10.518 -0.2044 -0.1208 -2.9379
 1587SOL    HW216398   0.204   4.731  10.633 -3.4805 -2.0140  0.9371
 1588SOL     OW16399   0.929   0.899  16.395  0.4803  0.1806  0.6054
 1588SOL    HW116400   0.984   0.959  16.345 -2.9860  1.0733 -2.0594
 1588SOL    HW216401   0.947   0.814  16.353  0.9373  0.1123  0.9442
 1589SOL     OW16402   3.541   1.087  17.460 -0.1259 -0.3967 -0.2449
 1589SOL    HW116403   3.597   1.130  17.396  0.0813 -0.3913 -0.0606
 1589SOL    HW216404   3.470   1.064  17.400 -0.6684 -1.4311  0.7749
 1590SOL     OW16405   0.690   0.709   8.212 -0.0691  0.2754  0.1380
 1590SOL    HW116406   0.630   0.706   8.137  0.7532 -4.2600 -0.3082
 1590SOL    HW216407   0.663   0.629   8.256 -0.2406 -0.8988 -2.1145
 1591SOL     OW16408   1.256   2.954   9.295 -0.7759  0.0460  0.5745
 1591SOL    HW116409   1.295   2.916   9.216  1.5926  0.7385  1.3971
 1591SOL    HW216410   1.230   3.041   9.265  0.5133  0.1217 -0.3131
 1592SOL     OW16411   2.556   2.186   7.139 -0.6921 -0.4420 -0.0427
 1592SOL    HW116412   2.651   2.184   7.155 -0.4828  2.2375 -0.9195
 1592SOL    HW216413   2.534   2.271   7.177  2.1344  0.3501 -0.1723
 1593SOL     OW16414   3.381   0.599   1.712 -0.2040 -0.0005 -0.4800
 1593SOL    HW116415   3.313   0.554   1.663  0.2392 -2.3563  1.0404
 1593SOL    HW216416   3.358   0.691   1.707  0.6416  0.2862  0.7459
 1594SOL     OW16417   4.631   0.479   8.481 -0.0728  0.0450  0.5548
 1594SOL    HW116418   4.662   0.451   8.395 -1.3796 -2.4098  0.8716
 1594SOL    HW216419   4.566   0.545   8.460 -0.1837  0.1235  1.1259
 1595SOL     OW16420   4.067   0.688  13.592  0.2515 -0.3254 -0.6551
 1595SOL    HW116421   4.126   0.618  13.620 -0.5447 -1.2462 -1.3191
 1595SOL    HW216422   4.082   0.704  13.498 -0.4932 -0.5771 -0.8108
 1596SOL     OW16423   1.833   2.311   1.678 -0.4216  1.1211 -0.5951
 1596SOL    HW116424   1.889   2.288   1.753  0.0747  1.7149 -0.7845
 1596SOL    HW216425   1.885   2.281   1.604  0.8827 -1.0795  1.1970
 1597SOL     OW16426   3.154   4.709   4.691  0.2129  0.1973  0.1505
 1597SOL    HW116427   3.149   4.689   4.785  0.0234  0.5668  0.2192
 1597SOL    HW216428   3.189   4.630   4.650  1.4506  0.0693  1.4300
 1598SOL     OW16429   3.913   3.974   6.006 -0.1615  0.3996  0.0564
 1598SOL    HW116430   3.890   3.896   6.057  0.8373  0.5355  0.7279
 1598SOL    HW216431   3.996   4.000   6.048  1.0013 -1.9122 -0.7946
 1599SOL     OW16432   3.039   3.218   7.750  0.3219  0.6347  0.5247
 1599SOL    HW116433   2.990   3.300   7.758  0.2760  0.6988 -0.3786
 1599SOL    HW216434   3.120   3.264   7.726  0.2300  0.7230  0.3854
 1600SOL     OW16435   3.205   2.634   8.236  0.0784 -0.4692 -0.1525
 1600SOL    HW116436   3.134   2.694   8.212 -0.6723 -1.5444 -0.6060
 1600SOL    HW216437   3.171   2.559   8.286  0.6487 -0.8166 -0.2880
 1601SOL     OW16438   0.599   3.035  11.744  0.6846 -0.0434 -0.2419
 1601SOL    HW116439   0.669   3.013  11.682 -0.2856 -0.4579 -1.1796
 1601SOL    HW216440   0.584   3.129  11.743  0.3948 -0.0724  1.3936
 1602SOL     OW16441   1.572   4.236   9.033 -0.2144 -0.4325 -0.2465
 1602SOL    HW116442   1.601   4.320   8.997  0.0854  0.0530  1.1098
 1602SOL    HW216443   1.657   4.200   9.060 -0.0882  0.7750  1.0036
 1603SOL     OW16444   3.562   0.345   2.384  0.2111 -0.5392 -0.4749
 1603SOL    HW116445   3.642   0.365   2.433 -0.5279  0.2859  0.3794
 1603SOL    HW216446   3.612   0.335   2.303  0.1207 -0.2200 -0.5706
 1604SOL     OW16447   3.215   3.074   5.593  0.3716  0.4484  0.4981
 1604SOL    HW116448   3.215   2.984   5.561 -0.5302  0.6968 -0.1823
 1604SOL    HW216449   3.147   3.064   5.659  0.6818  1.1081  0.9206
 1605SOL     OW16450   4.149   3.753   9.665 -0.2085 -0.1668 -0.3734
 1605SOL    HW116451   4.055   3.760   9.683 -0.4185  1.2497 -2.0610
 1605SOL    HW216452   4.158   3.847   9.651  0.8361 -0.2083  0.0305
 1606SOL     OW16453   4.089   3.770  14.301 -0.0785  0.1568 -0.0334
 1606SOL    HW116454   4.006   3.785  14.347  0.7855  1.5709  1.0474
 1606SOL    HW216455   4.051   3.758  14.214  2.5615  0.6880 -1.2619
 1607SOL     OW16456   3.287   3.618   2.104 -0.7231  0.3583  0.5248
 1607SOL    HW116457   3.370   3.654   2.070 -1.0133 -1.2236 -1.8525
 1607SOL    HW216458   3.260   3.689   2.162 -1.4791  1.7394 -1.5131
 1608SOL     OW16459   4.697   4.252  14.868  0.2628  0.0155 -0.6462
 1608SOL    HW116460   4.621   4.204  14.836  0.6623 -0.4808 -0.8477
 1608SOL    HW216461   4.684   4.256  14.963  1.3783 -2.8863 -0.3768
 1609SOL     OW16462   1.961   0.891   4.975  0.6272  0.7011 -0.0658
 1609SOL    HW116463   1.943   0.886   4.881  0.4052  2.0696 -0.1010
 1609SOL    HW216464   1.942   0.984   4.987  0.7582  0.5912  0.9736
 1610SOL     OW16465   1.369   0.804  15.784 -0.3629 -0.5933 -0.1637
 1610SOL    HW116466   1.287   0.827  15.829 -1.2492 -2.4843 -0.7827
 1610SOL    HW216467   1.386   0.879  15.728  2.5956 -1.5400 -0.5440
 1611SOL     OW16468   2.539   2.651   9.294 -0.0401 -0.2377  0.6111
 1611SOL    HW116469   2.588   2.733   9.297 -0.7485  0.2266 -0.3407
 1611SOL    HW216470   2.581   2.594   9.357 -2.3170 -0.5380  1.8510
 1612SOL     OW16471   2.619   0.353   2.410 -0.4510 -0.1173 -0.0877
 1612SOL    HW116472   2.568   0.300   2.348  0.1279 -1.7059  0.7949
 1612SOL    HW216473   2.598   0.303   2.489 -2.3205  1.4263  0.4117
 1613SOL     OW16474   3.067   1.291   3.099 -0.8756  0.1826 -0.3190
 1613SOL    HW116475   3.034   1.233   3.031 -1.1964 -0.3792  0.3134
 1613SOL    HW216476   3.108   1.230   3.160  0.0839  0.7892 -0.3421
 1614SOL     OW16477   2.079   1.436   8.576  0.0216  0.7447 -0.1924
 1614SOL    HW116478   2.025   1.410   8.501 -0.9039  1.6795  0.1425
 1614SOL    HW216479   2.084   1.529   8.553  0.1378  0.5212 -1.0658
 1615SOL     OW16480   0.970   3.630   8.211  0.1668  0.2324  0.0045
 1615SOL    HW116481   0.894   3.628   8.269 -0.9325 -3.7235 -1.5993
 1615SOL    HW216482   0.955   3.559   8.148  0.0146  1.7638 -1.6845
 1616SOL     OW16483   0.090   4.074   0.295  0.1155  0.2943 -0.7759
 1616SOL    HW116484   0.112   3.986   0.265  0.6515  0.3356 -0.5091
 1616SOL    HW216485   0.133   4.082   0.380  1.2071  1.4845 -1.4278
 1617SOL     OW16486   2.101   0.044   6.980  0.0305 -0.1288 -0.6433
 1617SOL    HW116487   2.038   4.736   6.925 -0.8714 -2.6937  2.4864
 1617SOL    HW216488   2.145   4.700   7.003 -0.9524 -0.2683  0.7840
 1618SOL     OW16489   3.615   4.456  14.378  0.0818  0.4501  0.0667
 1618SOL    HW116490   3.707   4.464  14.355  0.3700  1.6451  1.6146
 1618SOL    HW216491   3.579   4.500  14.301 -0.2815  0.4318  0.2230
 1619SOL     OW16492   3.281   3.349   2.518  0.1353  0.2972  0.1515
 1619SOL    HW116493   3.282   3.259   2.550  1.8998 -0.2133 -1.3373
 1619SOL    HW216494   3.188   3.369   2.526 -0.1838 -0.7210 -1.1040
 1620SOL     OW16495   4.610   1.535  13.676  0.2775  0.7148  0.2508
 1620SOL    HW116496   4.641   1.618  13.712  0.9703 -0.1814  1.7412
 1620SOL    HW216497   4.519   1.550  13.648  0.2078 -1.4404 -0.6825
 1621SOL     OW16498   0.983   1.505  16.226  0.1308  0.0174  0.0205
 1621SOL    HW116499   0.966   1.567  16.297  1.1205 -0.4081  0.6289
 1621SOL    HW216500   1.072   1.537  16.208 -1.0966  2.3380 -1.9654
 1622SOL     OW16501   0.713   2.788   6.619 -0.1274 -0.3459  0.8284
 1622SOL    HW116502   0.682   2.702   6.646  0.1507 -0.9652 -0.8163
 1622SOL    HW216503   0.734   2.836   6.699  1.4508 -1.8927  1.3170
 1623SOL     OW16504   2.966   0.174   6.647  0.0626 -0.2909 -0.7499
 1623SOL    HW116505   2.947   0.117   6.572 -1.2131  0.4208 -0.9758
 1623SOL    HW216506   2.905   0.141   6.713  0.3882 -3.6715 -2.1229
 1624SOL     OW16507   2.126   3.594   5.831 -0.1469 -0.1669  0.2665
 1624SOL    HW116508   2.087   3.510   5.807 -1.9025  0.6217  0.3264
 1624SOL    HW216509   2.220   3.576   5.823 -0.1427 -0.2092  0.4013
 1625SOL     OW16510   1.703   0.383   9.127  0.1219 -0.2297  0.0616
 1625SOL    HW116511   1.630   0.332   9.163  0.0705 -0.8481 -0.9301
 1625SOL    HW216512   1.744   0.420   9.205  0.9064 -2.3967  0.6845
 1626SOL     OW16513   3.511   2.522   4.759  0.0903  0.2704  0.2802
 1626SOL    HW116514   3.479   2.444   4.715 -4.5455  0.8753  2.6005
 1626SOL    HW216515   3.425   2.557   4.782  0.4176  1.0014  0.4129
 1627SOL     OW16516   1.903   1.709   2.116 -0.4335  0.2832  0.3629
 1627SOL    HW116517   1.897   1.678   2.207 -0.7299 -0.8465 -0.0418
 1627SOL    HW216518   1.900   1.626   2.068 -0.5032  0.2695  0.3896
 1628SOL     OW16519   1.316   1.921   6.081  0.3346 -0.3400  0.0135
 1628SOL    HW116520   1.269   1.930   5.998 -0.9351 -2.8643  0.4559
 1628SOL    HW216521   1.349   1.831   6.075 -0.4952 -0.5869 -0.9844
 1629SOL     OW16522   1.784   2.353  12.699 -0.1774 -0.0040 -0.3245
 1629SOL    HW116523   1.720   2.333  12.631 -2.0027 -0.7015  1.6090
 1629SOL    HW216524   1.731   2.405  12.759 -0.1352 -1.8921  1.3683
 1630SOL     OW16525   4.065   2.347   5.078  0.1849 -0.4122  0.2510
 1630SOL    HW116526   4.005   2.400   5.026 -0.0706 -1.4828 -0.5379
 1630SOL    HW216527   4.110   2.298   5.009  1.2220  0.7235  0.1449
 1631SOL     OW16528   0.661   0.275   9.278  0.1141 -0.1561  0.4665
 1631SOL    HW116529   0.629   0.358   9.243 -0.5790  0.0849  1.6511
 1631SOL    HW216530   0.704   0.310   9.357 -0.8699  0.2988  0.7980
 1632SOL     OW16531   2.442   2.831   9.122 -0.2925  0.3402  0.0880
 1632SOL    HW116532   2.454   2.765   9.190 -0.0648  0.3945  0.1019
 1632SOL    HW216533   2.470   2.913   9.163  0.4240  0.3266 -0.3751
 1633SOL     OW16534   0.738   1.759  13.621 -0.1503  0.2864  0.1798
 1633SOL    HW116535   0.756   1.692  13.686 -1.7538  1.8820  2.2622
 1633SOL    HW216536   0.711   1.827  13.683  1.0195  0.9141  0.0198
 1634SOL     OW16537   4.582   1.132   7.332 -0.3070 -0.1674 -0.2399
 1634SOL    HW116538   4.649   1.199   7.316 -1.1636  0.7746  0.0994
 1634SOL    HW216539   4.597   1.117   7.425 -0.6721 -0.5181 -0.2405
 1635SOL     OW16540   2.413   4.164   4.256 -0.5713 -0.0907  0.3947
 1635SOL    HW116541   2.383   4.218   4.329 -2.2998 -0.6977  0.1321
 1635SOL    HW216542   2.446   4.091   4.308 -0.4009 -0.6814 -0.5416
 1636SOL     OW16543   2.371   1.956   0.121 -0.0287 -0.1966 -0.2874
 1636SOL    HW116544   2.436   1.960   0.051  0.9154 -1.5258  0.4945
 1636SOL    HW216545   2.410   2.017   0.184 -0.1984 -0.5660  0.1764
 1637SOL     OW16546   0.049   3.943  16.439  0.2102 -0.5701  0.0287
 1637SOL    HW116547   0.024   4.036  16.438 -1.1007 -0.8840  2.2152
 1637SOL    HW216548   0.027   3.918  16.529  0.4257  1.4047  0.6381
 1638SOL     OW16549   0.989   1.547   9.283  0.7456 -0.1416 -0.4200
 1638SOL    HW116550   0.959   1.623   9.333 -1.3992 -0.6351 -0.9436
 1638SOL    HW216551   0.954   1.567   9.196 -1.8767  1.6572  1.0653
 1639SOL     OW16552   1.649   4.044   4.244  0.1171  0.1365 -0.1020
 1639SOL    HW116553   1.676   4.131   4.272 -1.3186 -0.0376  1.8027
 1639SOL    HW216554   1.650   3.986   4.320  0.3053 -0.7104 -0.7604
 1640SOL     OW16555   4.389   4.180  17.237  0.2935 -0.2365  0.0110
 1640SOL    HW116556   4.354   4.117  17.174  0.4108 -0.9933  0.7075
 1640SOL    HW216557   4.318   4.244  17.236  1.5656  1.2048  1.0568
 1641SOL     OW16558   3.924   3.405   6.849  0.4939 -0.1902  0.5695
 1641SOL    HW116559   3.910   3.353   6.770 -0.2138  1.9537 -0.7206
 1641SOL    HW216560   3.866   3.380   6.921 -0.1314 -0.4406 -0.0295
 1642SOL     OW16561   2.960   3.290   9.195 -0.0004  0.0706  0.0346
 1642SOL    HW116562   2.928   3.200   9.192  1.4189 -0.4296 -0.0139
 1642SOL    HW216563   2.994   3.299   9.106 -0.8826 -2.4745 -0.5506
 1643SOL     OW16564   0.762   3.769   0.111  0.0910  0.0740  0.2472
 1643SOL    HW116565   0.735   3.727   0.193  1.2314  0.9334  1.0576
 1643SOL    HW216566   0.686   3.798   0.061  0.5497  0.0807 -0.4561
 1644SOL     OW16567   1.819   1.432   1.565  0.6605  0.1233 -0.1914
 1644SOL    HW116568   1.826   1.450   1.659  0.5278 -1.4924  0.1241
 1644SOL    HW216569   1.911   1.433   1.539  0.7166  0.3762  0.0146
 1645SOL     OW16570   0.048   3.687   4.113 -0.0767  0.2116 -0.0153
 1645SOL    HW116571   0.008   3.725   4.191  1.7538 -1.0720  1.5366
 1645SOL    HW216572   0.019   3.749   4.046  0.3018  1.7832  1.2761
 1646SOL     OW16573   3.233   2.100   5.066  0.0173  0.3463  0.0258
 1646SOL    HW116574   3.291   2.104   5.142  0.8474  1.3750 -0.6780
 1646SOL    HW216575   3.170   2.045   5.114  1.6851 -1.5964  0.0108
 1647SOL     OW16576   0.351   3.400   8.201 -0.0038  0.0999  0.0758
 1647SOL    HW116577   0.441   3.398   8.167  0.1492 -0.2914  0.5042
 1647SOL    HW216578   0.364   3.462   8.273 -0.9543  0.1771  0.1763
 1648SOL     OW16579   4.144   3.268  17.633  0.4778  0.8909  0.1630
 1648SOL    HW116580   4.163   3.246  17.724  0.9298 -1.9638 -0.6353
 1648SOL    HW216581   4.116   3.180  17.606  1.5116  0.9160 -1.0038
 1649SOL     OW16582   2.898   0.871   4.106 -0.2374  0.3412  0.3911
 1649SOL    HW116583   2.895   0.795   4.048 -1.3435  0.4140  0.3553
 1649SOL    HW216584   2.978   0.913   4.074 -1.5530  1.5931 -1.2469
 1650SOL     OW16585   0.820   3.257   0.559  0.3145  0.1502  0.4359
 1650SOL    HW116586   0.912   3.233   0.572  0.5928  0.1709 -1.4380
 1650SOL    HW216587   0.840   3.340   0.517  0.7108 -1.2010 -2.0430
 1651SOL     OW16588   4.576   2.125   5.040 -0.2848  0.0044  0.5592
 1651SOL    HW116589   4.632   2.053   5.068 -0.7872 -1.0929 -1.2601
 1651SOL    HW216590   4.506   2.082   4.990 -0.2952  0.7762 -0.1042
 1652SOL     OW16591   2.945   3.132   2.503 -0.0951 -0.4416 -0.2859
 1652SOL    HW116592   2.952   3.199   2.570  0.1193 -1.5700  0.8076
 1652SOL    HW216593   2.997   3.063   2.542 -1.2240 -0.9653  0.2889
 1653SOL     OW16594   0.115   1.048   7.219 -0.2038 -0.4871  0.1105
 1653SOL    HW116595   0.053   0.985   7.181 -0.8609  1.2323 -1.6593
 1653SOL    HW216596   0.177   1.064   7.148  0.4822 -3.4999  0.0089
 1654SOL     OW16597   4.409   3.052   2.418  0.4757  0.0357  0.4584
 1654SOL    HW116598   4.449   2.966   2.404 -1.5469 -0.4719 -2.2855
 1654SOL    HW216599   4.487   3.092   2.456  0.2673  1.1250 -0.2506
 1655SOL     OW16600   0.791   2.962   6.808  0.7358 -0.3389  0.5651
 1655SOL    HW116601   0.776   3.056   6.822 -1.4064 -0.4986 -0.6478
 1655SOL    HW216602   0.883   2.957   6.834  1.9121 -0.1410 -3.5901
 1656SOL     OW16603   4.679   0.595   7.157  0.3837 -0.6544 -0.0899
 1656SOL    HW116604   4.692   0.631   7.070 -0.2335  3.0018  1.3298
 1656SOL    HW216605   4.681   0.500   7.143  0.2749 -0.7143  0.2818
 1657SOL     OW16606   2.465   0.806   8.195  0.3839 -0.3678  0.1084
 1657SOL    HW116607   2.520   0.882   8.173 -0.2562 -0.6431 -2.5168
 1657SOL    HW216608   2.380   0.850   8.194 -0.0436 -1.2069  0.0987
 1658SOL     OW16609   2.728   3.286   8.526  0.0954  0.2051 -0.7081
 1658SOL    HW116610   2.819   3.294   8.554 -0.0614 -1.8477  0.4120
 1658SOL    HW216611   2.702   3.198   8.552  0.4054  0.2669 -0.1984
 1659SOL     OW16612   3.229   3.521   9.441 -0.3186 -0.9777  0.1591
 1659SOL    HW116613   3.272   3.595   9.398  0.8697 -2.2983 -0.9093
 1659SOL    HW216614   3.286   3.528   9.518  0.2377 -2.1101 -0.1548
 1660SOL     OW16615   0.807   2.013   3.533 -0.2849 -0.2338  0.3038
 1660SOL    HW116616   0.863   1.995   3.458 -1.1151 -2.7906  0.3065
 1660SOL    HW216617   0.734   1.954   3.514 -0.6715 -0.3683  2.1619
 1661SOL     OW16618   4.352   1.664   2.696  0.0678 -0.4457  0.0601
 1661SOL    HW116619   4.325   1.608   2.623  1.7316  0.1662 -1.0259
 1661SOL    HW216620   4.338   1.747   2.650 -0.9933 -0.5959  0.1131
 1662SOL     OW16621   2.887   4.037   9.514  0.7037 -0.1936 -0.3529
 1662SOL    HW116622   2.951   4.016   9.447 -0.0769 -0.6915 -0.9435
 1662SOL    HW216623   2.914   3.970   9.577  0.0354  0.9044  1.1103
 1663SOL     OW16624   2.105   2.317  11.475  0.0055 -0.5044 -0.2501
 1663SOL    HW116625   2.124   2.224  11.483 -0.7591 -0.5337  1.1536
 1663SOL    HW216626   2.016   2.312  11.440 -0.2724  0.6454  0.2639
 1664SOL     OW16627   2.284   0.540   7.332  0.5651 -0.0422 -0.2925
 1664SOL    HW116628   2.204   0.541   7.384  0.2504  2.0030 -0.7984
 1664SOL    HW216629   2.303   0.633   7.348  3.1906 -0.6370  0.0243
 1665SOL     OW16630   2.099   1.061   3.311  0.2017 -0.3293 -0.0435
 1665SOL    HW116631   2.128   0.992   3.251 -1.7764 -1.8541  0.7620
 1665SOL    HW216632   2.013   1.071   3.272  1.7997 -0.0756 -3.5451
 1666SOL     OW16633   2.630   3.869  16.509 -0.1464  0.6282  0.3133
 1666SOL    HW116634   2.642   3.957  16.545  0.3928  0.9763 -0.7161
 1666SOL    HW216635   2.686   3.872  16.431  0.3888  2.3259  0.7648
 1667SOL     OW16636   3.697   4.145   3.721 -0.6836 -0.1301  0.1977
 1667SOL    HW116637   3.744   4.140   3.805  0.7080  1.5698 -0.4851
 1667SOL    HW216638   3.747   4.219   3.687 -0.0042 -0.1898  1.0610
 1668SOL     OW16639   4.384   0.186  14.970  0.5069  0.0120  0.7046
 1668SOL    HW116640   4.330   0.126  14.919  0.5406 -0.0501  0.7426
 1668SOL    HW216641   4.331   0.189  15.050 -0.2904  3.5278  0.0415
 1669SOL     OW16642   4.090   3.202   6.381 -0.3594  0.0841 -0.3370
 1669SOL    HW116643   4.104   3.129   6.320 -0.6041  0.6268 -1.0412
 1669SOL    HW216644   3.998   3.183   6.398  0.1552 -1.5667  0.6012
 1670SOL     OW16645   1.806   4.052   5.794 -0.3563  0.5483  0.2645
 1670SOL    HW116646   1.831   4.080   5.707  1.1059 -2.1150 -0.1701
 1670SOL    HW216647   1.855   4.104   5.858 -0.2483  0.1820  0.4815
 1671SOL     OW16648   3.095   1.718   8.636  0.2051  0.0843  0.1566
 1671SOL    HW116649   3.154   1.744   8.566 -0.7428 -1.9530 -1.3787
 1671SOL    HW216650   3.151   1.684   8.706  1.0933  1.8321  0.2936
 1672SOL     OW16651   2.634   0.256   8.467 -0.1421 -0.9186  0.3017
 1672SOL    HW116652   2.540   0.273   8.469  0.5662  3.0086  0.3188
 1672SOL    HW216653   2.672   0.319   8.406 -0.4382  0.4329  1.5069
 1673SOL     OW16654   3.416   1.176   7.902 -0.2228 -0.1718 -0.0517
 1673SOL    HW116655   3.511   1.174   7.912 -0.1331 -2.2846 -1.4051
 1673SOL    HW216656   3.388   1.087   7.923 -1.2218 -0.1580 -1.3131
 1674SOL     OW16657   0.054   1.903  11.156  0.0872 -0.3863 -0.1308
 1674SOL    HW116658   4.719   1.949  11.200 -0.1061 -0.3396 -0.5019
 1674SOL    HW216659   0.082   1.974  11.098 -1.7171 -1.1969 -1.9972
 1675SOL     OW16660   2.666   3.753   0.788 -0.9988 -0.1521 -0.0718
 1675SOL    HW116661   2.574   3.742   0.813 -1.4084  0.8574 -1.1723
 1675SOL    HW216662   2.666   3.844   0.757  0.5415 -0.4545 -0.9325
 1676SOL     OW16663   0.428   4.371   5.878  0.1854  0.0868  0.3791
 1676SOL    HW116664   0.371   4.419   5.818 -0.4609  0.1962  1.0986
 1676SOL    HW216665   0.473   4.320   5.811  0.4188  0.6229  0.1229
 1677SOL     OW16666   3.618   3.496   0.792 -0.2935 -0.3791 -0.2598
 1677SOL    HW116667   3.607   3.416   0.741 -0.7423 -0.5284  0.0690
 1677SOL    HW216668   3.641   3.460   0.878  1.3021 -0.1052 -0.5790
 1678SOL     OW16669   2.506   2.752   9.846 -0.2961 -0.3884  0.0203
 1678SOL    HW116670   2.492   2.734   9.753  0.3720 -1.8415  0.2029
 1678SOL    HW216671   2.524   2.664   9.878  2.0417  0.0852  0.0751
 1679SOL     OW16672   0.085   4.052   7.272 -0.5611  0.0716  0.5521
 1679SOL    HW116673   0.077   3.961   7.244  0.3109 -0.3932  1.8098
 1679SOL    HW216674   0.161   4.089   7.226 -0.2373  1.3877  2.1423
 1680SOL     OW16675   4.100   4.030   9.617 -0.6306 -0.2813 -0.3185
 1680SOL    HW116676   4.113   4.048   9.710 -2.9908  0.6932 -0.1776
 1680SOL    HW216677   4.046   4.104   9.590 -0.5067 -0.3014 -0.6232
 1681SOL     OW16678   0.378   1.294  15.327  0.8070  0.0804 -0.0715
 1681SOL    HW116679   0.449   1.235  15.351  0.4600 -0.1399  0.4164
 1681SOL    HW216680   0.370   1.275  15.234  0.0144 -0.4475  0.1004
 1682SOL     OW16681   1.780   2.002   9.531 -0.1006  0.3309  0.1534
 1682SOL    HW116682   1.837   2.052   9.589 -1.0362 -1.1855  2.3378
 1682SOL    HW216683   1.739   1.937   9.587  2.4212 -1.0427  0.4043
 1683SOL     OW16684   0.202   1.822   0.716  0.2523 -0.2953 -0.0724
 1683SOL    HW116685   0.122   1.855   0.757 -0.6266 -1.0023 -1.1951
 1683SOL    HW216686   0.191   1.728   0.701  1.2303 -1.0460  3.8635
 1684SOL     OW16687   1.573   4.236   8.349  0.1546  0.2926 -0.1472
 1684SOL    HW116688   1.647   4.226   8.409 -0.3828 -2.4857  0.0645
 1684SOL    HW216689   1.500   4.198   8.398 -0.8697  1.2802 -0.9047
 1685SOL     OW16690   2.138   1.318   1.174  0.1945 -0.3765 -0.2372
 1685SOL    HW116691   2.129   1.317   1.079  0.8354 -1.7826 -0.2850
 1685SOL    HW216692   2.051   1.351   1.196 -0.5745 -0.5053 -3.1317
 1686SOL     OW16693   0.471   0.346  11.837  0.1049 -0.8872 -0.4506
 1686SOL    HW116694   0.402   0.401  11.874  0.4646 -0.5206 -0.3260
 1686SOL    HW216695   0.441   0.327  11.749 -1.0652 -1.9493  0.1793
 1687SOL     OW16696   4.573   3.657   6.879  0.5081 -0.1704  0.1737
 1687SOL    HW116697   4.493   3.692   6.840  1.6473  0.6244 -1.4546
 1687SOL    HW216698   4.551   3.646   6.972  0.0869  3.5726  0.5257
 1688SOL     OW16699   2.491   1.919   8.818 -0.1188 -0.0936  0.0167
 1688SOL    HW116700   2.584   1.938   8.809 -0.3394 -0.0874 -2.2313
 1688SOL    HW216701   2.493   1.839   8.871  0.5172 -1.2223 -1.7173
 1689SOL     OW16702   3.349   4.268   2.048  0.0971 -0.3594  0.1738
 1689SOL    HW116703   3.339   4.173   2.052 -0.6097 -0.3489 -1.3814
 1689SOL    HW216704   3.272   4.313   2.084 -0.5375 -1.4480  0.1732
 1690SOL     OW16705   2.093   3.963   2.228  0.2843 -0.0450 -0.2684
 1690SOL    HW116706   2.033   3.980   2.301  1.8901  0.7018  0.8771
 1690SOL    HW216707   2.108   4.055   2.204 -0.9715  1.4179  4.4798
 1691SOL     OW16708   1.849   1.642   1.041 -0.6294 -0.1860  0.2753
 1691SOL    HW116709   1.885   1.571   1.093 -0.6824 -0.4885 -0.1065
 1691SOL    HW216710   1.924   1.675   0.993 -3.1454  3.1886 -1.3397
 1692SOL     OW16711   4.562   4.016   7.011  1.1064 -0.2488 -0.1391
 1692SOL    HW116712   4.471   4.006   6.983 -0.0352  1.8978  2.7974
 1692SOL    HW216713   4.557   4.104   7.049  2.4405  0.3777 -1.4225
 1693SOL     OW16714   3.656   2.833   6.248 -0.3352  0.2270  0.1589
 1693SOL    HW116715   3.569   2.856   6.281 -0.4852  0.1716 -0.1940
 1693SOL    HW216716   3.670   2.742   6.271  0.5956  0.1663 -0.6435
 1694SOL     OW16717   1.936   3.006   4.052 -0.2568 -0.0162 -0.2274
 1694SOL    HW116718   1.874   3.078   4.051 -0.5607 -0.2768 -0.0702
 1694SOL    HW216719   1.888   2.925   4.033  2.3446 -1.2733 -1.4507
 1695SOL     OW16720   4.656   3.050   5.123  0.2035 -0.3041  0.0572
 1695SOL    HW116721   0.006   3.024   5.093  0.8936  0.8373  1.0352
 1695SOL    HW216722   4.663   3.142   5.098 -2.3676 -0.6659 -1.9513
 1696SOL     OW16723   3.910   2.516  15.132 -0.7546  0.6626  0.7838
 1696SOL    HW116724   3.818   2.503  15.110 -0.3743  1.3691 -1.2137
 1696SOL    HW216725   3.917   2.459  15.209  0.6975  0.2444  0.3482
 1697SOL     OW16726   2.237   0.049  17.728 -0.0190  0.0798 -0.3296
 1697SOL    HW116727   2.186   0.036   0.061  0.8317 -1.4355 -0.0433
 1697SOL    HW216728   2.235   4.701  17.685 -1.1040 -0.6954  1.2372
 1698SOL     OW16729   3.465   4.311   3.454 -0.4460 -0.6901 -0.3621
 1698SOL    HW116730   3.405   4.326   3.526 -0.3460  1.0459 -0.6305
 1698SOL    HW216731   3.495   4.224   3.481 -0.5729 -0.3636  0.8210
 1699SOL     OW16732   2.283   2.249   6.122  0.2723 -0.3772  0.8533
 1699SOL    HW116733   2.376   2.228   6.110 -0.0278 -1.1329 -0.1012
 1699SOL    HW216734   2.237   2.205   6.051 -0.2207  0.1747  0.8259
 1700SOL     OW16735   4.011   4.395   1.872 -0.1744 -0.3924  0.3026
 1700SOL    HW116736   4.006   4.334   1.945  1.4269 -3.3314 -2.0197
 1700SOL    HW216737   3.975   4.476   1.909  0.9219  0.0709  0.3749
 1701SOL     OW16738   2.825   4.664   3.518  0.8062 -0.1189 -0.2014
 1701SOL    HW116739   2.810   4.695   3.607  2.4514 -1.0580  0.4055
 1701SOL    HW216740   2.779   4.580   3.520  0.1371  0.2276 -1.2499
 1702SOL     OW16741   2.721   2.938  12.763  0.4668  0.7203 -0.2074
 1702SOL    HW116742   2.809   2.953  12.729  0.0419  3.4919 -0.1489
 1702SOL    HW216743   2.687   3.013  12.714 -1.3517  0.5008  0.7058
 1703SOL     OW16744   1.914   0.904   6.746  0.5967 -0.4747 -0.8246
 1703SOL    HW116745   1.931   0.995   6.721  0.6948  0.0966  1.3755
 1703SOL    HW216746   1.835   0.910   6.799 -0.1606  0.6705 -2.1012
 1704SOL     OW16747   2.599   0.361   5.048  0.2702  0.1308 -0.6327
 1704SOL    HW116748   2.529   0.417   5.081  0.3785  0.4608 -0.9648
 1704SOL    HW216749   2.656   0.371   5.124 -0.7910  1.4846 -0.0066
 1705SOL     OW16750   3.918   0.024   6.956  0.4946 -0.0909 -0.3983
 1705SOL    HW116751   3.832   0.001   6.992 -0.9269  1.6931 -2.6326
 1705SOL    HW216752   3.917   0.119   6.961 -1.9832 -0.1016 -0.7418
 1706SOL     OW16753   4.180   0.904   6.969  0.3388  0.0850 -0.1167
 1706SOL    HW116754   4.163   0.971   7.035  1.8958 -1.6613  2.0214
 1706SOL    HW216755   4.208   0.834   7.028  2.3606  0.3028 -0.8215
 1707SOL     OW16756   0.298   1.462   2.003 -0.1325 -0.0208 -0.4534
 1707SOL    HW116757   0.306   1.406   2.081 -1.1742  1.6048  0.8290
 1707SOL    HW216758   0.259   1.539   2.044 -3.3636  0.0708 -3.7938
 1708SOL     OW16759   1.659   2.944   8.129 -0.1673 -0.0217 -0.6168
 1708SOL    HW116760   1.624   2.856   8.112 -2.0493  0.8382 -1.1379
 1708SOL    HW216761   1.750   2.932   8.156  0.4404  1.5317 -1.9855
 1709SOL     OW16762   1.277   2.648   2.332 -0.7015 -0.5136 -0.0127
 1709SOL    HW116763   1.281   2.557   2.363  0.8702 -0.8652 -1.2317
 1709SOL    HW216764   1.194   2.684   2.362 -0.0322  0.5343  0.5595
 1710SOL     OW16765   0.830   1.405   2.054 -0.3668 -0.5825  0.6723
 1710SOL    HW116766   0.789   1.465   1.992  2.1392  1.0809  0.6223
 1710SOL    HW216767   0.766   1.334   2.048 -1.8072  0.7894 -0.1309
 1711SOL     OW16768   1.429   0.264   1.721 -0.5282  0.1474 -0.0062
 1711SOL    HW116769   1.382   0.275   1.803 -0.2704 -1.4576  0.3565
 1711SOL    HW216770   1.377   0.209   1.663  0.1499 -2.2304  1.6380
 1712SOL     OW16771   4.681   4.465   6.958 -0.1343 -0.4876  0.0473
 1712SOL    HW116772   4.733   4.421   7.025 -1.3409  0.3592  1.5373
 1712SOL    HW216773   4.716   4.423   6.880 -1.5458 -2.2593  0.3823
 1713SOL     OW16774   0.121   1.000  11.639 -0.3223 -0.2830  0.1027
 1713SOL    HW116775   0.054   1.033  11.577  0.3758 -1.1325 -1.1010
 1713SOL    HW216776   0.186   1.070  11.641  1.0698 -1.5033 -2.1074
 1714SOL     OW16777   1.999   3.656   3.479  0.2269  0.5240  0.2467
 1714SOL    HW116778   2.036   3.580   3.524  3.3312  0.4374 -2.4135
 1714SOL    HW216779   2.017   3.644   3.385  1.2100 -0.0008  0.4952
 1715SOL     OW16780   2.601   3.414   4.151  0.6691 -0.1182  0.1822
 1715SOL    HW116781   2.639   3.388   4.235  0.1326 -0.6801  0.2515
 1715SOL    HW216782   2.510   3.423   4.179  1.0372 -2.6172  2.2356
 1716SOL     OW16783   2.290   4.025   0.889 -0.2213 -0.1701 -0.5433
 1716SOL    HW116784   2.207   4.009   0.935  0.6736 -2.8841  0.1591
 1716SOL    HW216785   2.252   4.002   0.804 -0.8179  2.8586 -1.0703
 1717SOL     OW16786   3.083   3.459   1.139 -0.4847  0.3818 -0.2838
 1717SOL    HW116787   3.123   3.389   1.190 -1.1175  0.6906  0.6273
 1717SOL    HW216788   3.010   3.482   1.196  0.2376 -0.0969  0.8260
 1718SOL     OW16789   3.675   3.863   5.268 -0.1108 -0.0923  0.0583
 1718SOL    HW116790   3.751   3.860   5.209 -0.6806 -2.5030 -0.5403
 1718SOL    HW216791   3.718   3.842   5.351  1.2399 -1.2696 -0.9321
 1719SOL     OW16792   0.504   1.602   7.142 -0.1487 -0.5969  0.0539
 1719SOL    HW116793   0.472   1.542   7.075 -2.6389  2.3263 -1.4012
 1719SOL    HW216794   0.595   1.613   7.118 -0.0385  1.1303  1.2445
 1720SOL     OW16795   2.588   2.830   2.890  0.3779 -0.5035  0.1010
 1720SOL    HW116796   2.613   2.752   2.939 -1.6373 -1.8902 -1.0927
 1720SOL    HW216797   2.504   2.803   2.853  0.5431 -2.3526  1.0483
 1721SOL     OW16798   1.943   4.466  14.514 -0.5065  0.8599 -0.4456
 1721SOL    HW116799   1.884   4.541  14.504 -0.5721  0.8138 -0.4097
 1721SOL    HW216800   2.027   4.509  14.525  0.4825 -0.8633 -1.1046
 1722SOL     OW16801   2.034   4.506   2.329  0.1950  0.0510  0.1450
 1722SOL    HW116802   1.959   4.520   2.386  0.5782  0.4272  0.5463
 1722SOL    HW216803   2.102   4.544   2.384 -0.0496 -2.5508  2.2468
 1723SOL     OW16804   1.857   1.719  12.639  0.3254  0.4923 -0.0974
 1723SOL    HW116805   1.927   1.768  12.682  0.7035 -1.1038  1.1383
 1723SOL    HW216806   1.781   1.722  12.697 -2.5035  3.3425 -3.9667
 1724SOL     OW16807   0.218   3.749  16.896  0.0611 -0.1911 -0.1027
 1724SOL    HW116808   0.156   3.816  16.925 -0.1017  1.2644 -3.8029
 1724SOL    HW216809   0.188   3.681  16.957 -2.2510 -1.8275 -3.0585
 1725SOL     OW16810   1.140   2.559   1.828 -0.4445 -0.2469 -0.0372
 1725SOL    HW116811   1.217   2.503   1.833  1.0992  1.8080 -0.9706
 1725SOL    HW216812   1.161   2.591   1.740 -0.9425  0.7361  0.2037
 1726SOL     OW16813   3.714   3.526   6.617  0.1456 -0.3461  0.8449
 1726SOL    HW116814   3.729   3.612   6.654 -0.9971 -0.8727  2.5585
 1726SOL    HW216815   3.699   3.472   6.695  0.0952  0.2964  1.2762
 1727SOL     OW16816   2.974   3.007   2.194  0.7007  0.2051  0.0435
 1727SOL    HW116817   2.899   3.063   2.173  0.8757  0.2746 -0.4127
 1727SOL    HW216818   3.005   3.047   2.275  0.9341 -0.1664  0.1335
 1728SOL     OW16819   0.491   3.784  16.824  0.1573 -0.5070 -0.5181
 1728SOL    HW116820   0.407   3.748  16.852  0.1927  0.9077  1.3562
 1728SOL    HW216821   0.545   3.709  16.800 -2.0510 -2.3179  0.2074
 1729SOL     OW16822   4.134   2.762   6.030  0.0873  0.9045  0.6175
 1729SOL    HW116823   4.042   2.753   6.053  0.5300 -0.4409  1.8971
 1729SOL    HW216824   4.150   2.690   5.968  0.6959  0.0270  1.7898
 1730SOL     OW16825   1.545   4.380  10.599  0.2683 -0.8754  0.1236
 1730SOL    HW116826   1.496   4.393  10.680  1.4724 -0.7998  0.8342
 1730SOL    HW216827   1.578   4.468  10.581 -3.5223  0.3830 -0.7544
 1731SOL     OW16828   3.771   3.059   8.514 -0.2813 -0.7674 -0.0204
 1731SOL    HW116829   3.832   3.125   8.480 -2.1792  0.6484 -0.6598
 1731SOL    HW216830   3.813   3.048   8.599 -0.7649 -2.7355 -0.0490
 1732SOL     OW16831   4.206   3.752   3.174  0.0285 -0.5178  0.3685
 1732SOL    HW116832   4.229   3.752   3.267  0.2755 -2.9636  0.3177
 1732SOL    HW216833   4.279   3.803   3.140 -1.2984  1.1388  0.0262
 1733SOL     OW16834   3.136   1.110   6.320  0.0623  0.1079 -0.4717
 1733SOL    HW116835   3.122   1.136   6.229 -1.6709 -2.3827 -0.9235
 1733SOL    HW216836   3.230   1.129   6.320 -0.0291  0.5645  2.4247
 1734SOL     OW16837   4.734   4.659  10.012 -0.6331  0.2679  0.4216
 1734SOL    HW116838   0.083   4.698  10.026 -0.4390  0.7846 -2.1445
 1734SOL    HW216839   4.684   4.682  10.091  0.6937  1.2356  0.9736
 1735SOL     OW16840   2.724   4.167   9.974 -0.5865 -0.0963 -0.3414
 1735SOL    HW116841   2.784   4.095   9.954 -0.9445 -0.4140 -0.2630
 1735SOL    HW216842   2.788   4.238   9.976  0.1667 -0.8687  2.4344
 1736SOL     OW16843   1.168   2.102  16.157 -0.5838 -0.4762 -0.0121
 1736SOL    HW116844   1.154   2.070  16.246 -1.3880 -1.6191 -0.5497
 1736SOL    HW216845   1.259   2.129  16.155 -0.8791  0.5478  0.1789
 1737SOL     OW16846   3.203   0.798  16.602  0.1606 -0.6900  0.1530
 1737SOL    HW116847   3.270   0.730  16.611 -0.5027 -1.2829  0.5991
 1737SOL    HW216848   3.208   0.811  16.507 -1.5424 -0.8669  0.0324
 1738SOL     OW16849   0.691   2.778   8.124 -0.4101 -0.4001 -0.2064
 1738SOL    HW116850   0.729   2.866   8.134 -1.0937 -0.1625  0.2817
 1738SOL    HW216851   0.601   2.797   8.148  0.2628 -0.5950  2.5210
 1739SOL     OW16852   1.381   1.984   4.060  0.3265  0.0271 -0.3155
 1739SOL    HW116853   1.402   1.960   4.150  0.3215  1.1584 -0.0132
 1739SOL    HW216854   1.411   1.910   4.007  1.5370 -1.2856  2.2405
 1740SOL     OW16855   4.273   1.018   7.593  0.5263  0.1194 -0.0057
 1740SOL    HW116856   4.273   1.113   7.606 -1.4085 -0.0653  1.3729
 1740SOL    HW216857   4.354   1.003   7.545 -0.9597  0.4243 -2.6240
 1741SOL     OW16858   1.125   1.463   3.711  0.0826 -0.9477 -0.4266
 1741SOL    HW116859   1.119   1.546   3.663 -1.1582 -0.3285  0.8215
 1741SOL    HW216860   1.083   1.403   3.650  0.1182  0.3695 -1.7449
 1742SOL     OW16861   2.454   2.255   9.563  0.0977  0.1861  0.0684
 1742SOL    HW116862   2.501   2.303   9.494 -0.0450 -0.1730 -0.2821
 1742SOL    HW216863   2.395   2.323   9.593  0.8360  0.0864  1.7151
 1743SOL     OW16864   3.134   1.435   9.779  0.3360 -0.1466 -0.2494
 1743SOL    HW116865   3.058   1.451   9.835  1.0247 -0.2484  0.7296
 1743SOL    HW216866   3.189   1.383   9.838  1.4151  0.5529 -0.6374
 1744SOL     OW16867   4.584   3.724  16.983  0.3633  0.0580 -0.4324
 1744SOL    HW116868   4.564   3.646  17.035 -1.3715  2.1913  2.1187
 1744SOL    HW216869   4.502   3.772  16.976  1.4024  1.9659  0.2998
 1745SOL     OW16870   3.980   0.435   4.954  0.2304 -0.4035  0.2799
 1745SOL    HW116871   3.947   0.432   5.044  0.7391 -1.1080  0.4479
 1745SOL    HW216872   4.074   0.435   4.972  0.0711 -1.0433  1.1284
 1746SOL     OW16873   1.061   2.972   6.864  0.0138  0.2677  0.2159
 1746SOL    HW116874   1.129   2.937   6.806 -0.7255  0.2391 -0.6279
 1746SOL    HW216875   1.107   3.051   6.894  0.3458 -0.4793  1.6898
 1747SOL     OW16876   2.271   1.588   9.247  0.3136 -0.4400 -0.6525
 1747SOL    HW116877   2.244   1.597   9.156 -1.5106  0.1270 -0.0399
 1747SOL    HW216878   2.346   1.644   9.267  1.2751 -2.7235  2.3092
 1748SOL     OW16879   1.603   0.424   2.925 -0.3943  0.4653  0.1208
 1748SOL    HW116880   1.532   0.385   2.874 -0.3835 -0.9136  1.1719
 1748SOL    HW216881   1.581   0.518   2.926 -0.2563  0.5117 -0.9946
 1749SOL     OW16882   4.492   3.390   7.264 -0.2967 -0.4003  0.1615
 1749SOL    HW116883   4.539   3.413   7.344  2.9918 -0.8365 -1.6460
 1749SOL    HW216884   4.416   3.343   7.297 -0.2293  0.6028  1.7476
 1750SOL     OW16885   0.293   0.596  15.902  0.0803  0.2300 -0.1252
 1750SOL    HW116886   0.285   0.511  15.858 -0.3877 -0.0886  0.5864
 1750SOL    HW216887   0.246   0.575  15.983 -1.2827  1.8475 -0.4940
 1751SOL     OW16888   2.648   2.219   2.013 -0.2109 -0.6569  0.5156
 1751SOL    HW116889   2.698   2.155   1.962 -0.2263 -0.1767 -0.1056
 1751SOL    HW216890   2.571   2.223   1.957  0.1016  2.1265  0.2894
 1752SOL     OW16891   4.612   2.529  13.229 -0.2353  0.1971 -1.2090
 1752SOL    HW116892   4.555   2.541  13.305  0.1691  0.2090 -0.8995
 1752SOL    HW216893   4.639   2.439  13.248 -0.1256  1.0115  2.6244
 1753SOL     OW16894   0.664   2.394  16.878  0.2195  0.3405  0.3279
 1753SOL    HW116895   0.673   2.485  16.851  0.9868  0.0717 -0.3267
 1753SOL    HW216896   0.586   2.399  16.933  0.2109  0.3071  0.3190
 1754SOL     OW16897   2.008   2.442  12.469 -0.7384 -0.0751 -0.6659
 1754SOL    HW116898   1.948   2.432  12.543 -0.3431  0.6449 -0.2625
 1754SOL    HW216899   1.971   2.520  12.428  1.1950 -0.8390 -3.9102
 1755SOL     OW16900   2.081   1.331   7.681  0.8254  0.2793  0.2107
 1755SOL    HW116901   2.125   1.400   7.731  0.3891  0.1418  0.7940
 1755SOL    HW216902   2.061   1.378   7.599  1.1262  0.4517  0.2364
 1756SOL     OW16903   0.799   0.496   4.556  0.7522  0.8424  0.1177
 1756SOL    HW116904   0.874   0.443   4.585  1.1487  1.3553  0.0352
 1756SOL    HW216905   0.822   0.539   4.474  0.9263  0.4690 -0.0306
 1757SOL     OW16906   3.063   3.072   1.046 -0.2469 -0.0602  0.1376
 1757SOL    HW116907   2.972   3.051   1.025  0.2174 -3.0050  1.1231
 1757SOL    HW216908   3.058   3.166   1.024 -0.9208 -0.5544 -1.8647
 1758SOL     OW16909   0.478   0.123   2.651  0.1472 -0.5114  0.3752
 1758SOL    HW116910   0.531   0.092   2.724  1.3444 -1.1734 -0.7813
 1758SOL    HW216911   0.525   0.107   2.570 -1.3833 -1.8994 -0.2441
 1759SOL     OW16912   0.025   4.567   3.830  0.1568  0.2394  0.2715
 1759SOL    HW116913   0.023   4.662   3.818  1.5291 -0.0589 -2.4973
 1759SOL    HW216914   0.045   4.557   3.923  1.7007 -0.1568 -0.0910
 1760SOL     OW16915   3.179   3.934  10.546 -0.6438 -0.7597  0.2557
 1760SOL    HW116916   3.248   3.999  10.552 -1.0276 -0.5138  2.2399
 1760SOL    HW216917   3.118   3.980  10.487  0.0240 -1.5717 -1.0576
 1761SOL     OW16918   1.492   3.719  17.691  0.2155  0.1603 -0.2140
 1761SOL    HW116919   1.585   3.728  17.673 -0.3535  0.6895 -2.8813
 1761SOL    HW216920   1.460   3.734  17.602 -1.5633  1.4349  0.6401
 1762SOL     OW16921   0.745   4.570   3.237  0.1783  0.2270 -0.4182
 1762SOL    HW116922   0.773   4.630   3.167 -2.2265  2.0889  0.1989
 1762SOL    HW216923   0.718   4.639   3.297 -1.7820 -0.8307 -0.0752
 1763SOL     OW16924   2.257   1.012   6.934 -0.0147  0.7336  0.5436
 1763SOL    HW116925   2.211   1.084   6.891  3.7825  3.1256  0.4629
 1763SOL    HW216926   2.184   0.978   6.986 -1.0741  0.1299 -1.3524
 1764SOL     OW16927   0.356   2.544   5.262 -0.2551  0.0096 -0.1565
 1764SOL    HW116928   0.299   2.567   5.189  0.7093  0.1915 -0.8608
 1764SOL    HW216929   0.364   2.451   5.241 -0.0248 -0.6389  2.8147
 1765SOL     OW16930   3.090   0.067   5.538  0.1533  0.2434  0.1878
 1765SOL    HW116931   3.052   4.734   5.485  1.6466 -0.2634 -0.2260
 1765SOL    HW216932   3.082   0.015   5.618 -1.1772  1.5542  0.8955
 1766SOL     OW16933   2.566   3.817   1.275 -0.3220 -0.0147  0.1272
 1766SOL    HW116934   2.615   3.779   1.348  0.5102 -1.8546 -1.3945
 1766SOL    HW216935   2.635   3.873   1.239  0.1727  0.3876  1.7073
 1767SOL     OW16936   3.629   3.573   9.608  0.7709 -0.0015  0.3250
 1767SOL    HW116937   3.631   3.478   9.610  1.1558 -0.0045 -0.5133
 1767SOL    HW216938   3.570   3.588   9.682  1.1520  0.0560  0.6179
 1768SOL     OW16939   2.231   4.412   5.777  0.0033 -0.5417 -0.3015
 1768SOL    HW116940   2.326   4.424   5.781 -0.2677  0.6688  2.2593
 1768SOL    HW216941   2.225   4.324   5.814 -0.9368  0.7354  2.5412
 1769SOL     OW16942   3.607   0.772  15.542 -0.0209 -0.1808 -0.1362
 1769SOL    HW116943   3.594   0.865  15.524 -1.2183 -0.0899  1.1664
 1769SOL    HW216944   3.594   0.760  15.636 -2.0071  1.8682 -0.1199
 1770SOL     OW16945   0.513   2.214  11.064  0.0755  0.3582 -0.6257
 1770SOL    HW116946   0.460   2.291  11.083  0.2556  0.5233 -0.7953
 1770SOL    HW216947   0.567   2.202  11.142  0.0947 -2.0396 -0.9843
 1771SOL     OW16948   3.409   4.412   6.199 -0.1068 -0.5478 -0.3191
 1771SOL    HW116949   3.360   4.335   6.170 -1.1479  1.1637 -3.0816
 1771SOL    HW216950   3.390   4.403   6.293 -1.5950  1.0155 -0.4856
 1772SOL     OW16951   2.018   0.640   8.848 -0.4239  0.2015 -0.1611
 1772SOL    HW116952   2.070   0.650   8.768  0.3161  2.2249  0.5656
 1772SOL    HW216953   1.993   0.732   8.858  1.4060  0.7009 -0.1536
 1773SOL     OW16954   3.395   2.669   0.940  0.0249 -0.1220  0.0919
 1773SOL    HW116955   3.333   2.737   0.968  0.9025  0.5682  0.3468
 1773SOL    HW216956   3.480   2.712   0.935  0.5478 -1.0224  1.3840
 1774SOL     OW16957   3.757   2.237   1.906  0.4517  0.1489 -0.0574
 1774SOL    HW116958   3.697   2.309   1.888 -1.3725 -1.9125 -2.3922
 1774SOL    HW216959   3.825   2.274   1.962  0.1965  1.5832 -0.6982
 1775SOL     OW16960   2.488   0.636  12.550 -0.2229  0.1109 -0.2114
 1775SOL    HW116961   2.536   0.603  12.474  0.2721  0.5112 -0.0661
 1775SOL    HW216962   2.500   0.731  12.541 -1.7773  0.1771 -1.6413
 1776SOL     OW16963   4.371   3.628   4.257 -0.2333  0.0105 -0.2095
 1776SOL    HW116964   4.373   3.541   4.216  0.1312 -0.5028  0.9041
 1776SOL    HW216965   4.278   3.640   4.278 -0.2807 -1.2042  0.2677
 1777SOL     OW16966   1.193   3.926  10.659  0.2605  0.1576 -0.3454
 1777SOL    HW116967   1.200   3.987  10.732 -1.6714 -1.4837  1.2187
 1777SOL    HW216968   1.217   3.846  10.705  0.4155  1.7172  2.2623
 1778SOL     OW16969   4.531   3.472   9.210 -0.1800 -0.2504  0.0041
 1778SOL    HW116970   4.548   3.563   9.186 -1.8316 -0.1762 -0.8775
 1778SOL    HW216971   4.574   3.467   9.295  0.6102 -0.6100 -0.4165
 1779SOL     OW16972   4.156   2.205   2.575  0.8199  0.3906 -0.2883
 1779SOL    HW116973   4.221   2.137   2.557 -3.2785 -2.7925 -2.9134
 1779SOL    HW216974   4.182   2.287   2.533 -1.0811  0.8720 -0.5155
 1780SOL     OW16975   3.123   1.866   0.915 -0.2706  0.0305  0.9252
 1780SOL    HW116976   3.093   1.943   0.867  0.2633  0.7020  1.6520
 1780SOL    HW216977   3.114   1.907   1.001  2.0626  0.6005  0.8995
 1781SOL     OW16978   3.171   1.118   9.693  0.0922 -0.0030 -0.5105
 1781SOL    HW116979   3.094   1.089   9.644  0.8075  0.7362 -2.0721
 1781SOL    HW216980   3.246   1.106   9.635 -1.2263  1.7540 -2.5802
 1782SOL     OW16981   4.510   1.119   6.914  0.3238 -0.0111 -0.7252
 1782SOL    HW116982   4.575   1.143   6.848  1.0180 -1.7763 -0.6827
 1782SOL    HW216983   4.433   1.166   6.882 -0.3465 -1.1824 -0.8111
 1783SOL     OW16984   1.665   0.688   4.845 -0.1462 -0.5186  0.1681
 1783SOL    HW116985   1.644   0.596   4.825  0.8873 -0.8697  0.6884
 1783SOL    HW216986   1.662   0.731   4.759  1.5970 -0.6071  0.0604
 1784SOL     OW16987   4.173   3.587   3.586  0.6179  0.0333 -0.2396
 1784SOL    HW116988   4.225   3.650   3.536  0.5870 -1.8003 -2.5516
 1784SOL    HW216989   4.186   3.616   3.676  0.3119  1.5029 -0.6745
 1785SOL     OW16990   2.414   2.009   1.468  0.3637 -0.1638 -0.1319
 1785SOL    HW116991   2.464   1.927   1.469 -1.4453 -1.2504  0.3675
 1785SOL    HW216992   2.476   2.070   1.426 -1.7146  0.1776 -2.6742
 1786SOL     OW16993   1.148   3.249   2.245 -0.2428  0.4295  0.5027
 1786SOL    HW116994   1.083   3.319   2.250 -0.1128  0.5752  0.1455
 1786SOL    HW216995   1.108   3.176   2.293  2.9897 -2.1419 -0.7027
 1787SOL     OW16996   1.089   0.749   9.194 -0.3240 -0.1475 -0.4421
 1787SOL    HW116997   1.177   0.779   9.173 -0.4007 -0.1290 -0.7493
 1787SOL    HW216998   1.064   0.790   9.277 -2.4466  0.1288 -1.2035
 1788SOL     OW16999   0.519   0.818   2.658  0.6058  0.2251 -0.1004
 1788SOL    HW117000   0.501   0.724   2.650  2.0698 -0.0734  0.2393
 1788SOL    HW217001   0.611   0.826   2.681  0.3611 -2.5447  1.8029
 1789SOL     OW17002   2.211   1.726   0.608 -0.1705 -0.3036 -0.0936
 1789SOL    HW117003   2.198   1.640   0.569 -0.8436  0.1758 -0.9295
 1789SOL    HW217004   2.294   1.746   0.565 -0.4203  0.2727 -0.3127
 1790SOL     OW17005   1.905   0.308   1.424 -0.1748  0.1596 -0.2564
 1790SOL    HW117006   1.874   0.298   1.514  1.4887 -0.8796  0.1920
 1790SOL    HW217007   1.919   0.215   1.406  0.2239  0.4659 -1.5862
 1791SOL     OW17008   3.518   4.429   1.536 -0.2649 -0.1602 -0.1527
 1791SOL    HW117009   3.431   4.399   1.510 -0.6735 -1.1103  2.2805
 1791SOL    HW217010   3.538   4.380   1.616 -1.3869 -1.7575 -0.8324
 1792SOL     OW17011   2.586   1.585   3.616  0.0016 -0.0935 -0.2951
 1792SOL    HW117012   2.612   1.517   3.555 -0.8106 -2.0011  1.4991
 1792SOL    HW217013   2.674   1.599   3.652  0.8258 -0.7641 -2.1001
 1793SOL     OW17014   0.793   2.623   8.324 -0.8464  0.6392 -0.0171
 1793SOL    HW117015   0.766   2.639   8.414  0.6352  0.0368  0.5426
 1793SOL    HW217016   0.740   2.689   8.279 -0.3941  1.5450  0.7668
 1794SOL     OW17017   1.556   0.641   4.418  0.2453 -0.2421  0.2015
 1794SOL    HW117018   1.625   0.704   4.398  0.2677 -0.7379 -1.2732
 1794SOL    HW217019   1.503   0.628   4.340 -0.1074 -1.5888  0.6594
 1795SOL     OW17020   1.063   1.257  17.458  0.5869 -0.3267 -0.1307
 1795SOL    HW117021   0.994   1.206  17.416  0.5794 -2.9070  3.0185
 1795SOL    HW217022   1.111   1.295  17.384  1.9854 -1.1809  0.3239
 1796SOL     OW17023   4.338   4.177   9.817 -0.3869  0.3347  0.1238
 1796SOL    HW117024   4.388   4.145   9.742 -0.4859  2.3576 -0.8074
 1796SOL    HW217025   4.287   4.255   9.795 -0.1006  0.2543 -0.8249
 1797SOL     OW17026   4.583   1.266  10.272 -0.0900 -0.2986 -0.1978
 1797SOL    HW117027   4.659   1.208  10.270  1.8318  2.2083  1.4553
 1797SOL    HW217028   4.608   1.332  10.208 -3.8738  2.7407  1.4159
 1798SOL     OW17029   1.802   1.813   4.393  0.4357 -0.4957 -0.4052
 1798SOL    HW117030   1.890   1.849   4.387  0.0909  0.1797 -1.4397
 1798SOL    HW217031   1.811   1.720   4.374 -0.2164  0.3187 -4.6846
 1799SOL     OW17032   0.671   1.076   7.612 -0.0452 -0.0586 -0.1472
 1799SOL    HW117033   0.726   1.017   7.663  1.6477  0.2050 -1.6701
 1799SOL    HW217034   0.684   1.160   7.657 -0.6594  1.3824 -2.6971
 1800SOL     OW17035   4.502   4.260   4.404 -0.6028  0.6518 -0.7802
 1800SOL    HW117036   4.517   4.231   4.314  0.0417 -0.0714 -0.4462
 1800SOL    HW217037   4.534   4.350   4.398  0.2360  0.5422  2.1425
 1801SOL     OW17038   0.015   1.254   5.089  0.8754  0.4906 -0.2323
 1801SOL    HW117039   0.023   1.189   5.019 -0.4447  0.3036 -0.2253
 1801SOL    HW217040   0.079   1.318   5.058  0.5856 -0.3392 -2.5479
 1802SOL     OW17041   4.481   3.388  15.237  0.2030  0.2200  0.1882
 1802SOL    HW117042   4.414   3.322  15.217  0.5223 -0.2935  0.8532
 1802SOL    HW217043   4.514   3.414  15.151 -1.1867  1.7159  0.1067
 1803SOL     OW17044   4.342   1.562   7.813  0.5890  0.9111 -0.0937
 1803SOL    HW117045   4.390   1.638   7.780 -0.2014  1.0535 -0.9203
 1803SOL    HW217046   4.267   1.558   7.754  0.4738 -2.1996  0.2641
 1804SOL     OW17047   2.064   3.502  11.980 -0.1216 -0.1059 -0.0062
 1804SOL    HW117048   2.135   3.505  12.045 -1.6448  0.7603  1.6268
 1804SOL    HW217049   2.014   3.581  11.999 -2.3514 -1.4498 -0.2879
 1805SOL     OW17050   2.951   1.940  10.924  0.6945 -0.2252 -0.0486
 1805SOL    HW117051   2.878   1.942  10.862  0.7192 -1.1359 -0.1070
 1805SOL    HW217052   2.993   1.854  10.914  1.2572  0.0851 -0.3682
 1806SOL     OW17053   3.558   4.694   7.365 -0.1895 -0.2425  0.3924
 1806SOL    HW117054   3.525   0.045   7.384  0.2010  0.6030 -2.8474
 1806SOL    HW217055   3.552   4.682   7.271 -1.1254 -0.0282  0.4220
 1807SOL     OW17056   3.396   2.852   7.929 -0.2453 -0.6809 -0.0709
 1807SOL    HW117057   3.328   2.786   7.913 -2.4026  1.2951  0.9501
 1807SOL    HW217058   3.337   2.927   7.934 -2.2453 -2.2815  0.6733
 1808SOL     OW17059   3.801   3.356   0.438 -0.1012 -1.0117  0.7159
 1808SOL    HW117060   3.891   3.361   0.471 -0.5526  0.1719  1.7976
 1808SOL    HW217061   3.823   3.315   0.355 -0.2556 -1.8317  1.0714
 1809SOL     OW17062   1.261   1.882   2.494 -0.3680  0.1014 -0.5274
 1809SOL    HW117063   1.306   1.966   2.506 -0.6816  0.1771  0.1362
 1809SOL    HW217064   1.195   1.905   2.429 -1.1961 -1.3023 -0.1697
 1810SOL     OW17065   4.410   4.050   3.512  0.0014 -0.1277 -0.0353
 1810SOL    HW117066   4.366   4.026   3.593  2.1351  0.2912  1.2215
 1810SOL    HW217067   4.499   4.026   3.536 -0.5036 -0.3250  1.6166
 1811SOL     OW17068   0.094   0.084   8.503  0.1364  0.7562  0.2749
 1811SOL    HW117069   0.187   0.104   8.513  0.3736  0.5815 -1.6185
 1811SOL    HW217070   0.083   0.005   8.555 -2.4758  1.2096  0.4345
 1812SOL     OW17071   3.244   1.142   8.331 -0.6910 -0.2801 -0.2050
 1812SOL    HW117072   3.171   1.182   8.378  0.1911  1.6939 -0.5077
 1812SOL    HW217073   3.245   1.192   8.250  2.8340 -1.0979 -0.6526
 1813SOL     OW17074   2.788   4.071   7.036 -0.1447  0.6270 -0.3256
 1813SOL    HW117075   2.812   3.996   7.091 -0.4671 -0.0446 -1.1134
 1813SOL    HW217076   2.788   4.029   6.951 -2.2080  0.5333 -0.2807
 1814SOL     OW17077   1.353   3.947   6.609 -0.0085 -0.0670  0.1498
 1814SOL    HW117078   1.305   3.903   6.539 -1.4766  3.6129 -1.1130
 1814SOL    HW217079   1.410   4.002   6.556  0.3338 -0.5831 -0.0195
 1815SOL     OW17080   4.714   3.632  13.228 -0.0614  0.0483 -0.7756
 1815SOL    HW117081   4.680   3.717  13.202  0.5792  0.6579  0.4139
 1815SOL    HW217082   4.690   3.619  13.320  0.8790  0.1826 -0.5086
 1816SOL     OW17083   1.809   4.143   9.163  0.1067  0.1728 -0.2592
 1816SOL    HW117084   1.863   4.068   9.138 -1.9729 -2.4541  3.0097
 1816SOL    HW217085   1.878   4.196   9.203  0.8477  0.4558 -1.9215
 1817SOL     OW17086   1.474   0.022   8.512 -0.0140 -0.0677  0.5336
 1817SOL    HW117087   1.526   0.101   8.502 -0.8027  0.6065  1.7352
 1817SOL    HW217088   1.526   4.708   8.573  0.7663 -0.9358 -0.8559
 1818SOL     OW17089   2.165   2.436  15.358  0.1487 -0.1539  0.1797
 1818SOL    HW117090   2.190   2.511  15.412  0.6861 -1.5531  1.8778
 1818SOL    HW217091   2.072   2.448  15.340  0.7242  1.5049 -1.6155
 1819SOL     OW17092   1.041   1.891   8.412 -0.2914  0.2534  0.7134
 1819SOL    HW117093   0.947   1.904   8.422 -0.5429  0.4466 -1.8034
 1819SOL    HW217094   1.074   1.960   8.354  1.3401 -0.2603  1.0354
 1820SOL     OW17095   4.414   2.499   0.512 -0.1071  0.0952 -0.3055
 1820SOL    HW117096   4.497   2.452   0.526  0.3863  0.4976 -1.8515
 1820SOL    HW217097   4.396   2.491   0.419 -0.7569  1.8660 -0.3300
 1821SOL     OW17098   2.712   2.885   3.304  0.3618 -0.4999  0.2427
 1821SOL    HW117099   2.706   2.791   3.284 -1.9669 -0.3142  0.0903
 1821SOL    HW217100   2.792   2.915   3.261 -0.3537  0.5897 -0.3122
 1822SOL     OW17101   4.715   1.997  13.270  0.2237 -0.0566  0.2675
 1822SOL    HW117102   4.699   2.050  13.192 -0.7473 -0.8901 -0.0953
 1822SOL    HW217103   4.621   1.990  13.289  0.1650  0.0675  0.0223
 1823SOL     OW17104   0.344   4.641   6.077  0.3525  0.6374  0.0640
 1823SOL    HW117105   0.360   4.643   5.982 -1.4960  1.0958 -0.2387
 1823SOL    HW217106   0.387   4.723   6.100  0.9751  0.4543 -0.4526
 1824SOL     OW17107   1.399   0.239   2.763  0.2209  0.6657 -0.0457
 1824SOL    HW117108   1.347   0.278   2.834 -0.6595 -1.0392  0.2358
 1824SOL    HW217109   1.375   0.147   2.774 -0.8035  0.7856 -1.2340
 1825SOL     OW17110   3.502   1.581   7.411  0.1146  0.2292 -0.0425
 1825SOL    HW117111   3.581   1.529   7.425 -1.5591 -2.0365  1.1088
 1825SOL    HW217112   3.552   1.663   7.408 -0.8582  0.8171 -0.2434
 1826SOL     OW17113   1.009   0.598   9.719 -0.1163  0.2777  0.1825
 1826SOL    HW117114   1.009   0.540   9.795 -1.4053 -0.1026 -0.0994
 1826SOL    HW217115   0.935   0.657   9.735  0.9863  1.0938  2.3415
 1827SOL     OW17116   3.331   1.857   4.036 -0.5242  0.4761  0.4277
 1827SOL    HW117117   3.366   1.883   4.121 -0.5381 -1.2428  0.9714
 1827SOL    HW217118   3.242   1.828   4.055  1.1556 -2.8818  3.1283
 1828SOL     OW17119   1.785   1.971  10.740  0.6612  0.0698 -0.3580
 1828SOL    HW117120   1.875   1.951  10.768  0.4155  0.3613  0.6488
 1828SOL    HW217121   1.751   1.885  10.716  1.7502 -0.2434 -0.7937
 1829SOL     OW17122   1.236   1.440   4.833 -0.1650  0.1158 -0.2882
 1829SOL    HW117123   1.191   1.513   4.789 -0.5185  1.6590  2.6278
 1829SOL    HW217124   1.305   1.427   4.768 -1.1528 -1.2162 -1.0675
 1830SOL     OW17125   3.180   4.700   8.500  0.3365  0.0203 -0.1521
 1830SOL    HW117126   3.130   0.042   8.481 -0.2825 -0.1781  0.6605
 1830SOL    HW217127   3.171   4.702   8.595 -2.8804 -0.3684 -0.4423
 1831SOL     OW17128   0.241   4.639   8.142  0.0447 -0.2677  0.1573
 1831SOL    HW117129   0.225   4.567   8.082 -0.5395  1.0418 -1.2723
 1831SOL    HW217130   0.218   4.598   8.225  0.3211  0.8554  0.8004
 1832SOL     OW17131   3.968   2.952   6.236  0.0132 -0.2360  0.1240
 1832SOL    HW117132   3.959   2.902   6.318  0.3317  0.5924  0.6631
 1832SOL    HW217133   3.945   2.876   6.183 -0.4505 -0.8284  1.1604
 1833SOL     OW17134   1.741   4.216   2.908 -0.1698 -0.3961  0.0398
 1833SOL    HW117135   1.723   4.304   2.940  3.0161 -0.3643  1.7582
 1833SOL    HW217136   1.773   4.241   2.821 -1.2053 -1.7491 -0.7313
 1834SOL     OW17137   4.093   1.947  17.367 -0.4956  0.2136  0.2503
 1834SOL    HW117138   4.185   1.971  17.357 -0.1739 -1.3188 -0.4928
 1834SOL    HW217139   4.051   2.032  17.355  0.5307  0.6619 -0.1538
 1835SOL     OW17140   0.285   0.790   9.786  0.1320  0.1750  0.1655
 1835SOL    HW117141   0.328   0.730   9.725  1.2528  1.5100 -0.3337
 1835SOL    HW217142   0.244   0.853   9.726  0.4747 -2.0137 -2.3700
 1836SOL     OW17143   0.455   2.508   2.029 -0.2819 -0.0011  0.1502
 1836SOL    HW117144   0.360   2.497   2.042  0.0391 -1.4154  1.2960
 1836SOL    HW217145   0.455   2.490   1.934  0.2205  1.7366 -0.1713
 1837SOL     OW17146   4.224   4.340   8.666 -0.5330  0.2709 -0.3456
 1837SOL    HW117147   4.156   4.353   8.732  1.1559 -1.3079  1.7031
 1837SOL    HW217148   4.289   4.400   8.703 -0.2978  0.7240 -1.5012
 1838SOL     OW17149   3.365   0.255  17.264 -0.2890 -0.5246  0.3390
 1838SOL    HW117150   3.299   0.187  17.249 -0.0662 -1.0689  1.7760
 1838SOL    HW217151   3.383   0.249  17.358 -0.1131 -2.3910  0.1967
 1839SOL     OW17152   3.382   4.632   8.829 -0.0073  0.0951 -0.0017
 1839SOL    HW117153   3.313   4.570   8.849  0.7617 -0.0806  2.0603
 1839SOL    HW217154   3.325   4.705   8.805  1.2682  1.1180  0.0531
 1840SOL     OW17155   3.212   3.586   9.119 -0.1960 -0.3590 -0.2822
 1840SOL    HW117156   3.143   3.573   9.185 -0.4401 -2.9027 -1.0359
 1840SOL    HW217157   3.168   3.629   9.046  1.2981 -0.0469 -0.9724
 1841SOL     OW17158   4.325   4.591   2.274  0.4686 -0.2870 -0.4837
 1841SOL    HW117159   4.326   4.572   2.180  1.4462  0.5589 -0.6486
 1841SOL    HW217160   4.327   4.501   2.305  0.0886 -0.1831 -0.1552
 1842SOL     OW17161   4.171   2.597   5.055  0.2296  0.4075 -0.1220
 1842SOL    HW117162   4.246   2.596   4.996 -0.9103  1.8692 -1.5861
 1842SOL    HW217163   4.155   2.510   5.091  2.5829  1.2030  2.9173
 1843SOL     OW17164   2.202   2.810  13.663 -0.1009  0.7130  0.1376
 1843SOL    HW117165   2.141   2.851  13.601  0.4143 -1.5513 -1.8456
 1843SOL    HW217166   2.159   2.727  13.687 -0.6269  0.7370 -0.7091
 1844SOL     OW17167   3.699   4.585   6.005 -0.3516  0.0832 -0.2690
 1844SOL    HW117168   3.758   4.552   5.936  1.4431  1.1527  0.7493
 1844SOL    HW217169   3.759   4.618   6.072  0.9398 -0.2991 -1.2259
 1845SOL     OW17170   2.676   4.365   5.971 -0.3432  0.2575  0.4547
 1845SOL    HW117171   2.614   4.355   6.043 -1.2614  1.5301 -0.1551
 1845SOL    HW217172   2.729   4.439   5.999 -0.5771  0.8409 -0.6308
 1846SOL     OW17173   2.042   0.018  16.712 -0.2240 -0.0251 -0.0175
 1846SOL    HW117174   2.004   0.104  16.696  0.0387  0.3574  1.3537
 1846SOL    HW217175   1.988   4.714  16.780  0.1930 -1.5989 -0.6370
 1847SOL     OW17176   2.385   0.114   6.229  0.8437  0.1170 -0.1761
 1847SOL    HW117177   2.425   0.190   6.271  0.0053  0.8281 -0.6742
 1847SOL    HW217178   2.316   0.102   6.294  0.5111 -0.6460 -0.6675
 1848SOL     OW17179   3.477   1.889   6.146 -0.6963  0.3831 -0.0992
 1848SOL    HW117180   3.420   1.827   6.100  1.0949 -0.8869 -0.6004
 1848SOL    HW217181   3.411   1.926   6.205  1.2034  1.5814  1.2515
 1849SOL     OW17182   3.532   3.532   7.640 -0.4062 -0.3980  0.4398
 1849SOL    HW117183   3.489   3.582   7.571 -2.8216 -1.6062  1.0784
 1849SOL    HW217184   3.606   3.494   7.592 -0.3578  1.4678 -0.9567
 1850SOL     OW17185   0.740   0.911   4.973 -0.3998  0.1742 -0.1861
 1850SOL    HW117186   0.802   0.922   4.901 -0.4996 -0.0981 -0.3125
 1850SOL    HW217187   0.677   0.845   4.942 -0.1816  0.4216 -1.1710
 1851SOL     OW17188   2.228   2.490   6.932 -0.0880 -0.1203 -0.0046
 1851SOL    HW117189   2.293   2.546   6.976  2.2590 -1.6770 -1.5246
 1851SOL    HW217190   2.280   2.410   6.929  1.4524  0.9441 -1.8078
 1852SOL     OW17191   2.387   0.054   1.696 -0.2237 -0.0043 -0.7787
 1852SOL    HW117192   2.432   0.091   1.772  0.8350 -4.1589  0.6231
 1852SOL    HW217193   2.324   4.737   1.743 -0.1400  0.8896  0.3587
 1853SOL     OW17194   3.057   2.590   1.879  0.1202 -0.0087 -0.1417
 1853SOL    HW117195   2.997   2.515   1.886  0.0775  0.4132  4.1004
 1853SOL    HW217196   3.001   2.664   1.901 -1.0565 -0.3914 -1.7905
 1854SOL     OW17197   2.061   4.112  16.520  0.2443  0.4485 -0.2636
 1854SOL    HW117198   1.992   4.145  16.577  0.6566  0.5081  0.1969
 1854SOL    HW217199   2.125   4.182  16.515 -1.4234  1.9612 -0.4726
 1855SOL     OW17200   1.653   2.614  11.687 -0.1283 -0.2418 -0.0463
 1855SOL    HW117201   1.650   2.587  11.595 -1.2620 -0.3135  0.0105
 1855SOL    HW217202   1.714   2.554  11.731  1.0484  1.1320  0.1900
 1856SOL     OW17203   1.176   3.980   2.081 -0.3496 -0.7539  0.4907
 1856SOL    HW117204   1.251   3.980   2.140 -0.4428  0.7119  0.5894
 1856SOL    HW217205   1.217   4.004   1.998 -0.0905 -2.8363 -0.0008
 1857SOL     OW17206   0.370   4.714  15.796 -0.7041  0.5963 -0.4826
 1857SOL    HW117207   0.437   4.667  15.747 -1.3588 -1.4827  0.5920
 1857SOL    HW217208   0.331   0.037  15.733  0.8964  0.0259 -2.0096
 1858SOL     OW17209   3.465   4.004   0.382  0.4057  0.5560  0.3289
 1858SOL    HW117210   3.404   3.946   0.426  1.6738 -1.2081 -0.2566
 1858SOL    HW217211   3.530   4.026   0.449  0.0805  0.1328  0.7805
 1859SOL     OW17212   3.674   1.852   9.599 -0.1052  0.5644  0.0152
 1859SOL    HW117213   3.638   1.787   9.659  0.6314  0.2171  0.0782
 1859SOL    HW217214   3.598   1.855   9.542 -0.7160  1.0544  0.8595
 1860SOL     OW17215   4.210   0.461   8.695  0.2628 -0.0009 -0.1942
 1860SOL    HW117216   4.190   0.541   8.744  0.8125 -0.2119  0.3638
 1860SOL    HW217217   4.216   0.490   8.604  0.3220 -1.5676 -0.6913
 1861SOL     OW17218   3.917   2.391  17.239  0.4953  0.2704  0.1990
 1861SOL    HW117219   3.901   2.459  17.304 -0.2325 -0.8888  1.2239
 1861SOL    HW217220   3.977   2.430  17.174  1.0376  0.4791  0.8237
 1862SOL     OW17221   4.478   4.402   2.836  0.4371  0.4158 -0.5205
 1862SOL    HW117222   4.436   4.482   2.804 -0.2151  0.6858  0.9850
 1862SOL    HW217223   4.398   4.350   2.845 -0.5837  1.8504 -1.2942
 1863SOL     OW17224   1.360   3.193   7.154  0.2221 -0.2373 -0.0406
 1863SOL    HW117225   1.297   3.155   7.093 -0.2551  0.8539 -0.2265
 1863SOL    HW217226   1.312   3.181   7.237  0.8655  1.0492  0.5218
 1864SOL     OW17227   3.325   2.095  13.506  0.0242 -0.4439  0.4308
 1864SOL    HW117228   3.363   2.021  13.460  0.4366 -1.3423  2.2425
 1864SOL    HW217229   3.254   2.065  13.563  0.5172 -0.4701  1.0195
 1865SOL     OW17230   0.272   0.047   6.442  0.1666 -0.7657 -1.0202
 1865SOL    HW117231   0.229   0.131   6.460 -0.3025 -1.3413  0.4772
 1865SOL    HW217232   0.199   4.726   6.421 -1.1352 -1.3648  5.3374
 1866SOL     OW17233   4.198   2.825   4.102  0.1067  0.4397 -0.7547
 1866SOL    HW117234   4.175   2.736   4.074  0.8375  0.3671 -1.1294
 1866SOL    HW217235   4.133   2.837   4.171  0.5885  2.6686 -0.6824
 1867SOL     OW17236   2.859   1.316   4.536  0.0655  0.2104  0.2582
 1867SOL    HW117237   2.831   1.314   4.444  2.9338  1.1701 -0.6632
 1867SOL    HW217238   2.922   1.388   4.531 -0.7347  0.9856  1.5552
 1868SOL     OW17239   4.146   1.189   2.030 -0.1345 -0.4099 -0.1422
 1868SOL    HW117240   4.081   1.202   2.099  1.4287  1.8093  0.8901
 1868SOL    HW217241   4.089   1.182   1.953 -1.0476 -0.9369  0.5827
 1869SOL     OW17242   0.443   0.335   4.861 -0.6726 -0.4750  0.2804
 1869SOL    HW117243   0.482   0.346   4.948  0.2958 -0.4090 -0.1599
 1869SOL    HW217244   0.516   0.299   4.811 -0.6507  0.1866 -0.1725
 1870SOL     OW17245   1.746   1.206   7.467  0.2632  0.0104  0.6627
 1870SOL    HW117246   1.674   1.257   7.429  1.7368  0.8337 -1.0006
 1870SOL    HW217247   1.822   1.258   7.442 -0.5213 -0.2092 -2.1337
 1871SOL     OW17248   1.940   4.606  16.270  0.2391 -0.0095 -0.0236
 1871SOL    HW117249   1.920   4.561  16.188 -0.6364 -0.2799  0.3383
 1871SOL    HW217250   1.907   4.540  16.331 -1.6579 -2.7153 -4.0048
 1872SOL     OW17251   2.751   1.315   9.323 -0.6244  0.1044 -0.5283
 1872SOL    HW117252   2.807   1.244   9.352  0.2153  1.0022  0.0432
 1872SOL    HW217253   2.777   1.379   9.389  4.3682 -0.6482 -1.7970
 1873SOL     OW17254   2.097   2.307   7.402  0.1616 -0.0545  0.1462
 1873SOL    HW117255   2.066   2.369   7.468 -3.0466  1.1097 -2.4747
 1873SOL    HW217256   2.165   2.367   7.370  1.7888 -2.2618 -0.5218
 1874SOL     OW17257   1.304   2.590   1.002 -0.3183 -0.2594  0.2330
 1874SOL    HW117258   1.293   2.500   1.034 -3.1002  0.4582  1.3369
 1874SOL    HW217259   1.272   2.629   1.084  1.8143 -0.8754  1.3708
 1875SOL     OW17260   0.580   3.188   3.628  0.3100 -0.0087  0.1846
 1875SOL    HW117261   0.593   3.232   3.712  3.3808 -0.7486  0.1037
 1875SOL    HW217262   0.535   3.108   3.654  0.5963 -0.0442  0.5814
 1876SOL     OW17263   0.772   4.065   6.249 -0.5083 -0.4553 -0.1274
 1876SOL    HW117264   0.763   4.053   6.343 -1.7273 -0.1489 -0.2163
 1876SOL    HW217265   0.783   4.160   6.244 -0.2700 -0.4833 -0.1765
 1877SOL     OW17266   2.626   0.526   6.204  0.3264  0.2269 -0.2564
 1877SOL    HW117267   2.716   0.520   6.235  0.5248  1.9169 -0.5100
 1877SOL    HW217268   2.631   0.591   6.133 -1.3574  0.2331 -0.3639
 1878SOL     OW17269   4.022   0.442   8.249 -0.2286  0.0649  0.9599
 1878SOL    HW117270   3.977   0.373   8.202 -0.5197  0.6507  0.3723
 1878SOL    HW217271   4.066   0.406   8.326  0.3203 -1.7598 -0.2087
 1879SOL     OW17272   0.904   3.932   3.900 -0.3109  0.4197  0.2362
 1879SOL    HW117273   0.917   3.932   3.995  1.8321  1.0700 -0.0414
 1879SOL    HW217274   0.978   3.987   3.873  1.4718 -0.9131  2.4386
 1880SOL     OW17275   3.217   2.087   4.660  0.2997  0.2143 -0.6296
 1880SOL    HW117276   3.211   2.020   4.729 -2.3827 -0.4258 -1.4673
 1880SOL    HW217277   3.191   2.035   4.584  0.1563  0.6829 -0.8991
 1881SOL     OW17278   2.219   1.780  15.791 -0.3049 -0.6577 -0.3181
 1881SOL    HW117279   2.132   1.745  15.810  0.4315 -1.8944  0.8234
 1881SOL    HW217280   2.274   1.708  15.824 -1.6687 -1.2939  0.5488
 1882SOL     OW17281   1.371   0.409   0.717 -0.0177  0.0599 -0.3504
 1882SOL    HW117282   1.387   0.481   0.778 -2.0358  0.6915 -0.5509
 1882SOL    HW217283   1.443   0.350   0.740 -0.6266 -1.1460 -1.5673
 1883SOL     OW17284   1.424   3.700   5.205  0.1245  0.0113 -0.2490
 1883SOL    HW117285   1.357   3.632   5.215 -1.5977  2.0525  2.2455
 1883SOL    HW217286   1.468   3.702   5.290 -0.0066  1.7297 -0.2131
 1884SOL     OW17287   1.914   1.468   5.604 -0.4749 -0.2658 -0.0381
 1884SOL    HW117288   1.874   1.470   5.517  1.4034 -2.9558 -0.9838
 1884SOL    HW217289   1.838   1.495   5.655  0.4285  0.3478  0.9859
 1885SOL     OW17290   3.732   0.314   8.436  0.2495 -0.1692  0.3385
 1885SOL    HW117291   3.793   0.254   8.393  1.9760  0.2002  2.2890
 1885SOL    HW217292   3.706   0.259   8.509 -1.3851 -0.7893 -0.7052
 1886SOL     OW17293   0.718   4.623   7.557  0.4572 -0.1346  0.6256
 1886SOL    HW117294   0.683   4.535   7.547 -3.5392  1.5471 -0.0312
 1886SOL    HW217295   0.715   4.632   7.652 -1.7152 -0.2421  0.5689
 1887SOL     OW17296   2.427   1.052   0.269  0.8753 -0.2778  0.2645
 1887SOL    HW117297   2.432   1.105   0.189 -0.4756 -1.0113 -0.3155
 1887SOL    HW217298   2.393   0.968   0.237 -2.3445  0.3957  1.8831
 1888SOL     OW17299   0.525   3.847   2.605  0.1572  0.2050  0.1508
 1888SOL    HW117300   0.520   3.941   2.588 -0.2679  0.4162  1.4556
 1888SOL    HW217301   0.434   3.823   2.622 -0.1692  0.8051 -0.7398
 1889SOL     OW17302   0.711   2.158   9.309  0.4831 -0.1235 -0.2434
 1889SOL    HW117303   0.725   2.125   9.220 -1.1931 -0.7832 -0.2677
 1889SOL    HW217304   0.716   2.072   9.351 -0.4737  0.0314  0.1927
 1890SOL     OW17305   2.282   1.882   9.677 -0.1078  0.0999  0.1324
 1890SOL    HW117306   2.347   1.920   9.619  0.4093 -2.1456 -0.7524
 1890SOL    HW217307   2.336   1.865   9.754 -1.1464 -0.3256  0.7799
 1891SOL     OW17308   3.929   2.716   2.363 -0.0135  0.2380 -0.2342
 1891SOL    HW117309   3.933   2.699   2.269  0.7737  1.6606 -0.4511
 1891SOL    HW217310   3.852   2.772   2.359 -0.4983 -0.2892  1.4507
 1892SOL     OW17311   2.999   1.397   6.166 -0.3911 -0.3175  0.3451
 1892SOL    HW117312   2.924   1.412   6.109 -0.1407  1.0679  0.3803
 1892SOL    HW217313   2.957   1.357   6.243  0.2321  0.2317  0.9766
 1893SOL     OW17314   1.942   3.459   4.566  0.6946  0.6788  0.7036
 1893SOL    HW117315   1.851   3.474   4.542  0.5267 -1.5769 -0.0272
 1893SOL    HW217316   1.935   3.451   4.661 -3.1872 -0.4035  0.3090
 1894SOL     OW17317   2.239   1.532   5.301  0.2774 -0.1285 -0.4505
 1894SOL    HW117318   2.302   1.508   5.233  0.8679 -1.3795  0.5413
 1894SOL    HW217319   2.232   1.448   5.348 -0.7726  0.6617  0.8069
 1895SOL     OW17320   0.505   3.641  10.195 -0.3873 -0.1026  0.0845
 1895SOL    HW117321   0.410   3.634  10.204 -0.2135 -0.9275  1.2232
 1895SOL    HW217322   0.530   3.550  10.215 -0.1403 -0.5421 -2.2038
 1896SOL     OW17323   0.969   3.202  17.431  0.1181 -0.1469  0.0391
 1896SOL    HW117324   0.970   3.266  17.360  2.6069 -0.3035 -0.0878
 1896SOL    HW217325   0.996   3.123  17.383 -0.1767 -2.9771  4.4576
 1897SOL     OW17326   2.046   1.915   7.114 -0.5307 -0.4620  0.4370
 1897SOL    HW117327   1.959   1.955   7.101 -0.5883 -0.6825  0.1502
 1897SOL    HW217328   2.103   1.991   7.121 -0.4287 -0.5319  0.3575
 1898SOL     OW17329   1.733   1.459   6.073  0.2461  0.2182  0.4059
 1898SOL    HW117330   1.680   1.384   6.048 -0.9801  0.9453  0.7918
 1898SOL    HW217331   1.821   1.422   6.080  0.5111  0.5934 -0.9029
 1899SOL     OW17332   0.125   0.960  11.073 -0.0512  0.2161 -0.2212
 1899SOL    HW117333   0.143   0.944  10.980 -3.0285 -0.0730 -0.7309
 1899SOL    HW217334   0.100   0.869  11.090  0.9135  0.0749  0.4606
 1900SOL     OW17335   0.187   3.828   4.373 -0.1170  0.0240 -0.4694
 1900SOL    HW117336   0.227   3.876   4.445 -1.1800 -1.0090  0.8017
 1900SOL    HW217337   0.095   3.854   4.381  0.3885  1.7976 -0.5126
 1901SOL     OW17338   0.014   2.019   7.023  0.1139 -0.1841 -0.0340
 1901SOL    HW117339   0.100   1.977   7.015 -1.2826 -3.0969  0.4139
 1901SOL    HW217340   0.021   2.095   7.081 -0.9287  0.0390 -0.2019
 1902SOL     OW17341   1.680   2.381   3.042  0.3087  0.0002  0.4452
 1902SOL    HW117342   1.751   2.326   3.075  1.6746  0.9955 -0.8568
 1902SOL    HW217343   1.610   2.319   3.021  1.8577 -1.4025 -0.5892
 1903SOL     OW17344   3.393   0.364   2.716 -0.5545 -0.1493 -0.2116
 1903SOL    HW117345   3.350   0.353   2.631 -0.0318  2.0400 -0.7763
 1903SOL    HW217346   3.485   0.340   2.708 -0.3356  0.1553  1.3558
 1904SOL     OW17347   3.717   3.315   2.708  0.4578  0.4907 -0.2359
 1904SOL    HW117348   3.713   3.240   2.767  0.6675 -0.1549 -1.0510
 1904SOL    HW217349   3.804   3.299   2.674  1.2549  2.1236  1.0136
 1905SOL     OW17350   1.553   3.939   3.370 -0.5378 -0.1761 -0.1276
 1905SOL    HW117351   1.543   3.927   3.276 -0.6832  1.2038 -0.2960
 1905SOL    HW217352   1.647   3.954   3.382 -0.5697  0.8542 -1.1898
 1906SOL     OW17353   3.013   1.131   9.309 -0.2397  0.0349 -0.3504
 1906SOL    HW117354   3.084   1.104   9.252 -0.4971 -2.8258  0.7112
 1906SOL    HW217355   3.015   1.227   9.298 -0.0238  0.1157  0.3675
 1907SOL     OW17356   1.552   3.131   9.229  0.1195  0.2452  0.7883
 1907SOL    HW117357   1.595   3.195   9.173 -0.6080 -0.8109 -0.9737
 1907SOL    HW217358   1.509   3.076   9.164  2.4106  0.0664 -0.5687
 1908SOL     OW17359   3.306   3.669   5.830  0.0988  0.9293  0.5147
 1908SOL    HW117360   3.228   3.646   5.780 -1.8462  2.9740  2.5813
 1908SOL    HW217361   3.375   3.668   5.765  1.7964 -0.0768  2.3344
 1909SOL     OW17362   4.281   3.642   0.443  0.0766 -0.2977 -0.1756
 1909SOL    HW117363   4.208   3.696   0.412  0.5770 -0.5327 -1.7420
 1909SOL    HW217364   4.349   3.709   0.448  1.3005 -1.4093 -1.8544
 1910SOL     OW17365   2.973   3.292   7.122 -0.0739  0.7619 -1.3059
 1910SOL    HW117366   3.063   3.271   7.098  0.2512  3.4863 -2.5628
 1910SOL    HW217367   2.992   3.365   7.182 -0.5397  0.2675 -0.5676
 1911SOL     OW17368   4.662   4.187  12.638  0.6982 -0.1980  0.1036
 1911SOL    HW117369   4.729   4.214  12.575  1.4101 -0.9833  0.5245
 1911SOL    HW217370   4.658   4.264  12.695  1.5162  0.0929 -0.2298
 1912SOL     OW17371   1.063   4.037   6.240  0.4897  0.5212 -0.4593
 1912SOL    HW117372   1.017   3.956   6.218  0.6505  0.2305  0.2616
 1912SOL    HW217373   0.988   4.096   6.246  0.2220 -0.0607  1.9280
 1913SOL     OW17374   1.875   2.954   2.158  0.1323  0.0251  0.6328
 1913SOL    HW117375   1.837   3.030   2.202 -1.1767  0.9059 -2.0115
 1913SOL    HW217376   1.795   2.904   2.145 -0.0220  0.2206  0.8506
 1914SOL     OW17377   1.873   3.685   7.170  0.0888  0.3269 -0.1950
 1914SOL    HW117378   1.899   3.623   7.102  0.4206 -2.0882  2.1363
 1914SOL    HW217379   1.938   3.754   7.158  0.4503 -0.3358 -1.9834
 1915SOL     OW17380   3.500   0.162   1.214 -0.2521  0.2283 -0.2005
 1915SOL    HW117381   3.526   0.081   1.258 -0.4023  0.3237  0.0687
 1915SOL    HW217382   3.418   0.135   1.173 -0.3255 -1.5158  1.1187
 1916SOL     OW17383   1.588   2.193  13.207 -0.3585  0.0114 -0.1931
 1916SOL    HW117384   1.601   2.144  13.126 -2.4590 -1.2708  0.2377
 1916SOL    HW217385   1.676   2.183  13.244 -0.5392  0.7171  0.4210
 1917SOL     OW17386   4.539   1.599  10.929  0.2798  0.4846 -0.3446
 1917SOL    HW117387   4.591   1.617  11.007  1.0229 -0.1101 -0.6903
 1917SOL    HW217388   4.505   1.514  10.958  0.1407  1.5284  2.4889
 1918SOL     OW17389   2.101   3.303   9.889  0.7402 -0.2405 -0.4828
 1918SOL    HW117390   2.165   3.343   9.948  1.5149 -1.1006 -0.7620
 1918SOL    HW217391   2.147   3.333   9.811  1.5906  1.0955  0.5354
 1919SOL     OW17392   0.689   4.360   4.827  0.2296 -0.1232  0.2448
 1919SOL    HW117393   0.777   4.372   4.863  0.1220  3.3634 -0.5686
 1919SOL    HW217394   0.708   4.364   4.733  1.2842 -0.3003  0.4576
 1920SOL     OW17395   1.578   4.615   5.611 -0.2129 -0.2993 -0.4681
 1920SOL    HW117396   1.645   4.678   5.587 -0.8247  0.2984 -0.6166
 1920SOL    HW217397   1.531   4.670   5.674 -0.2214 -1.2729  0.3869
 1921SOL     OW17398   3.022   0.524   5.418  0.0585  0.5062 -0.1472
 1921SOL    HW117399   3.091   0.458   5.406  0.8416  1.0121  1.5825
 1921SOL    HW217400   3.066   0.593   5.469 -0.3713 -0.1417  1.0872
 1922SOL     OW17401   0.767   2.569   7.962 -0.3081 -0.4425  0.3872
 1922SOL    HW117402   0.739   2.637   8.022 -0.4431  0.0211 -0.2043
 1922SOL    HW217403   0.830   2.517   8.011 -0.9903 -1.5297  0.1191
 1923SOL     OW17404   0.655   3.190  14.815 -0.3273  0.2572 -0.3697
 1923SOL    HW117405   0.645   3.254  14.744  0.7990 -0.6038 -1.3024
 1923SOL    HW217406   0.700   3.124  14.764 -0.1263 -1.0537  1.5052
 1924SOL     OW17407   1.214   1.774   9.495 -0.4130 -0.0215 -0.2066
 1924SOL    HW117408   1.270   1.845   9.463 -1.5078  1.7800  1.8773
 1924SOL    HW217409   1.276   1.702   9.503  1.1083  1.3879  0.5792
 1925SOL     OW17410   3.607   2.501  14.637 -0.4416  0.3319 -0.3248
 1925SOL    HW117411   3.613   2.469  14.547 -0.1252 -1.7297  0.4240
 1925SOL    HW217412   3.666   2.576  14.631  1.6044 -1.2720 -0.2988
 1926SOL     OW17413   0.924   3.318  13.235  0.1434 -0.1258  0.0982
 1926SOL    HW117414   0.833   3.291  13.246  0.2296 -0.0458  1.0204
 1926SOL    HW217415   0.969   3.267  13.302  0.9140 -0.5982 -0.7800
 1927SOL     OW17416   1.222   1.675   8.400 -0.4971  0.4663 -1.0253
 1927SOL    HW117417   1.177   1.759   8.414  1.8907  1.3053  1.5141
 1927SOL    HW217418   1.153   1.618   8.365 -1.3314 -0.4515  2.0871
 1928SOL     OW17419   2.708   2.523   7.393 -0.5622 -0.3449  0.8277
 1928SOL    HW117420   2.731   2.601   7.342 -0.1358 -1.2639 -0.3888
 1928SOL    HW217421   2.625   2.496   7.353  0.5425 -0.4683 -1.4087
 1929SOL     OW17422   4.342   3.737   3.426  0.0174  0.2059 -0.0256
 1929SOL    HW117423   4.390   3.670   3.378 -0.4894  0.4467 -0.8693
 1929SOL    HW217424   4.415   3.797   3.437 -0.1326  0.2914  0.5338
 1930SOL     OW17425   2.797   0.812   8.934 -0.0931  0.0923 -0.0350
 1930SOL    HW117426   2.756   0.898   8.937  0.4494  0.2797  2.0575
 1930SOL    HW217427   2.766   0.779   9.019  0.4177  0.5026  0.3124
 1931SOL     OW17428   2.735   2.036  16.078  0.0971 -0.1275 -0.2987
 1931SOL    HW117429   2.640   2.049  16.084  0.2745  0.7499  0.6472
 1931SOL    HW217430   2.750   2.130  16.081  0.8917 -0.2730  0.2138
 1932SOL     OW17431   2.207   3.529   0.633  0.0626  0.6413 -0.6931
 1932SOL    HW117432   2.150   3.594   0.592 -1.6007 -1.2159 -1.3952
 1932SOL    HW217433   2.199   3.547   0.726  1.1943  1.0084 -0.6780
 1933SOL     OW17434   1.525   1.368   0.243  0.0903  0.0742  0.0798
 1933SOL    HW117435   1.465   1.424   0.193 -1.1062  0.0300  1.4722
 1933SOL    HW217436   1.608   1.370   0.195  0.4239 -0.1084  0.6528
 1934SOL     OW17437   1.037   2.962   8.647 -0.6152  0.6265 -0.1839
 1934SOL    HW117438   1.023   2.976   8.554 -0.5199 -1.3192 -0.4928
 1934SOL    HW217439   1.065   3.049   8.674  1.0407  1.1883 -3.7823
 1935SOL     OW17440   4.036   1.843   6.136  0.3948 -0.1324 -0.0438
 1935SOL    HW117441   4.035   1.853   6.231  2.0040 -0.5990  0.0132
 1935SOL    HW217442   3.991   1.925   6.112 -1.0006 -0.9102 -0.0961
 1936SOL     OW17443   4.122   1.637  12.909  0.2990 -0.4644  0.2773
 1936SOL    HW117444   4.175   1.716  12.921 -0.8185  0.4296 -0.7525
 1936SOL    HW217445   4.043   1.658  12.861  0.4970  0.4429  0.3448
 1937SOL     OW17446   0.514   0.758   0.245  0.0696 -0.2818  0.0337
 1937SOL    HW117447   0.577   0.823   0.274 -0.1816  0.5722 -1.3763
 1937SOL    HW217448   0.456   0.812   0.192 -0.5510 -0.4561  0.5262
 1938SOL     OW17449   3.989   2.321   5.721  0.5019 -0.3513  0.3253
 1938SOL    HW117450   3.940   2.300   5.800  1.5012  2.4136  1.6905
 1938SOL    HW217451   3.926   2.379   5.679  2.5397  2.5041  1.1827
 1939SOL     OW17452   3.036   2.270   6.783  0.4514 -0.0246  0.4129
 1939SOL    HW117453   3.043   2.174   6.791  1.4132  0.1154  1.3722
 1939SOL    HW217454   3.046   2.296   6.875  0.7311 -0.9943  0.6638
 1940SOL     OW17455   4.387   0.672  13.898  0.5754 -0.1567  0.9941
 1940SOL    HW117456   4.380   0.588  13.944  3.3079 -0.7356  0.3664
 1940SOL    HW217457   4.468   0.702  13.939  1.2471 -1.8221  0.8935
 1941SOL     OW17458   3.151   3.420   3.445 -0.2686 -0.4509  0.3567
 1941SOL    HW117459   3.132   3.512   3.428  1.1101 -0.4791 -1.3453
 1941SOL    HW217460   3.246   3.431   3.448 -0.3010 -0.0840  0.0767
 1942SOL     OW17461   3.982   0.343  10.788 -0.6171 -0.2630 -0.6067
 1942SOL    HW117462   3.923   0.293  10.845 -0.7598 -0.5657 -1.0170
 1942SOL    HW217463   4.044   0.376  10.853 -0.4142 -2.9337  0.5445
 1943SOL     OW17464   3.832   4.481  15.521  0.4714  0.4081  0.2062
 1943SOL    HW117465   3.776   4.404  15.510  0.1101  0.5312  1.2132
 1943SOL    HW217466   3.789   4.522  15.596 -0.2067  2.9326 -1.5537
 1944SOL     OW17467   0.277   1.280  17.390 -0.7032 -0.6564  0.0993
 1944SOL    HW117468   0.295   1.248  17.302  1.3169  1.1164 -0.1282
 1944SOL    HW217469   0.197   1.332  17.391 -1.6734 -2.1709  0.1326
 1945SOL     OW17470   4.614   2.383   7.322  0.0210  0.0238  0.1540
 1945SOL    HW117471   4.636   2.476   7.334 -1.1993  0.5603 -1.6918
 1945SOL    HW217472   4.526   2.372   7.360 -0.2753  2.0973  0.1060
 1946SOL     OW17473   4.730   2.636   5.651 -0.1919 -0.6408 -0.6095
 1946SOL    HW117474   0.066   2.608   5.596  0.5008 -3.0642  1.5385
 1946SOL    HW217475   0.019   2.726   5.672 -0.8170 -0.3678 -1.0240
 1947SOL     OW17476   2.736   1.963   8.218  0.0772 -0.3477 -0.1780
 1947SOL    HW117477   2.825   1.993   8.234 -0.6982  1.7151  0.2765
 1947SOL    HW217478   2.748   1.868   8.222 -0.2332 -0.3450  0.7988
 1948SOL     OW17479   1.451   2.187   3.665  0.2409 -0.4299  0.0931
 1948SOL    HW117480   1.454   2.275   3.628  1.9834 -0.5133  0.0466
 1948SOL    HW217481   1.432   2.203   3.758  0.0083  0.7182 -0.1552
 1949SOL     OW17482   0.492   2.591   3.056 -0.5226  0.4472 -0.1699
 1949SOL    HW117483   0.496   2.619   3.148 -0.3537 -1.3042  0.3669
 1949SOL    HW217484   0.478   2.496   3.049 -1.5122  0.4109  2.1868
 1950SOL     OW17485   1.914   1.196   3.099 -0.1026 -0.3783  0.2714
 1950SOL    HW117486   1.822   1.223   3.090 -0.3417 -1.1306  0.4196
 1950SOL    HW217487   1.942   1.206   3.008 -0.3561 -0.2215  0.2105
 1951SOL     OW17488   1.284   4.239  11.367  0.1170 -0.2778  0.3021
 1951SOL    HW117489   1.360   4.231  11.310  0.1561  0.9342  0.1763
 1951SOL    HW217490   1.324   4.266  11.450 -0.7809 -1.5561  1.1568
 1952SOL     OW17491   2.953   0.551   8.618  0.2571 -0.8901  0.2711
 1952SOL    HW117492   2.886   0.619   8.606  0.5482 -0.9434 -1.7070
 1952SOL    HW217493   3.023   0.582   8.560  0.8729 -0.0979  1.4558
 1953SOL     OW17494   2.144   1.844   0.229  0.1817  0.1923 -0.0926
 1953SOL    HW117495   2.229   1.886   0.223 -0.4440  1.7694  1.9504
 1953SOL    HW217496   2.152   1.768   0.171  1.3032  1.2940 -1.3767
 1954SOL     OW17497   0.151   4.360   6.480  0.4012 -0.0212  0.1842
 1954SOL    HW117498   0.203   4.368   6.400 -1.3136  0.6059 -0.8548
 1954SOL    HW217499   0.073   4.408   6.454 -0.6247 -1.7020  0.1940
 1955SOL     OW17500   3.001   1.519   2.951  0.4142 -0.2020 -0.3979
 1955SOL    HW117501   3.017   1.593   3.008  0.1025  0.9416 -1.7884
 1955SOL    HW217502   3.032   1.446   3.004 -0.2537 -0.1008  0.1253
 1956SOL     OW17503   4.047   4.321   2.849 -0.3700 -0.4191 -0.3218
 1956SOL    HW117504   3.966   4.303   2.896 -0.6084 -0.0041 -0.5726
 1956SOL    HW217505   4.103   4.321   2.926 -2.3326  0.8513  1.0987
 1957SOL     OW17506   0.900   4.034  12.291 -0.3482 -0.7671 -0.4645
 1957SOL    HW117507   0.864   4.102  12.348  1.1583  0.1445 -0.5953
 1957SOL    HW217508   0.861   3.957  12.331  0.3011 -1.5376 -1.3213
 1958SOL     OW17509   2.490   1.849   4.755  0.0165 -0.2265  0.0442
 1958SOL    HW117510   2.485   1.754   4.738 -2.1624 -0.1336  0.1557
 1958SOL    HW217511   2.413   1.879   4.707 -0.0305  1.1054  0.9716
 1959SOL     OW17512   3.406   1.221   3.241 -0.2852 -0.3419  0.1864
 1959SOL    HW117513   3.451   1.182   3.317  1.9336  0.6039 -0.6343
 1959SOL    HW217514   3.462   1.181   3.175 -1.3573 -1.9537  0.2577
 1960SOL     OW17515   1.326   2.764  11.538  0.0629 -0.4741  0.1070
 1960SOL    HW117516   1.391   2.819  11.493 -0.1185  0.5339  1.0854
 1960SOL    HW217517   1.249   2.791  11.486  2.7765  1.4956 -2.9134
 1961SOL     OW17518   4.077   1.254  13.466 -0.0760  0.7201 -0.2550
 1961SOL    HW117519   4.159   1.229  13.509 -1.2535  0.3704  1.8223
 1961SOL    HW217520   4.077   1.201  13.387 -1.8289  0.3442 -0.0099
 1962SOL     OW17521   3.176   2.727  16.238  0.2495  0.3347  0.0667
 1962SOL    HW117522   3.205   2.637  16.219 -0.1930 -0.1717  1.7566
 1962SOL    HW217523   3.081   2.724  16.244  0.2090  1.7337 -0.0702
 1963SOL     OW17524   2.605   1.005  11.714  0.2898 -0.2712  0.0257
 1963SOL    HW117525   2.609   0.916  11.750 -1.1214 -0.3152  0.0604
 1963SOL    HW217526   2.579   1.059  11.788 -0.9950  1.3838 -1.6645
 1964SOL     OW17527   4.365   4.430   3.673 -0.7587  0.3855 -0.1989
 1964SOL    HW117528   4.309   4.477   3.611 -0.0605  2.7940  1.0046
 1964SOL    HW217529   4.448   4.433   3.624 -1.3049  0.2764 -1.1430
 1965SOL     OW17530   0.934   3.643   9.944  0.2699  0.2395  0.3549
 1965SOL    HW117531   0.972   3.696  10.015 -2.4139 -0.0714  2.0216
 1965SOL    HW217532   0.874   3.581   9.986 -1.2966  0.6340 -1.3197
 1966SOL     OW17533   4.621   0.285   3.619  0.2643 -0.5926 -0.2701
 1966SOL    HW117534   4.548   0.325   3.572 -1.0896 -3.2278 -0.4159
 1966SOL    HW217535   4.637   0.196   3.587 -1.9803 -0.5072 -1.6287
 1967SOL     OW17536   3.691   2.379   7.124 -0.4927 -0.1996 -0.3814
 1967SOL    HW117537   3.685   2.323   7.202  0.8057  0.6715  0.3421
 1967SOL    HW217538   3.708   2.317   7.054 -1.1720 -0.5860 -0.2057
 1968SOL     OW17539   4.177   4.651   4.978  0.2157  0.0026 -0.2103
 1968SOL    HW117540   4.143   4.734   4.943  0.1873  0.6675  1.4184
 1968SOL    HW217541   4.272   4.656   4.969  0.2612  3.8520  2.5042
 1969SOL     OW17542   2.924   2.790  13.855 -0.0849  0.1474 -0.8632
 1969SOL    HW117543   2.985   2.730  13.899  0.1543 -0.6801 -2.3382
 1969SOL    HW217544   2.864   2.818  13.925 -1.6243  1.1780 -2.6062
 1970SOL     OW17545   4.170   0.337  13.802 -0.2641  0.5909  0.7457
 1970SOL    HW117546   4.219   0.415  13.776 -0.4558 -0.4205 -2.6444
 1970SOL    HW217547   4.210   0.281  13.736 -1.9110 -0.6550  0.8009
 1971SOL     OW17548   4.072   1.799   6.918  0.0265 -0.3131 -0.0776
 1971SOL    HW117549   4.045   1.885   6.885 -1.7442  0.4744  3.4181
 1971SOL    HW217550   4.159   1.797   6.880 -0.3160 -0.4735 -0.8606
 1972SOL     OW17551   2.462   4.607   6.052 -0.3007  0.5538  0.3726
 1972SOL    HW117552   2.537   4.641   6.101  0.2741  0.0421 -0.1529
 1972SOL    HW217553   2.446   4.534   6.112  1.4204 -0.0698  0.0875
 1973SOL     OW17554   2.349   3.097   4.137  0.1638 -0.0335 -0.7494
 1973SOL    HW117555   2.407   3.022   4.125 -0.8571 -1.4546  3.1449
 1973SOL    HW217556   2.272   3.069   4.088 -0.9004  0.7576  0.4547
 1974SOL     OW17557   2.961   2.230  13.344 -0.5237 -0.5289  0.1924
 1974SOL    HW117558   3.051   2.212  13.315  0.4721  0.2222  2.8398
 1974SOL    HW217559   2.920   2.158  13.297 -1.1612  0.6476 -1.0643
 1975SOL     OW17560   2.097   1.706   4.375  0.0277 -0.1128 -0.1044
 1975SOL    HW117561   2.080   1.698   4.281 -1.8007 -3.2852  0.4971
 1975SOL    HW217562   2.083   1.618   4.408 -0.6906 -1.2070 -3.2836
 1976SOL     OW17563   1.659   2.462   7.521  0.1816  0.0788  0.0090
 1976SOL    HW117564   1.620   2.424   7.599  0.0680  0.3943  0.1052
 1976SOL    HW217565   1.631   2.405   7.449  1.3379 -0.4567 -0.0300
 1977SOL     OW17566   4.651   1.073  17.488 -0.1142 -0.2838 -0.4556
 1977SOL    HW117567   4.730   1.029  17.519 -0.5872 -1.2095 -0.5472
 1977SOL    HW217568   4.634   1.011  17.416 -1.6597 -1.0965  0.6021
 1978SOL     OW17569   1.409   4.705   4.367 -0.0621  0.5086  0.3323
 1978SOL    HW117570   1.388   0.008   4.452 -0.1199  2.3972 -0.5638
 1978SOL    HW217571   1.455   0.038   4.321  3.3846 -1.8340  0.2863
 1979SOL     OW17572   0.542   0.103   5.222 -0.1159 -0.4185  0.0407
 1979SOL    HW117573   0.601   0.082   5.150 -2.4993  0.5415 -2.2224
 1979SOL    HW217574   0.499   0.018   5.229  0.1602 -0.5658 -0.0484
 1980SOL     OW17575   3.129   4.008   6.547 -0.4486  0.1382  0.3678
 1980SOL    HW117576   3.039   4.002   6.516 -0.4806 -1.4329  0.7973
 1980SOL    HW217577   3.139   3.916   6.571 -0.9432 -0.2579 -0.9425
 1981SOL     OW17578   2.904   3.800   1.218  0.0007 -0.1259 -0.0347
 1981SOL    HW117579   2.840   3.870   1.207  0.9148  0.5561 -1.0769
 1981SOL    HW217580   2.980   3.856   1.231 -0.5968  0.5122  0.6465
 1982SOL     OW17581   0.712   0.889   3.042 -0.1324  0.3660 -0.4768
 1982SOL    HW117582   0.798   0.918   3.071 -0.2846  0.5560 -0.2227
 1982SOL    HW217583   0.653   0.963   3.056  1.8166  1.1959  3.2709
 1983SOL     OW17584   0.816   0.158  17.144 -0.5720  0.2457 -0.2422
 1983SOL    HW117585   0.876   0.146  17.070 -0.0785  0.0692  0.1863
 1983SOL    HW217586   0.728   0.156  17.106 -0.7204 -2.2300  0.2509
 1984SOL     OW17587   3.787   3.120   9.799  0.0634  0.2004 -0.0417
 1984SOL    HW117588   3.852   3.049   9.797 -1.5601 -1.2055 -2.9105
 1984SOL    HW217589   3.741   3.092   9.878 -2.4621  0.2673 -1.4925
 1985SOL     OW17590   4.723   3.627   7.772 -1.1736 -0.0829  0.1790
 1985SOL    HW117591   0.047   3.638   7.845 -2.3666 -0.6422  1.2504
 1985SOL    HW217592   0.008   3.710   7.730  0.5973 -0.8063 -0.3082
 1986SOL     OW17593   3.393   2.623   7.270 -0.0395 -0.7042  0.0687
 1986SOL    HW117594   3.449   2.606   7.345 -0.0524  0.3457  0.3169
 1986SOL    HW217595   3.402   2.539   7.224 -0.8582  0.1173 -1.6209
 1987SOL     OW17596   2.805   0.483   8.307 -0.1828 -0.2953  0.5009
 1987SOL    HW117597   2.828   0.576   8.296 -0.6026 -0.2854 -0.2604
 1987SOL    HW217598   2.889   0.440   8.295 -1.1649 -1.8189 -0.8861
 1988SOL     OW17599   0.389   1.788   3.353  0.2184 -0.3065 -0.2791
 1988SOL    HW117600   0.393   1.876   3.315  0.9794  0.4643  1.6070
 1988SOL    HW217601   0.306   1.805   3.398  0.9744 -0.3907  1.1375
 1989SOL     OW17602   0.049   0.646   3.394 -0.1382 -0.4224 -0.2476
 1989SOL    HW117603   4.717   0.593   3.354 -0.5772  0.9285 -1.2745
 1989SOL    HW217604   4.732   0.698   3.453 -0.7516  0.2573 -1.4127
 1990SOL     OW17605   4.584   2.509  15.043  0.4218  0.4484  0.4868
 1990SOL    HW117606   4.674   2.475  15.044 -0.2647 -1.3243  3.5060
 1990SOL    HW217607   4.613   2.596  15.072  0.8414  0.8843 -1.2282
 1991SOL     OW17608   0.449   0.365   4.277  0.3754 -0.5903 -0.5986
 1991SOL    HW117609   0.517   0.426   4.249 -0.0836  0.3924  0.4371
 1991SOL    HW217610   0.369   0.381   4.227 -0.7532  1.4266  1.8888
 1992SOL     OW17611   2.118   2.549  13.649 -0.0520  0.0306  0.9698
 1992SOL    HW117612   2.134   2.586  13.562 -1.7359  0.2186  0.7422
 1992SOL    HW217613   2.056   2.477  13.633  0.7349 -0.6965  1.2020
 1993SOL     OW17614   1.401   0.847  17.324 -0.1534 -0.2307 -0.1534
 1993SOL    HW117615   1.357   0.784  17.381  1.1417  0.4047  1.5482
 1993SOL    HW217616   1.378   0.934  17.358 -1.9184 -1.2160  1.1533
 1994SOL     OW17617   0.756   0.802  16.616 -0.3723 -0.2096 -0.2574
 1994SOL    HW117618   0.771   0.819  16.709 -2.7133 -1.2574  0.3244
 1994SOL    HW217619   0.831   0.833  16.565  0.7826 -1.3889  0.7450
 1995SOL     OW17620   3.787   0.145   3.618  0.2051  0.2357  0.4264
 1995SOL    HW117621   3.781   0.240   3.632 -1.2472  0.1936  0.0327
 1995SOL    HW217622   3.757   0.151   3.528  0.6191  1.7273  0.3941
 1996SOL     OW17623   3.783   4.155   5.298  0.1755  0.7378  0.4210
 1996SOL    HW117624   3.865   4.118   5.267 -0.7853 -2.8480  2.1373
 1996SOL    HW217625   3.731   4.117   5.228  0.2499  0.6245  0.4273
 1997SOL     OW17626   4.503   2.679   7.376 -0.1397  0.3110  0.5396
 1997SOL    HW117627   4.476   2.685   7.468  0.3138 -1.8008  0.8211
 1997SOL    HW217628   4.538   2.766   7.356 -2.0677  0.5758 -1.5460
 1998SOL     OW17629   4.031   1.106   5.236  0.2098  0.0283  0.0139
 1998SOL    HW117630   4.096   1.127   5.168  0.9911  0.7057  0.9596
 1998SOL    HW217631   3.975   1.037   5.200  1.5100 -0.4447 -1.1165
 1999SOL     OW17632   0.361   0.607  15.462  0.0374  0.2693  0.2347
 1999SOL    HW117633   0.326   0.676  15.406 -0.0487 -1.3053 -1.6240
 1999SOL    HW217634   0.301   0.593  15.536 -1.2278 -0.0473 -0.8497
 2000SOL     OW17635   3.810   3.649   3.027 -0.1862 -0.1158 -0.3766
 2000SOL    HW117636   3.760   3.697   3.093 -2.6702 -3.9041  0.5113
 2000SOL    HW217637   3.871   3.714   2.993 -0.7600 -0.5000 -2.1457
 2001SOL     OW17638   3.359   3.964   8.769 -0.6575  0.0404  0.0725
 2001SOL    HW117639   3.347   4.058   8.778  1.9842  0.1782  2.4634
 2001SOL    HW217640   3.340   3.946   8.677  3.4448 -1.3145 -0.5321
 2002SOL     OW17641   1.865   0.489  10.754 -0.4113 -0.0072  0.2466
 2002SOL    HW117642   1.853   0.421  10.687 -2.8594  0.4035  0.2616
 2002SOL    HW217643   1.919   0.463  10.829  1.3775  1.0288 -0.6819
 2003SOL     OW17644   2.653   2.249   9.044  0.0152  0.1844 -0.1843
 2003SOL    HW117645   2.661   2.283   8.955  2.1087  0.1616 -0.0019
 2003SOL    HW217646   2.684   2.160   9.030 -0.1506 -0.6334  4.5599
 2004SOL     OW17647   0.231   2.414  16.772 -0.2512  0.5543 -0.4417
 2004SOL    HW117648   0.269   2.342  16.821  0.2593  1.4571  0.4817
 2004SOL    HW217649   0.189   2.366  16.700  1.0677  0.3235 -1.0401
 2005SOL     OW17650   2.308   2.483  13.841 -0.0969 -0.2219  0.4729
 2005SOL    HW117651   2.226   2.500  13.795  0.2335 -2.2648 -0.8744
 2005SOL    HW217652   2.355   2.415  13.792 -1.1613 -0.3337 -0.3787
 2006SOL     OW17653   0.838   3.313   5.144  0.2581 -0.3002 -0.2961
 2006SOL    HW117654   0.772   3.375   5.172  2.1139  0.8243  1.5953
 2006SOL    HW217655   0.881   3.349   5.066 -0.1393 -0.2432 -0.4912
 2007SOL     OW17656   0.513   3.224   3.173 -0.2829  0.1349  0.0040
 2007SOL    HW117657   0.454   3.299   3.183 -1.2610 -0.4252 -1.6304
 2007SOL    HW217658   0.458   3.150   3.151 -2.7474  1.9626  0.0818
 2008SOL     OW17659   0.300   2.214   4.429  0.1026 -0.1379  0.0773
 2008SOL    HW117660   0.353   2.134   4.432 -0.1459 -0.2857  0.4371
 2008SOL    HW217661   0.341   2.260   4.355  1.6175 -0.2217  0.8534
 2009SOL     OW17662   2.399   2.357   6.625  0.3586 -0.1834  0.7045
 2009SOL    HW117663   2.361   2.272   6.647  2.1416 -1.1683  0.0126
 2009SOL    HW217664   2.491   2.330   6.630  0.9803  1.8207 -0.0292
 2010SOL     OW17665   3.361   2.335  13.632 -0.0330  0.1887 -0.3404
 2010SOL    HW117666   3.334   2.260  13.580 -1.2433  0.6441 -0.3713
 2010SOL    HW217667   3.452   2.308  13.642 -0.6129 -1.4413  0.5219
 2011SOL     OW17668   3.143   1.074   4.391  0.3708  0.0585 -0.6110
 2011SOL    HW117669   3.047   1.072   4.398  0.2471  0.0669 -2.4032
 2011SOL    HW217670   3.174   1.045   4.477  0.4475  3.7704  0.5948
 2012SOL     OW17671   0.072   0.959   3.876  0.5461 -0.2663  0.0784
 2012SOL    HW117672   0.055   0.870   3.843  2.2899 -0.2325 -0.8913
 2012SOL    HW217673   0.115   1.003   3.803  2.6102 -1.2824  0.6594
 2013SOL     OW17674   4.273   3.172  15.210  0.5018  0.6371  0.4740
 2013SOL    HW117675   4.339   3.119  15.165  0.7309  0.5436  0.9296
 2013SOL    HW217676   4.190   3.136  15.178  1.3386 -0.0684 -0.8957
 2014SOL     OW17677   4.660   1.648  11.167 -0.5084 -0.0633 -0.0552
 2014SOL    HW117678   4.605   1.653  11.245  0.9372 -1.1491  1.0297
 2014SOL    HW217679   4.721   1.720  11.186 -0.1825 -0.4535  0.3691
 2015SOL     OW17680   4.365   4.219   0.721 -0.0572  0.2900  0.3102
 2015SOL    HW117681   4.273   4.191   0.726  0.0057  0.1489  0.6262
 2015SOL    HW217682   4.407   4.134   0.711  0.5786  0.7137 -0.6228
 2016SOL     OW17683   2.986   3.467   7.415  0.1817  0.2848  0.1188
 2016SOL    HW117684   3.039   3.529   7.365 -2.3263  2.4846  0.1959
 2016SOL    HW217685   2.896   3.496   7.400  0.8227  1.7100 -0.9347
 2017SOL     OW17686   3.025   4.292   9.298 -0.4837 -0.3032  0.2793
 2017SOL    HW117687   3.044   4.331   9.383 -0.1417 -0.0736  0.0975
 2017SOL    HW217688   3.061   4.203   9.302 -0.1946 -0.1251  1.4794
 2018SOL     OW17689   4.375   2.335  13.321  0.6341 -0.2248  0.0989
 2018SOL    HW117690   4.389   2.319  13.228  2.7367 -0.3601  0.4347
 2018SOL    HW217691   4.361   2.430  13.326  1.2259 -0.2280  1.7199
 2019SOL     OW17692   0.910   1.402  15.705  0.9025 -0.5613  0.3572
 2019SOL    HW117693   0.860   1.460  15.762  0.3416 -0.6199 -0.0659
 2019SOL    HW217694   0.861   1.323  15.729  0.5787 -0.6358 -0.5226
 2020SOL     OW17695   1.119   1.917   6.479  0.4080 -0.2391  0.0250
 2020SOL    HW117696   1.039   1.872   6.453 -1.3852  2.1130  1.5100
 2020SOL    HW217697   1.085   1.966   6.554  0.7425 -1.1036  0.7386
 2021SOL     OW17698   3.081   3.336   8.936  0.4051 -0.5652 -0.1107
 2021SOL    HW117699   3.153   3.277   8.960 -0.3243 -1.1608  0.6337
 2021SOL    HW217700   3.122   3.421   8.948  0.5388 -0.8000  1.1418
 2022SOL     OW17701   4.385   0.751  16.579 -0.0262  0.3029 -0.5732
 2022SOL    HW117702   4.295   0.775  16.600  1.2992  1.9227  3.1415
 2022SOL    HW217703   4.387   0.695  16.656 -2.6687  0.8105 -0.1229
 2023SOL     OW17704   2.250   3.885   8.256 -0.4898 -0.3474 -0.2023
 2023SOL    HW117705   2.284   3.800   8.286  1.2977  0.5507  0.3393
 2023SOL    HW217706   2.233   3.858   8.166  1.1370 -0.7323 -0.4114
 2024SOL     OW17707   0.524   1.647   3.044 -0.3011 -0.8053  0.2722
 2024SOL    HW117708   0.515   1.741   3.062 -0.6353 -0.7102 -0.3716
 2024SOL    HW217709   0.467   1.613   3.112 -0.0579  0.3488  1.0490
 2025SOL     OW17710   1.862   1.482   0.422 -0.1741 -0.3195 -0.1062
 2025SOL    HW117711   1.819   1.424   0.485 -0.2593 -1.9879 -1.7118
 2025SOL    HW217712   1.955   1.476   0.445 -0.2283 -1.8562 -0.2908
 2026SOL     OW17713   1.492   0.432   6.933  0.3388  0.1496 -0.1135
 2026SOL    HW117714   1.499   0.523   6.963  1.0262 -0.0798  0.4498
 2026SOL    HW217715   1.471   0.455   6.843 -0.7612 -0.1231  0.0816
 2027SOL     OW17716   4.188   4.244  17.685 -0.4355  0.0743 -0.6784
 2027SOL    HW117717   4.183   4.326  17.636 -1.7950  0.5604  0.2653
 2027SOL    HW217718   4.263   4.207  17.639 -0.0134 -1.5409  1.2991
 2028SOL     OW17719   1.275   0.914   0.631 -0.4090 -0.2634 -0.4058
 2028SOL    HW117720   1.201   0.880   0.683 -0.9017  0.3500 -0.7069
 2028SOL    HW217721   1.311   0.985   0.684 -0.0003 -2.8372  2.7468
 2029SOL     OW17722   3.671   3.238  17.571  0.3170 -0.0613  0.1564
 2029SOL    HW117723   3.641   3.148  17.586  1.2466 -0.4051 -0.0968
 2029SOL    HW217724   3.718   3.256  17.652  1.2389  1.7544 -0.8022
 2030SOL     OW17725   2.973   2.469   8.562 -0.5032  0.7253 -0.0096
 2030SOL    HW117726   3.049   2.411   8.553 -0.0847  0.9395  2.1710
 2030SOL    HW217727   3.010   2.545   8.607 -0.2351  0.6399 -0.0865
 2031SOL     OW17728   0.182   1.807  13.106 -0.1960  0.6078 -0.3065
 2031SOL    HW117729   0.175   1.720  13.144  0.3842  1.4955  1.8458
 2031SOL    HW217730   0.180   1.865  13.182  0.6925  1.5275 -0.9897
 2032SOL     OW17731   0.021   1.388   6.901  0.0281 -0.1129 -0.3614
 2032SOL    HW117732   0.003   1.344   6.819 -1.0134 -1.5479  0.6369
 2032SOL    HW217733   0.007   1.312   6.957 -1.0110 -1.3355 -2.2999
 2033SOL     OW17734   0.040   1.589   4.614  0.1267  0.9512  0.4287
 2033SOL    HW117735   0.093   1.658   4.575  0.8511  0.0559 -0.1731
 2033SOL    HW217736   0.111   1.525   4.624 -1.9246 -1.3596  0.1369
 2034SOL     OW17737   2.436   2.007   9.490 -0.2866 -0.3356  0.0077
 2034SOL    HW117738   2.446   1.997   9.395 -0.2480 -0.5626  0.0348
 2034SOL    HW217739   2.434   2.102   9.500 -1.4686 -0.3191 -0.3253
 2035SOL     OW17740   4.137   2.318   6.915 -0.1463 -0.2980 -0.1656
 2035SOL    HW117741   4.179   2.369   6.984  1.9750 -2.4889  0.1675
 2035SOL    HW217742   4.215   2.310   6.861 -0.3551 -2.2036 -0.2071
 2036SOL     OW17743   3.610   0.071   2.674 -0.0730 -0.0496  0.1896
 2036SOL    HW117744   3.703   0.068   2.698  0.8352 -0.0780 -3.4147
 2036SOL    HW217745   3.590   0.165   2.679  0.5430  0.0492  0.8859
 2037SOL     OW17746   1.425   0.199   6.440 -0.1539  0.0645  0.4231
 2037SOL    HW117747   1.430   0.107   6.414  1.3439  0.4512 -0.6202
 2037SOL    HW217748   1.335   0.205   6.473 -0.6748 -2.2891 -0.5971
 2038SOL     OW17749   3.274   0.039   0.112  0.3484  0.7498 -0.7551
 2038SOL    HW117750   3.228   0.123   0.119  0.5473  0.7122  0.9132
 2038SOL    HW217751   3.203   4.721   0.079  1.5908 -0.7447 -0.9407
 2039SOL     OW17752   1.521   4.594   8.252  0.0429  0.2270 -0.2794
 2039SOL    HW117753   1.437   4.549   8.242  0.2587 -0.4023  0.7154
 2039SOL    HW217754   1.502   4.649   8.328 -0.6176  0.7005 -0.7863
 2040SOL     OW17755   1.190   2.198   9.286  0.3375  0.1750 -0.4930
 2040SOL    HW117756   1.206   2.224   9.195 -0.0709 -0.8639 -0.8640
 2040SOL    HW217757   1.241   2.269   9.325 -0.0512 -0.3495  0.9823
 2041SOL     OW17758   1.875   1.612   3.024  0.1407 -0.3136 -0.6036
 2041SOL    HW117759   1.947   1.573   3.073 -1.4625 -1.1360  1.1037
 2041SOL    HW217760   1.919   1.633   2.942  0.0898  2.0850 -0.0010
 2042SOL     OW17761   2.581   4.690   6.377 -0.3828  0.2707 -0.4616
 2042SOL    HW117762   2.525   0.001   6.316  0.5363 -0.9843 -2.3209
 2042SOL    HW217763   2.614   0.024   6.431 -1.3729 -1.2152  2.1079
 2043SOL     OW17764   3.430   4.005   6.024 -0.2944  0.0290  0.4839
 2043SOL    HW117765   3.395   4.047   5.946 -1.4150 -1.5494  0.1315
 2043SOL    HW217766   3.496   4.071   6.046 -0.2958 -0.0473  0.7291
 2044SOL     OW17767   0.209   1.406   7.585  0.1193  0.2689  0.1262
 2044SOL    HW117768   0.204   1.499   7.566 -0.2462 -0.3181 -2.6923
 2044SOL    HW217769   0.167   1.373   7.506 -1.2309 -0.0210  0.9689
 2045SOL     OW17770   2.361   3.795   7.719  0.4471 -0.4750  0.1730
 2045SOL    HW117771   2.365   3.890   7.719  1.4746 -0.5220 -0.1070
 2045SOL    HW217772   2.390   3.775   7.630  1.2635  0.5886  0.2108
 2046SOL     OW17773   4.440   1.957  16.431  0.3206 -0.2054  0.1543
 2046SOL    HW117774   4.368   1.917  16.381 -1.1694  3.0375 -0.2961
 2046SOL    HW217775   4.505   1.966  16.361  1.6647 -1.2909  1.2787
 2047SOL     OW17776   3.146   0.125   1.956  0.3237 -0.2732 -0.1123
 2047SOL    HW117777   3.073   0.071   1.926 -0.6888  1.5211 -0.9075
 2047SOL    HW217778   3.121   0.206   1.910  1.2274 -0.9806 -1.8746
 2048SOL     OW17779   3.773   4.457  16.041 -0.0558  0.0446  0.2843
 2048SOL    HW117780   3.718   4.379  16.041 -0.2859  0.2086  0.9693
 2048SOL    HW217781   3.860   4.419  16.040  0.5395  1.4184 -0.2610
 2049SOL     OW17782   2.963   3.793   8.718  0.4027 -0.1443  0.0689
 2049SOL    HW117783   2.918   3.716   8.683 -0.4494  0.0859  0.6437
 2049SOL    HW217784   2.939   3.850   8.646 -1.8990 -2.3736 -0.9360
 2050SOL     OW17785   2.963   2.591   3.089  0.2167  0.3320  0.0070
 2050SOL    HW117786   2.972   2.557   3.178 -1.0778 -0.0625 -0.0108
 2050SOL    HW217787   3.055   2.611   3.071  0.5575 -0.0222  1.3226
 2051SOL     OW17788   4.488   3.113   8.118 -0.2864 -0.1697  0.0671
 2051SOL    HW117789   4.523   3.195   8.084  1.5608 -1.2150 -0.5239
 2051SOL    HW217790   4.545   3.101   8.194 -0.3986  2.3704  0.5558
 2052SOL     OW17791   3.717   2.986   6.033 -0.4988  0.2740  0.1321
 2052SOL    HW117792   3.680   3.064   6.075  0.2145  0.5687  0.2221
 2052SOL    HW217793   3.673   2.924   6.092 -0.8300 -0.8674 -1.3220
 2053SOL     OW17794   3.839   1.344  13.654  0.6009 -0.1089  0.1050
 2053SOL    HW117795   3.914   1.285  13.647  1.2437  0.9397 -1.9154
 2053SOL    HW217796   3.822   1.384  13.568 -2.2419  0.9331  1.1651
 2054SOL     OW17797   0.623   0.060   2.424  0.1025  0.2086  0.3027
 2054SOL    HW117798   0.625   0.097   2.336  0.0113  0.7291  0.5206
 2054SOL    HW217799   0.714   0.075   2.449 -0.2762  1.0967  1.1414
 2055SOL     OW17800   4.063   2.097  13.738 -0.0745  0.3959  0.8259
 2055SOL    HW117801   4.045   2.155  13.812  0.4678  0.3875  0.9637
 2055SOL    HW217802   4.155   2.109  13.718  0.0726 -2.5187 -0.2196
 2056SOL     OW17803   0.600   1.640   7.412 -0.1128 -0.0650  0.0585
 2056SOL    HW117804   0.576   1.559   7.457  0.7919 -2.5274 -3.9087
 2056SOL    HW217805   0.576   1.619   7.322 -3.6691  0.9278  0.7787
 2057SOL     OW17806   0.922   1.081   5.457 -0.0941 -0.4043  0.6314
 2057SOL    HW117807   0.931   1.040   5.370 -0.5068 -1.4607  1.0821
 2057SOL    HW217808   0.886   1.008   5.508  0.4824 -0.4568  0.9657
 2058SOL     OW17809   0.804   1.878   2.203 -0.0821  0.4569 -0.6368
 2058SOL    HW117810   0.722   1.830   2.212  0.1278  0.0664 -0.8142
 2058SOL    HW217811   0.772   1.966   2.226 -0.4274 -1.0554  4.7007
 2059SOL     OW17812   4.055   0.619  17.488 -0.3622 -1.0635 -0.1370
 2059SOL    HW117813   4.054   0.656  17.577  1.4541  0.9308 -0.9551
 2059SOL    HW217814   4.002   0.540  17.500  2.5154 -2.7335  1.6027
 2060SOL     OW17815   2.732   0.574   3.398 -1.0636 -0.3617 -0.0247
 2060SOL    HW117816   2.662   0.614   3.347 -0.3268  0.4139 -0.4226
 2060SOL    HW217817   2.810   0.586   3.344  0.2388 -0.5551  1.8119
 2061SOL     OW17818   2.601   3.998   6.233  0.1089 -0.3711  0.3583
 2061SOL    HW117819   2.633   3.912   6.259 -3.0726 -0.7455  3.1092
 2061SOL    HW217820   2.682   4.049   6.232  0.2217 -0.5295  1.1092
 2062SOL     OW17821   4.154   2.902   4.755 -0.5014 -0.0849  0.2569
 2062SOL    HW117822   4.170   2.847   4.679  1.6826  0.5394  0.2665
 2062SOL    HW217823   4.060   2.885   4.761 -0.1628 -2.2512 -0.6986
 2063SOL     OW17824   3.948   3.647   9.379 -0.1977  0.2439 -0.2124
 2063SOL    HW117825   3.934   3.692   9.462 -1.3461 -0.2313 -0.1518
 2063SOL    HW217826   3.881   3.692   9.327 -1.1222  0.3230  1.0475
 2064SOL     OW17827   0.797   1.254   4.753 -0.2948  0.2625 -0.2202
 2064SOL    HW117828   0.708   1.223   4.769 -0.3235 -0.3144 -1.4896
 2064SOL    HW217829   0.787   1.288   4.664  1.3515  0.9124 -0.1620
 2065SOL     OW17830   2.935   4.380   6.911 -0.3303  0.4395 -0.1177
 2065SOL    HW117831   2.991   4.437   6.963 -0.8695  0.1137  0.8100
 2065SOL    HW217832   2.889   4.329   6.977  0.6768 -0.7257 -0.3183
 2066SOL     OW17833   2.823   2.719   4.954 -0.1017  0.0241  0.6361
 2066SOL    HW117834   2.734   2.709   4.919  0.3502  0.7490 -0.7385
 2066SOL    HW217835   2.867   2.644   4.915  1.3256  1.2088 -0.0111
 2067SOL     OW17836   4.562   4.286   5.588  0.1268  0.3594  0.4084
 2067SOL    HW117837   4.633   4.334   5.630  1.5197 -0.7945 -0.6400
 2067SOL    HW217838   4.518   4.250   5.665 -0.7610  0.9871  0.1921
 2068SOL     OW17839   0.931   1.607   4.630 -0.0196  0.1184 -0.1080
 2068SOL    HW117840   0.843   1.645   4.632 -0.4107 -0.9059  2.2883
 2068SOL    HW217841   0.966   1.620   4.542 -1.9342 -0.7400 -0.9907
 2069SOL     OW17842   2.474   3.171   8.708 -0.3111  0.3836 -0.3122
 2069SOL    HW117843   2.466   3.080   8.681 -2.4798  0.2862  0.6421
 2069SOL    HW217844   2.529   3.164   8.786 -1.1612 -1.0128  0.1486
 2070SOL     OW17845   1.492   2.435   3.325  0.3721 -0.1428  0.3285
 2070SOL    HW117846   1.559   2.449   3.258  0.2504  0.7142  0.3826
 2070SOL    HW217847   1.498   2.515   3.378  0.5990  0.4184 -0.5456
 2071SOL     OW17848   3.982   3.119   2.898 -0.1106 -0.1411 -0.6256
 2071SOL    HW117849   4.017   3.195   2.852 -0.4384  0.8125  0.6994
 2071SOL    HW217850   3.945   3.154   2.979  0.8786  0.8446 -0.6060
 2072SOL     OW17851   2.700   3.898   2.421  0.2420  0.1953  0.4676
 2072SOL    HW117852   2.615   3.871   2.389  0.4843  0.9069 -0.7813
 2072SOL    HW217853   2.731   3.831   2.482  3.0859  0.8312 -0.2572
 2073SOL     OW17854   3.985   2.885   9.419 -0.3099  0.1395  0.1631
 2073SOL    HW117855   3.951   2.958   9.472 -3.3200 -0.7767 -0.4800
 2073SOL    HW217856   4.004   2.925   9.335  2.3675 -2.5115 -0.4638
 2074SOL     OW17857   0.942   0.734   2.018  0.1349 -0.6951 -0.1902
 2074SOL    HW117858   1.009   0.730   2.086 -0.4115  1.6618  0.4893
 2074SOL    HW217859   0.866   0.703   2.067  0.3122  1.3035  1.3556
 2075SOL     OW17860   4.263   4.465   0.459 -0.0491 -0.6334  0.4754
 2075SOL    HW117861   4.197   4.529   0.433 -1.3237 -2.2659 -0.3474
 2075SOL    HW217862   4.259   4.401   0.387  0.0676 -0.1016 -0.0043
 2076SOL     OW17863   1.164   1.242   7.276  0.4870 -0.1786  0.4335
 2076SOL    HW117864   1.203   1.305   7.337  1.9791 -0.0276 -0.6774
 2076SOL    HW217865   1.238   1.180   7.274  0.1795 -0.5115 -1.0051
 2077SOL     OW17866   0.267   2.146  16.969 -0.0722 -0.5239 -0.4880
 2077SOL    HW117867   0.342   2.190  17.009 -0.7626 -0.0455  0.2821
 2077SOL    HW217868   0.219   2.115  17.046 -0.9199 -0.8121 -1.1242
 2078SOL     OW17869   3.215   3.101   3.956 -0.4727 -0.2022  0.4992
 2078SOL    HW117870   3.161   3.023   3.942 -0.6383 -0.1553  0.8769
 2078SOL    HW217871   3.222   3.127   3.865 -1.2750  0.6872  0.6848
 2079SOL     OW17872   2.173   3.895   4.187 -0.4024  0.1537 -0.2392
 2079SOL    HW117873   2.091   3.848   4.202 -0.6989  0.7652  0.0399
 2079SOL    HW217874   2.202   3.834   4.119 -0.7809 -0.0351 -0.2321
 2080SOL     OW17875   0.518   1.254   8.302 -0.2017  0.1441  0.1281
 2080SOL    HW117876   0.563   1.258   8.218 -0.3435  1.1072  0.0907
 2080SOL    HW217877   0.460   1.328   8.284  0.3875  0.6071  0.0889
 2081SOL     OW17878   4.018   1.395   3.070 -0.3553 -0.3577  0.2783
 2081SOL    HW117879   4.085   1.327   3.071  0.7423  0.7299  3.0270
 2081SOL    HW217880   4.055   1.456   3.006 -1.5602 -1.1491 -1.1520
 2082SOL     OW17881   1.410   1.639  13.105  0.3397 -0.3844 -0.4903
 2082SOL    HW117882   1.317   1.623  13.089  0.4638 -1.2922 -0.2755
 2082SOL    HW217883   1.457   1.557  13.088 -2.9353 -2.0714 -1.3640
 2083SOL     OW17884   0.224   2.239  12.910  0.6641  0.4543 -0.5491
 2083SOL    HW117885   0.281   2.220  12.984  0.3996  1.2717 -0.1379
 2083SOL    HW217886   0.139   2.208  12.940  1.1977  0.3281  0.8219
 2084SOL     OW17887   3.058   3.014   6.845  0.0038 -1.0628 -0.1916
 2084SOL    HW117888   3.048   2.964   6.764 -1.3601  0.1210 -0.7638
 2084SOL    HW217889   3.009   2.968   6.913 -1.0657 -1.3035 -1.1307
 2085SOL     OW17890   3.807   0.726   1.660  0.1705  0.1782  0.5334
 2085SOL    HW117891   3.803   0.775   1.743 -1.5235  0.1464  0.4686
 2085SOL    HW217892   3.789   0.639   1.696  0.1102  1.0190  2.5876
 2086SOL     OW17893   4.444   2.668   4.918 -0.6570 -0.2167  0.5554
 2086SOL    HW117894   4.422   2.598   4.856 -0.5737 -0.7269  1.1110
 2086SOL    HW217895   4.458   2.617   4.998 -0.2936  1.4577  1.5525
 2087SOL     OW17896   1.226   0.703   0.474  0.6260 -0.1282 -0.1050
 2087SOL    HW117897   1.317   0.691   0.449  0.1194  0.0305 -2.0145
 2087SOL    HW217898   1.248   0.781   0.525  0.5689  0.5861 -1.1716
 2088SOL     OW17899   4.407   3.826  16.716 -0.0852  0.0534  0.5990
 2088SOL    HW117900   4.324   3.856  16.752  0.6205  1.3497  1.1161
 2088SOL    HW217901   4.410   3.870  16.631  1.2112  0.9515  1.1017
 2089SOL     OW17902   3.056   0.194  13.039 -0.3715  0.1569 -0.3652
 2089SOL    HW117903   2.988   0.250  13.077 -1.0374 -2.5264  2.3808
 2089SOL    HW217904   3.006   0.113  13.033  0.2526 -0.1492 -1.3694
 2090SOL     OW17905   0.278   1.333   9.260 -0.1490 -0.1831  1.0461
 2090SOL    HW117906   0.288   1.240   9.276 -1.7409 -0.5653 -0.1242
 2090SOL    HW217907   0.323   1.347   9.177  1.8400 -1.4939  1.9206
 2091SOL     OW17908   2.193   4.510   7.012 -0.3290  0.1676  0.5294
 2091SOL    HW117909   2.160   4.452   7.080  1.9961 -3.3923 -1.3272
 2091SOL    HW217910   2.281   4.526   7.047  0.0922  0.4330 -0.6381
 2092SOL     OW17911   0.581   4.040   4.058 -0.2981 -0.2154  0.3401
 2092SOL    HW117912   0.612   4.017   3.970 -2.8515  1.8005 -1.0914
 2092SOL    HW217913   0.545   3.958   4.091  0.5065 -0.6115  0.2188
 2093SOL     OW17914   3.745   3.363  13.910 -0.1186 -0.0255  0.4632
 2093SOL    HW117915   3.800   3.429  13.952 -2.4474  1.8998  0.4649
 2093SOL    HW217916   3.754   3.298  13.979  0.0741  0.3768  0.8198
 2094SOL     OW17917   0.020   2.421  10.683 -0.3741  0.1220  0.3439
 2094SOL    HW117918   4.709   2.344  10.712 -1.8661  0.6949 -0.6156
 2094SOL    HW217919   4.694   2.490  10.705 -0.7696  0.1587 -0.9230
 2095SOL     OW17920   2.747   3.233   4.010  0.0715 -0.0796  0.1048
 2095SOL    HW117921   2.687   3.282   4.067 -0.2221  0.6426 -0.8307
 2095SOL    HW217922   2.832   3.248   4.053 -1.4238 -0.8148  3.3330
 2096SOL     OW17923   4.182   3.527   8.768 -0.2186 -0.8151  0.7190
 2096SOL    HW117924   4.264   3.502   8.726 -1.7306 -2.4823 -1.2288
 2096SOL    HW217925   4.203   3.558   8.856  0.2623  0.1327  0.2766
 2097SOL     OW17926   3.110   0.490   2.614  0.2704  0.4367  0.1533
 2097SOL    HW117927   3.168   0.439   2.557  0.9652  0.7106  0.6222
 2097SOL    HW217928   3.050   0.531   2.552 -1.3217 -1.6139  0.3512
 2098SOL     OW17929   1.948   0.298   5.240  0.4467  0.4237 -0.1294
 2098SOL    HW117930   1.990   0.241   5.176  0.3396  2.5572 -2.0834
 2098SOL    HW217931   1.991   0.380   5.215 -1.2870  1.0655 -1.0287
 2099SOL     OW17932   2.113   2.716   4.027 -0.4240 -0.7338 -0.6779
 2099SOL    HW117933   2.018   2.732   4.028 -0.2694  0.1661  0.8707
 2099SOL    HW217934   2.148   2.785   4.083  1.1979 -0.7039 -1.7336
 2100SOL     OW17935   0.209   3.054   6.006  0.1783 -0.0612  0.0522
 2100SOL    HW117936   0.225   3.117   5.935  1.3319 -0.8825 -0.4102
 2100SOL    HW217937   0.117   3.035   5.990 -0.3313  1.1642  1.5392
 2101SOL     OW17938   2.016   2.392   3.451 -0.4809  0.7133  0.2743
 2101SOL    HW117939   2.025   2.379   3.357  0.0217 -2.4014  0.7578
 2101SOL    HW217940   2.085   2.331   3.477  0.4359  2.3899  1.7381
 2102SOL     OW17941   2.850   2.506   6.745  0.3627  0.1289 -0.5418
 2102SOL    HW117942   2.765   2.519   6.704  1.0943  0.9530 -1.7834
 2102SOL    HW217943   2.854   2.410   6.748 -1.4822  0.1267  2.7238
 2103SOL     OW17944   4.258   1.576  13.343  0.3040  0.2454 -0.8989
 2103SOL    HW117945   4.245   1.667  13.315  0.9289  0.1033 -1.6299
 2103SOL    HW217946   4.204   1.530  13.278  1.1568 -0.7950 -0.8650
 2104SOL     OW17947   2.390   0.540   7.067 -0.3664  0.2852 -0.0575
 2104SOL    HW117948   2.344   0.514   7.147  1.2522 -1.1729  0.3958
 2104SOL    HW217949   2.438   0.458   7.052  0.9293  1.2883 -1.3989
 2105SOL     OW17950   3.187   3.525  16.186  0.0997  0.7471 -0.1728
 2105SOL    HW117951   3.162   3.496  16.098 -2.3158  0.2907  0.6781
 2105SOL    HW217952   3.161   3.441  16.224 -3.2623  2.2034  0.7397
 2106SOL     OW17953   2.588   3.616   9.104  0.8172  0.0265  0.4041
 2106SOL    HW117954   2.544   3.607   9.189 -1.3058  1.3297 -0.5891
 2106SOL    HW217955   2.560   3.702   9.074  1.6164  0.0021 -0.4088
 2107SOL     OW17956   4.680   4.317  10.443 -0.0151 -0.5961  0.2719
 2107SOL    HW117957   4.619   4.288  10.375 -1.9393  0.8292  1.3570
 2107SOL    HW217958   4.649   4.253  10.507 -1.6374 -1.1549 -1.0583
 2108SOL     OW17959   0.190   2.579  16.386  0.3612 -0.5357 -0.2553
 2108SOL    HW117960   0.188   2.671  16.362  0.9548 -0.4333  0.1042
 2108SOL    HW217961   0.231   2.591  16.471  1.0696 -5.2353  0.0861
 2109SOL     OW17962   2.142   4.521   5.533  0.6573 -0.0985  0.2907
 2109SOL    HW117963   2.184   4.489   5.613 -0.9462  1.6754  1.8153
 2109SOL    HW217964   2.224   4.536   5.485  0.8381 -0.5368  0.4608
 2110SOL     OW17965   0.932   2.948   0.698  0.1559  0.1100 -0.4625
 2110SOL    HW117966   1.011   2.953   0.644  0.3756  2.1592  0.0571
 2110SOL    HW217967   0.892   2.879   0.645 -0.1863  1.3284 -1.8023
 2111SOL     OW17968   4.478   3.122  13.439  0.1653  0.2329  0.0243
 2111SOL    HW117969   4.553   3.178  13.420  0.1147  0.2962  0.0094
 2111SOL    HW217970   4.423   3.184  13.487 -0.3548  1.0456 -1.6334
 2112SOL     OW17971   3.022   4.491   7.161  0.8280 -0.8854  0.0405
 2112SOL    HW117972   2.958   4.428   7.194  0.4359 -1.4558 -1.7946
 2112SOL    HW217973   3.092   4.471   7.222  0.2557 -3.6340 -0.2315
 2113SOL     OW17974   3.655   2.757   7.813 -0.5536  0.6784  0.1183
 2113SOL    HW117975   3.576   2.757   7.866 -0.9906 -0.4341 -0.5286
 2113SOL    HW217976   3.672   2.847   7.784 -1.2658  1.0056  0.7184
 2114SOL     OW17977   0.674   0.541   9.146  0.2012  0.2370  0.0069
 2114SOL    HW117978   0.685   0.486   9.068 -4.5515 -1.1043  0.2782
 2114SOL    HW217979   0.747   0.599   9.127 -1.6032  1.5564 -2.7813
 2115SOL     OW17980   1.296   0.690   7.348  0.4391 -0.1225  0.6905
 2115SOL    HW117981   1.328   0.627   7.284 -1.2028  1.2061 -1.4341
 2115SOL    HW217982   1.267   0.625   7.412  1.6505 -1.7098 -0.3730
 2116SOL     OW17983   0.879   0.615   4.312 -0.0327 -0.4063 -0.0605
 2116SOL    HW117984   0.968   0.645   4.290 -0.0982 -1.1106 -1.3005
 2116SOL    HW217985   0.867   0.522   4.291  2.9942 -0.6375 -0.8207
 2117SOL     OW17986   1.381   4.233   7.653  0.5680  0.4580  0.1937
 2117SOL    HW117987   1.328   4.270   7.583  2.2577  2.0171 -0.2836
 2117SOL    HW217988   1.381   4.143   7.621 -1.9714  0.4606  0.1886
 2118SOL     OW17989   2.016   2.967  15.185 -0.0407  0.6056 -0.1297
 2118SOL    HW117990   2.052   2.894  15.134  0.6109  0.7548  0.1126
 2118SOL    HW217991   2.094   3.022  15.190  0.9970 -0.9257  0.6021
 2119SOL     OW17992   1.141   4.082   4.736  0.2169  0.0295  0.4951
 2119SOL    HW117993   1.153   4.031   4.656 -0.1482 -1.4248  1.3625
 2119SOL    HW217994   1.165   4.024   4.809  2.2334  0.2792  0.0377
 2120SOL     OW17995   0.625   2.290   3.619 -0.3260  0.3889  0.2106
 2120SOL    HW117996   0.660   2.354   3.681  1.0657  0.8959 -1.1034
 2120SOL    HW217997   0.651   2.333   3.538 -1.2162  0.7066  0.0969
 2121SOL     OW17998   1.054   1.194   8.838  0.0963  0.2871  0.3174
 2121SOL    HW117999   1.144   1.186   8.807 -0.0986 -1.7691  0.3451
 2121SOL    HW218000   0.998   1.140   8.783  1.2079  0.0576 -0.5781
 2122SOL     OW18001   3.091   2.465  15.947 -0.1730  0.2722  0.7793
 2122SOL    HW118002   3.164   2.464  16.009  0.7833 -0.6511 -0.3416
 2122SOL    HW218003   3.121   2.524  15.878 -1.8818  1.3537  0.9773
 2123SOL     OW18004   1.843   4.540   6.598 -0.0391 -0.4983  0.0417
 2123SOL    HW118005   1.776   4.605   6.618 -0.3315 -0.4784 -0.9712
 2123SOL    HW218006   1.907   4.567   6.664  0.7263 -2.0675 -0.0594
 2124SOL     OW18007   3.899   0.830  14.944  0.1716 -0.3239 -0.5968
 2124SOL    HW118008   3.993   0.814  14.958 -0.2105 -1.0974  1.0196
 2124SOL    HW218009   3.894   0.925  14.956 -1.1654 -0.5276  0.3689
 2125SOL     OW18010   3.206   3.165   4.809 -0.2840  0.1125 -1.0134
 2125SOL    HW118011   3.205   3.124   4.896 -1.1329  2.2849  0.0019
 2125SOL    HW218012   3.114   3.153   4.789 -0.8136  2.8071 -0.1471
 2126SOL     OW18013   0.742   4.011   6.863  0.0575  0.5015 -0.1826
 2126SOL    HW118014   0.780   3.925   6.847 -1.2476 -0.4572  1.9592
 2126SOL    HW218015   0.793   4.066   6.804  0.7753  1.1077  1.0094
 2127SOL     OW18016   2.338   0.437   5.136  0.4157  0.4824  0.5743
 2127SOL    HW118017   2.304   0.389   5.212 -1.0238 -0.2405 -0.5275
 2127SOL    HW218018   2.274   0.398   5.077  0.8919  1.1402 -0.3628
 2128SOL     OW18019   0.934   3.470  16.136  0.2214  0.0275  0.4854
 2128SOL    HW118020   0.870   3.541  16.140  0.4868  0.2687  0.4311
 2128SOL    HW218021   0.964   3.460  16.226 -1.7688  0.0861  1.1335
 2129SOL     OW18022   0.286   3.007   2.925 -0.4965 -0.0574 -0.0902
 2129SOL    HW118023   0.301   3.102   2.920  1.1504 -0.3509 -0.5347
 2129SOL    HW218024   0.209   3.013   2.982 -0.8719  1.0254 -0.7064
 2130SOL     OW18025   0.189   3.964   2.299 -0.5358  0.4429 -0.0078
 2130SOL    HW118026   0.099   3.938   2.283  0.1042 -1.8250  0.0981
 2130SOL    HW218027   0.167   4.050   2.335  3.2202  0.6348  1.8285
 2131SOL     OW18028   3.024   2.043  12.086 -0.4001 -0.2999 -0.2728
 2131SOL    HW118029   2.974   2.034  12.005  2.3525  1.7709 -2.2084
 2131SOL    HW218030   2.982   2.123  12.116 -0.2129  0.1151 -1.1201
 2132SOL     OW18031   1.903   1.801   2.721 -0.9907  0.6344  0.2773
 2132SOL    HW118032   1.971   1.752   2.767 -0.2201 -0.8141 -2.4122
 2132SOL    HW218033   1.901   1.883   2.770  0.0039  0.3760  0.7563
 2133SOL     OW18034   2.302   0.660   6.825 -0.5627  0.3413  0.0519
 2133SOL    HW118035   2.348   0.638   6.906 -2.0699  0.3974  0.9214
 2133SOL    HW218036   2.330   0.584   6.774  0.1291  1.0444 -0.6188
 2134SOL     OW18037   1.571   0.135   1.336 -0.0069 -0.3752  0.3468
 2134SOL    HW118038   1.489   0.099   1.370 -0.3881  0.0524 -0.1220
 2134SOL    HW218039   1.631   0.124   1.409  0.0374 -0.8046  0.2477
 2135SOL     OW18040   2.114   1.962  15.532 -0.5773 -0.6487 -0.1873
 2135SOL    HW118041   2.072   1.926  15.610  0.4520 -0.1057  0.6255
 2135SOL    HW218042   2.163   1.885  15.501  1.1051  0.9198 -1.4184
 2136SOL     OW18043   2.148   4.009   5.170 -0.3037 -0.3201 -0.1458
 2136SOL    HW118044   2.156   4.104   5.159  1.0069 -0.3075  0.8105
 2136SOL    HW218045   2.214   3.984   5.235  0.6537  1.7285 -0.3342
 2137SOL     OW18046   1.260   2.198   6.182  0.2801  0.0698 -0.3682
 2137SOL    HW118047   1.309   2.116   6.183 -2.1792 -1.4085 -1.2924
 2137SOL    HW218048   1.180   2.175   6.135 -0.7003  2.4944  0.0978
 2138SOL     OW18049   1.486   1.988   9.848 -0.2231  0.1475 -0.1635
 2138SOL    HW118050   1.450   2.060   9.795 -0.4674  0.4734  0.4458
 2138SOL    HW218051   1.500   2.034   9.931 -0.0310  1.3561 -0.8652
 2139SOL     OW18052   2.691   2.380   7.794  0.6145 -0.2713 -0.1137
 2139SOL    HW118053   2.748   2.363   7.720 -1.2442  0.2300 -1.6685
 2139SOL    HW218054   2.646   2.455   7.755  2.2435  0.3939 -0.7169
 2140SOL     OW18055   3.447   2.675   9.005  0.0837  0.2493  0.6367
 2140SOL    HW118056   3.394   2.679   9.085  1.0883  0.7242  1.2753
 2140SOL    HW218057   3.518   2.611   9.011 -0.1940 -0.3107 -2.3518
 2141SOL     OW18058   1.313   1.521   3.909 -0.0296 -0.3252 -0.2029
 2141SOL    HW118059   1.270   1.510   3.994  0.5695  0.7819  0.2405
 2141SOL    HW218060   1.239   1.484   3.860  1.5567 -1.2554 -1.9060
 2142SOL     OW18061   1.054   3.339   2.822  0.6452 -0.3009 -0.5647
 2142SOL    HW118062   1.045   3.312   2.731  1.5373 -2.8312  0.0876
 2142SOL    HW218063   0.981   3.400   2.838  1.4917  0.8092 -0.9428
 2143SOL     OW18064   0.047   4.457  16.814  0.2912 -0.7162  0.3743
 2143SOL    HW118065   0.046   4.363  16.836  1.5923 -0.7768  0.2031
 2143SOL    HW218066   0.057   4.449  16.719  2.0545  0.6725  0.4370
 2144SOL     OW18067   3.181   0.039  12.636 -0.0540 -0.3085  0.3119
 2144SOL    HW118068   3.245   0.017  12.568  0.3816 -0.4217  0.7585
 2144SOL    HW218069   3.122   0.092  12.582 -0.7891  1.6965  3.1189
 2145SOL     OW18070   0.891   2.700   5.350 -0.0301 -0.2527  0.1637
 2145SOL    HW118071   0.940   2.628   5.389 -1.1880 -1.1891 -0.0916
 2145SOL    HW218072   0.961   2.750   5.307 -0.4759 -0.5180 -0.8778
 2146SOL     OW18073   2.754   1.997   1.539 -0.1045 -0.1573  0.4884
 2146SOL    HW118074   2.686   1.965   1.480 -0.5424 -1.4324  1.6805
 2146SOL    HW218075   2.802   2.056   1.481  0.0889 -0.1241  0.6795
 2147SOL     OW18076   1.473   0.983   0.951  0.2244 -0.5394 -0.2875
 2147SOL    HW118077   1.420   1.056   0.921  0.3884 -0.4631 -0.3884
 2147SOL    HW218078   1.525   0.975   0.871  1.7649  0.0430  0.6549
 2148SOL     OW18079   1.562   1.442   2.854  0.2691 -0.1955  0.2815
 2148SOL    HW118080   1.479   1.465   2.813  2.0250  2.1518 -1.9305
 2148SOL    HW218081   1.609   1.516   2.816  0.9705 -0.2534  1.0209
 2149SOL     OW18082   3.791   0.621   7.297  0.1749 -0.0576  0.1059
 2149SOL    HW118083   3.740   0.569   7.359 -1.4446  0.4309 -0.8428
 2149SOL    HW218084   3.731   0.695   7.305  0.3522  0.1829 -0.7887
 2150SOL     OW18085   2.967   0.014   0.526  1.0828 -0.2475  0.9535
 2150SOL    HW118086   2.954   4.659   0.551 -1.2823 -0.5420 -1.4539
 2150SOL    HW218087   3.040   0.013   0.464 -0.0184 -0.7934 -0.3162
 2151SOL     OW18088   2.698   2.867   0.600  0.1004 -0.3483  0.0418
 2151SOL    HW118089   2.604   2.884   0.588  0.7376  2.6532 -0.7903
 2151SOL    HW218090   2.687   2.786   0.650 -1.0325  0.6055  1.3403
 2152SOL     OW18091   1.954   3.658   8.233 -0.2821  0.5280  0.1663
 2152SOL    HW118092   1.972   3.646   8.140  1.2768  1.1470  0.3763
 2152SOL    HW218093   1.860   3.648   8.218 -0.4559  1.0256  0.9257
 2153SOL     OW18094   0.934   3.978   2.256  0.2837 -0.2186  0.3479
 2153SOL    HW118095   0.937   4.033   2.334 -2.3447 -2.8157  2.3013
 2153SOL    HW218096   1.025   3.960   2.232 -0.4551 -1.4174 -1.6192
 2154SOL     OW18097   1.837   3.207  16.613 -0.4705  0.3626  0.4690
 2154SOL    HW118098   1.833   3.189  16.707  1.2130  0.0731  0.4860
 2154SOL    HW218099   1.850   3.116  16.588 -0.0106  0.4943  0.2238
 2155SOL     OW18100   2.549   0.439   2.075  0.2510  0.1624  0.2277
 2155SOL    HW118101   2.548   0.502   2.147 -0.5629  0.4758 -0.0570
 2155SOL    HW218102   2.502   0.369   2.120 -0.7438  0.2695 -0.6470
 2156SOL     OW18103   0.743   1.939   2.963 -0.5642  0.6100 -0.1158
 2156SOL    HW118104   0.789   2.007   3.012  2.9265 -3.1228  1.7306
 2156SOL    HW218105   0.651   1.950   2.987 -1.0419 -0.0680 -1.6469
 2157SOL     OW18106   3.935   2.796  10.801  0.1009 -0.1617  0.0648
 2157SOL    HW118107   3.939   2.829  10.891  0.1320  0.7789 -0.2878
 2157SOL    HW218108   4.027   2.808  10.777  0.2130 -0.5019  0.3230
 2158SOL     OW18109   2.623   2.638   5.348 -0.0234 -0.5707  0.1823
 2158SOL    HW118110   2.568   2.682   5.283  0.5031 -1.0941 -0.6193
 2158SOL    HW218111   2.673   2.575   5.296  1.3769 -0.6441  1.6085
 2159SOL     OW18112   3.451   0.518   6.207  0.4133  0.5603 -0.3081
 2159SOL    HW118113   3.435   0.510   6.113  0.9490 -0.0519 -0.3448
 2159SOL    HW218114   3.463   0.611   6.224 -1.8846  0.7097  0.6008
 2160SOL     OW18115   4.587   2.881   9.945  0.1174 -0.4075  0.0554
 2160SOL    HW118116   4.600   2.908   9.854 -0.0533 -1.2486 -0.2149
 2160SOL    HW218117   4.592   2.969   9.983 -1.2063  1.0894 -3.2054
 2161SOL     OW18118   3.062   4.388   8.461  0.1886 -0.4794  0.1386
 2161SOL    HW118119   3.098   4.465   8.417  2.3755 -1.1151  0.8703
 2161SOL    HW218120   3.113   4.316   8.424  1.2427  0.0316  0.6072
 2162SOL     OW18121   0.578   2.151   8.398  0.1334  0.9447  0.3248
 2162SOL    HW118122   0.529   2.210   8.456  0.0801 -0.7224  1.9788
 2162SOL    HW218123   0.581   2.198   8.314 -1.5091  1.3552  0.4955
 2163SOL     OW18124   4.256   0.562   1.452  0.7048  0.2458  0.0705
 2163SOL    HW118125   4.255   0.645   1.500  2.2560  0.0265  0.4624
 2163SOL    HW218126   4.192   0.504   1.494 -2.1574  0.1338 -4.4513
 2164SOL     OW18127   2.484   0.504  10.830 -0.0731  0.3638  0.2024
 2164SOL    HW118128   2.520   0.464  10.910  0.8257 -3.5123 -2.1945
 2164SOL    HW218129   2.569   0.529  10.793 -0.2649 -1.8420 -1.6783
 2165SOL     OW18130   3.958   1.824   4.545  0.3801  0.6118  0.3355
 2165SOL    HW118131   4.019   1.769   4.496  0.2963  1.1898 -0.4256
 2165SOL    HW218132   4.007   1.856   4.620 -0.2531  0.9573  0.6087
 2166SOL     OW18133   4.545   1.511  12.528  0.0031 -0.2719 -0.3847
 2166SOL    HW118134   4.501   1.579  12.478 -1.9067 -1.7457 -0.7008
 2166SOL    HW218135   4.495   1.432  12.511 -1.8340  0.9651 -0.7421
 2167SOL     OW18136   1.070   3.030   5.073  0.4992  0.2443  0.7543
 2167SOL    HW118137   1.090   3.090   5.145 -0.1706 -0.0383  1.1721
 2167SOL    HW218138   1.051   2.946   5.116  2.2059 -0.1072  0.8353
 2168SOL     OW18139   3.657   3.403   3.818 -0.9250  0.0429 -0.0908
 2168SOL    HW118140   3.589   3.403   3.886 -1.4929  2.6734 -0.6813
 2168SOL    HW218141   3.653   3.318   3.775  2.5542  0.0372 -0.4427
 2169SOL     OW18142   0.463   2.061   3.319 -0.2891  0.3020 -0.2854
 2169SOL    HW118143   0.426   2.150   3.323 -0.3734  0.1855  1.4390
 2169SOL    HW218144   0.517   2.048   3.397  0.1421  1.2197 -0.4268
 2170SOL     OW18145   3.933   4.219   6.387  0.1807 -0.5239  1.3443
 2170SOL    HW118146   3.947   4.236   6.293 -2.3938  0.1380  1.0683
 2170SOL    HW218147   3.952   4.125   6.387  2.0673 -0.1393 -1.0837
 2171SOL     OW18148   3.388   2.919   6.441  0.6956  0.4832 -0.1469
 2171SOL    HW118149   3.307   2.876   6.467  1.3213 -1.2741 -1.0645
 2171SOL    HW218150   3.430   2.916   6.527  1.4663 -0.2235 -0.5403
 2172SOL     OW18151   1.846   2.248   8.657 -0.1924  0.6575  0.5023
 2172SOL    HW118152   1.848   2.157   8.684  0.1280 -0.8461 -4.4545
 2172SOL    HW218153   1.783   2.239   8.585 -1.6511 -2.6882  2.2345
 2173SOL     OW18154   4.710   1.673  14.864 -0.5700  0.1646 -0.7346
 2173SOL    HW118155   0.061   1.656  14.897  0.1264 -1.1058 -3.1931
 2173SOL    HW218156   4.685   1.755  14.905  0.4633  0.6785 -1.1580
 2174SOL     OW18157   2.220   0.372   7.676  0.1427  0.2798 -0.0845
 2174SOL    HW118158   2.293   0.326   7.716  0.7103 -0.1172 -1.5834
 2174SOL    HW218159   2.188   0.300   7.622  0.7342  1.1346 -1.5796
 2175SOL     OW18160   3.517   2.868   3.124 -0.0523  0.0422  0.6067
 2175SOL    HW118161   3.526   2.773   3.121 -0.8290  0.1200 -3.9536
 2175SOL    HW218162   3.604   2.902   3.145  0.4172 -0.3763 -0.6535
 2176SOL     OW18163   3.020   3.076   0.529  0.9251  0.5135 -0.4515
 2176SOL    HW118164   3.007   3.093   0.622 -0.6909  2.6117 -1.0547
 2176SOL    HW218165   2.998   2.984   0.513  0.7012  0.0716  2.2875
 2177SOL     OW18166   1.557   3.768   3.089  0.2353 -0.0941  0.1370
 2177SOL    HW118167   1.637   3.821   3.096  0.7248 -0.6851 -1.0222
 2177SOL    HW218168   1.581   3.683   3.053 -3.7097 -1.3006  0.4223
 2178SOL     OW18169   3.791   2.419   4.369  0.0052  0.0000 -0.2485
 2178SOL    HW118170   3.773   2.470   4.289  0.0661 -0.0293 -0.2807
 2178SOL    HW218171   3.713   2.439   4.421 -0.7190 -0.3698 -1.1787
 2179SOL     OW18172   2.995   2.269  15.746 -0.6140  0.1151 -0.2976
 2179SOL    HW118173   3.014   2.317  15.827 -1.5884 -0.0626  0.0404
 2179SOL    HW218174   2.918   2.315  15.713 -0.0503  0.6573 -0.8733
 2180SOL     OW18175   3.447   2.374   5.400  0.1633  0.0045 -0.4046
 2180SOL    HW118176   3.475   2.284   5.419  0.2602  0.6832  2.6514
 2180SOL    HW218177   3.498   2.418   5.468  1.4452  0.6289 -1.7666
 2181SOL     OW18178   2.159   1.167  11.135 -0.6250  0.2736  0.3258
 2181SOL    HW118179   2.195   1.250  11.167 -0.8226  1.5044 -2.5934
 2181SOL    HW218180   2.222   1.104  11.168 -1.0526  0.0430  0.7055
 2182SOL     OW18181   4.113   0.156   5.695 -0.0446 -0.5957  0.0542
 2182SOL    HW118182   4.196   0.195   5.722  0.7426 -1.3733 -1.2507
 2182SOL    HW218183   4.136   0.121   5.609  0.1996 -0.8251  0.2133
 2183SOL     OW18184   2.317   0.274   6.626  0.0096  0.1254 -0.2067
 2183SOL    HW118185   2.342   0.311   6.710 -0.3366  0.3817 -0.2189
 2183SOL    HW218186   2.384   0.210   6.599  1.8035  1.7944  0.2738
 2184SOL     OW18187   0.948   3.447   9.732 -0.1240 -0.0108  0.0184
 2184SOL    HW118188   0.972   3.497   9.810 -0.0351  1.1347 -0.7348
 2184SOL    HW218189   0.854   3.459   9.723  0.0772  0.3121 -1.6697
 2185SOL     OW18190   2.780   3.549  11.268 -0.3213 -0.4761  0.5024
 2185SOL    HW118191   2.774   3.473  11.327  2.6240 -0.5691  0.6506
 2185SOL    HW218192   2.848   3.519  11.208 -0.4871  0.9217 -0.3752
 2186SOL     OW18193   2.962   0.501   1.252  0.4717 -0.5140 -0.0744
 2186SOL    HW118194   2.992   0.591   1.263 -1.2804 -0.0304  0.6829
 2186SOL    HW218195   2.875   0.499   1.291  1.1871  0.4846  1.5707
 2187SOL     OW18196   0.007   2.379   3.386 -0.4410  0.2461  0.1691
 2187SOL    HW118197   4.715   2.470   3.389 -1.4438 -0.0376 -0.8183
 2187SOL    HW218198   4.682   2.350   3.319 -1.0029  1.2261  0.2635
 2188SOL     OW18199   1.680   0.423   4.268  0.6521  0.0487 -0.7446
 2188SOL    HW118200   1.670   0.473   4.349  0.1784 -1.2320 -0.0213
 2188SOL    HW218201   1.681   0.497   4.207 -0.7054  0.7438  0.0672
 2189SOL     OW18202   3.305   3.280   7.846 -0.1804  0.0650 -0.2490
 2189SOL    HW118203   3.261   3.210   7.895  2.0733 -1.6408 -0.6524
 2189SOL    HW218204   3.371   3.235   7.794  0.1361  0.0137  0.1934
 2190SOL     OW18205   1.301   1.003   8.635  0.4765  0.6726  1.1967
 2190SOL    HW118206   1.259   0.923   8.666  1.1255 -1.1192 -2.5509
 2190SOL    HW218207   1.393   0.982   8.620 -0.8695 -3.1488 -1.5707
 2191SOL     OW18208   1.215   3.613   3.170 -0.3634  0.3223 -0.9323
 2191SOL    HW118209   1.235   3.619   3.077  1.3347 -1.7074 -0.7058
 2191SOL    HW218210   1.304   3.620   3.205  0.0281  1.2762 -2.1414
 2192SOL     OW18211   0.238   0.378   7.707  0.2771  0.5316  0.2205
 2192SOL    HW118212   0.208   0.468   7.696 -0.0055  0.3996 -0.0561
 2192SOL    HW218213   0.189   0.344   7.782 -1.9689 -1.5830 -2.2562
 2193SOL     OW18214   0.267   2.612   3.425 -0.1851  0.1910  0.4412
 2193SOL    HW118215   0.274   2.545   3.357 -1.4541  1.4056 -0.8979
 2193SOL    HW218216   0.248   2.565   3.507  0.4029  1.3620  1.2373
 2194SOL     OW18217   0.804   3.024   8.131 -0.2537  0.2140  0.1900
 2194SOL    HW118218   0.873   3.046   8.194 -1.0091  3.3665 -0.0870
 2194SOL    HW218219   0.841   3.027   8.043 -1.5971 -0.0644 -0.3877
 2195SOL     OW18220   2.232   0.451  15.250  0.2110 -0.1103 -0.5420
 2195SOL    HW118221   2.183   0.530  15.273  2.1526  0.5710  1.3540
 2195SOL    HW218222   2.195   0.393  15.317 -0.8645  0.1067 -0.9545
 2196SOL     OW18223   0.114   3.944   6.380  0.4457  0.1192  0.2030
 2196SOL    HW118224   0.044   3.987   6.330 -0.0557 -1.6498 -0.6032
 2196SOL    HW218225   0.127   3.868   6.323  1.5982  0.3274  0.1846
 2197SOL     OW18226   3.085   0.313  11.522  0.2057 -0.4799 -0.4039
 2197SOL    HW118227   3.024   0.322  11.449 -1.3695 -0.9663  0.8769
 2197SOL    HW218228   3.169   0.314  11.475  1.6410  1.3411  2.2148
 2198SOL     OW18229   2.346   3.592  15.820  0.3122  0.2149 -0.1110
 2198SOL    HW118230   2.320   3.684  15.821 -1.6386 -0.3554  0.2507
 2198SOL    HW218231   2.332   3.578  15.914  2.3250 -0.5195  0.0900
 2199SOL     OW18232   1.869   2.877   9.064 -0.1914 -0.4285  0.2763
 2199SOL    HW118233   1.790   2.928   9.045  0.8525  1.9400  2.2559
 2199SOL    HW218234   1.928   2.923   9.005 -1.3166  1.1077  0.3418
 2200SOL     OW18235   2.360   2.141   6.428 -0.3252 -0.4568  0.0076
 2200SOL    HW118236   2.292   2.078   6.452 -1.0875  0.7583  1.0451
 2200SOL    HW218237   2.323   2.197   6.360  1.3746  0.6585  0.0115
 2201SOL     OW18238   2.133   0.732   6.123 -0.3744  0.4212  0.5147
 2201SOL    HW118239   2.217   0.722   6.167  0.3676 -0.0525 -1.0000
 2201SOL    HW218240   2.073   0.765   6.190 -2.9305 -0.0287 -1.5427
 2202SOL     OW18241   1.798   3.666  17.633  0.7339  0.2245 -0.6617
 2202SOL    HW118242   1.800   3.731  17.703  0.1067 -0.1031 -0.3329
 2202SOL    HW218243   1.854   3.603  17.678  0.6967  1.7855  1.5590
 2203SOL     OW18244   0.806   1.156  15.579  0.3530 -0.3445  0.2382
 2203SOL    HW118245   0.762   1.145  15.664  1.6195  1.6279  1.1514
 2203SOL    HW218246   0.824   1.250  15.570 -1.1415 -0.2795 -2.0367
 2204SOL     OW18247   0.386   1.791   2.609 -0.6605 -0.0879 -0.1463
 2204SOL    HW118248   0.426   1.732   2.673  1.5173  1.7514  0.1770
 2204SOL    HW218249   0.460   1.800   2.549  1.4508  2.1270  2.8197
 2205SOL     OW18250   2.276   1.739   7.039  0.2768  0.1487 -0.2246
 2205SOL    HW118251   2.203   1.799   7.044  1.3365  1.4156 -0.0684
 2205SOL    HW218252   2.311   1.765   7.124  1.6907 -0.7262 -0.5360
 2206SOL     OW18253   1.592   0.799   5.766  0.1283  0.0172  0.2355
 2206SOL    HW118254   1.581   0.742   5.690 -0.5353  0.5282 -0.0510
 2206SOL    HW218255   1.665   0.740   5.784  0.0167 -0.0990  0.3076
 2207SOL     OW18256   4.539   3.163   9.822 -0.1015  0.1412 -0.0425
 2207SOL    HW118257   4.566   3.247   9.784  0.0501  0.9784  1.9320
 2207SOL    HW218258   4.591   3.175   9.901 -1.5234  0.7540  0.7983
 2208SOL     OW18259   1.937   0.171  12.932 -0.1169 -0.3588  0.3281
 2208SOL    HW118260   1.934   0.173  13.027  1.2025  0.4834  0.3546
 2208SOL    HW218261   1.985   0.249  12.905 -1.5595 -0.1027 -1.5343
 2209SOL     OW18262   3.197   0.593   3.166 -0.4185  0.0609  0.0599
 2209SOL    HW118263   3.126   0.530   3.151  1.0587 -0.6706 -3.8562
 2209SOL    HW218264   3.192   0.647   3.087 -1.8521 -0.4765 -0.2194
 2210SOL     OW18265   3.318   3.614   3.718  0.0338 -0.5620  0.5048
 2210SOL    HW118266   3.353   3.687   3.666 -0.6509 -2.5781 -2.7548
 2210SOL    HW218267   3.322   3.548   3.649 -1.8081  1.1441 -1.2496
 2211SOL     OW18268   4.397   1.750   9.821 -0.2565 -0.0414 -0.1165
 2211SOL    HW118269   4.434   1.742   9.732 -0.1119  0.0942 -0.0694
 2211SOL    HW218270   4.419   1.665   9.858 -1.2542 -0.6926 -1.0085
 2212SOL     OW18271   3.894   1.693   6.561 -0.3283 -0.0019 -0.6101
 2212SOL    HW118272   3.983   1.681   6.528  0.6865  0.3263  2.0374
 2212SOL    HW218273   3.857   1.746   6.490 -0.4157  1.8952  0.8470
 2213SOL     OW18274   4.664   4.720  12.646  0.0381  0.1743 -0.0929
 2213SOL    HW118275   4.599   0.051  12.626  0.5143  0.1895 -1.5338
 2213SOL    HW218276   4.728   0.043  12.683  1.9289 -0.8386 -1.7593
 2214SOL     OW18277   1.483   0.131   7.531 -0.1351  0.5095  0.1580
 2214SOL    HW118278   1.530   0.057   7.492 -0.5305  0.3159  0.0527
 2214SOL    HW218279   1.460   0.089   7.614  1.0318  1.8055  1.1357
 2215SOL     OW18280   1.746   4.467   2.051 -0.2212 -0.2944 -0.4527
 2215SOL    HW118281   1.742   4.391   2.110  1.8346  0.1237  0.2230
 2215SOL    HW218282   1.724   4.547   2.099  0.3839 -0.0831 -0.5267
 2216SOL     OW18283   0.746   3.193   2.240  0.4168 -0.2062  0.1080
 2216SOL    HW118284   0.672   3.248   2.266 -0.2039 -1.5147  1.1321
 2216SOL    HW218285   0.808   3.256   2.205 -0.4057 -0.3099 -1.5346
 2217SOL     OW18286   0.583   0.951   4.663  0.4652  0.2654 -0.0924
 2217SOL    HW118287   0.609   0.867   4.626  2.4075  0.4882  0.7883
 2217SOL    HW218288   0.490   0.929   4.652  0.2243  1.4635 -0.4885
 2218SOL     OW18289   0.076   3.364  10.239  0.3275 -0.3497  0.3218
 2218SOL    HW118290   0.026   3.445  10.239  0.0638 -0.5064 -0.5928
 2218SOL    HW218291   0.007   3.312  10.197  1.4689 -1.3033 -0.3743
 2219SOL     OW18292   2.643   1.504  10.044 -0.0214  0.0564 -0.2290
 2219SOL    HW118293   2.555   1.535  10.023  1.1887  2.4528 -1.6931
 2219SOL    HW218294   2.623   1.431  10.103  1.2337  1.4617  1.9126
 2220SOL     OW18295   2.622   2.585  15.215 -0.4885 -0.3856  0.2708
 2220SOL    HW118296   2.643   2.611  15.125  0.5873 -0.5468  0.4725
 2220SOL    HW218297   2.617   2.667  15.262 -3.7077  0.2509 -1.1950
 2221SOL     OW18298   2.192   1.002   5.049 -0.2888  0.0849 -0.0057
 2221SOL    HW118299   2.119   0.944   5.068  0.4419 -1.1339 -0.9466
 2221SOL    HW218300   2.200   0.988   4.954 -3.3591 -0.7954 -0.1641
 2222SOL     OW18301   1.598   4.116  16.455 -0.0253  0.0036  0.0129
 2222SOL    HW118302   1.657   4.177  16.410 -1.2681  0.7452 -0.5830
 2222SOL    HW218303   1.527   4.131  16.394 -0.3405 -0.3576  0.2952
 2223SOL     OW18304   2.970   2.966  12.657 -0.2922 -0.0251  1.2235
 2223SOL    HW118305   3.021   3.034  12.700  1.4311  0.2630 -1.2988
 2223SOL    HW218306   3.050   2.919  12.633 -2.4891 -3.9049  1.4835
 2224SOL     OW18307   0.348   2.412  15.565 -0.0866  0.3181 -0.6945
 2224SOL    HW118308   0.377   2.447  15.649  0.8029 -0.5544 -0.6359
 2224SOL    HW218309   0.373   2.320  15.572 -2.8991 -0.4418 -0.7909
 2225SOL     OW18310   1.370   1.848   6.896 -0.6528 -0.2302  0.3341
 2225SOL    HW118311   1.342   1.920   6.840 -1.3459  0.6684  1.8139
 2225SOL    HW218312   1.314   1.776   6.869 -1.8242  0.1599  1.7291
 2226SOL     OW18313   0.661   1.188   2.081 -0.0083 -0.1618 -0.0883
 2226SOL    HW118314   0.665   1.093   2.098 -2.1025 -0.2993 -0.4013
 2226SOL    HW218315   0.633   1.196   1.990  0.7944 -0.1597 -0.3330
 2227SOL     OW18316   2.896   4.319   5.656  0.6493 -0.0573  0.0293
 2227SOL    HW118317   2.900   4.230   5.691  1.0069  0.6348  1.7669
 2227SOL    HW218318   2.983   4.329   5.615  1.5335 -0.1495  1.8948
 2228SOL     OW18319   2.871   1.724   5.208 -0.4138 -0.0329 -0.0083
 2228SOL    HW118320   2.791   1.775   5.193  0.3724  0.5213 -2.4188
 2228SOL    HW218321   2.833   1.645   5.247 -1.3556 -0.0236 -0.9115
 2229SOL     OW18322   0.870   2.150   3.069  0.2318 -0.1871 -0.1862
 2229SOL    HW118323   0.830   2.235   3.091 -2.0930 -1.7524  1.6360
 2229SOL    HW218324   0.965   2.163   3.069  0.4255 -1.6938  0.3883
 2230SOL     OW18325   2.955   3.549   6.826  0.3659  0.8017 -0.2283
 2230SOL    HW118326   2.968   3.557   6.921  2.1484 -0.0400 -0.4139
 2230SOL    HW218327   2.991   3.465   6.801 -1.4360 -0.1189  0.2578
 2231SOL     OW18328   2.903   1.442   6.931 -0.7511 -0.3534  0.1739
 2231SOL    HW118329   2.853   1.391   6.995 -2.1245  0.6980 -0.0769
 2231SOL    HW218330   2.930   1.523   6.974 -0.4626 -1.1912  1.5811
 2232SOL     OW18331   1.085   2.844   9.039 -0.6357 -0.2233 -0.5581
 2232SOL    HW118332   0.997   2.828   9.073 -0.3277 -1.7396 -0.4880
 2232SOL    HW218333   1.130   2.760   9.047  0.4327  0.6235  2.0226
 2233SOL     OW18334   0.931   0.605  12.095  0.6207  0.0397  0.0023
 2233SOL    HW118335   0.950   0.617  12.002  1.6723  0.5363  0.2913
 2233SOL    HW218336   0.836   0.599  12.109  0.1647 -0.8631 -3.2462
 2234SOL     OW18337   2.119   1.337  16.744 -0.2377 -0.2587 -0.0296
 2234SOL    HW118338   2.125   1.243  16.759 -1.9146 -0.3977 -0.1940
 2234SOL    HW218339   2.131   1.330  16.649 -0.1382 -1.5488  0.0833
 2235SOL     OW18340   0.088   0.841   2.770  0.3983  0.0438  0.1493
 2235SOL    HW118341   0.064   0.859   2.861 -1.4267 -2.6776  0.2224
 2235SOL    HW218342   0.010   0.809   2.725 -0.2320  1.2751  0.3771
 2236SOL     OW18343   4.272   0.968  17.392 -0.0622 -0.0279  0.6858
 2236SOL    HW118344   4.195   1.000  17.344 -0.7414 -1.4798  0.8174
 2236SOL    HW218345   4.315   1.053  17.400 -1.5681  1.0894 -3.1912
 2237SOL     OW18346   0.901   1.483   4.866 -0.0995 -0.2573 -0.1373
 2237SOL    HW118347   0.862   1.406   4.825 -0.2321 -1.1643  1.7066
 2237SOL    HW218348   0.917   1.528   4.783 -0.0618  1.1670  0.6453
 2238SOL     OW18349   1.025   1.091   7.986  0.2675  0.2010  0.1404
 2238SOL    HW118350   0.976   1.020   8.028  0.3807 -0.0013 -0.0723
 2238SOL    HW218351   1.033   1.072   7.892  1.0456  1.0537  0.0375
 2239SOL     OW18352   1.851   0.019   1.425 -0.5543  0.4413  0.1334
 2239SOL    HW118353   1.931   0.001   1.474  0.1698 -1.3847 -1.6915
 2239SOL    HW218354   1.787   4.695   1.461  1.1707 -1.0865  0.6222
 2240SOL     OW18355   4.669   0.209   1.207  0.0982  0.0080 -0.4998
 2240SOL    HW118356   4.692   0.216   1.114  1.3267 -0.4854 -0.2246
 2240SOL    HW218357   4.586   0.161   1.200  2.0629 -3.3567 -0.9691
 2241SOL     OW18358   2.172   3.303   3.878 -0.4496 -1.0251 -0.1355
 2241SOL    HW118359   2.228   3.367   3.921  0.0079 -0.3911 -1.6508
 2241SOL    HW218360   2.134   3.267   3.958  1.3940  0.2330  1.2999
 2242SOL     OW18361   3.830   2.093   4.413  0.7899 -0.4490  0.0878
 2242SOL    HW118362   3.742   2.104   4.449  0.7517  1.5740 -0.5988
 2242SOL    HW218363   3.817   2.002   4.387  0.4684 -0.9877  2.1390
 2243SOL     OW18364   3.216   1.705  13.903  0.4112 -0.3518  0.0185
 2243SOL    HW118365   3.194   1.735  13.991 -4.3556  0.7743 -1.5414
 2243SOL    HW218366   3.239   1.614  13.919 -0.8045 -0.6528  0.1029
 2244SOL     OW18367   0.756   1.561  15.843  0.6262 -0.0940  0.3310
 2244SOL    HW118368   0.667   1.581  15.813  1.0234  0.1611 -0.6908
 2244SOL    HW218369   0.761   1.633  15.906  2.3556 -0.1831  0.2829
 2245SOL     OW18370   4.558   4.497   0.107  0.3168  0.5493 -1.0310
 2245SOL    HW118371   4.616   4.571   0.125  2.4676 -0.9570 -1.8212
 2245SOL    HW218372   4.616   4.421   0.107  1.2499  1.2681  0.8020
 2246SOL     OW18373   2.707   0.908   6.715 -0.3691  0.0759 -0.0527
 2246SOL    HW118374   2.650   0.941   6.784 -1.9721  1.8664 -2.2541
 2246SOL    HW218375   2.788   0.894   6.764  0.4430  1.3624 -1.0284
 2247SOL     OW18376   0.022   0.890  17.737  0.3087  0.6870  0.2307
 2247SOL    HW118377   0.069   0.889  17.653 -0.1460 -1.4783  0.0136
 2247SOL    HW218378   4.668   0.902  17.711 -0.3771 -2.2179  1.3795
 2248SOL     OW18379   1.751   1.721  12.874  0.2621  0.9036 -0.2110
 2248SOL    HW118380   1.819   1.787  12.882  0.1232  0.7277  2.3519
 2248SOL    HW218381   1.768   1.670  12.954  2.9826 -0.5761 -1.7559
 2249SOL     OW18382   3.633   4.661   1.516  0.4904 -0.4108 -0.3149
 2249SOL    HW118383   3.593   4.584   1.556 -1.2163  0.1441 -0.9528
 2249SOL    HW218384   3.608   4.644   1.425 -3.0691  1.4453  0.3240
 2250SOL     OW18385   4.012   2.895   4.317 -0.4763  0.3139  0.5407
 2250SOL    HW118386   3.997   2.986   4.291 -0.2669 -0.6461 -3.0301
 2250SOL    HW218387   3.923   2.864   4.333 -0.0291 -1.1210  0.3037
 2251SOL     OW18388   3.289   3.556   8.194  0.4553 -0.2973  0.1454
 2251SOL    HW118389   3.237   3.477   8.209 -2.5978  2.0527  1.9101
 2251SOL    HW218390   3.292   3.566   8.099 -3.1248  0.2502  0.1002
 2252SOL     OW18391   4.661   3.879   4.283  0.0275 -0.0025 -0.5234
 2252SOL    HW118392   4.624   3.911   4.365 -0.3651 -2.1867  0.1483
 2252SOL    HW218393   4.618   3.934   4.217 -0.1181  0.7119  0.1686
 2253SOL     OW18394   0.452   2.177   7.543 -0.1551 -0.5043 -1.0321
 2253SOL    HW118395   0.532   2.129   7.566 -0.2366 -0.3220 -0.3767
 2253SOL    HW218396   0.376   2.126   7.572  1.1382 -1.8409 -0.0087
 2254SOL     OW18397   4.358   2.423   8.702 -0.0130 -0.2929  0.5723
 2254SOL    HW118398   4.331   2.422   8.610 -1.7472 -2.0346  1.1106
 2254SOL    HW218399   4.380   2.331   8.714 -0.2735 -0.3887  0.3008
 2255SOL     OW18400   4.163   1.459   7.045 -0.1152 -0.1114  0.8104
 2255SOL    HW118401   4.068   1.462   7.032 -0.1886  0.9345  1.5552
 2255SOL    HW218402   4.189   1.551   7.054 -1.8575  0.5257 -0.6951
 2256SOL     OW18403   1.040   3.595   6.399  0.0138 -0.3560  0.6938
 2256SOL    HW118404   1.029   3.644   6.318 -1.6233 -2.1508 -0.1794
 2256SOL    HW218405   0.950   3.595   6.433 -0.0628  1.8257  0.4714
 2257SOL     OW18406   0.344   0.256  10.540 -0.2967 -0.0279  0.1598
 2257SOL    HW118407   0.327   0.329  10.599 -0.6053  0.5644 -0.6640
 2257SOL    HW218408   0.399   0.303  10.478 -0.5239 -0.0885 -0.0893
 2258SOL     OW18409   3.846   3.710   6.392  0.2038 -0.2982 -0.1493
 2258SOL    HW118410   3.933   3.733   6.424 -0.0534  2.1123 -1.2111
 2258SOL    HW218411   3.789   3.778   6.429 -0.1252  1.0278 -3.0676
 2259SOL     OW18412   1.450   2.763  11.274 -0.1082  0.0388 -0.3685
 2259SOL    HW118413   1.372   2.736  11.224  1.0879 -0.7837 -1.7969
 2259SOL    HW218414   1.516   2.745  11.206 -1.2401  1.5318 -1.8718
 2260SOL     OW18415   1.354   2.315   8.389 -0.1335  0.3156  0.7615
 2260SOL    HW118416   1.395   2.401   8.383  1.2455 -0.5113 -1.4993
 2260SOL    HW218417   1.397   2.266   8.319 -0.8050  1.2698 -0.3218
 2261SOL     OW18418   3.078   3.916   7.221  0.4204  0.3881  0.0600
 2261SOL    HW118419   2.994   3.900   7.177 -0.8836  2.3486  1.8457
 2261SOL    HW218420   3.059   3.974   7.294  0.0688 -0.6879  0.8245
 2262SOL     OW18421   1.656   3.545   3.020  0.4788 -0.5655  0.1995
 2262SOL    HW118422   1.618   3.459   3.039 -2.6733  0.6342 -0.6956
 2262SOL    HW218423   1.742   3.537   3.061  1.4847  0.2478 -1.7644
 2263SOL     OW18424   3.928   4.043   3.990  0.1963  0.8224  0.5278
 2263SOL    HW118425   3.996   4.103   4.022 -2.5509  3.9031  0.5794
 2263SOL    HW218426   3.873   4.040   4.068  1.0550 -0.6031  1.0862
 2264SOL     OW18427   1.018   2.547   0.314  0.2245 -0.2948 -0.2227
 2264SOL    HW118428   1.078   2.579   0.381 -1.3737  2.0708  0.0739
 2264SOL    HW218429   0.934   2.576   0.349 -0.0487 -1.3676  0.0225
 2265SOL     OW18430   2.934   2.750   7.740  0.1824  0.1437  0.2968
 2265SOL    HW118431   2.900   2.711   7.821  0.4859  1.3617  1.0055
 2265SOL    HW218432   2.993   2.814   7.778  1.5210 -0.3520 -0.9440
 2266SOL     OW18433   3.989   1.462  10.574  0.5432  0.0961  0.5021
 2266SOL    HW118434   3.966   1.379  10.615 -2.0944  1.4272  1.7335
 2266SOL    HW218435   3.997   1.430  10.484  0.5142  1.3347  0.0562
 2267SOL     OW18436   3.687   2.274  13.185 -0.7022 -0.0837 -0.1853
 2267SOL    HW118437   3.730   2.193  13.213 -1.1796 -0.5255 -0.7570
 2267SOL    HW218438   3.604   2.265  13.231 -0.7071  0.6665 -0.0445
 2268SOL     OW18439   2.290   4.615  13.527  0.4050 -0.0151  0.3175
 2268SOL    HW118440   2.278   4.607  13.432 -0.3361  0.3473  0.3827
 2268SOL    HW218441   2.385   4.623  13.539  0.5783  0.6042 -1.3554
 2269SOL     OW18442   0.500   0.819   9.105  0.9180  0.3207  0.1524
 2269SOL    HW118443   0.541   0.840   9.022  1.5196  1.3878  0.7302
 2269SOL    HW218444   0.517   0.726   9.120 -0.6691  0.2718  1.7315
 2270SOL     OW18445   4.519   0.325  15.503  0.3112  0.0427  0.1671
 2270SOL    HW118446   4.598   0.378  15.494  1.8489 -2.0290  1.3992
 2270SOL    HW218447   4.488   0.324  15.413 -1.6614 -0.0289  0.8395
 2271SOL     OW18448   2.291   2.182  16.478  0.4108  0.2217 -0.1418
 2271SOL    HW118449   2.300   2.242  16.552 -1.3136  2.8508 -2.0231
 2271SOL    HW218450   2.310   2.101  16.524  1.7051  1.4359  1.4257
 2272SOL     OW18451   1.995   1.964   2.400 -0.0965  0.0103  0.3737
 2272SOL    HW118452   1.963   1.976   2.310  1.2767 -0.5882 -0.1885
 2272SOL    HW218453   1.951   1.885   2.430  0.9123 -0.3443  0.8760
 2273SOL     OW18454   1.017   3.022   1.850 -0.4777  0.1572  0.5735
 2273SOL    HW118455   1.027   2.939   1.896 -0.2593  0.0654  0.3639
 2273SOL    HW218456   0.949   2.988   1.792 -1.1865  1.4051  0.6848
 2274SOL     OW18457   2.836   0.408   4.433 -0.0321 -0.0147 -0.4736
 2274SOL    HW118458   2.897   0.344   4.395 -2.1751 -2.3221 -0.0553
 2274SOL    HW218459   2.758   0.373   4.390 -0.4501 -0.9662  1.0466
 2275SOL     OW18460   3.385   2.385   7.812  0.1967  0.0656 -0.5538
 2275SOL    HW118461   3.314   2.394   7.877  1.0115 -1.6517  0.5908
 2275SOL    HW218462   3.461   2.374   7.870  0.6255 -1.7678 -1.4823
 2276SOL     OW18463   1.225   0.539   2.519  0.4548 -0.4265  0.1959
 2276SOL    HW118464   1.320   0.540   2.508  0.2723  3.0766 -0.9656
 2276SOL    HW218465   1.211   0.627   2.485 -2.0795 -1.5760 -1.6756
 2277SOL     OW18466   4.720   3.826   7.126  0.3360  0.5779 -0.9453
 2277SOL    HW118467   4.675   3.905   7.096  0.7493  1.2931  0.3160
 2277SOL    HW218468   4.650   3.761   7.132  1.1622 -0.1399  0.8318
 2278SOL     OW18469   1.810   0.100   2.997  0.2715  0.2926  0.1707
 2278SOL    HW118470   1.873   0.168   2.975 -0.3442  0.0206 -2.5347
 2278SOL    HW218471   1.767   0.087   2.912 -0.0260  0.1035  0.3484
 2279SOL     OW18472   4.227   0.686   7.239  0.4157  0.4601  0.0445
 2279SOL    HW118473   4.198   0.772   7.269  0.1710  1.2267 -2.3679
 2279SOL    HW218474   4.315   0.689   7.277  0.5757  2.1374 -0.4737
 2280SOL     OW18475   3.812   3.570   2.752 -0.0309 -0.3575 -0.5271
 2280SOL    HW118476   3.772   3.586   2.838 -1.6609 -1.0220 -1.1448
 2280SOL    HW218477   3.755   3.497   2.727  0.2801 -1.0144  0.7078
 2281SOL     OW18478   2.961   1.594   9.425 -0.2392 -0.3388  0.5366
 2281SOL    HW118479   3.051   1.613   9.453 -0.4802  1.4002  0.1212
 2281SOL    HW218480   2.908   1.632   9.495  0.4077 -1.5997  1.7147
 2282SOL     OW18481   1.897   3.725  11.376 -0.4807  0.4583 -0.4663
 2282SOL    HW118482   1.943   3.653  11.333  0.0219  1.4682 -1.6438
 2282SOL    HW218483   1.890   3.792  11.308 -1.4357  0.4331 -0.3840
 2283SOL     OW18484   2.632   3.033   1.675 -0.2210 -0.0014  0.7947
 2283SOL    HW118485   2.695   3.047   1.746  0.2788 -2.0350  0.7486
 2283SOL    HW218486   2.552   3.060   1.720 -0.7662 -0.3557  0.0459
 2284SOL     OW18487   2.790   2.327  16.177 -0.3625  0.1541  0.4377
 2284SOL    HW118488   2.714   2.386  16.171 -1.4344 -1.2111  0.6897
 2284SOL    HW218489   2.802   2.305  16.269 -0.0261  0.4647  0.4711
 2285SOL     OW18490   2.673   1.839   9.439 -0.3138 -0.5324 -0.4201
 2285SOL    HW118491   2.705   1.805   9.523 -0.2330 -0.3812 -0.3882
 2285SOL    HW218492   2.590   1.875   9.470  1.5408  1.8518  1.7800
 2286SOL     OW18493   3.636   3.739   4.617  0.0345  0.2259 -0.2242
 2286SOL    HW118494   3.542   3.723   4.611 -0.0829  0.0187  2.0629
 2286SOL    HW218495   3.655   3.736   4.711  0.4073 -2.3730 -0.3632
 2287SOL     OW18496   2.701   2.391   4.666  0.1211  0.1323  0.2924
 2287SOL    HW118497   2.756   2.317   4.689  1.0429  1.3239  1.9352
 2287SOL    HW218498   2.619   2.353   4.701  1.5372 -3.3367 -0.1639
 2288SOL     OW18499   4.292   2.752   5.794  0.2543  0.4762  0.4299
 2288SOL    HW118500   4.364   2.789   5.847 -0.3587  0.8532  1.0030
 2288SOL    HW218501   4.316   2.659   5.795 -2.5179 -0.2201 -1.6096
 2289SOL     OW18502   1.111   1.253   0.856  0.5877 -0.2253  0.6133
 2289SOL    HW118503   1.092   1.335   0.901  2.7295  1.1299 -0.9259
 2289SOL    HW218504   1.046   1.263   0.787  0.4673  0.2775  0.7986
 2290SOL     OW18505   4.616   3.248  14.156 -0.0425  0.6441  0.1501
 2290SOL    HW118506   4.556   3.309  14.198  0.1939  0.5639  0.6049
 2290SOL    HW218507   4.655   3.298  14.085  2.6026  1.7891  2.4071
 2291SOL     OW18508   0.022   0.887   8.560 -0.6864 -0.4339 -0.3250
 2291SOL    HW118509   0.090   0.894   8.626  0.7889 -1.2199 -1.7583
 2291SOL    HW218510   0.078   0.881   8.483  0.1253  0.6273  0.1877
 2292SOL     OW18511   0.717   0.351   8.965 -0.5263  0.4669 -0.6370
 2292SOL    HW118512   0.666   0.274   8.992 -0.2326  0.2656 -0.6530
 2292SOL    HW218513   0.692   0.350   8.873  0.1961  0.4320 -0.8339
 2293SOL     OW18514   2.471   4.304   2.892 -0.1060  0.4385 -0.1982
 2293SOL    HW118515   2.525   4.239   2.936 -0.1270 -1.0224 -2.3439
 2293SOL    HW218516   2.426   4.358   2.957 -2.8580 -2.4170  0.2127
 2294SOL     OW18517   4.196   4.565   8.482 -0.0824 -0.6376  0.2353
 2294SOL    HW118518   4.195   4.542   8.575 -0.0430  2.1197  0.8956
 2294SOL    HW218519   4.170   4.477   8.454  3.5691 -1.4894 -0.5602
 2295SOL     OW18520   2.497   1.093   5.387  0.2228  0.1507 -0.3589
 2295SOL    HW118521   2.427   1.039   5.352 -0.6765  0.5211  0.8638
 2295SOL    HW218522   2.568   1.036   5.358 -1.6521 -2.0420 -0.5860
 2296SOL     OW18523   1.507   0.345   2.542  0.3841  0.0919 -0.1781
 2296SOL    HW118524   1.481   0.285   2.612 -0.1195  0.3305 -0.1583
 2296SOL    HW218525   1.488   0.430   2.582 -0.8204 -0.4804  0.4643
 2297SOL     OW18526   2.188   1.480   7.428  0.3037 -0.0146 -0.5262
 2297SOL    HW118527   2.167   1.572   7.445  2.7531  0.2539  1.1545
 2297SOL    HW218528   2.173   1.471   7.334  0.5359  1.6813 -0.7372
 2298SOL     OW18529   4.642   4.175   7.909 -0.7497 -0.1317 -0.2646
 2298SOL    HW118530   4.724   4.171   7.861 -0.3241 -2.5553  0.6439
 2298SOL    HW218531   4.631   4.269   7.921 -0.9936 -0.3006  0.8539
 2299SOL     OW18532   1.827   3.146  10.707 -0.0386 -0.1823  0.3788
 2299SOL    HW118533   1.914   3.117  10.680  0.4109  1.5641 -0.0609
 2299SOL    HW218534   1.792   3.163  10.619 -0.7594 -1.1591  0.4831
 2300SOL     OW18535   4.345   2.486  14.928  0.2948 -0.4198 -0.2532
 2300SOL    HW118536   4.351   2.393  14.906  1.3538 -0.0629 -1.4815
 2300SOL    HW218537   4.430   2.501  14.970  0.0999  0.3389 -0.1325
 2301SOL     OW18538   3.628   0.139   8.638  0.8940 -0.2731 -0.0939
 2301SOL    HW118539   3.611   0.064   8.581 -1.1638  1.4107 -1.7112
 2301SOL    HW218540   3.556   0.196   8.610  1.7055  2.1277  2.7013
 2302SOL     OW18541   2.402   2.918  15.042  0.0117  0.2522  0.4093
 2302SOL    HW118542   2.460   2.884  14.974  0.6994 -1.6804  1.9576
 2302SOL    HW218543   2.412   3.012  15.027 -1.0957  0.5761  1.7056
 2303SOL     OW18544   2.899   1.815  16.209  0.0342  0.1528 -0.0638
 2303SOL    HW118545   2.977   1.867  16.227  0.4190 -0.3243 -0.3641
 2303SOL    HW218546   2.889   1.822  16.114 -0.0093 -0.2603 -0.0900
 2304SOL     OW18547   4.212   3.005   5.841  0.0915  0.4715 -0.2916
 2304SOL    HW118548   4.126   3.004   5.881 -0.3241 -0.2087 -1.1930
 2304SOL    HW218549   4.227   2.910   5.845 -1.5207  0.3879  3.0964
 2305SOL     OW18550   0.436   2.846   7.107 -0.1306 -0.4376  0.1816
 2305SOL    HW118551   0.368   2.822   7.044 -1.2700  1.6766  0.6195
 2305SOL    HW218552   0.390   2.899   7.172  1.1213  1.2656 -0.3161
 2306SOL     OW18553   3.298   1.041  16.619  0.1963  0.0555 -0.1578
 2306SOL    HW118554   3.262   1.089  16.544 -0.4528 -0.2917 -0.0678
 2306SOL    HW218555   3.270   0.950  16.604 -1.8306  0.5938  0.3822
 2307SOL     OW18556   1.749   2.294   9.385  0.2863  0.3005 -0.3282
 2307SOL    HW118557   1.760   2.387   9.364 -0.6510  0.7163  0.9944
 2307SOL    HW218558   1.752   2.300   9.481  0.6262  1.2805 -0.3945
 2308SOL     OW18559   4.539   1.185   6.323 -0.0825  0.0321 -0.9021
 2308SOL    HW118560   4.497   1.189   6.238 -0.5558 -1.0396 -0.7141
 2308SOL    HW218561   4.554   1.091   6.331 -0.1197  0.2456  1.8460
 2309SOL     OW18562   3.862   4.338   7.445 -0.2453  0.0839  0.0248
 2309SOL    HW118563   3.816   4.285   7.379  0.0996 -0.3967  0.1756
 2309SOL    HW218564   3.786   4.379   7.485  0.1012 -1.6951  2.5055
 2310SOL     OW18565   4.162   2.541   7.133  0.1779 -0.3971 -0.7295
 2310SOL    HW118566   4.078   2.584   7.113 -1.4997 -2.2726  2.1488
 2310SOL    HW218567   4.220   2.615   7.116  0.8504 -0.7464  0.0913
 2311SOL     OW18568   3.675   1.579   7.764  0.6734 -0.1199 -0.3058
 2311SOL    HW118569   3.580   1.564   7.764  0.5837  0.4317 -1.0762
 2311SOL    HW218570   3.707   1.489   7.763 -0.1388 -0.4121 -0.0886
 2312SOL     OW18571   2.376   0.387   5.621  0.2513  0.4487  0.0671
 2312SOL    HW118572   2.433   0.463   5.621 -0.2037  0.7880  0.1974
 2312SOL    HW218573   2.323   0.403   5.700  1.1221 -0.5761  0.8622
 2313SOL     OW18574   0.873   2.490   1.857 -0.1061 -0.3961  0.5955
 2313SOL    HW118575   0.854   2.397   1.863  1.2992 -0.7695 -0.9631
 2313SOL    HW218576   0.968   2.492   1.872  0.3725  1.5695 -2.6295
 2314SOL     OW18577   0.889   3.750   1.592 -0.0813  0.6107 -0.0625
 2314SOL    HW118578   0.943   3.702   1.655 -1.0365 -1.6988 -1.0093
 2314SOL    HW218579   0.948   3.752   1.516 -1.8440  0.3061 -1.4375
 2315SOL     OW18580   3.645   0.497   8.764 -0.6066  0.2752  0.3850
 2315SOL    HW118581   3.674   0.480   8.853 -0.3865 -0.8333  0.1001
 2315SOL    HW218582   3.726   0.498   8.713 -0.1579 -0.2979  1.0856
 2316SOL     OW18583   4.515   1.073  16.571 -0.3307  0.8194  0.1349
 2316SOL    HW118584   4.456   1.037  16.638  0.2322  1.7603  1.1493
 2316SOL    HW218585   4.532   1.163  16.599  3.3422  0.5188 -1.1859
 2317SOL     OW18586   3.296   3.671   0.261 -0.2946 -0.1122 -0.3056
 2317SOL    HW118587   3.208   3.672   0.298 -0.3627 -1.7614 -0.4294
 2317SOL    HW218588   3.286   3.744   0.199 -3.1197 -2.0132 -2.0470
 2318SOL     OW18589   1.920   3.392   9.113 -0.3923  0.4981 -0.1014
 2318SOL    HW118590   1.877   3.465   9.067  1.0246  2.6321  1.9443
 2318SOL    HW218591   1.920   3.333   9.038 -0.7380  1.0929 -0.5687
 2319SOL     OW18592   3.894   1.283   9.137  0.1137 -0.4049  0.2142
 2319SOL    HW118593   3.974   1.255   9.093 -0.6961 -0.7615 -1.0385
 2319SOL    HW218594   3.922   1.364   9.182 -0.6322  0.1055 -0.2404
 2320SOL     OW18595   0.168   1.856  13.770 -0.3705  0.2485  0.3104
 2320SOL    HW118596   0.214   1.827  13.691 -0.9206  0.4033 -0.0647
 2320SOL    HW218597   0.082   1.821  13.746  0.3060  0.4571 -2.4409
 2321SOL     OW18598   2.847   1.305  13.115  0.5871  0.3130  0.0304
 2321SOL    HW118599   2.933   1.339  13.138  0.6568  0.5712 -0.6103
 2321SOL    HW218600   2.856   1.210  13.122  1.3694  0.5870  2.9603
 2322SOL     OW18601   1.695   3.800   5.841 -0.4375  0.0480  0.0249
 2322SOL    HW118602   1.746   3.880   5.826 -0.1558 -0.1878 -0.2813
 2322SOL    HW218603   1.740   3.758   5.913 -0.6417  1.2751  0.8696
 2323SOL     OW18604   3.060   3.619   4.789 -0.3081  0.6592  0.2766
 2323SOL    HW118605   3.069   3.708   4.823  1.0569  1.0393 -1.0708
 2323SOL    HW218606   3.098   3.572   4.863 -1.0283  0.3119  0.4249
 2324SOL     OW18607   1.500   1.022   4.885 -0.3789  0.3150 -0.5649
 2324SOL    HW118608   1.539   0.978   4.961  0.7672 -1.0675 -1.9629
 2324SOL    HW218609   1.576   1.015   4.827 -1.5010 -1.6221 -1.7963
 2325SOL     OW18610   3.353   4.557   7.517  0.3012 -0.0040  1.0540
 2325SOL    HW118611   3.355   4.592   7.606 -0.1667  1.0933  0.6315
 2325SOL    HW218612   3.406   4.620   7.469 -0.4750 -0.1127  0.0537
 2326SOL     OW18613   0.020   1.628   4.924  0.1635 -0.3114  0.1179
 2326SOL    HW118614   4.664   1.649   4.930  0.7631  2.6906 -0.8612
 2326SOL    HW218615   0.063   1.705   4.887 -0.7196 -0.6297 -1.5880
 2327SOL     OW18616   0.401   0.250   5.943  0.8495 -0.1076  0.3799
 2327SOL    HW118617   0.481   0.297   5.965  0.1078  1.6822 -0.7521
 2327SOL    HW218618   0.435   0.162   5.926  1.4427  0.1026  0.5015
 2328SOL     OW18619   3.032   1.723   4.243  0.0810 -0.2745  0.1656
 2328SOL    HW118620   3.024   1.779   4.166 -0.3406  1.6663  1.5994
 2328SOL    HW218621   2.941   1.694   4.249 -0.0955  0.6995  2.1575
 2329SOL     OW18622   3.827   2.536   5.592  0.0320 -0.3470  0.2472
 2329SOL    HW118623   3.850   2.613   5.644  3.8798 -0.2715 -1.6216
 2329SOL    HW218624   3.865   2.566   5.510 -1.5873 -0.3581 -0.5119
 2330SOL     OW18625   2.192   1.284   3.452  0.0717  0.2352  0.7870
 2330SOL    HW118626   2.176   1.250   3.540 -1.9141  2.0388  1.1477
 2330SOL    HW218627   2.180   1.207   3.396 -2.1943 -0.2480  1.9310
 2331SOL     OW18628   2.350   3.352   4.256 -0.1138 -1.0153  0.1069
 2331SOL    HW118629   2.341   3.260   4.232 -1.8488 -1.0012  0.6665
 2331SOL    HW218630   2.304   3.364   4.340 -1.0814  1.1143 -0.7078
 2332SOL     OW18631   0.784   4.008  17.038  0.5674  0.2639 -0.3047
 2332SOL    HW118632   0.822   4.094  17.055  1.0179 -0.0730  0.3874
 2332SOL    HW218633   0.717   4.032  16.974  0.2847  0.8609  0.2126
 2333SOL     OW18634   2.839   2.772   5.771  0.2836 -0.4012  0.1189
 2333SOL    HW118635   2.764   2.769   5.713  1.2170 -0.3298 -1.0969
 2333SOL    HW218636   2.906   2.719   5.726  2.7393  1.6286  1.3492
 2334SOL     OW18637   4.351   4.148   6.068 -0.1570 -0.2359 -0.5115
 2334SOL    HW118638   4.279   4.140   6.130  0.6142 -0.7172  0.3305
 2334SOL    HW218639   4.395   4.066   6.089  2.1856  0.9427 -0.8245
 2335SOL     OW18640   0.325   2.320  15.238 -0.2522  0.1889 -0.0877
 2335SOL    HW118641   0.408   2.364  15.256  1.1020 -1.7968 -1.4994
 2335SOL    HW218642   0.293   2.301  15.326  1.2300 -0.9038  0.2129
 2336SOL     OW18643   1.998   3.683   2.577 -0.1601  0.3020 -0.6550
 2336SOL    HW118644   1.922   3.631   2.550  0.4099  0.0241 -1.7423
 2336SOL    HW218645   1.958   3.770   2.580  0.1250  0.3804  0.9393
 2337SOL     OW18646   2.138   4.118   9.743  0.4559 -0.4527  0.1440
 2337SOL    HW118647   2.127   4.060   9.667  1.3944 -0.3020 -0.1112
 2337SOL    HW218648   2.226   4.153   9.725  0.4518 -1.6028 -2.2080
 2338SOL     OW18649   0.115   3.639  14.621  0.6122  0.1509  0.0571
 2338SOL    HW118650   0.145   3.730  14.621 -0.1821  0.3935 -4.0351
 2338SOL    HW218651   0.196   3.604  14.658 -0.8873 -1.0599  2.2644
 2339SOL     OW18652   0.390   1.228   5.817  0.7508  0.0851  0.0415
 2339SOL    HW118653   0.415   1.255   5.728  0.0496 -4.2543 -1.4876
 2339SOL    HW218654   0.479   1.203   5.843 -0.0307 -1.4031  1.2471
 2340SOL     OW18655   3.420   3.004   6.932  0.2843  0.4092  0.2722
 2340SOL    HW118656   3.450   2.945   7.001 -0.0055  0.1716  0.1925
 2340SOL    HW218657   3.336   3.036   6.966  1.0110 -0.3613  2.8079
 2341SOL     OW18658   4.622   3.712   1.928  0.0923  0.4254  0.8151
 2341SOL    HW118659   4.560   3.673   1.989 -2.1802  1.1673 -1.0211
 2341SOL    HW218660   4.692   3.647   1.936 -0.0846  0.0391 -0.8880
 2342SOL     OW18661   1.024   2.226   6.059  0.0192 -0.5957 -0.1922
 2342SOL    HW118662   0.955   2.161   6.050 -1.1232  0.6891 -0.7838
 2342SOL    HW218663   0.997   2.256   6.145 -0.6396 -0.2846 -0.5029
 2343SOL     OW18664   0.642   4.349   8.362  0.3392  0.7241  0.5699
 2343SOL    HW118665   0.719   4.393   8.325  1.7076 -0.0109  2.5542
 2343SOL    HW218666   0.572   4.375   8.302 -1.8824 -0.6403  2.5857
 2344SOL     OW18667   4.658   1.645  16.933 -0.1997 -0.2380 -0.7012
 2344SOL    HW118668   4.640   1.691  16.851 -0.7063  1.5425  0.4217
 2344SOL    HW218669   4.578   1.669  16.979 -1.5507 -0.1567 -3.1177
 2345SOL     OW18670   1.588   0.379   4.861  0.2394 -0.0960  0.0156
 2345SOL    HW118671   1.625   0.298   4.829 -0.3428 -0.3274 -0.0737
 2345SOL    HW218672   1.541   0.341   4.935  0.3555 -0.4429 -0.0936
 2346SOL     OW18673   0.362   4.202   9.637 -0.4594  0.2677 -0.1603
 2346SOL    HW118674   0.316   4.285   9.651 -2.1825 -0.4794 -1.5079
 2346SOL    HW218675   0.399   4.187   9.725  1.7790 -0.7760 -1.2898
 2347SOL     OW18676   2.544   0.989   6.934  0.1676 -0.0094  0.2850
 2347SOL    HW118677   2.449   1.002   6.926  0.3514  1.2775  0.1499
 2347SOL    HW218678   2.562   1.015   7.024  0.1807  1.0811 -0.0227
 2348SOL     OW18679   1.101   4.166   6.956  0.1209 -0.1519  0.2388
 2348SOL    HW118680   1.016   4.209   6.947 -0.1596 -0.9178 -0.8562
 2348SOL    HW218681   1.123   4.160   6.863 -3.0120  2.8259 -0.7080
 2349SOL     OW18682   1.986   1.557  13.281 -0.3822 -0.1272 -0.0944
 2349SOL    HW118683   2.019   1.641  13.249  0.7264 -0.8313 -0.7712
 2349SOL    HW218684   1.914   1.582  13.339 -0.4740  0.1107 -0.3119
 2350SOL     OW18685   1.426   4.017  15.892 -0.2496 -0.1450 -0.1582
 2350SOL    HW118686   1.351   4.076  15.898 -0.6825 -0.5011 -2.1636
 2350SOL    HW218687   1.441   4.023  15.798  1.1988  2.7474  0.2527
 2351SOL     OW18688   0.060   3.884   7.711  0.0092 -0.0793  0.2088
 2351SOL    HW118689   0.106   3.920   7.787 -0.7067  0.8626  0.2069
 2351SOL    HW218690   0.078   3.956   7.651  0.7108 -1.6225 -1.4187
 2352SOL     OW18691   3.687   0.420   9.044  0.5259  0.0018 -0.1625
 2352SOL    HW118692   3.684   0.331   9.011 -1.5040 -0.6606  1.7960
 2352SOL    HW218693   3.634   0.417   9.124  0.9357  0.6162  0.1361
 2353SOL     OW18694   4.391   2.246  12.748  0.5242  0.1283 -0.1580
 2353SOL    HW118695   4.485   2.225  12.747  0.3273 -0.6696 -1.8425
 2353SOL    HW218696   4.365   2.180  12.684  0.0127 -0.0040  0.1882
 2354SOL     OW18697   1.736   4.229   2.581 -0.1056 -0.0681  0.2220
 2354SOL    HW118698   1.763   4.158   2.639 -0.4358 -0.8506 -0.5933
 2354SOL    HW218699   1.665   4.189   2.531 -1.2500  0.4528  1.4345
 2355SOL     OW18700   3.982   3.413   4.422  0.1096  0.0592 -0.7087
 2355SOL    HW118701   4.026   3.419   4.507  1.5518 -0.8158 -1.3829
 2355SOL    HW218702   3.988   3.318   4.417  0.7366  0.0454  0.2894
 2356SOL     OW18703   2.630   3.672   4.472 -0.3384  0.5477 -0.5200
 2356SOL    HW118704   2.700   3.640   4.530 -0.2870 -0.7782 -1.3186
 2356SOL    HW218705   2.672   3.647   4.390 -3.5060 -1.2524 -1.6000
 2357SOL     OW18706   1.965   2.151   5.586 -0.0190  0.6101  0.6430
 2357SOL    HW118707   2.050   2.155   5.542  0.2146 -0.7477  0.9571
 2357SOL    HW218708   1.987   2.077   5.643 -1.0358 -0.4550 -0.3539
 2358SOL     OW18709   4.457   0.258   0.576  0.6747  0.3022  0.6547
 2358SOL    HW118710   4.464   0.197   0.649 -1.8875 -1.3091 -0.4455
 2358SOL    HW218711   4.410   0.329   0.620  0.3878 -0.5781  1.7766
 2359SOL     OW18712   2.467   2.864   4.088  0.4759 -0.2564 -0.7427
 2359SOL    HW118713   2.488   2.804   4.160 -1.3348  0.8623  0.7282
 2359SOL    HW218714   2.429   2.813   4.017 -0.5605 -2.2928  1.2547
 2360SOL     OW18715   1.582   4.628   8.758  0.0354 -0.5141  0.3668
 2360SOL    HW118716   1.628   4.696   8.808  0.4414 -0.5292  0.0140
 2360SOL    HW218717   1.600   4.557   8.820 -1.1869  0.4524  1.8451
 2361SOL     OW18718   1.423   2.670   6.317  0.2180  0.3315 -0.0261
 2361SOL    HW118719   1.377   2.658   6.400 -0.3003  0.4535 -0.2972
 2361SOL    HW218720   1.406   2.587   6.274 -0.9072  0.1357  0.8016
 2362SOL     OW18721   2.665   2.109   3.495 -0.1778 -0.1540  0.3876
 2362SOL    HW118722   2.588   2.143   3.540 -0.1238 -0.5463  0.7866
 2362SOL    HW218723   2.734   2.134   3.557 -0.6624  3.6707 -0.6206
 2363SOL     OW18724   2.497   0.175   1.917 -0.0753  0.3283 -0.0702
 2363SOL    HW118725   2.470   0.194   2.007  0.4170  0.7171 -0.0052
 2363SOL    HW218726   2.468   0.254   1.873 -0.4152 -0.2673 -0.9209
 2364SOL     OW18727   4.253   2.286  15.264 -0.2666 -0.1660  0.2206
 2364SOL    HW118728   4.255   2.234  15.344  0.2678 -1.4885 -0.6472
 2364SOL    HW218729   4.329   2.243  15.225 -1.1547 -1.9093  0.3924
 2365SOL     OW18730   0.180   1.670   5.371  0.1726  0.0447 -0.3767
 2365SOL    HW118731   0.175   1.686   5.465  1.3618  0.9661 -0.4612
 2365SOL    HW218732   0.161   1.577   5.372 -0.9580  0.3253  2.5122
 2366SOL     OW18733   4.133   3.132   3.778  0.3691  0.2007 -0.2784
 2366SOL    HW118734   4.045   3.101   3.798  0.3336  0.2062 -0.4248
 2366SOL    HW218735   4.121   3.226   3.793  4.6977  0.6972  0.1977
 2367SOL     OW18736   0.038   1.490   0.769  0.4231 -0.0231  0.1826
 2367SOL    HW118737   0.093   1.516   0.695 -1.8578  0.2011 -1.4071
 2367SOL    HW218738   0.108   1.500   0.834  0.6580 -0.3080 -0.0262
 2368SOL     OW18739   4.039   4.445   7.199 -0.2800 -0.3652  0.2674
 2368SOL    HW118740   4.101   4.515   7.218 -0.5396  0.0949 -0.5530
 2368SOL    HW218741   3.983   4.440   7.277 -0.5754 -3.5938 -0.1642
 2369SOL     OW18742   0.462   3.483   4.184  0.5402 -0.6251 -0.7436
 2369SOL    HW118743   0.403   3.501   4.111  1.8765 -0.7097 -1.8516
 2369SOL    HW218744   0.434   3.527   4.264  1.0766 -0.3752 -0.6858
 2370SOL     OW18745   0.492   0.385   8.650  0.0655 -0.0724 -0.0879
 2370SOL    HW118746   0.425   0.356   8.711  0.7495  0.9030  1.1116
 2370SOL    HW218747   0.469   0.328   8.577 -1.6606 -0.6000  0.8867
 2371SOL     OW18748   0.696   2.293   5.154 -0.1960  0.3243  0.2529
 2371SOL    HW118749   0.630   2.300   5.085 -1.0413 -1.0844  0.9206
 2371SOL    HW218750   0.710   2.383   5.183 -3.4656  0.1958  2.2826
 2372SOL     OW18751   4.292   2.151   7.616  0.0516 -0.8601 -1.0628
 2372SOL    HW118752   4.222   2.126   7.556 -0.5986 -0.0700 -0.6370
 2372SOL    HW218753   4.323   2.062   7.633  0.2672 -0.9615 -1.9700
 2373SOL     OW18754   2.089   1.473   2.533 -0.0100 -0.6474 -0.6730
 2373SOL    HW118755   2.019   1.420   2.496  1.3625 -0.6373 -3.2584
 2373SOL    HW218756   2.125   1.412   2.598  1.5474  0.4548 -0.4947
 2374SOL     OW18757   4.244   2.122   3.589 -0.2825  0.0429 -0.4125
 2374SOL    HW118758   4.250   2.195   3.650  3.2021 -2.3175  2.0407
 2374SOL    HW218759   4.338   2.106   3.579 -0.3008 -0.8371  0.8265
 2375SOL     OW18760   4.591   0.393  11.753 -0.2192 -0.6878 -0.2946
 2375SOL    HW118761   4.641   0.325  11.707  0.1487  0.3681 -1.4704
 2375SOL    HW218762   4.518   0.335  11.773 -0.7770  0.1789  0.2129
 2376SOL     OW18763   1.078   2.784   7.965  0.3020  0.0670 -0.2173
 2376SOL    HW118764   1.074   2.699   7.921  1.8287 -0.1907  0.1591
 2376SOL    HW218765   1.078   2.751   8.056  1.9921  1.1305  0.1575
 2377SOL     OW18766   0.147   3.003  10.291 -0.1932 -0.1316 -0.6132
 2377SOL    HW118767   0.111   3.070  10.348  0.1331 -1.0520  0.6790
 2377SOL    HW218768   0.066   2.962  10.258 -2.2671  1.8145  2.0607
 2378SOL     OW18769   1.850   2.580   2.565 -0.5030 -0.1052 -0.7801
 2378SOL    HW118770   1.885   2.546   2.482 -0.3892  0.1395 -0.8347
 2378SOL    HW218771   1.771   2.616   2.526 -1.1094 -1.8284 -1.1394
 2379SOL     OW18772   1.514   1.796   5.473  0.0618 -0.6658 -0.1027
 2379SOL    HW118773   1.547   1.777   5.385 -1.2023  0.7639 -0.8869
 2379SOL    HW218774   1.434   1.840   5.445  1.2695  0.3965 -1.8832
 2380SOL     OW18775   0.134   4.516  10.405  0.4890  0.3603  0.5337
 2380SOL    HW118776   0.132   4.594  10.461  2.7471  0.1737  0.8541
 2380SOL    HW218777   0.061   4.460  10.431  0.3109  1.2443  1.9074
 2381SOL     OW18778   3.899   1.659   2.728 -0.3963 -0.1284 -0.2414
 2381SOL    HW118779   3.911   1.649   2.633 -0.1974  0.3688 -0.2689
 2381SOL    HW218780   3.951   1.736   2.750  0.7203 -0.9708  0.0928
 2382SOL     OW18781   3.511   4.423   5.306  0.1067  0.2177  0.4431
 2382SOL    HW118782   3.421   4.400   5.280  1.2933 -1.7220 -1.9266
 2382SOL    HW218783   3.493   4.401   5.397  3.0911  1.7809  1.4055
 2383SOL     OW18784   4.038   3.739  17.285  0.0909  0.0178 -0.5290
 2383SOL    HW118785   4.122   3.743  17.240 -0.0944 -0.7716 -0.9477
 2383SOL    HW218786   4.014   3.649  17.262 -2.8079  0.6060  0.2199
 2384SOL     OW18787   2.625   2.189   9.747  0.4939 -0.0457 -0.5051
 2384SOL    HW118788   2.544   2.210   9.701 -1.2147  1.0730  3.0330
 2384SOL    HW218789   2.696   2.237   9.703 -1.2990 -0.2738 -3.6528
 2385SOL     OW18790   4.615   4.737   3.567  0.2446  0.3543 -0.2861
 2385SOL    HW118791   4.555   4.713   3.637 -1.0511  1.2919 -1.0855
 2385SOL    HW218792   4.577   4.693   3.491 -1.0952 -1.5400  1.4645
 2386SOL     OW18793   2.683   1.408  16.269 -0.2218 -0.4419  0.2698
 2386SOL    HW118794   2.723   1.495  16.266  1.1419 -1.2010 -3.4869
 2386SOL    HW218795   2.680   1.394  16.364  0.2166  1.0721  0.5224
 2387SOL     OW18796   0.932   3.434   4.914  0.3389  0.5162  0.2306
 2387SOL    HW118797   1.011   3.489   4.913  1.4636 -1.0915  0.6682
 2387SOL    HW218798   0.909   3.432   4.821  1.5407 -0.6903 -0.0424
 2388SOL     OW18799   2.450   2.966   0.559  0.0301 -0.2456  0.5484
 2388SOL    HW118800   2.498   3.026   0.501  1.6354  0.7689  2.9112
 2388SOL    HW218801   2.388   3.020   0.608 -1.0238 -1.1922  0.2440
 2389SOL     OW18802   0.181   0.989   3.246 -0.6804  0.1791 -0.2540
 2389SOL    HW118803   0.125   0.951   3.178  0.0798 -0.2894 -0.6256
 2389SOL    HW218804   0.246   0.919   3.249  0.7510  1.4583 -1.0567
 2390SOL     OW18805   0.147   2.897   9.478  0.0241 -0.5670 -0.6420
 2390SOL    HW118806   0.070   2.945   9.508 -0.4837 -0.4708 -2.1116
 2390SOL    HW218807   0.168   2.828   9.542  0.2073 -0.4326 -0.5582
 2391SOL     OW18808   2.551   4.713   8.591  0.6755  0.4252  0.2469
 2391SOL    HW118809   2.606   0.054   8.597  2.7952 -1.1588  1.1796
 2391SOL    HW218810   2.592   4.658   8.658 -3.8429 -1.0941  1.7557
 2392SOL     OW18811   2.177   2.834   6.282  0.1515  0.5031  0.2399
 2392SOL    HW118812   2.108   2.872   6.228  0.1947 -0.1341 -0.2593
 2392SOL    HW218813   2.135   2.799   6.360 -2.0040 -2.0703 -2.0868
 2393SOL     OW18814   3.738   0.786   3.777  0.3508 -0.1986 -0.3815
 2393SOL    HW118815   3.821   0.759   3.737 -0.2966 -0.4583 -1.5557
 2393SOL    HW218816   3.741   0.725   3.851 -0.8469 -1.1101 -1.0862
 2394SOL     OW18817   2.395   1.108   1.895 -0.0317 -0.1152 -0.0799
 2394SOL    HW118818   2.371   1.186   1.944 -0.5405  0.8759 -1.9330
 2394SOL    HW218819   2.351   1.035   1.940 -1.6288  0.5404 -0.5585
 2395SOL     OW18820   0.242   3.593  10.198 -0.8078 -0.6205  0.2551
 2395SOL    HW118821   0.176   3.623  10.135 -0.1745  1.7030  0.7045
 2395SOL    HW218822   0.207   3.506  10.220  0.8950 -0.7640  2.3719
 2396SOL     OW18823   1.709   1.991   3.858 -0.0799  0.3218 -0.5145
 2396SOL    HW118824   1.775   1.987   3.927  2.3907  1.0905 -2.8125
 2396SOL    HW218825   1.636   1.958   3.910 -0.3144  2.8604  0.7745
 2397SOL     OW18826   4.022   3.485  13.735 -0.9962  0.1612  0.0177
 2397SOL    HW118827   4.056   3.452  13.652 -1.5796 -0.9194  0.2131
 2397SOL    HW218828   3.952   3.545  13.710  0.3936  0.8465 -2.1910
 2398SOL     OW18829   3.090   2.563   9.764  0.3162 -0.1573 -0.6800
 2398SOL    HW118830   3.184   2.582   9.764  0.2843 -0.0410  2.1791
 2398SOL    HW218831   3.092   2.479   9.719 -0.1007 -0.4834 -0.0816
 2399SOL     OW18832   2.695   1.038   7.208  0.7093  0.6684  0.2158
 2399SOL    HW118833   2.654   0.952   7.217  1.4758  0.2217 -0.4935
 2399SOL    HW218834   2.784   1.014   7.181 -0.2543 -0.3941 -1.9388
 2400SOL     OW18835   2.237   1.409  14.204 -0.1548  0.3007  0.0795
 2400SOL    HW118836   2.279   1.323  14.205  0.7673  0.7611  1.8154
 2400SOL    HW218837   2.267   1.441  14.119 -0.5434 -1.5269 -0.7570
 2401SOL     OW18838   4.647   0.831  16.486 -0.7272 -0.3241 -0.2102
 2401SOL    HW118839   4.597   0.910  16.507  1.0866  0.6298  0.5488
 2401SOL    HW218840   4.574   0.776  16.514  0.2485 -0.7505  1.5235
 2402SOL     OW18841   2.911   0.555  15.520 -0.2987  0.4459  0.3860
 2402SOL    HW118842   2.889   0.599  15.438  0.0554  1.2398  0.7189
 2402SOL    HW218843   3.005   0.574  15.529  0.0822 -0.7917 -0.7847
 2403SOL     OW18844   1.404   3.102   0.432 -0.6275 -0.3312  0.6303
 2403SOL    HW118845   1.329   3.045   0.449 -0.4562 -1.0204 -0.9020
 2403SOL    HW218846   1.452   3.062   0.358 -0.5282 -1.0572  1.0887
 2404SOL     OW18847   0.306   1.266   4.824  0.5316 -0.2180  0.1991
 2404SOL    HW118848   0.296   1.329   4.895  1.3251  1.0975 -0.8587
 2404SOL    HW218849   0.391   1.228   4.847  1.3965  1.5247 -0.1630
 2405SOL     OW18850   4.194   1.399  13.153 -0.8065 -0.7116 -0.5590
 2405SOL    HW118851   4.144   1.353  13.085 -0.0344 -2.3626 -0.0172
 2405SOL    HW218852   4.272   1.343  13.161  0.1013  0.4883 -1.0563
 2406SOL     OW18853   0.297   2.526   4.054 -0.2225 -1.0306 -0.2903
 2406SOL    HW118854   0.279   2.614   4.022 -1.3951 -0.4208  2.0035
 2406SOL    HW218855   0.256   2.473   3.985  1.3610 -1.9110 -0.5420
 2407SOL     OW18856   2.564   0.152   6.687  0.0339 -0.0772  0.1560
 2407SOL    HW118857   2.637   0.118   6.635 -0.3978 -0.6151 -0.1093
 2407SOL    HW218858   2.608   0.169   6.770  1.1439 -0.5564 -0.3394
 2408SOL     OW18859   1.485   3.285   4.385 -0.4606 -0.2704  0.0819
 2408SOL    HW118860   1.485   3.193   4.409 -1.3374 -0.7556 -1.7859
 2408SOL    HW218861   1.543   3.286   4.309 -1.1889 -0.6620 -0.4736
 2409SOL     OW18862   0.061   4.711   7.884 -0.0659 -0.0309 -0.0746
 2409SOL    HW118863   0.146   4.666   7.879 -0.5142 -0.6747 -1.8553
 2409SOL    HW218864   0.034   4.663   7.963 -0.9616  0.2532 -0.2073
 2410SOL     OW18865   1.962   0.829  16.699  0.3022  0.6735 -0.2565
 2410SOL    HW118866   1.878   0.805  16.660  0.4130 -0.0120 -0.0737
 2410SOL    HW218867   2.000   0.867  16.619  0.9555 -0.7717 -0.6262
 2411SOL     OW18868   1.644   1.715   2.675 -0.1791 -0.6606 -0.0918
 2411SOL    HW118869   1.734   1.747   2.681 -0.1756 -0.6016 -0.4879
 2411SOL    HW218870   1.630   1.714   2.580  1.3410  1.2806 -0.3361
 2412SOL     OW18871   4.457   1.243   2.995  0.5708  0.2118 -0.2260
 2412SOL    HW118872   4.371   1.201   3.000  0.7441 -0.2617 -1.1891
 2412SOL    HW218873   4.471   1.249   2.900  0.8069 -1.4441 -0.3012
 2413SOL     OW18874   4.327   2.760  11.892 -0.5538 -0.3447  0.2975
 2413SOL    HW118875   4.244   2.721  11.916 -1.7721  1.7048 -0.6010
 2413SOL    HW218876   4.368   2.743  11.977  3.0290  1.0101 -1.1487
 2414SOL     OW18877   3.682   3.115   0.256  0.3110 -0.0283 -0.6352
 2414SOL    HW118878   3.663   3.073   0.340  0.2425 -0.0755 -0.6741
 2414SOL    HW218879   3.599   3.159   0.238  0.6774  0.6800 -0.5983
 2415SOL     OW18880   3.575   3.574  15.859  0.0258  0.0272 -0.2118
 2415SOL    HW118881   3.525   3.593  15.939 -0.2445 -1.7329  0.0393
 2415SOL    HW218882   3.663   3.603  15.885  0.3356 -0.6502 -0.5147
 2416SOL     OW18883   0.390   4.091   8.345 -0.2116  0.3977 -0.1267
 2416SOL    HW118884   0.410   4.050   8.261 -3.0342 -1.7543  0.2565
 2416SOL    HW218885   0.414   4.021   8.407  0.4397  0.9545  0.2557
 2417SOL     OW18886   0.465   1.052   6.325 -0.0937 -0.0867  0.0348
 2417SOL    HW118887   0.525   1.096   6.386  2.6747 -0.7320 -2.2188
 2417SOL    HW218888   0.461   1.107   6.246  1.6306 -1.6989 -1.1651
 2418SOL     OW18889   4.555   0.187   6.069  0.1369  0.3715 -0.2595
 2418SOL    HW118890   4.540   0.169   5.976 -0.2163 -0.7163  0.0071
 2418SOL    HW218891   4.518   0.116   6.121  1.2506 -1.9176 -2.5572
 2419SOL     OW18892   4.069   3.811   0.297 -0.8249 -0.0298  0.1021
 2419SOL    HW118893   4.094   3.889   0.248 -1.5928 -0.6875 -1.3530
 2419SOL    HW218894   3.976   3.823   0.279 -0.9640  0.6143  1.2763
 2420SOL     OW18895   2.772   2.527   8.408  0.3168  0.2222 -0.4323
 2420SOL    HW118896   2.853   2.491   8.446 -0.9421  1.4880  3.4361
 2420SOL    HW218897   2.729   2.541   8.492 -0.1686  0.5358 -0.7355
 2421SOL     OW18898   4.678   0.718   3.884 -0.5162  0.4849  0.6302
 2421SOL    HW118899   4.681   0.624   3.902  0.6980  0.1453 -1.4478
 2421SOL    HW218900   4.648   0.746   3.971  1.2908 -0.0808  1.4403
 2422SOL     OW18901   2.399   0.672   6.236 -0.3653  0.4502  0.3326
 2422SOL    HW118902   2.410   0.607   6.305 -1.4721 -0.2600 -0.1547
 2422SOL    HW218903   2.438   0.623   6.163  0.6552  1.9705 -0.1426
 2423SOL     OW18904   0.481   4.415   2.054 -0.1302 -0.0312 -0.1867
 2423SOL    HW118905   0.517   4.472   1.987  1.7863 -0.7548  0.2352
 2423SOL    HW218906   0.458   4.335   2.006 -0.3844 -0.2456  0.2861
 2424SOL     OW18907   4.259   3.874   0.785  0.1933  0.0673  0.0479
 2424SOL    HW118908   4.193   3.854   0.719 -1.1327 -2.5659  2.2109
 2424SOL    HW218909   4.209   3.887   0.865 -0.4703 -2.4357  0.0302
 2425SOL     OW18910   0.059   0.925  13.114 -0.7113  0.1767  0.0350
 2425SOL    HW118911   0.145   0.887  13.135 -0.3174 -0.8397 -3.4028
 2425SOL    HW218912   0.039   0.949  13.205 -0.1357 -0.0233  0.2199
 2426SOL     OW18913   3.722   1.286   5.150  0.2680 -0.1817  0.5097
 2426SOL    HW118914   3.805   1.318   5.187 -0.4987  0.9274  1.2731
 2426SOL    HW218915   3.691   1.221   5.213 -1.5000 -0.3082 -0.4997
 2427SOL     OW18916   0.352   4.570  14.282 -0.0898 -0.5251  0.4655
 2427SOL    HW118917   0.388   4.529  14.360 -1.8490 -2.9671  0.0317
 2427SOL    HW218918   0.271   4.615  14.305  3.0320  3.3996  3.7209
 2428SOL     OW18919   4.344   1.017   5.442 -0.5471  0.4608 -0.5328
 2428SOL    HW118920   4.415   0.964   5.480 -0.6177  1.0286  0.3751
 2428SOL    HW218921   4.272   0.971   5.486  0.2814 -0.4479 -0.1236
 2429SOL     OW18922   2.063   4.310   3.645 -0.4904 -0.2146 -0.1141
 2429SOL    HW118923   2.072   4.215   3.635 -0.2088 -0.0720 -1.2661
 2429SOL    HW218924   2.066   4.323   3.739  0.9857  0.9238 -0.3348
 2430SOL     OW18925   3.835   4.545  16.457  0.0880 -0.0299 -0.3682
 2430SOL    HW118926   3.891   4.617  16.486  0.5815  0.1191 -1.7347
 2430SOL    HW218927   3.823   4.500  16.541 -1.1304  2.7580  0.9789
 2431SOL     OW18928   2.790   4.592   6.047  0.1944  0.2109  0.0738
 2431SOL    HW118929   2.795   4.682   6.014  1.0918  0.1926  0.1505
 2431SOL    HW218930   2.858   4.597   6.114  2.0906 -0.8581 -1.7467
 2432SOL     OW18931   1.661   1.024   4.648  0.3468 -0.0602 -0.2934
 2432SOL    HW118932   1.624   0.950   4.600 -1.0569  0.9211 -0.7227
 2432SOL    HW218933   1.660   1.090   4.579 -0.7863  1.6423  1.3416
 2433SOL     OW18934   1.313   2.072   2.085  0.6331  0.5122 -0.4519
 2433SOL    HW118935   1.388   2.068   2.025  0.3882 -1.8253 -0.5979
 2433SOL    HW218936   1.272   1.988   2.066  1.5923 -0.6502  2.7662
 2434SOL     OW18937   2.855   2.071   6.197 -0.2245 -0.5170  0.3419
 2434SOL    HW118938   2.767   2.078   6.235 -1.0898  2.1047 -2.0985
 2434SOL    HW218939   2.834   2.054   6.105 -2.6796  0.3162  0.7375
 2435SOL     OW18940   4.140   3.320   5.568 -0.7714  0.4146  0.2127
 2435SOL    HW118941   4.135   3.378   5.644  2.9494  0.8346  0.1198
 2435SOL    HW218942   4.078   3.251   5.592 -1.0667  0.5574 -0.1427
 2436SOL     OW18943   1.900   1.265   3.660  0.4562 -0.2874  0.7430
 2436SOL    HW118944   1.869   1.349   3.696 -1.2927 -0.8216  0.5123
 2436SOL    HW218945   1.994   1.277   3.672  1.2023 -2.2520 -3.3331
 2437SOL     OW18946   1.517   2.037   8.622  0.5838  0.5156  0.3840
 2437SOL    HW118947   1.553   2.065   8.706 -1.5631  5.2790 -0.2861
 2437SOL    HW218948   1.512   1.942   8.632  1.6170  0.5428  1.2006
 2438SOL     OW18949   4.118   0.634   2.423  0.0459  0.1535 -0.0213
 2438SOL    HW118950   4.095   0.727   2.415 -0.5534 -0.0145 -0.2761
 2438SOL    HW218951   4.076   0.608   2.340  0.3900 -0.2371 -0.0739
 2439SOL     OW18952   0.232   2.957   5.663  0.4318  0.2275 -0.6809
 2439SOL    HW118953   0.230   3.027   5.729 -1.0285 -1.6989  1.3262
 2439SOL    HW218954   0.191   2.994   5.585 -1.7149 -3.2755 -1.2467
 2440SOL     OW18955   1.668   0.673   3.285 -0.1770 -0.3020 -0.4700
 2440SOL    HW118956   1.587   0.678   3.336  0.8263  1.7800  0.9530
 2440SOL    HW218957   1.666   0.759   3.243 -0.3862 -0.0942 -0.0437
 2441SOL     OW18958   3.200   1.012   4.120  0.6337  0.3587  0.1414
 2441SOL    HW118959   3.192   1.015   4.215 -1.4145  1.2179 -0.0743
 2441SOL    HW218960   3.268   0.945   4.107 -0.1448 -0.3788 -0.1855
 2442SOL     OW18961   2.305   1.006   3.503  0.2148  0.3148 -0.3017
 2442SOL    HW118962   2.236   1.015   3.437 -2.0651 -1.1802  1.9298
 2442SOL    HW218963   2.309   0.911   3.513  0.4879  0.4815  1.1610
 2443SOL     OW18964   4.569   1.428   8.244 -0.4862  0.4401 -0.5582
 2443SOL    HW118965   4.664   1.421   8.260 -0.9259  0.1648  1.9993
 2443SOL    HW218966   4.573   1.424   8.148 -0.3829  0.2935 -0.5480
 2444SOL     OW18967   4.217   4.057   1.782  0.3732 -0.5516  0.0664
 2444SOL    HW118968   4.291   3.997   1.795  0.9956  0.2652  0.2504
 2444SOL    HW218969   4.236   4.079   1.690 -1.5526 -1.8035 -0.6387
 2445SOL     OW18970   3.118   4.281   6.678 -0.4880  0.6071 -0.0496
 2445SOL    HW118971   3.046   4.299   6.738  0.2693  1.0155  0.7365
 2445SOL    HW218972   3.076   4.289   6.592  1.4539  2.3028 -0.8295
 2446SOL     OW18973   1.295   0.694   2.904 -0.1763  0.4239 -0.0111
 2446SOL    HW118974   1.223   0.648   2.860  0.6615  0.4694 -1.4293
 2446SOL    HW218975   1.304   0.650   2.988 -0.6726  0.8374  0.2597
 2447SOL     OW18976   4.071   1.650  13.691  0.0350  0.3205  0.0901
 2447SOL    HW118977   4.095   1.698  13.771  0.8935 -0.2995  0.2015
 2447SOL    HW218978   4.025   1.720  13.644  0.7713  0.6911 -0.0822
 2448SOL     OW18979   3.117   1.099   2.292  0.6459  0.5536 -0.7520
 2448SOL    HW118980   3.068   1.026   2.329 -0.5272  1.7025 -0.0363
 2448SOL    HW218981   3.071   1.130   2.214 -1.9987  0.8143  0.8984
 2449SOL     OW18982   4.360   1.092   4.380  0.0993  0.0219 -0.5867
 2449SOL    HW118983   4.305   1.085   4.458  0.4605  1.7627 -0.1873
 2449SOL    HW218984   4.312   1.159   4.331  0.0098 -0.7282 -1.5389
 2450SOL     OW18985   0.241   1.242  11.585  0.0437 -0.2410  0.1113
 2450SOL    HW118986   0.256   1.270  11.495  0.2934 -0.1306  0.1888
 2450SOL    HW218987   0.239   1.325  11.633 -0.2154 -1.5561  2.3526
 2451SOL     OW18988   4.079   1.813  13.906 -0.2849 -0.1022  0.1688
 2451SOL    HW118989   4.162   1.796  13.950 -0.2214  1.9257  0.8289
 2451SOL    HW218990   4.048   1.886  13.959  0.0379 -0.2654  0.5764
 2452SOL     OW18991   2.592   1.620   5.580 -0.4995 -0.6589 -0.1308
 2452SOL    HW118992   2.665   1.681   5.582 -0.7492 -0.4518  2.3564
 2452SOL    HW218993   2.623   1.553   5.519  1.0898  0.4277 -0.5038
 2453SOL     OW18994   1.241   0.016   3.523  0.1429 -0.0076 -0.3782
 2453SOL    HW118995   1.167   4.704   3.558 -1.9250  2.0633 -1.8281
 2453SOL    HW218996   1.307   4.684   3.535  0.4110  0.0451 -1.5217
 2454SOL     OW18997   1.788   0.976   1.774  0.1477  0.2807 -0.4890
 2454SOL    HW118998   1.774   0.906   1.710 -0.3653  0.0737 -0.1528
 2454SOL    HW218999   1.818   0.922   1.846  0.8299  2.2052  0.6593
 2455SOL     OW19000   0.400   1.249   6.146 -0.5672 -0.2326 -0.1678
 2455SOL    HW119001   0.395   1.328   6.199  1.8285 -0.0047 -0.2863
 2455SOL    HW219002   0.321   1.249   6.091 -1.5927  0.5503  1.3252
 2456SOL     OW19003   1.679   1.116  12.665  0.1576 -0.2491  1.3283
 2456SOL    HW119004   1.731   1.092  12.588  0.3026  2.0256  0.7219
 2456SOL    HW219005   1.686   1.210  12.653 -1.3991 -0.4555 -1.2572
 2457SOL     OW19006   4.703   3.301   8.860 -0.2738  0.3393  0.3331
 2457SOL    HW119007   4.709   3.349   8.777  1.0128  2.1899  1.4937
 2457SOL    HW219008   4.733   3.215   8.832 -0.4839  0.7865 -1.3090
 2458SOL     OW19009   0.046   0.979   8.940 -0.2278  0.3373  0.0311
 2458SOL    HW119010   0.112   0.972   8.871 -1.0618 -0.7498 -0.6569
 2458SOL    HW219011   0.091   0.930   9.010  0.2837  0.9451  0.1218
 2459SOL     OW19012   3.421   1.389   3.925 -0.0007  0.5641 -0.1384
 2459SOL    HW119013   3.367   1.310   3.917  0.8252  0.1353 -1.6779
 2459SOL    HW219014   3.484   1.355   3.989  2.8427  1.7383 -2.2889
 2460SOL     OW19015   2.571   1.877   6.255  0.3393 -0.0972 -0.3643
 2460SOL    HW119016   2.571   1.863   6.160 -1.9391  0.6762 -0.4824
 2460SOL    HW219017   2.505   1.945   6.265  0.7785  0.4864 -1.5223
 2461SOL     OW19018   1.932   2.434   3.776  0.3994 -0.1414  0.3352
 2461SOL    HW119019   1.888   2.483   3.706  2.0259 -0.9107 -1.2027
 2461SOL    HW219020   1.864   2.437   3.844 -0.7130 -1.9073 -0.7034
 2462SOL     OW19021   3.500   2.462  11.885 -0.6098 -0.0868 -0.3112
 2462SOL    HW119022   3.543   2.404  11.948 -2.9793 -2.0624 -0.5222
 2462SOL    HW219023   3.557   2.446  11.810 -0.2447 -3.3338  0.6660
 2463SOL     OW19024   0.186   2.650   8.751 -0.6064  0.2147  0.0290
 2463SOL    HW119025   0.159   2.689   8.834  2.3335  1.8271  0.2578
 2463SOL    HW219026   0.270   2.610   8.773 -0.7471 -0.3764 -0.5016
 2464SOL     OW19027   2.472   0.718   5.896  0.0764  0.3038 -0.2481
 2464SOL    HW119028   2.559   0.719   5.934  1.1225 -2.0522 -2.6150
 2464SOL    HW219029   2.434   0.799   5.929  0.4419 -0.0667  1.0702
 2465SOL     OW19030   2.125   3.593  14.308 -0.2910 -0.7027  0.1253
 2465SOL    HW119031   2.110   3.682  14.338  2.7923  0.5747 -2.1800
 2465SOL    HW219032   2.171   3.553  14.382  1.2730  0.3667 -0.2665
 2466SOL     OW19033   0.215   0.466   3.266  0.8519 -0.5844 -0.1527
 2466SOL    HW119034   0.225   0.407   3.340  0.0122 -0.5893 -0.0341
 2466SOL    HW219035   0.166   0.530   3.318  0.5126 -2.0724  1.3384
 2467SOL     OW19036   2.042   1.654   4.111 -0.3344  0.4708 -0.1051
 2467SOL    HW119037   1.998   1.587   4.058  0.3019  0.1946 -0.2845
 2467SOL    HW219038   2.123   1.668   4.062 -1.2423  0.0630 -1.7094
 2468SOL     OW19039   0.991   2.200   6.642 -0.1320  0.8552 -0.3510
 2468SOL    HW119040   0.934   2.266   6.603  0.4566  1.7010  0.2148
 2468SOL    HW219041   0.925   2.156   6.695 -2.2050 -0.7950 -4.2283
 2469SOL     OW19042   3.351   1.194  14.008 -0.2729 -0.0874 -0.1321
 2469SOL    HW119043   3.332   1.146  14.089  0.6724  1.0934  0.7908
 2469SOL    HW219044   3.324   1.129  13.944 -0.5672  2.2546 -2.3610
 2470SOL     OW19045   4.428   0.903   1.103  0.1414  0.2511  0.0822
 2470SOL    HW119046   4.440   0.878   1.194  0.4885  0.4951  0.1035
 2470SOL    HW219047   4.516   0.930   1.075  0.6260 -0.7766  0.6186
 2471SOL     OW19048   1.675   0.415  13.361  0.6118  0.6186 -0.0380
 2471SOL    HW119049   1.710   0.335  13.400 -0.4906  0.4368  0.6006
 2471SOL    HW219050   1.749   0.476  13.364  1.1552  0.0721 -2.7577
 2472SOL     OW19051   1.950   4.158   3.318 -0.4250  0.2607 -0.0635
 2472SOL    HW119052   1.863   4.168   3.280  0.2836  0.5887 -1.5756
 2472SOL    HW219053   1.957   4.247   3.352  1.4304  0.0211  0.1845
 2473SOL     OW19054   3.222   2.818   1.962 -0.4124 -0.0935  0.0931
 2473SOL    HW119055   3.175   2.762   2.024  1.9343 -1.0597  0.9969
 2473SOL    HW219056   3.258   2.879   2.026 -0.7964  0.9827 -0.7159
 2474SOL     OW19057   3.078   0.344   5.161 -0.1722 -0.2487 -0.4865
 2474SOL    HW119058   3.068   0.275   5.096  0.5517 -1.2121  0.4389
 2474SOL    HW219059   3.065   0.298   5.243 -1.1500 -0.8972 -1.0006
 2475SOL     OW19060   3.359   3.792  15.130  0.3028  0.3839  0.3491
 2475SOL    HW119061   3.449   3.818  15.111 -0.0197 -0.1870 -1.9464
 2475SOL    HW219062   3.375   3.708  15.173 -2.0872 -1.2904 -2.0763
 2476SOL     OW19063   2.176   2.630  13.380 -0.3905  0.2304 -0.2350
 2476SOL    HW119064   2.238   2.689  13.339  0.7347  0.3611  1.6763
 2476SOL    HW219065   2.098   2.652  13.329 -1.5173  2.9315  2.6365
 2477SOL     OW19066   4.610   1.642  13.255  0.7409 -0.0396 -0.2528
 2477SOL    HW119067   4.545   1.600  13.311  1.2338 -0.4646  0.0009
 2477SOL    HW219068   4.555   1.704  13.206 -1.0125 -0.6016  1.0438
 2478SOL     OW19069   2.560   2.450   1.514  0.6124 -0.3725  0.2923
 2478SOL    HW119070   2.585   2.519   1.575  0.1223 -0.1774  0.2763
 2478SOL    HW219071   2.515   2.496   1.443  0.8434  1.4071  1.2911
 2479SOL     OW19072   2.264   4.543   2.537  0.8624 -0.2624  0.0798
 2479SOL    HW119073   2.344   4.509   2.577 -0.0212 -0.9468  1.2513
 2479SOL    HW219074   2.237   4.614   2.596 -0.9669 -0.4444 -0.5542
 2480SOL     OW19075   1.969   4.199   0.857 -0.1064  0.3511 -0.2702
 2480SOL    HW119076   1.985   4.135   0.925  1.7256  2.2506  1.0834
 2480SOL    HW219077   2.028   4.167   0.789  1.0460 -0.2255  1.0155
 2481SOL     OW19078   1.534   1.414  13.603  0.1912  0.0596 -0.0182
 2481SOL    HW119079   1.568   1.491  13.650  0.0555  1.0651 -1.5742
 2481SOL    HW219080   1.482   1.359  13.661 -1.8686  1.5626 -0.4604
 2482SOL     OW19081   3.109   4.321   0.924  0.1479 -0.0096 -0.2516
 2482SOL    HW119082   3.124   4.275   0.842 -1.0037 -1.3530  0.2914
 2482SOL    HW219083   3.080   4.404   0.886  2.4462  1.1888  0.5680
 2483SOL     OW19084   1.105   1.429   2.245 -0.5739 -0.1198 -0.0875
 2483SOL    HW119085   1.123   1.523   2.253 -0.4378 -0.1196 -0.4202
 2483SOL    HW219086   1.035   1.427   2.180 -0.6641  0.4913 -0.0135
 2484SOL     OW19087   3.045   3.742   6.263 -0.4645  0.2416  0.1401
 2484SOL    HW119088   3.094   3.754   6.181  0.6793 -0.4030  0.7361
 2484SOL    HW219089   3.105   3.702   6.326  0.6090  0.2440 -0.8703
 2485SOL     OW19090   0.573   4.169  17.143  0.1445 -0.0580  0.6767
 2485SOL    HW119091   0.596   4.109  17.072  3.2807  0.3283  1.3650
 2485SOL    HW219092   0.552   4.109  17.215 -2.3022  0.2961  0.2720
 2486SOL     OW19093   0.806   4.567  15.057  0.1983  0.2409 -0.4099
 2486SOL    HW119094   0.897   4.558  15.084 -0.7434 -0.0970  2.7457
 2486SOL    HW219095   0.765   4.484  15.081 -1.3266  1.0046 -0.3457
 2487SOL     OW19096   4.438   0.890   2.969  0.4332 -0.5345 -0.0400
 2487SOL    HW119097   4.425   0.960   2.906 -1.6535  0.2636  1.2578
 2487SOL    HW219098   4.446   0.807   2.922 -1.1600  0.0718 -1.4011
 2488SOL     OW19099   2.381   4.566  11.673  0.0726 -0.3197  0.0636
 2488SOL    HW119100   2.372   4.471  11.680 -2.7931 -0.0167  0.2151
 2488SOL    HW219101   2.445   4.588  11.742 -1.8340  1.5188  1.2282
 2489SOL     OW19102   0.447   2.728  13.132  0.2947 -0.0682  0.5715
 2489SOL    HW119103   0.356   2.726  13.102  1.0684  2.5476 -1.8940
 2489SOL    HW219104   0.502   2.714  13.055  1.3023  1.7417  0.9731
 2490SOL     OW19105   0.208   2.747   6.464 -0.6362  0.4241  0.0589
 2490SOL    HW119106   0.289   2.783   6.500  0.4103 -1.4761 -0.4032
 2490SOL    HW219107   0.204   2.665   6.514  1.0598  1.0035  1.1559
 2491SOL     OW19108   3.027   4.390   6.433 -0.0848 -0.0196  0.2117
 2491SOL    HW119109   3.049   4.384   6.340 -0.6160  0.9113  0.0320
 2491SOL    HW219110   2.936   4.418   6.435  0.2539  1.1138 -0.5378
 2492SOL     OW19111   1.650   0.329   7.167 -0.4090 -0.1390 -0.2096
 2492SOL    HW119112   1.641   0.414   7.122 -0.6505 -0.6141 -1.0519
 2492SOL    HW219113   1.735   0.320   7.210 -0.1963 -1.2489 -0.8786
 2493SOL     OW19114   1.815   1.093  14.927 -0.0380 -0.2648 -0.0194
 2493SOL    HW119115   1.761   1.032  14.977 -0.0881 -1.1755 -1.1916
 2493SOL    HW219116   1.859   1.036  14.864  0.5862 -2.9063  2.7757
 2494SOL     OW19117   1.928   0.070   2.565 -0.2610 -0.0983  0.1758
 2494SOL    HW119118   1.891   0.042   2.481 -1.4134 -1.3818  1.1080
 2494SOL    HW219119   1.993   0.131   2.529 -0.7566  0.5403  0.3574
 2495SOL     OW19120   4.298   4.660   8.254  0.1322  0.1116 -0.0248
 2495SOL    HW119121   4.248   4.626   8.328  1.5226  1.8837  1.7368
 2495SOL    HW219122   4.363   4.589   8.255 -0.2680 -0.2536  0.9636
 2496SOL     OW19123   0.904   3.716   0.908  0.3805 -0.3008  0.0767
 2496SOL    HW119124   0.823   3.764   0.894 -0.2906 -1.0921  1.3122
 2496SOL    HW219125   0.943   3.702   0.822  0.1200  0.0653 -0.0982
 2497SOL     OW19126   3.254   3.040   6.027 -0.1725  0.0888  1.0796
 2497SOL    HW119127   3.257   2.947   6.048  0.7561 -0.3066 -0.7188
 2497SOL    HW219128   3.191   3.046   5.954  0.6421 -0.1280  0.3560
 2498SOL     OW19129   0.136   0.870   5.686  0.0188 -0.3539  0.0405
 2498SOL    HW119130   0.121   0.830   5.601 -0.7476 -0.1671  0.0853
 2498SOL    HW219131   0.056   0.920   5.702  0.7984  0.6376  0.8677
 2499SOL     OW19132   4.461   1.812   7.738  0.1233  0.1915 -0.3428
 2499SOL    HW119133   4.429   1.857   7.816  0.2845  0.5502 -0.4832
 2499SOL    HW219134   4.525   1.872   7.700  1.6941 -0.5123  1.1703
 2500SOL     OW19135   4.444   0.392   5.344  0.1281 -0.0232 -0.1995
 2500SOL    HW119136   4.414   0.339   5.271 -1.4709 -0.6055  0.8806
 2500SOL    HW219137   4.471   0.473   5.300  3.8765 -0.9594  0.3752
 2501SOL     OW19138   4.469   2.365   2.286 -0.3145  0.1761 -0.3376
 2501SOL    HW119139   4.541   2.387   2.226  0.0494  1.2762  0.4939
 2501SOL    HW219140   4.520   2.352   2.366 -0.6631  0.8947  0.0028
 2502SOL     OW19141   2.572   3.845   8.154 -0.0945 -0.5254 -0.0645
 2502SOL    HW119142   2.641   3.802   8.205  1.4834 -0.2876 -1.9862
 2502SOL    HW219143   2.594   3.937   8.168  2.4528 -1.1424 -0.0226
 2503SOL     OW19144   2.001   1.648   1.432 -0.4486 -0.3345  0.0944
 2503SOL    HW119145   2.070   1.703   1.467  1.3596 -2.3847 -0.2457
 2503SOL    HW219146   1.930   1.712   1.442 -1.0172 -0.8035 -0.9563
 2504SOL     OW19147   0.343   3.058   3.810 -0.3955 -0.0475  0.0641
 2504SOL    HW119148   0.352   2.988   3.745  0.1721  0.6330 -0.5823
 2504SOL    HW219149   0.248   3.052   3.821 -0.4209 -1.1098 -0.7839
 2505SOL     OW19150   4.552   2.439   3.732  0.6385  0.1853  0.4500
 2505SOL    HW119151   4.505   2.519   3.754  0.0439  0.3430 -1.3889
 2505SOL    HW219152   4.480   2.376   3.719  0.8150 -0.2629  1.6465
 2506SOL     OW19153   2.652   1.853  17.194  0.2737 -0.0054  0.3886
 2506SOL    HW119154   2.650   1.943  17.163 -2.4178  0.3233  1.5548
 2506SOL    HW219155   2.741   1.835  17.163  1.0314  0.9079  2.0423
 2507SOL     OW19156   4.209   4.337   3.097 -0.2491  0.7016 -0.2655
 2507SOL    HW119157   4.158   4.412   3.127  1.1236  1.3483  0.4372
 2507SOL    HW219158   4.206   4.277   3.171 -0.4467  0.5649 -0.3841
 2508SOL     OW19159   0.808   1.965   9.605 -0.1121 -0.5430 -0.4707
 2508SOL    HW119160   0.776   1.911   9.677 -0.4745  0.0984 -0.1525
 2508SOL    HW219161   0.890   2.001   9.639 -0.4723 -0.2032  0.0458
 2509SOL     OW19162   0.256   0.667   8.648  0.3241 -0.5302 -0.0159
 2509SOL    HW119163   0.172   0.656   8.691 -0.1122 -1.2393 -1.0494
 2509SOL    HW219164   0.316   0.599   8.679  0.2629 -0.4617  0.2497
 2510SOL     OW19165   4.233   0.103   4.105  0.2416  0.0525 -0.5979
 2510SOL    HW119166   4.211   0.013   4.084 -0.0082 -0.0436  0.1120
 2510SOL    HW219167   4.182   0.105   4.185  3.8844  0.4163  1.7183
 2511SOL     OW19168   0.887   2.763   7.387 -0.2891 -0.2340  0.2808
 2511SOL    HW119169   0.824   2.700   7.352 -2.1732  0.7402  1.8782
 2511SOL    HW219170   0.898   2.826   7.316  0.7752  3.1579  3.4601
 2512SOL     OW19171   2.168   1.763   7.440  0.1493  0.0197  0.1547
 2512SOL    HW119172   2.256   1.753   7.403 -0.4639  0.5771 -1.4238
 2512SOL    HW219173   2.187   1.816   7.517  0.7832 -0.8437  0.6043
 2513SOL     OW19174   3.808   2.498   1.623 -0.2492 -0.8100 -0.2987
 2513SOL    HW119175   3.769   2.437   1.686 -2.2675  0.6462 -0.1202
 2513SOL    HW219176   3.889   2.507   1.673 -1.6362  0.4054  1.7513
 2514SOL     OW19177   0.680   2.771   7.793 -0.8297  0.2596  0.8280
 2514SOL    HW119178   0.742   2.722   7.847 -0.1958  1.2129  0.9512
 2514SOL    HW219179   0.742   2.816   7.735 -1.2938  0.2597  0.3296
 2515SOL     OW19180   3.394   3.867  16.712  0.2101 -0.9284  0.2294
 2515SOL    HW119181   3.348   3.805  16.655  0.0046 -1.1739  0.6670
 2515SOL    HW219182   3.383   3.836  16.802 -3.0444 -2.0333 -0.5462
 2516SOL     OW19183   0.448   2.419  17.065 -0.5678  0.3804  0.1941
 2516SOL    HW119184   0.406   2.375  17.139 -0.5364 -0.9298 -0.5594
 2516SOL    HW219185   0.381   2.486  17.054 -0.4865  0.4673  0.2275
 2517SOL     OW19186   1.210   4.366   5.113  0.0546 -0.0205  0.3641
 2517SOL    HW119187   1.239   4.297   5.173  2.0599 -0.5435 -1.2211
 2517SOL    HW219188   1.283   4.369   5.051  0.6029 -0.2959  0.9987
 2518SOL     OW19189   1.039   1.950  15.982 -0.1710 -0.0030  0.0569
 2518SOL    HW119190   1.013   1.866  16.022  0.7614 -0.1132  0.4484
 2518SOL    HW219191   1.088   2.003  16.045 -2.1773 -0.6894  2.2256
 2519SOL     OW19192   2.003   2.145   4.663 -0.1405 -0.4993 -0.0702
 2519SOL    HW119193   1.939   2.199   4.710 -1.0000 -0.2797 -1.5018
 2519SOL    HW219194   1.995   2.062   4.710  0.8630  1.1802  3.1097
 2520SOL     OW19195   3.357   1.557   8.113  0.3055  0.1374  0.7099
 2520SOL    HW119196   3.405   1.559   8.030 -1.1389  0.5145 -0.1249
 2520SOL    HW219197   3.396   1.626   8.166 -0.0123  2.0137 -1.5120
 2521SOL     OW19198   1.343   2.032  17.601  0.4674 -0.7229 -0.1601
 2521SOL    HW119199   1.421   2.030  17.656 -0.8571  0.3955  1.7712
 2521SOL    HW219200   1.285   1.999  17.669 -0.3606 -1.7578 -1.3537
 2522SOL     OW19201   2.079   4.701   1.548 -0.1023  0.2932 -0.5228
 2522SOL    HW119202   2.110   4.650   1.623 -2.1520 -1.7168 -1.0486
 2522SOL    HW219203   2.150   4.680   1.487 -0.8246 -0.8495 -0.9772
 2523SOL     OW19204   0.143   0.059   2.480  0.3731 -0.0151 -0.8490
 2523SOL    HW119205   0.179   0.115   2.549 -0.8022  1.1514 -1.1884
 2523SOL    HW219206   0.176   0.106   2.403  1.6341  1.1677  0.4098
 2524SOL     OW19207   2.593   1.690   3.945 -0.6230  0.2115 -0.9277
 2524SOL    HW119208   2.641   1.612   3.918 -2.0965 -1.6918  1.9677
 2524SOL    HW219209   2.505   1.660   3.924 -0.6802 -0.3183  0.0521
 2525SOL     OW19210   2.468   3.518   3.789 -0.2426  0.8657 -0.2154
 2525SOL    HW119211   2.501   3.429   3.772  2.1023  1.9310 -1.2101
 2525SOL    HW219212   2.511   3.527   3.874  0.5678  0.2584 -0.5517
 2526SOL     OW19213   0.177   1.714   6.443 -0.0641  0.0125  0.0495
 2526SOL    HW119214   0.097   1.745   6.486  0.2610  1.1005 -0.1238
 2526SOL    HW219215   0.150   1.679   6.357 -0.0340 -1.6358  0.7161
 2527SOL     OW19216   1.271   3.375   1.299 -0.6670 -0.2744 -0.6458
 2527SOL    HW119217   1.273   3.470   1.296 -1.1725 -0.1623  2.6411
 2527SOL    HW219218   1.238   3.355   1.211 -1.5781  1.9536 -0.8141
 2528SOL     OW19219   3.473   3.389   8.951 -0.1685  0.4735 -0.3220
 2528SOL    HW119220   3.562   3.397   8.915 -1.1161  0.8272 -2.5958
 2528SOL    HW219221   3.428   3.450   8.893  1.1337  1.2904 -0.4789
 2529SOL     OW19222   1.012   2.931  12.786  0.1097 -0.5616  0.4676
 2529SOL    HW119223   1.021   2.949  12.692 -3.6609 -1.1113  0.0001
 2529SOL    HW219224   1.104   2.929  12.812  0.2885 -0.8944 -0.1928
 2530SOL     OW19225   1.329   3.975   2.305  0.3798  0.3981  0.2925
 2530SOL    HW119226   1.265   4.005   2.370 -0.5528  3.2728 -1.9279
 2530SOL    HW219227   1.403   4.030   2.330  0.1164 -0.9082  3.9382
 2531SOL     OW19228   1.123   3.918   4.493 -0.0327  0.3096  0.0881
 2531SOL    HW119229   1.061   3.944   4.425  3.6552 -1.3171 -3.9538
 2531SOL    HW219230   1.091   3.832   4.521 -1.2036 -0.6673 -4.2124
 2532SOL     OW19231   3.820   1.581  15.881  0.0182  0.0413  0.4259
 2532SOL    HW119232   3.754   1.643  15.849  0.6512  0.2048 -0.5769
 2532SOL    HW219233   3.874   1.632  15.941 -0.0728  1.3633 -0.6080
 2533SOL     OW19234   0.674   1.734   4.955  0.9464  0.1019  0.5261
 2533SOL    HW119235   0.733   1.778   4.895 -0.8354 -1.4884 -2.4018
 2533SOL    HW219236   0.723   1.679   5.017  1.9166 -1.4432 -1.6016
 2534SOL     OW19237   2.773   1.304  12.852  0.1138 -0.2836  0.3041
 2534SOL    HW119238   2.865   1.330  12.860 -0.6972  2.9090 -0.8469
 2534SOL    HW219239   2.751   1.305  12.945  0.4795  0.0668  0.3849
 2535SOL     OW19240   4.085   4.392   6.950 -0.2094  0.4375  0.2299
 2535SOL    HW119241   4.069   4.403   7.044  0.3582 -1.2108  0.5218
 2535SOL    HW219242   4.087   4.483   6.923 -0.5267  0.5301  0.5141
 2536SOL     OW19243   2.129   0.532   3.819 -0.2415 -0.5687 -0.0425
 2536SOL    HW119244   2.213   0.515   3.776  0.2078 -1.7635  1.3463
 2536SOL    HW219245   2.072   0.461   3.792 -1.7098  0.5086  0.2440
 2537SOL     OW19246   0.066   2.100   2.571 -0.5220  0.1033 -0.1208
 2537SOL    HW119247   0.123   2.166   2.531  0.4575 -0.3718  0.5072
 2537SOL    HW219248   0.086   2.022   2.520 -1.9919 -0.8983  0.8472
 2538SOL     OW19249   0.771   2.150  16.829  0.3601 -0.0272 -0.1641
 2538SOL    HW119250   0.745   2.240  16.850  1.3399  0.3737 -0.6510
 2538SOL    HW219251   0.776   2.111  16.916 -0.0823  0.7663  0.2206
 2539SOL     OW19252   4.579   0.173   4.864 -0.2510 -0.2800 -0.3451
 2539SOL    HW119253   4.565   0.222   4.784  1.9781  1.1323  0.1368
 2539SOL    HW219254   4.672   0.181   4.888  0.0475  0.2634 -1.6743
 2540SOL     OW19255   1.147   2.709  12.550  0.0287  0.1793  0.3656
 2540SOL    HW119256   1.103   2.793  12.536 -0.6117  0.0358  1.4504
 2540SOL    HW219257   1.213   2.736  12.615  0.8087  0.0410 -0.3800
 2541SOL     OW19258   2.236   2.929   2.537 -0.1213 -0.1202  1.0560
 2541SOL    HW119259   2.220   2.878   2.458  1.4129  0.3494  0.4518
 2541SOL    HW219260   2.222   2.863   2.605  2.7997  0.0027  1.7944
 2542SOL     OW19261   2.064   1.306   4.892 -0.4800 -0.3679  0.0418
 2542SOL    HW119262   2.151   1.335   4.864 -0.1394 -1.5173 -0.0914
 2542SOL    HW219263   2.063   1.310   4.987  0.0437  0.3666  0.0107
 2543SOL     OW19264   3.806   3.473  11.019  0.0838 -0.6182 -0.3252
 2543SOL    HW119265   3.758   3.459  11.101 -1.2098  0.6606 -0.8673
 2543SOL    HW219266   3.858   3.549  11.045 -1.7431  0.5400  0.0162
 2544SOL     OW19267   1.029   4.256   8.066  0.6450 -0.3561  0.2681
 2544SOL    HW119268   1.081   4.269   7.987  2.4039 -2.5802  1.0455
 2544SOL    HW219269   0.940   4.275   8.039 -0.4130 -1.2308  3.1116
 2545SOL     OW19270   0.600   1.474   8.599  0.0563 -0.0572 -0.3157
 2545SOL    HW119271   0.648   1.556   8.587  2.1185 -1.3771 -1.2315
 2545SOL    HW219272   0.513   1.512   8.609  0.5642  1.1439 -0.3803
 2546SOL     OW19273   1.912   0.044   0.086  0.1893  0.0178  0.3176
 2546SOL    HW119274   1.873   0.131   0.097  0.0550 -0.0584  0.4489
 2546SOL    HW219275   1.984   0.056   0.148  0.6361  2.0032 -0.5671
 2547SOL     OW19276   2.978   3.615  13.782  0.0470  0.2996 -0.4349
 2547SOL    HW119277   2.978   3.551  13.853  1.2848  0.2618 -0.4845
 2547SOL    HW219278   2.929   3.687  13.824  0.4306  0.2124  0.1658
 2548SOL     OW19279   2.752   4.340  11.634 -0.1219 -0.4284  0.3150
 2548SOL    HW119280   2.821   4.399  11.603 -1.3860  1.5463  1.2913
 2548SOL    HW219281   2.679   4.344  11.572 -0.7343  1.3244  1.1603
 2549SOL     OW19282   1.439   4.395   4.938 -0.4768 -0.0428  0.3322
 2549SOL    HW119283   1.464   4.321   4.883  0.0086 -0.9549  1.7766
 2549SOL    HW219284   1.522   4.430   4.972 -1.2440  2.7838 -0.6752
 2550SOL     OW19285   2.587   2.160   2.749  0.5207  0.1437  0.4663
 2550SOL    HW119286   2.516   2.181   2.688  1.8336 -1.1060 -1.4641
 2550SOL    HW219287   2.618   2.248   2.771 -0.5335  0.5566  0.3259
 2551SOL     OW19288   2.220   4.421  15.634  0.3559 -0.3308  0.0629
 2551SOL    HW119289   2.139   4.429  15.584  0.6659  2.3641 -0.0096
 2551SOL    HW219290   2.267   4.491  15.588  1.5237  0.3606  2.3077
 2552SOL     OW19291   4.071   4.408   9.690  0.0251  0.4813  0.4833
 2552SOL    HW119292   4.153   4.448   9.718 -0.7293  2.9986 -0.9041
 2552SOL    HW219293   4.035   4.394   9.778 -0.5645 -0.1915  0.1344
 2553SOL     OW19294   2.853   3.738   2.016 -0.0184 -0.7088  0.7280
 2553SOL    HW119295   2.891   3.651   2.030  2.8806  0.3120 -0.6965
 2553SOL    HW219296   2.790   3.711   1.949 -1.4555  0.3164  1.6769
 2554SOL     OW19297   1.829   0.041  10.872 -0.3820 -0.2974  0.9356
 2554SOL    HW119298   1.757   0.089  10.831  1.8213 -1.1286 -3.9669
 2554SOL    HW219299   1.780   4.700  10.896  1.3985 -1.6942  0.0971
 2555SOL     OW19300   2.816   4.720   5.378  0.6856 -0.6005  0.4032
 2555SOL    HW119301   2.795   0.052   5.441  0.1071 -0.3198 -0.1048
 2555SOL    HW219302   2.780   0.026   5.301 -1.0421 -1.2777  0.8292
 2556SOL     OW19303   0.414   3.218   9.897 -0.0658 -0.0470  0.3657
 2556SOL    HW119304   0.389   3.303   9.932  1.1223  0.1425  0.7257
 2556SOL    HW219305   0.352   3.174   9.955 -1.2526  1.4594  0.2304
 2557SOL     OW19306   1.655   0.046   6.640  0.0763  1.0450  0.2754
 2557SOL    HW119307   1.575   0.011   6.602  0.5674  2.2534 -1.8338
 2557SOL    HW219308   1.624   0.062   6.729  3.7465 -1.5741  2.0740
 2558SOL     OW19309   1.436   1.943   1.535 -0.1219  0.2027 -0.7268
 2558SOL    HW119310   1.474   1.863   1.572 -0.2483  0.8637  0.8182
 2558SOL    HW219311   1.351   1.964   1.572  0.5334 -4.1469  3.2704
 2559SOL     OW19312   1.079   1.580   7.316  0.2980  0.0271 -0.2889
 2559SOL    HW119313   0.999   1.557   7.363 -0.3587  0.2466 -1.3005
 2559SOL    HW219314   1.066   1.675   7.322 -0.2750 -0.0006 -1.1179
 2560SOL     OW19315   1.427   4.529  10.089 -0.5015 -0.0909 -0.4790
 2560SOL    HW119316   1.462   4.613  10.061 -1.2400  0.4492  0.2355
 2560SOL    HW219317   1.503   4.491  10.134 -0.4461 -1.7070 -1.9528
 2561SOL     OW19318   0.317   3.763   9.836  0.1093  0.2589  0.4371
 2561SOL    HW119319   0.398   3.808   9.813 -0.2157  1.3471  1.4011
 2561SOL    HW219320   0.301   3.718   9.753  0.7812  1.3262 -0.2699
 2562SOL     OW19321   1.291   0.304  15.955  0.2405  0.2236  0.0520
 2562SOL    HW119322   1.277   0.209  15.960 -1.2672  0.5000  1.2319
 2562SOL    HW219323   1.288   0.320  16.049  0.1223  0.8931 -0.0671
 2563SOL     OW19324   4.667   3.043  17.258  0.2331  0.1772  0.2228
 2563SOL    HW119325   4.576   3.064  17.278  0.6626  2.0069  0.2072
 2563SOL    HW219326   4.650   2.949  17.247 -1.4299  0.1781  2.9553
 2564SOL     OW19327   3.106   3.784   5.462  0.7364  0.1056 -0.8445
 2564SOL    HW119328   3.112   3.871   5.499  1.6291  0.2501 -1.3116
 2564SOL    HW219329   3.091   3.727   5.537 -0.9858  3.6727  1.4919
 2565SOL     OW19330   0.493   4.719   8.378  0.3759  0.0115  0.3949
 2565SOL    HW119331   0.461   4.702   8.289  2.3210  0.1609 -0.3397
 2565SOL    HW219332   0.483   4.636   8.425  0.4951 -0.0041  0.3932
 2566SOL     OW19333   3.317   1.739   5.726  0.0366 -0.2135  0.4912
 2566SOL    HW119334   3.339   1.826   5.759 -1.9914  0.8140 -0.8822
 2566SOL    HW219335   3.387   1.727   5.662 -0.9238 -1.0787 -0.3878
 2567SOL     OW19336   1.329   0.257   3.477  0.1729  0.3638  0.1056
 2567SOL    HW119337   1.299   0.169   3.502 -1.0460  0.4107 -1.2093
 2567SOL    HW219338   1.421   0.237   3.461  0.6945  4.1188 -1.5578
 2568SOL     OW19339   4.465   2.752   2.846  0.3277  0.1846 -0.2316
 2568SOL    HW119340   4.511   2.737   2.929  0.7833  2.8960  0.0002
 2568SOL    HW219341   4.375   2.747   2.879  0.3478 -0.9295 -0.3507
 2569SOL     OW19342   2.364   3.098   2.721  0.1743  0.4073  0.3445
 2569SOL    HW119343   2.319   3.181   2.732 -0.8859 -0.2551  0.9296
 2569SOL    HW219344   2.318   3.054   2.649 -0.2500  0.9555  0.2787
 2570SOL     OW19345   3.854   4.643  11.157  0.0660 -0.5904 -0.0612
 2570SOL    HW119346   3.760   4.625  11.149 -0.1764  1.3830 -1.5108
 2570SOL    HW219347   3.895   4.563  11.125  0.4315 -0.7579  0.8189
 2571SOL     OW19348   2.480   3.852   9.076 -0.3432 -0.1275 -0.4464
 2571SOL    HW119349   2.457   3.945   9.082  1.7527  0.2668  1.6126
 2571SOL    HW219350   2.413   3.822   9.014  1.2452 -2.6210 -0.9469
 2572SOL     OW19351   4.340   1.779   5.353  0.2995  0.1287 -0.0542
 2572SOL    HW119352   4.426   1.788   5.394  0.0521  3.0778 -0.1655
 2572SOL    HW219353   4.317   1.703   5.407  0.7563 -0.0020 -0.0498
 2573SOL     OW19354   3.926   0.701   8.215  0.0311 -0.1574 -0.0853
 2573SOL    HW119355   3.927   0.612   8.249 -2.7278  0.1686  0.9243
 2573SOL    HW219356   3.908   0.673   8.125 -1.5777  0.7064 -0.0423
 2574SOL     OW19357   3.533   1.628   4.358 -0.3828 -0.1371 -0.9260
 2574SOL    HW119358   3.476   1.629   4.435 -0.5894 -0.5561 -1.0737
 2574SOL    HW219359   3.471   1.616   4.286 -2.4307  0.7691  0.6961
 2575SOL     OW19360   0.126   2.118  14.535  0.2001  0.6261  0.4088
 2575SOL    HW119361   0.195   2.102  14.470  0.3425  1.8349  0.2558
 2575SOL    HW219362   0.186   2.157  14.597  0.0625 -0.9750  1.5441
 2576SOL     OW19363   3.228   1.932   0.472  0.1042  0.2961  0.2097
 2576SOL    HW119364   3.172   1.895   0.404 -0.5805  0.1641  0.8390
 2576SOL    HW219365   3.213   1.864   0.538  0.4316  1.2619  1.2723
 2577SOL     OW19366   1.204   0.551   5.751  0.3520 -0.2150 -0.3702
 2577SOL    HW119367   1.238   0.538   5.840 -0.7180 -0.3427  0.0151
 2577SOL    HW219368   1.272   0.507   5.701  0.1687 -1.0778  0.1423
 2578SOL     OW19369   3.755   3.789   6.755  0.1041 -0.0803  0.0187
 2578SOL    HW119370   3.777   3.747   6.838  3.9634  1.5344 -0.1803
 2578SOL    HW219371   3.786   3.879   6.760  0.2361 -0.1163 -0.1551
 2579SOL     OW19372   1.978   1.364   5.301  0.3866 -0.5756 -0.0163
 2579SOL    HW119373   2.051   1.330   5.249 -0.3879 -0.3271 -1.2717
 2579SOL    HW219374   1.911   1.309   5.260 -1.5876  1.3872  0.5627
 2580SOL     OW19375   2.333   3.554   3.126  0.1299  0.7269 -0.0092
 2580SOL    HW119376   2.285   3.501   3.189 -0.0409  0.1941 -0.5991
 2580SOL    HW219377   2.387   3.482   3.094 -1.3589  1.2057 -3.5564
 2581SOL     OW19378   4.097   0.356   6.377 -0.1705 -0.8074  0.5732
 2581SOL    HW119379   4.070   0.279   6.427 -0.0446  0.9633  3.3189
 2581SOL    HW219380   4.031   0.360   6.307 -2.1943  1.2358  2.6162
 2582SOL     OW19381   0.616   2.404  13.172  0.0697  0.1216  0.6397
 2582SOL    HW119382   0.687   2.358  13.217  0.9563 -0.1877 -1.0704
 2582SOL    HW219383   0.599   2.479  13.230  0.3272  0.4618  0.2786
 2583SOL     OW19384   3.990   1.114   0.162  0.2584 -0.5635  0.8237
 2583SOL    HW119385   3.931   1.057   0.211  0.8483 -0.4907  1.6158
 2583SOL    HW219386   3.993   1.194   0.214  2.3870 -0.2902  0.2789
 2584SOL     OW19387   0.424   4.450   4.083 -0.0054 -0.1422  0.0794
 2584SOL    HW119388   0.351   4.454   4.145  1.0933  0.3222  1.3491
 2584SOL    HW219389   0.432   4.543   4.061 -0.9503  0.3616  1.8297
 2585SOL     OW19390   3.234   0.075   7.272 -0.5176 -0.1905 -0.3473
 2585SOL    HW119391   3.299   0.133   7.311 -0.7485  1.1163 -1.9200
 2585SOL    HW219392   3.182   0.063   7.351 -0.0416  1.6418  0.2510
 2586SOL     OW19393   1.781   0.367  12.320 -0.0341 -0.4287  0.1676
 2586SOL    HW119394   1.712   0.433  12.330 -1.0119 -1.3210 -0.7149
 2586SOL    HW219395   1.717   0.297  12.308  0.6784 -1.1638  0.6847
 2587SOL     OW19396   0.590   2.654   9.323 -0.3332 -0.1537 -0.0941
 2587SOL    HW119397   0.544   2.689   9.399  1.7319  1.2816  0.5220
 2587SOL    HW219398   0.531   2.600   9.270 -0.7752 -2.8876  3.1958
 2588SOL     OW19399   2.117   2.907   0.506 -0.3981 -0.5378  0.0356
 2588SOL    HW119400   2.150   2.964   0.576  3.2761  0.1421 -2.2621
 2588SOL    HW219401   2.039   2.880   0.556 -0.1493  0.5552  1.0056
 2589SOL     OW19402   3.672   4.266  13.620 -0.4234  0.5283  1.1253
 2589SOL    HW119403   3.675   4.186  13.567 -0.5681  1.2723 -0.0222
 2589SOL    HW219404   3.656   4.234  13.709 -1.6898  0.5208  0.8941
 2590SOL     OW19405   0.083   2.453   8.364  0.4800  0.6462  0.0479
 2590SOL    HW119406   0.054   2.528   8.416  1.3049 -0.7381  2.5213
 2590SOL    HW219407   0.016   2.386   8.377  2.1491 -1.3285 -1.6426
 2591SOL     OW19408   2.887   3.309   0.935 -0.4040 -0.1981  0.1014
 2591SOL    HW119409   2.891   3.387   0.989  2.1994  0.8907 -1.6137
 2591SOL    HW219410   2.818   3.267   0.985 -2.3831  1.0634 -1.5771
 2592SOL     OW19411   1.685   1.776  16.868  0.7913  0.0698 -0.1728
 2592SOL    HW119412   1.713   1.860  16.831  4.4833 -0.7357  0.8142
 2592SOL    HW219413   1.590   1.793  16.863  0.7845  0.5455  1.9774
 2593SOL     OW19414   3.862   2.094   5.485 -0.0645 -0.0368  0.3555
 2593SOL    HW119415   3.925   2.163   5.465 -0.8998  1.1797  2.0288
 2593SOL    HW219416   3.908   2.010   5.491 -0.3120 -0.2160 -0.2291
 2594SOL     OW19417   4.584   3.311   5.559 -0.1130 -0.0195  0.1271
 2594SOL    HW119418   4.528   3.235   5.571  0.8276 -0.4510  1.8453
 2594SOL    HW219419   4.522   3.373   5.521  0.3719  0.6710  0.4429
 2595SOL     OW19420   2.660   4.699   2.333  0.9983 -0.2407  0.3427
 2595SOL    HW119421   2.671   4.604   2.339  0.7827 -0.4431 -2.3476
 2595SOL    HW219422   2.712   4.734   2.405  0.3166  0.7718  0.3458
 2596SOL     OW19423   3.449   3.333  12.281 -0.3121 -0.2250  0.2368
 2596SOL    HW119424   3.441   3.426  12.300 -0.9796 -0.2132 -0.0991
 2596SOL    HW219425   3.398   3.298  12.355 -0.2229 -1.6553 -0.3731
 2597SOL     OW19426   3.746   1.427   3.498 -0.3462  0.4242 -0.0570
 2597SOL    HW119427   3.761   1.504   3.554  2.0812  0.7370 -1.1242
 2597SOL    HW219428   3.686   1.381   3.556  0.5255 -0.3705  0.2177
 2598SOL     OW19429   2.306   2.885  16.333 -0.1338 -0.0848  0.7682
 2598SOL    HW119430   2.260   2.934  16.265  0.5258  0.2713  0.5867
 2598SOL    HW219431   2.310   2.950  16.403  0.3153  0.2523  0.4211
 2599SOL     OW19432   2.579   3.499  12.197 -0.1297 -0.0706  0.3282
 2599SOL    HW119433   2.522   3.517  12.272 -1.8994 -0.8477 -0.8457
 2599SOL    HW219434   2.539   3.413  12.184 -1.3169  0.0428  3.0783
 2600SOL     OW19435   2.969   4.277   9.027 -0.0940  0.3344 -0.6006
 2600SOL    HW119436   2.965   4.360   8.980  0.3528 -0.2704 -1.7129
 2600SOL    HW219437   2.997   4.300   9.116  2.5131 -1.4913 -0.9594
 2601SOL     OW19438   3.659   1.140  12.168  0.0365 -0.4105 -0.0028
 2601SOL    HW119439   3.700   1.069  12.118  1.5556  0.4836 -0.0531
 2601SOL    HW219440   3.725   1.148  12.237  0.7628  1.9044 -0.9841
 2602SOL     OW19441   0.529   1.395   2.217 -0.0876  0.0953  0.0139
 2602SOL    HW119442   0.550   1.312   2.173 -0.0711  0.2682 -0.3038
 2602SOL    HW219443   0.600   1.405   2.279  1.7697  0.7169 -2.2160
 2603SOL     OW19444   4.115   0.048   7.368 -0.1781  0.0139 -0.0110
 2603SOL    HW119445   4.115   0.137   7.333  0.6036  0.6681  1.6771
 2603SOL    HW219446   4.022   0.026   7.356 -1.0892  3.7571  0.1066
 2604SOL     OW19447   2.471   1.459   7.526  0.5489  0.2975 -0.0502
 2604SOL    HW119448   2.377   1.474   7.513  0.5923  0.5497 -0.0797
 2604SOL    HW219449   2.501   1.550   7.528 -0.0879  0.5085  0.1678
 2605SOL     OW19450   2.428   1.940  12.278  0.5006  0.0063 -0.4214
 2605SOL    HW119451   2.387   2.018  12.241  2.1330  1.2132  0.3035
 2605SOL    HW219452   2.354   1.900  12.324 -0.4298  0.4385 -1.5375
 2606SOL     OW19453   1.645   1.787   6.886 -0.1660 -0.7479 -0.0522
 2606SOL    HW119454   1.551   1.781   6.905 -0.1259  0.1680  0.4010
 2606SOL    HW219455   1.648   1.823   6.798 -1.1544  0.0421  0.2364
 2607SOL     OW19456   0.064   0.245   7.201  0.7864  0.4837  0.4153
 2607SOL    HW119457   0.038   0.162   7.241 -0.5154  0.3401 -0.7305
 2607SOL    HW219458   4.723   0.267   7.151  0.4308 -1.0394  0.2958
 2608SOL     OW19459   3.254   3.229  17.022  0.1325  0.4028  0.5726
 2608SOL    HW119460   3.162   3.208  17.039  0.1591  0.7337  1.1154
 2608SOL    HW219461   3.286   3.144  17.052  1.1523  0.1840 -1.1457
 2609SOL     OW19462   1.785   3.923   3.940  0.4812  0.0946 -0.3240
 2609SOL    HW119463   1.837   3.924   3.860  0.5042 -1.0534 -0.3239
 2609SOL    HW219464   1.758   4.014   3.950  0.3183  0.0592 -0.4378
 2610SOL     OW19465   0.355   1.916   6.347  0.8488  0.1131  0.6339
 2610SOL    HW119466   0.335   1.889   6.257 -2.4154  2.0833  0.7518
 2610SOL    HW219467   0.324   1.837   6.391  0.0525  0.1098  0.0739
 2611SOL     OW19468   1.698   3.992   7.178  0.0979 -0.0077  0.2827
 2611SOL    HW119469   1.702   4.023   7.088 -0.0222  0.6709  0.5101
 2611SOL    HW219470   1.742   3.908   7.174 -0.5404 -0.3106 -0.3765
 2612SOL     OW19471   3.233   3.318   7.085  0.0280  0.2414  0.4576
 2612SOL    HW119472   3.265   3.328   7.175 -0.7718  0.8354  0.6713
 2612SOL    HW219473   3.240   3.408   7.052  0.8682 -0.5577 -1.5255
 2613SOL     OW19474   2.826   4.079   8.584  0.1376  0.2200  0.2734
 2613SOL    HW119475   2.847   4.152   8.526 -2.0060 -0.9200 -1.9672
 2613SOL    HW219476   2.805   4.118   8.669 -1.0962  1.5539 -0.6575
 2614SOL     OW19477   4.422   2.681   2.273 -0.4042 -0.1855 -0.2674
 2614SOL    HW119478   4.418   2.595   2.317  0.6076 -0.5217 -0.8403
 2614SOL    HW219479   4.491   2.730   2.317 -0.4332  0.2020 -0.6611
 2615SOL     OW19480   2.534   2.574   0.429 -0.4070 -0.2416 -0.0202
 2615SOL    HW119481   2.454   2.620   0.402 -1.1479 -1.7595 -0.3695
 2615SOL    HW219482   2.542   2.511   0.358 -0.4931  0.1627 -0.3912
 2616SOL     OW19483   3.618   2.404   9.567 -0.4184 -0.3063 -0.2135
 2616SOL    HW119484   3.676   2.352   9.513  0.3820 -1.5152  1.8298
 2616SOL    HW219485   3.651   2.380   9.653  0.2708  0.1053 -0.3613
 2617SOL     OW19486   3.092   0.956   4.663 -0.2765  0.0520  0.2822
 2617SOL    HW119487   3.026   0.993   4.721  0.6797 -0.5051  1.7370
 2617SOL    HW219488   3.153   0.937   4.735  0.7176  0.1395 -0.5292
 2618SOL     OW19489   2.862   4.700   5.084 -0.3482  0.0112 -0.1624
 2618SOL    HW119490   2.897   0.042   5.043  0.5093 -0.8003 -0.9980
 2618SOL    HW219491   2.938   4.680   5.139 -0.8079 -0.1730  0.4046
 2619SOL     OW19492   4.160   4.216   4.058 -0.1629 -0.2745 -0.0555
 2619SOL    HW119493   4.203   4.138   4.091  1.0623  0.4793  0.1425
 2619SOL    HW219494   4.228   4.283   4.067  0.8844 -0.9624 -2.9659
 2620SOL     OW19495   1.993   1.036   3.877  0.0824 -0.4042  0.0161
 2620SOL    HW119496   2.048   1.113   3.860  1.7276 -1.3831  0.9632
 2620SOL    HW219497   2.057   0.965   3.878  0.0708 -0.4029  0.8827
 2621SOL     OW19498   0.465   4.155   1.937  0.1387 -0.1437 -0.3050
 2621SOL    HW119499   0.424   4.139   1.852 -4.2657  0.0161  1.7943
 2621SOL    HW219500   0.559   4.150   1.918  0.3007  1.0131  0.1562
 2622SOL     OW19501   0.211   0.694   2.105  0.3012 -0.0431 -0.8934
 2622SOL    HW119502   0.209   0.686   2.200  2.7511 -1.4206 -0.9569
 2622SOL    HW219503   0.118   0.707   2.085 -0.7497 -4.5238  0.9421
 2623SOL     OW19504   1.050   4.212   5.740  0.5694 -0.0128  0.2913
 2623SOL    HW119505   1.132   4.212   5.690 -0.8203 -1.0645 -2.0161
 2623SOL    HW219506   1.083   4.258   5.817 -0.0726  0.4992  0.2574
 2624SOL     OW19507   2.096   2.717  13.039 -0.2564  0.2217 -0.4084
 2624SOL    HW119508   2.165   2.783  13.030  0.5804 -0.7739 -1.3924
 2624SOL    HW219509   2.145   2.641  13.006  0.7007  1.8761 -2.8456
 2625SOL     OW19510   3.576   4.422   7.430  0.0274 -0.0042 -0.3285
 2625SOL    HW119511   3.547   4.417   7.521  1.3553  0.2124  0.1035
 2625SOL    HW219512   3.568   4.513   7.399  1.2626 -0.5009 -2.1216
 2626SOL     OW19513   1.629   3.123   5.577 -0.1979  0.2982  0.3891
 2626SOL    HW119514   1.704   3.068   5.599 -2.2655 -2.2090  1.1049
 2626SOL    HW219515   1.559   3.072   5.617 -1.3750  1.9407  0.4633
 2627SOL     OW19516   1.809   2.676   8.726 -0.0708 -0.6024 -0.0752
 2627SOL    HW119517   1.718   2.682   8.697 -0.2840  1.6856  1.1410
 2627SOL    HW219518   1.799   2.636   8.812 -0.1624 -0.6453 -0.1058
 2628SOL     OW19519   0.154   1.699   2.044  0.6889  0.6851 -0.0497
 2628SOL    HW119520   0.140   1.756   1.968  3.4534  0.4703 -0.7432
 2628SOL    HW219521   0.068   1.693   2.086  0.3769  2.4509 -0.4498
 2629SOL     OW19522   2.530   3.821   6.939 -0.2479  0.5070  0.1102
 2629SOL    HW119523   2.589   3.746   6.931 -1.1889 -0.1112 -1.1269
 2629SOL    HW219524   2.539   3.853   6.849  0.6488 -3.2509 -1.1376
 2630SOL     OW19525   3.370   2.650   6.887  0.2184  0.5048 -0.3013
 2630SOL    HW119526   3.300   2.633   6.824 -1.7020 -1.0085  2.2154
 2630SOL    HW219527   3.430   2.692   6.825 -1.0377  1.4746 -0.8400
 2631SOL     OW19528   1.308   0.731   8.488 -0.2308  1.0664  0.1049
 2631SOL    HW119529   1.351   0.679   8.421 -1.3640  0.8479 -0.4528
 2631SOL    HW219530   1.376   0.746   8.554  0.4908 -3.6373  0.4009
 2632SOL     OW19531   4.572   3.142   8.519 -0.9064 -0.5788 -0.2373
 2632SOL    HW119532   4.496   3.089   8.544 -0.4460 -1.3579 -0.5106
 2632SOL    HW219533   4.537   3.221   8.479 -0.1671 -0.1084  0.0350
 2633SOL     OW19534   3.341   4.123   9.512  0.5433 -0.3895 -0.4759
 2633SOL    HW119535   3.352   4.217   9.526 -0.0566 -0.2622 -0.8767
 2633SOL    HW219536   3.276   4.098   9.578 -0.8622 -2.5058 -2.6243
 2634SOL     OW19537   0.704   3.478   8.575  0.3529  0.5007  0.5864
 2634SOL    HW119538   0.723   3.386   8.592  0.2445  0.6541  1.5939
 2634SOL    HW219539   0.762   3.517   8.641 -0.9812  2.7783  0.4267
 2635SOL     OW19540   3.546   1.357   5.522  0.3038  0.0197  0.7343
 2635SOL    HW119541   3.551   1.369   5.427  0.0957  3.9229  1.2376
 2635SOL    HW219542   3.555   1.262   5.535  1.9334  0.1912  0.8390
 2636SOL     OW19543   1.844   0.599   9.304  0.0853 -0.4626  0.0885
 2636SOL    HW119544   1.939   0.604   9.318  0.2973  0.8944 -1.7061
 2636SOL    HW219545   1.826   0.667   9.239  0.5756 -0.5242 -0.1093
 2637SOL     OW19546   4.731   1.827   6.613  0.3786  0.5890  0.0789
 2637SOL    HW119547   4.637   1.839   6.619  0.2290 -0.1273 -0.9990
 2637SOL    HW219548   0.026   1.908   6.652  1.0338  1.1825 -1.6871
 2638SOL     OW19549   4.693   0.418   3.830 -0.2303  0.2467 -0.0037
 2638SOL    HW119550   4.650   0.396   3.748 -0.5980 -1.5026  0.6477
 2638SOL    HW219551   0.040   0.449   3.798 -1.2569  2.1540 -0.8222
 2639SOL     OW19552   0.740   4.345   7.613 -0.0081 -0.0709  0.2485
 2639SOL    HW119553   0.774   4.302   7.534  0.5238 -1.0873  1.0378
 2639SOL    HW219554   0.756   4.273   7.674 -1.1581 -0.5961 -0.0554
 2640SOL     OW19555   3.952   1.742  10.574  0.2515  0.5618 -0.2058
 2640SOL    HW119556   3.894   1.754  10.650  1.9668  1.9918  0.8866
 2640SOL    HW219557   3.932   1.650  10.559  1.6411  0.0194  1.2367
 2641SOL     OW19558   1.693   2.851   2.419 -0.1440 -0.0178  1.0560
 2641SOL    HW119559   1.679   2.759   2.396 -0.6296 -0.4252  2.9275
 2641SOL    HW219560   1.616   2.897   2.387  0.7876  0.1044 -1.0060
 2642SOL     OW19561   1.169   2.654   0.499  0.2044  0.2500 -0.1692
 2642SOL    HW119562   1.175   2.619   0.588 -2.1465 -0.1732 -0.1758
 2642SOL    HW219563   1.170   2.749   0.513  0.3670  0.3767 -1.0663
 2643SOL     OW19564   2.711   2.351  15.874 -0.7977  0.1429  0.0692
 2643SOL    HW119565   2.647   2.284  15.899 -2.0759  1.0196 -0.8237
 2643SOL    HW219566   2.754   2.370  15.958 -2.9928 -1.0170  1.4659
 2644SOL     OW19567   2.272   3.402   7.981  0.0014  0.5014 -0.2934
 2644SOL    HW119568   2.288   3.389   8.074 -0.6723 -0.8887 -0.3707
 2644SOL    HW219569   2.328   3.476   7.956  1.1395 -0.3602 -0.2569
 2645SOL     OW19570   3.326   0.850   7.548  0.6706  0.1722  0.3328
 2645SOL    HW119571   3.237   0.816   7.559  0.5292 -0.1494 -1.7838
 2645SOL    HW219572   3.325   0.942   7.576  0.8112 -0.2968  1.9026
 2646SOL     OW19573   4.627   3.490  15.684  0.4970 -0.9012 -1.0795
 2646SOL    HW119574   4.557   3.495  15.619 -1.2853 -1.2435  0.8091
 2646SOL    HW219575   4.685   3.559  15.653  0.5801  0.6584  2.5373
 2647SOL     OW19576   1.930   1.042  13.218  0.6499 -0.6027 -1.1188
 2647SOL    HW119577   1.968   1.096  13.287  0.1939 -0.8749 -0.6490
 2647SOL    HW219578   1.935   1.110  13.150  1.7826 -1.2499 -1.6583
 2648SOL     OW19579   4.257   0.105   4.455  0.1274  0.1461 -0.3967
 2648SOL    HW119580   4.216   0.023   4.483  2.2034  0.1808  2.7460
 2648SOL    HW219581   4.186   0.146   4.406 -0.2462 -1.5200 -1.2466
 2649SOL     OW19582   3.706   2.107   2.453  0.3055  0.6289 -0.3703
 2649SOL    HW119583   3.646   2.034   2.470  1.7652 -1.5868 -4.7204
 2649SOL    HW219584   3.658   2.141   2.378  2.2489  2.4758 -0.7926
 2650SOL     OW19585   2.110   4.035   5.589  0.0882 -0.5324  0.4787
 2650SOL    HW119586   2.082   3.945   5.603 -1.0676 -0.3653 -0.7907
 2650SOL    HW219587   2.026   4.080   5.581  1.4241  1.6663 -1.2573
 2651SOL     OW19588   3.770   1.560   5.039 -0.1615 -0.8611 -0.3497
 2651SOL    HW119589   3.856   1.526   5.014  0.9818  1.1234  0.8659
 2651SOL    HW219590   3.720   1.482   5.062 -0.9092 -0.7501 -1.6070
 2652SOL     OW19591   0.225   3.781   6.606 -0.5747  0.3385  0.1924
 2652SOL    HW119592   0.152   3.836   6.577  1.3927  3.1024  0.5096
 2652SOL    HW219593   0.212   3.779   6.701 -1.4183 -1.7069  0.0283
 2653SOL     OW19594   2.108   3.229   0.818 -0.3026  0.1444  0.3469
 2653SOL    HW119595   2.023   3.232   0.861 -0.6269  0.8616 -0.3279
 2653SOL    HW219596   2.104   3.297   0.750  0.5613  0.0389  0.1940
 2654SOL     OW19597   3.944   1.566  14.838  0.1126  0.0591 -0.6634
 2654SOL    HW119598   3.938   1.579  14.933 -0.2227 -0.1066 -0.6617
 2654SOL    HW219599   3.868   1.610  14.801 -0.4822  0.1961  0.7118
 2655SOL     OW19600   0.804   0.941   9.033  0.4190 -0.4333  0.1314
 2655SOL    HW119601   0.753   0.922   8.954  1.1842  1.1289 -0.7342
 2655SOL    HW219602   0.845   0.855   9.045 -0.7501 -1.2074 -1.4064
 2656SOL     OW19603   3.164   4.067   3.535  0.2409  0.4170  0.5224
 2656SOL    HW119604   3.103   4.026   3.597  0.9066  0.1699  1.0138
 2656SOL    HW219605   3.217   4.119   3.596  1.7176 -0.4815  0.0040
 2657SOL     OW19606   0.124   2.000  14.929 -0.0061  0.6107  0.0981
 2657SOL    HW119607   0.035   1.972  14.953 -0.1087  0.3161 -0.6263
 2657SOL    HW219608   0.133   1.991  14.834 -1.2396 -0.1576  0.0494
 2658SOL     OW19609   2.103   4.089  10.953  0.1608  0.5250  0.2869
 2658SOL    HW119610   2.010   4.111  10.962 -0.0327  0.5468 -1.6689
 2658SOL    HW219611   2.098   3.997  10.928 -1.9070  0.6865  0.0687
 2659SOL     OW19612   2.931   4.252   2.837  0.1464 -0.4366 -0.4607
 2659SOL    HW119613   3.005   4.208   2.879  0.1483 -0.5483 -0.5818
 2659SOL    HW219614   2.867   4.248   2.908  0.4579  1.5667 -0.0740
 2660SOL     OW19615   2.901   3.936  10.009  0.5915 -1.0867 -0.4041
 2660SOL    HW119616   2.984   3.979   9.987 -0.0439 -0.0103 -0.6759
 2660SOL    HW219617   2.912   3.936  10.104  1.4234 -0.7373 -0.4931
 2661SOL     OW19618   2.803   2.157   7.251  0.2134 -0.1141  0.4927
 2661SOL    HW119619   2.865   2.223   7.283 -1.4419  0.2192  3.0481
 2661SOL    HW219620   2.767   2.130   7.336  0.8382  1.8641  1.3925
 2662SOL     OW19621   1.460   3.672   6.212 -0.0617  0.8299 -0.1735
 2662SOL    HW119622   1.403   3.699   6.284  2.6577  2.4669  1.3904
 2662SOL    HW219623   1.454   3.749   6.156  0.6678  0.7999 -0.2970
 2663SOL     OW19624   1.726   3.591   4.311  0.6168 -0.5935  0.8657
 2663SOL    HW119625   1.697   3.538   4.385 -1.3682 -0.9000 -0.1030
 2663SOL    HW219626   1.663   3.663   4.322  2.3256  1.0978 -0.4538
 2664SOL     OW19627   1.391   4.156   8.515 -0.2786  0.0024  0.6305
 2664SOL    HW119628   1.364   4.083   8.571 -0.9109  1.2626  1.9603
 2664SOL    HW219629   1.316   4.212   8.536 -1.6915 -1.6945  0.1675
 2665SOL     OW19630   4.594   0.366  13.421  0.4771 -0.4396 -0.4405
 2665SOL    HW119631   4.680   0.333  13.395  1.1106  1.3218 -0.5573
 2665SOL    HW219632   4.544   0.338  13.343  0.1284  3.6119 -1.6498
 2666SOL     OW19633   0.304   4.560  10.032  0.1067  0.3381  0.2062
 2666SOL    HW119634   0.319   4.484   9.976 -1.7610 -0.4650  0.7809
 2666SOL    HW219635   0.288   4.506  10.110  0.3517  0.9354  0.6656
 2667SOL     OW19636   3.531   0.885   3.617  0.0933 -0.1613  0.3306
 2667SOL    HW119637   3.491   0.804   3.648  2.9493 -2.1366 -1.1013
 2667SOL    HW219638   3.615   0.877   3.663  0.1071 -0.6890  0.2147
 2668SOL     OW19639   4.245   0.771   5.897  0.2920 -0.0720 -0.7566
 2668SOL    HW119640   4.192   0.847   5.874  1.0276  0.0326 -2.1277
 2668SOL    HW219641   4.313   0.802   5.957 -0.0429  3.2961 -2.0929
 2669SOL     OW19642   2.167   1.334   3.730 -0.0724  0.0163 -0.4117
 2669SOL    HW119643   2.253   1.313   3.767  0.6607  1.3823 -1.3422
 2669SOL    HW219644   2.199   1.406   3.676  0.6644  0.1614  0.2170
 2670SOL     OW19645   4.389   1.067   7.146 -0.4629  0.0374  0.5048
 2670SOL    HW119646   4.455   1.114   7.197  0.7845 -1.1159 -0.0365
 2670SOL    HW219647   4.412   1.093   7.057 -0.4568 -1.7442 -0.0198
 2671SOL     OW19648   0.658   2.088   2.574 -0.1479 -0.4437  0.4692
 2671SOL    HW119649   0.725   2.153   2.596  0.6668 -0.4163 -2.1064
 2671SOL    HW219650   0.672   2.024   2.644 -2.7310 -0.8273  0.6346
 2672SOL     OW19651   2.124   0.634   7.996  0.0166 -0.0629 -0.0418
 2672SOL    HW119652   2.198   0.694   7.983  2.6927 -3.3553 -0.1916
 2672SOL    HW219653   2.138   0.621   8.090 -0.4508  0.0794  0.0464
 2673SOL     OW19654   3.821   1.581   2.110  0.4743 -0.1072 -0.6467
 2673SOL    HW119655   3.861   1.667   2.119  0.5813 -0.2820  0.5410
 2673SOL    HW219656   3.765   1.592   2.033 -1.9559  0.1685  1.1718
 2674SOL     OW19657   2.544   4.018   0.741  0.1016  0.2449 -0.4851
 2674SOL    HW119658   2.471   4.014   0.803 -0.7422  1.5543 -1.4098
 2674SOL    HW219659   2.511   4.075   0.672 -1.3637  0.8596  0.7383
 2675SOL     OW19660   4.647   0.875   5.405  0.9309 -0.2104 -0.0379
 2675SOL    HW119661   4.722   0.834   5.361  0.7632 -2.3369  1.7123
 2675SOL    HW219662   4.665   0.965   5.376 -1.0143  0.3232  0.4345
 2676SOL     OW19663   0.852   0.262   8.182 -0.1610 -0.2720  0.4061
 2676SOL    HW119664   0.796   0.319   8.234  1.3045 -0.4496  2.1693
 2676SOL    HW219665   0.829   0.186   8.235 -0.0166  0.4381  1.4986
 2677SOL     OW19666   1.703   0.298  14.935 -0.3360  0.2043  0.0009
 2677SOL    HW119667   1.625   0.343  14.966 -0.3247  1.3151 -1.6123
 2677SOL    HW219668   1.670   0.208  14.941 -0.4587  0.5364  3.7735
 2678SOL     OW19669   2.042   3.911   6.307  0.2815  0.6521 -0.2479
 2678SOL    HW119670   2.084   3.873   6.384 -1.3187  0.1436  0.3640
 2678SOL    HW219671   2.044   3.840   6.242  2.7085  0.4693  0.0060
 2679SOL     OW19672   3.792   0.934   2.797 -0.1331 -0.5952  0.3108
 2679SOL    HW119673   3.747   1.018   2.785 -1.8235 -1.3346  1.4992
 2679SOL    HW219674   3.835   0.928   2.712  1.4428  2.6659  0.8487
 2680SOL     OW19675   3.979   1.522   4.820 -0.5448 -0.2201  0.0310
 2680SOL    HW119676   4.044   1.574   4.773 -0.0084  1.2748  2.4096
 2680SOL    HW219677   4.033   1.446   4.843  0.4246  0.7180  0.8382
 2681SOL     OW19678   1.976   2.925   9.313 -0.0885  0.3877  0.1760
 2681SOL    HW119679   1.932   2.906   9.231  1.5048 -0.0983 -0.5715
 2681SOL    HW219680   2.006   3.016   9.316 -2.9266  1.3876 -1.9932
 2682SOL     OW19681   2.158   0.468   1.173  0.6413  0.3655 -0.2464
 2682SOL    HW119682   2.119   0.386   1.144 -1.5737  1.2599  0.1858
 2682SOL    HW219683   2.232   0.478   1.113 -0.1478  0.9109 -1.1398
 2683SOL     OW19684   4.677   1.269   1.880  0.1231  0.3714 -0.2973
 2683SOL    HW119685   4.731   1.195   1.851 -1.1605 -1.8248  2.9677
 2683SOL    HW219686   4.589   1.232   1.883  0.1917  0.0885 -1.6424
 2684SOL     OW19687   4.368   2.495   3.073  0.2287  0.6695 -0.1465
 2684SOL    HW119688   4.333   2.578   3.039  1.5264  0.8331 -1.0994
 2684SOL    HW219689   4.418   2.464   2.998 -0.0001  1.6999 -0.7239
 2685SOL     OW19690   3.826   1.905  15.808  0.4851  1.0822  0.0552
 2685SOL    HW119691   3.754   1.860  15.765 -1.2584  0.5264  3.5478
 2685SOL    HW219692   3.812   1.892  15.902 -0.8894 -1.1617 -0.4601
 2686SOL     OW19693   2.735   4.487   8.275  0.0607  0.1733  0.2514
 2686SOL    HW119694   2.781   4.542   8.339 -1.1343  0.4952  0.8214
 2686SOL    HW219695   2.641   4.500   8.283 -0.1858  0.2734 -3.1182
 2687SOL     OW19696   2.413   0.229   2.171  0.2624 -0.0795 -0.3367
 2687SOL    HW119697   2.321   0.252   2.162 -0.0355 -0.1228  2.5729
 2687SOL    HW219698   2.413   0.160   2.238 -0.9986  0.1282 -0.1227
 2688SOL     OW19699   0.204   3.180  13.282  0.2955  0.1638  0.0975
 2688SOL    HW119700   0.133   3.183  13.218 -1.2660 -1.6506  1.7316
 2688SOL    HW219701   0.284   3.156  13.234  0.5137  1.4835 -0.2131
 2689SOL     OW19702   1.409   1.106   2.632  0.0911  0.2880 -0.0943
 2689SOL    HW119703   1.441   1.189   2.597 -0.5704 -0.1559 -1.7526
 2689SOL    HW219704   1.337   1.132   2.689  0.2783 -2.6718  1.5290
 2690SOL     OW19705   3.841   2.244   9.428 -0.2579  0.4473  0.4397
 2690SOL    HW119706   3.904   2.253   9.500 -0.3746 -1.0110  0.7400
 2690SOL    HW219707   3.824   2.150   9.435 -0.3767  0.5372  1.3246
 2691SOL     OW19708   2.678   1.968   5.234 -0.1958 -0.5021  0.4093
 2691SOL    HW119709   2.636   1.901   5.179 -0.2727  0.5702 -0.8355
 2691SOL    HW219710   2.631   2.048   5.211 -0.2208 -0.9591 -1.1298
 2692SOL     OW19711   2.640   0.936   4.860  0.1444  0.4521 -0.2880
 2692SOL    HW119712   2.671   0.998   4.794  2.4263  0.5083  0.8360
 2692SOL    HW219713   2.685   0.853   4.844 -0.6157  0.0688 -0.4410
 2693SOL     OW19714   0.690   1.882   6.536 -0.2037  0.2407  0.0749
 2693SOL    HW119715   0.642   1.958   6.503 -1.8446 -1.5830 -1.7458
 2693SOL    HW219716   0.740   1.923   6.606 -1.9429  1.3033  0.6918
 2694SOL     OW19717   2.846   4.571  17.372  0.6321  0.0678  0.3306
 2694SOL    HW119718   2.895   4.641  17.416  0.3823  1.5994 -1.8355
 2694SOL    HW219719   2.788   4.538  17.440  0.4918 -1.6051 -0.6179
 2695SOL     OW19720   2.287   2.636  15.500 -0.1767 -0.1818 -0.3157
 2695SOL    HW119721   2.369   2.664  15.541  0.5483 -0.7849 -1.3601
 2695SOL    HW219722   2.258   2.717  15.459 -0.2284  0.4989  1.0789
 2696SOL     OW19723   3.573   3.325   0.579  0.0128  0.2939 -0.4009
 2696SOL    HW119724   3.656   3.314   0.532  0.9367  0.9353  1.0734
 2696SOL    HW219725   3.526   3.388   0.524  1.8667  2.4261  0.4511
 2697SOL     OW19726   1.359   1.107   3.918 -0.1235  0.1274 -0.0540
 2697SOL    HW119727   1.312   1.038   3.871  1.2844 -0.5493 -0.4662
 2697SOL    HW219728   1.281   1.142   3.961 -1.7827 -2.4638 -0.9169
 2698SOL     OW19729   1.812   2.422   5.096 -0.2875 -0.1096 -0.1436
 2698SOL    HW119730   1.906   2.427   5.114 -0.2869 -2.5255  0.5733
 2698SOL    HW219731   1.796   2.329   5.112 -0.9649 -0.1078 -0.8106
 2699SOL     OW19732   2.832   3.242   6.636 -0.0866  0.0510 -0.2234
 2699SOL    HW119733   2.750   3.205   6.668 -0.8997  1.9215 -0.1689
 2699SOL    HW219734   2.898   3.249   6.705 -0.0377  1.8901 -0.4487
 2700SOL     OW19735   0.062   2.535   7.070 -0.5142 -0.9074  0.5466
 2700SOL    HW119736   0.023   2.581   6.996  0.2043  0.2475  0.8929
 2700SOL    HW219737   4.723   2.488   7.105 -1.7418 -0.2389 -1.2333
 2701SOL     OW19738   0.671   1.893   9.365 -0.5760 -0.4277  0.4395
 2701SOL    HW119739   0.605   1.826   9.384 -1.5953  0.2202 -0.8578
 2701SOL    HW219740   0.714   1.893   9.450 -1.4060  0.6221  0.8469
 2702SOL     OW19741   0.317   2.359   1.233 -0.1533  0.6635 -0.0445
 2702SOL    HW119742   0.277   2.445   1.225 -0.9226  0.2579 -0.6145
 2702SOL    HW219743   0.282   2.327   1.316  3.4146 -0.9150  0.8611
 2703SOL     OW19744   4.217   2.258   4.785  0.0364 -0.3830 -0.6031
 2703SOL    HW119745   4.181   2.197   4.850  0.7908  2.7531  2.7296
 2703SOL    HW219746   4.167   2.242   4.705 -1.5106  0.3034  0.2281
 2704SOL     OW19747   2.407   3.971   8.560  0.1543  0.2605 -0.3876
 2704SOL    HW119748   2.337   3.984   8.497 -0.0738  0.2995 -0.1286
 2704SOL    HW219749   2.395   3.882   8.593  0.5058 -0.4920 -2.3239
 2705SOL     OW19750   2.691   2.180   8.388 -0.2189 -0.3259 -0.3992
 2705SOL    HW119751   2.688   2.091   8.351  0.9542 -0.6073  0.1841
 2705SOL    HW219752   2.768   2.218   8.346 -1.7654  1.9209 -1.1929
 2706SOL     OW19753   2.032   4.480   7.738  0.2011 -0.1387  0.0161
 2706SOL    HW119754   1.981   4.540   7.684 -1.1103 -0.1844  1.1861
 2706SOL    HW219755   1.958   4.421   7.757 -0.0563  0.6157  1.3137
 2707SOL     OW19756   1.741   3.286   6.816  0.6750 -0.4395  0.3070
 2707SOL    HW119757   1.815   3.325   6.771 -0.6623  0.0113 -1.5056
 2707SOL    HW219758   1.672   3.270   6.752  1.0411  2.4098 -0.8095
 2708SOL     OW19759   3.892   3.013   8.764 -0.1844  0.0595 -0.5727
 2708SOL    HW119760   3.932   2.927   8.756 -0.6800  0.0798 -3.2932
 2708SOL    HW219761   3.965   3.067   8.732 -0.4189 -0.0220 -1.2512
 2709SOL     OW19762   1.296   4.317  11.854 -0.1860 -0.2447  0.4003
 2709SOL    HW119763   1.319   4.358  11.770 -0.2607  0.3838  0.6827
 2709SOL    HW219764   1.212   4.277  11.834 -0.5451 -0.7638  3.0060
 2710SOL     OW19765   1.336   1.384   9.809  0.3884  0.5744  0.3123
 2710SOL    HW119766   1.413   1.393   9.866  0.6181  1.2133 -0.0867
 2710SOL    HW219767   1.372   1.395   9.721  1.1554  2.2651  0.8287
 2711SOL     OW19768   4.271   3.596   7.513  0.4803 -0.3503  0.0033
 2711SOL    HW119769   4.326   3.588   7.591 -0.4342  1.0059  0.7799
 2711SOL    HW219770   4.311   3.526   7.461 -0.8286  0.6533 -2.3653
 2712SOL     OW19771   3.368   4.207   3.019 -0.4774 -0.0085  0.3543
 2712SOL    HW119772   3.434   4.167   2.961  0.0139  1.7187 -0.2743
 2712SOL    HW219773   3.420   4.247   3.089 -1.8948 -1.1313  2.0251
 2713SOL     OW19774   0.094   0.257   7.907 -0.2293 -0.1614 -0.3839
 2713SOL    HW119775   0.108   0.242   8.001 -2.4456  0.6015  0.0696
 2713SOL    HW219776   0.066   0.169   7.883 -2.6910 -0.2660  2.8350
 2714SOL     OW19777   2.011   0.516  12.628 -0.1585  0.0430 -0.0643
 2714SOL    HW119778   1.999   0.528  12.722  0.6575 -1.1828  0.1994
 2714SOL    HW219779   2.106   0.515  12.615 -0.1014 -1.8693  0.5198
 2715SOL     OW19780   2.918   2.476   2.409 -0.5264  0.0451 -0.1603
 2715SOL    HW119781   2.900   2.391   2.447 -0.5452 -1.0664 -2.6301
 2715SOL    HW219782   2.881   2.460   2.322  0.1676 -0.6367 -0.3365
 2716SOL     OW19783   3.974   1.231  16.182  0.2548  0.3759 -0.5163
 2716SOL    HW119784   3.932   1.146  16.196  0.2220  0.6060  0.7940
 2716SOL    HW219785   4.023   1.214  16.102  0.3402  0.2355 -0.4352
 2717SOL     OW19786   1.192   2.807   4.955  0.2976  0.0750  0.3602
 2717SOL    HW119787   1.172   2.898   4.978  1.2767  0.7062 -1.2741
 2717SOL    HW219788   1.107   2.775   4.923  0.2769  1.2151 -0.7331
 2718SOL     OW19789   2.621   3.475   7.975 -0.0662  0.4392  1.0208
 2718SOL    HW119790   2.604   3.569   7.987 -1.9598 -0.1733  3.0639
 2718SOL    HW219791   2.616   3.424   8.056 -2.4602 -0.0296  0.5793
 2719SOL     OW19792   2.468   2.761  13.591 -0.6949 -0.0827 -0.3593
 2719SOL    HW119793   2.379   2.786  13.613  0.0300  0.2919  2.1634
 2719SOL    HW219794   2.495   2.816  13.517 -0.3885  1.5579  0.9611
 2720SOL     OW19795   2.858   2.727   3.902  0.6995  0.0543  0.5453
 2720SOL    HW119796   2.814   2.811   3.919  0.9835 -0.1191  2.1974
 2720SOL    HW219797   2.798   2.665   3.943  1.5936 -2.3960 -1.9430
 2721SOL     OW19798   0.160   2.800   7.551  0.2038 -0.0097 -0.3038
 2721SOL    HW119799   0.109   2.750   7.488 -0.9110  0.5650  0.1484
 2721SOL    HW219800   0.205   2.857   7.488  0.8559  1.6823  1.6999
 2722SOL     OW19801   0.687   2.855   4.567 -0.4362 -0.0513  0.1187
 2722SOL    HW119802   0.621   2.911   4.525 -0.1591 -0.9815 -1.5289
 2722SOL    HW219803   0.769   2.893   4.534 -0.3633  0.8892  1.4026
 2723SOL     OW19804   2.690   2.001   7.493  0.0327  0.3404 -0.4045
 2723SOL    HW119805   2.644   2.042   7.566  0.5663  1.2875 -0.5998
 2723SOL    HW219806   2.640   1.921   7.482 -0.5527  0.7333 -0.5900
 2724SOL     OW19807   3.061   3.057   8.518  0.3517  0.7106  0.2449
 2724SOL    HW119808   3.145   3.032   8.557 -0.1088  2.0510  2.0750
 2724SOL    HW219809   3.032   3.116   8.588 -1.2245 -0.4651  0.6100
 2725SOL     OW19810   1.512   2.247   9.987 -0.0997 -0.3895  0.3943
 2725SOL    HW119811   1.447   2.253  10.057  0.7142 -1.5084  1.2412
 2725SOL    HW219812   1.578   2.202  10.039 -1.1576 -1.6231  0.6741
 2726SOL     OW19813   4.598   4.550   9.800  0.0973 -0.7022  0.2434
 2726SOL    HW119814   4.647   4.583   9.875 -0.7701 -0.9354  0.9061
 2726SOL    HW219815   4.578   4.633   9.757  0.4301 -0.6233  0.2418
 2727SOL     OW19816   0.326   2.989   3.273  0.2802  0.6383 -0.1214
 2727SOL    HW119817   0.272   3.013   3.348  0.9802 -0.6380  0.7890
 2727SOL    HW219818   0.260   2.994   3.204  0.6790  1.4216 -0.4424
 2728SOL     OW19819   0.796   2.900   9.920 -0.1890 -0.3004  0.3985
 2728SOL    HW119820   0.794   2.993   9.940 -0.9351 -0.1475 -0.4094
 2728SOL    HW219821   0.803   2.898   9.824 -0.1543 -2.2038  0.4472
 2729SOL     OW19822   2.257   2.615  10.166  0.6478 -0.0988 -0.1330
 2729SOL    HW119823   2.292   2.572  10.244  2.4485  1.4793 -0.0737
 2729SOL    HW219824   2.329   2.662  10.125 -1.4047  2.0096 -1.3737
 2730SOL     OW19825   0.976   1.207   1.777  0.7367 -0.0476 -0.3380
 2730SOL    HW119826   0.896   1.164   1.747  1.1627 -0.9505 -0.1926
 2730SOL    HW219827   1.012   1.220   1.689 -0.2162  2.5777 -0.3497
 2731SOL     OW19828   2.384   2.102   5.835 -0.2001 -0.2478  0.7019
 2731SOL    HW119829   2.393   2.169   5.767 -0.0603 -0.2339  0.7347
 2731SOL    HW219830   2.432   2.035   5.786  0.7625  0.7782  0.2433
 2732SOL     OW19831   3.067   2.544   4.578 -0.3408 -0.1912  0.0467
 2732SOL    HW119832   3.084   2.451   4.565 -0.9431  0.1107 -2.9088
 2732SOL    HW219833   3.034   2.569   4.492 -1.8125  3.5903  1.6895
 2733SOL     OW19834   2.707   0.501   6.527  0.2231  0.7037 -0.0449
 2733SOL    HW119835   2.782   0.500   6.585  0.0721  0.5840  0.1489
 2733SOL    HW219836   2.750   0.518   6.443  0.7895 -0.0499  0.0976
 2734SOL     OW19837   0.608   3.062   7.022  0.8902 -0.4996 -0.3033
 2734SOL    HW119838   0.526   3.098   6.988  1.0046  1.5706  1.5941
 2734SOL    HW219839   0.574   2.987   7.070 -1.1713 -0.0106 -1.0142
 2735SOL     OW19840   0.956   0.084   6.302  0.6533  0.1125  0.1261
 2735SOL    HW119841   0.927   0.171   6.330 -1.1464 -1.1880  2.2775
 2735SOL    HW219842   0.895   0.082   6.228 -1.0486  1.5538  1.4816
 2736SOL     OW19843   0.938   0.513   3.005  0.6117  0.0229 -0.3065
 2736SOL    HW119844   0.942   0.608   3.009 -0.0562  0.1268 -1.9458
 2736SOL    HW219845   1.000   0.496   2.934 -2.3881  0.8439 -3.1498
 2737SOL     OW19846   2.144   2.364  15.065 -0.3958 -0.2133  0.7677
 2737SOL    HW119847   2.173   2.290  15.011 -3.5247  1.0177 -2.6565
 2737SOL    HW219848   2.179   2.346  15.152 -1.1956 -1.7767  0.7684
 2738SOL     OW19849   0.748   3.196  17.160  0.1289  0.4282 -0.0801
 2738SOL    HW119850   0.813   3.260  17.131  1.2267 -0.6708 -0.0578
 2738SOL    HW219851   0.792   3.118  17.127  0.0138  0.6459 -0.7468
 2739SOL     OW19852   1.531   0.681   7.020  0.3299 -0.7920 -0.1839
 2739SOL    HW119853   1.622   0.654   7.030  0.6359  0.7662  1.2083
 2739SOL    HW219854   1.517   0.724   7.104  0.7439  0.6836 -0.8787
 2740SOL     OW19855   0.735   2.047  17.058 -0.1110 -0.2760 -0.8938
 2740SOL    HW119856   0.771   1.958  17.063  0.8142  0.1533  0.0098
 2740SOL    HW219857   0.708   2.068  17.147 -0.4523 -4.3365 -0.0133
 2741SOL     OW19858   0.246   2.721   9.639  0.5625 -0.1703 -0.8354
 2741SOL    HW119859   0.228   2.627   9.640  0.2313 -0.1243 -2.6332
 2741SOL    HW219860   0.262   2.734   9.732  1.7824  0.0376 -1.0719
 2742SOL     OW19861   1.379   2.346   5.191  0.2859 -0.1771 -0.2513
 2742SOL    HW119862   1.335   2.262   5.184 -0.6190  0.3138 -0.4073
 2742SOL    HW219863   1.432   2.333   5.270  0.6813  0.2330 -0.4462
 2743SOL     OW19864   3.826   2.653  14.532 -0.7706 -0.1761  0.3122
 2743SOL    HW119865   3.890   2.723  14.547  0.8789 -1.9949  1.7775
 2743SOL    HW219866   3.829   2.647  14.437  0.6069 -0.6775  0.3826
 2744SOL     OW19867   0.755   4.097  14.083  0.2162  0.3651 -0.1505
 2744SOL    HW119868   0.731   4.181  14.122 -0.1674 -0.6856  1.8415
 2744SOL    HW219869   0.850   4.106  14.081  0.3408 -0.8009  0.5357
 2745SOL     OW19870   3.964   2.074   7.024 -0.1449 -0.1519 -0.1108
 2745SOL    HW119871   4.014   2.154   7.007 -1.2123  0.0766 -2.2487
 2745SOL    HW219872   3.892   2.074   6.961  0.4743 -1.3730 -0.8128
 2746SOL     OW19873   2.968   2.729  13.550  0.2149 -0.1843  0.2867
 2746SOL    HW119874   2.950   2.783  13.627  1.4122 -2.1910  1.9769
 2746SOL    HW219875   2.888   2.678  13.561  0.4510 -0.7213 -0.5085
 2747SOL     OW19876   3.323   0.471   0.366  0.4330  0.1007  0.5470
 2747SOL    HW119877   3.392   0.439   0.308 -0.2040 -1.5187  0.6649
 2747SOL    HW219878   3.365   0.518   0.438  1.1121 -0.1957  0.3369
 2748SOL     OW19879   0.267   3.372   0.066 -0.4498 -0.1239  0.0982
 2748SOL    HW119880   0.326   3.416   0.127  1.6572 -1.6142 -0.8799
 2748SOL    HW219881   0.198   3.438   0.053  0.1822  0.5582  0.2074
 2749SOL     OW19882   0.566   3.800   8.900  0.5739  0.4056  0.2733
 2749SOL    HW119883   0.523   3.825   8.981  0.0309  1.5358 -0.3661
 2749SOL    HW219884   0.636   3.740   8.925 -1.8096 -2.2049  0.6451
 2750SOL     OW19885   2.850   0.204   6.135  0.3694 -0.2015 -0.3801
 2750SOL    HW119886   2.828   0.164   6.051 -1.3088 -1.0396  0.4542
 2750SOL    HW219887   2.903   0.280   6.112  0.4013 -0.4834 -1.2420
 2751SOL     OW19888   2.364   0.247   8.057  0.5443  0.3778 -0.4508
 2751SOL    HW119889   2.372   0.331   8.011  1.3373  0.4107 -0.2559
 2751SOL    HW219890   2.436   0.258   8.119  1.8422 -0.7098 -1.7832
 2752SOL     OW19891   4.697   4.697   7.408 -0.5628  0.0444  0.1722
 2752SOL    HW119892   4.682   4.603   7.402 -1.5017  0.1953  0.1503
 2752SOL    HW219893   4.608   4.731   7.424 -1.0612 -1.0927 -0.2057
 2753SOL     OW19894   4.649   1.776   3.630  0.3939 -0.4070 -0.2092
 2753SOL    HW119895   4.561   1.805   3.605 -0.2823 -0.4560  2.1842
 2753SOL    HW219896   4.637   1.736   3.715  3.1077  1.0755  0.8837
 2754SOL     OW19897   1.669   1.782   3.037  0.1458  0.5925  0.1987
 2754SOL    HW119898   1.731   1.854   3.049  0.6973  0.2521 -0.5885
 2754SOL    HW219899   1.726   1.705   3.050 -0.9792 -0.1525  0.6916
 2755SOL     OW19900   3.666   1.935   3.728  0.1201  0.4230  0.1311
 2755SOL    HW119901   3.740   1.962   3.783 -0.2366  2.0414 -0.1822
 2755SOL    HW219902   3.593   1.972   3.777  0.2558 -0.6737  1.1451
 2756SOL     OW19903   3.681   3.392   7.314  0.2279  0.2813 -0.1213
 2756SOL    HW119904   3.742   3.318   7.323  0.2097  0.0105 -2.1902
 2756SOL    HW219905   3.702   3.454   7.384  2.1854  0.6076 -1.0033
 2757SOL     OW19906   1.412   0.175   9.024 -0.3172  0.1432 -0.1329
 2757SOL    HW119907   1.391   0.219   9.106  0.9536  1.3473 -0.4508
 2757SOL    HW219908   1.360   0.233   8.968  0.8274 -0.0515 -1.4010
 2758SOL     OW19909   1.043   3.987   7.658  0.2264 -0.0263  0.1546
 2758SOL    HW119910   1.098   3.981   7.736  0.0710  0.2068  0.2807
 2758SOL    HW219911   1.087   3.913   7.616  0.3705  0.3695 -0.3891
 2759SOL     OW19912   3.595   3.762   0.704 -0.2653  0.5580 -0.1338
 2759SOL    HW119913   3.637   3.814   0.773 -0.3631 -1.1666  1.2305
 2759SOL    HW219914   3.574   3.678   0.745  1.9182  0.0788 -0.0306
 2760SOL     OW19915   0.151   1.770   9.071 -0.0633 -0.3700  0.1764
 2760SOL    HW119916   0.203   1.805   9.144 -0.2562 -0.9754  0.6051
 2760SOL    HW219917   0.112   1.849   9.033 -0.3604 -0.7726 -0.3520
 2761SOL     OW19918   3.977   0.574   2.703  0.6100 -0.5254  0.2444
 2761SOL    HW119919   4.023   0.657   2.696 -2.6632  1.1112 -1.9082
 2761SOL    HW219920   4.033   0.528   2.640  0.7571 -1.6553  1.2022
 2762SOL     OW19921   0.389   4.732   7.178 -0.0601 -0.2765 -0.3002
 2762SOL    HW119922   0.410   0.065   7.117  3.0870 -0.1916  0.8910
 2762SOL    HW219923   0.417   4.653   7.131  0.3874 -0.3815  0.1513
 2763SOL     OW19924   1.397   4.581   6.901  0.0586  0.1720  0.3762
 2763SOL    HW119925   1.409   4.667   6.861 -0.6841  1.2464  2.4986
 2763SOL    HW219926   1.396   4.524   6.824  0.0087 -1.5505  1.6588
 2764SOL     OW19927   1.698   4.499   3.085 -0.6300  0.2032 -0.1494
 2764SOL    HW119928   1.733   4.510   2.997  1.7378  0.1212  0.7798
 2764SOL    HW219929   1.609   4.534   3.077 -0.6589  0.3349  0.6617
 2765SOL     OW19930   4.094   3.339   7.849 -0.0460 -0.4607 -0.0573
 2765SOL    HW119931   4.174   3.326   7.899 -0.0317  2.7657  0.7860
 2765SOL    HW219932   4.097   3.248   7.822 -0.1791 -0.5270  0.1559
 2766SOL     OW19933   1.651   0.319   6.520  0.3294 -0.0909  0.1763
 2766SOL    HW119934   1.572   0.266   6.510 -0.8663  1.6059  0.5382
 2766SOL    HW219935   1.671   0.313   6.427 -2.8291 -2.2086 -0.3526
 2767SOL     OW19936   1.433   4.482   7.831  0.3035  0.4453  0.7315
 2767SOL    HW119937   1.478   4.444   7.907 -1.7453 -2.4569  0.4921
 2767SOL    HW219938   1.482   4.439   7.761  0.5645 -1.6847  2.2201
 2768SOL     OW19939   0.230   4.450  11.393 -0.1211  0.3945  0.9283
 2768SOL    HW119940   0.152   4.403  11.362 -1.0551  1.4121  1.7365
 2768SOL    HW219941   0.246   4.514  11.323  0.6812 -0.5276  0.2705
 2769SOL     OW19942   4.339   1.447   8.658 -0.4184 -0.5969  0.6379
 2769SOL    HW119943   4.332   1.520   8.597  0.4098 -1.8677 -0.9774
 2769SOL    HW219944   4.405   1.478   8.720 -0.5846  0.0997  0.4618
 2770SOL     OW19945   4.104   3.520   0.242  0.0404 -0.4150 -0.0629
 2770SOL    HW119946   4.122   3.613   0.256 -1.0368 -0.1775 -0.1911
 2770SOL    HW219947   4.058   3.540   0.160 -0.1468 -1.1040 -0.1241
 2771SOL     OW19948   2.053   0.915   9.189  0.1732  0.3809  0.2179
 2771SOL    HW119949   2.100   0.904   9.272  0.4577 -1.2099 -0.1570
 2771SOL    HW219950   2.124   0.937   9.128 -0.8326  1.1453 -0.6796
 2772SOL     OW19951   2.234   1.895   9.005 -0.3256  0.0166  0.1778
 2772SOL    HW119952   2.176   1.962   9.041 -2.0168 -1.4049  0.1259
 2772SOL    HW219953   2.249   1.938   8.921 -0.4560  1.0648  0.6934
 2773SOL     OW19954   4.441   1.094   0.500 -0.1014  0.6526  0.2509
 2773SOL    HW119955   4.489   1.078   0.581 -0.3577 -0.9546  0.0888
 2773SOL    HW219956   4.354   1.060   0.521 -0.4194  0.2660 -1.7247
 2774SOL     OW19957   0.502   2.161   5.301  0.2524 -0.4554 -0.5240
 2774SOL    HW119958   0.522   2.239   5.352  0.9745 -1.8732  1.3713
 2774SOL    HW219959   0.583   2.160   5.251  0.2593 -0.5354 -0.5103
 2775SOL     OW19960   2.473   4.606   3.441 -0.0708  0.0529  0.4468
 2775SOL    HW119961   2.533   4.541   3.476 -0.7284 -0.7040  0.1549
 2775SOL    HW219962   2.510   4.626   3.355 -2.1922  0.2747 -0.3985
 2776SOL     OW19963   4.118   2.368   3.607  0.9410 -0.7449 -0.3437
 2776SOL    HW119964   4.154   2.422   3.677 -0.1048 -2.6520  1.6207
 2776SOL    HW219965   4.116   2.422   3.528  2.7118 -1.4802 -0.8897
 2777SOL     OW19966   3.725   2.251   4.736 -0.7000 -0.4023  0.3237
 2777SOL    HW119967   3.639   2.282   4.765  0.0785  0.4151  1.7414
 2777SOL    HW219968   3.694   2.184   4.675  0.2065  1.3219 -2.0601
 2778SOL     OW19969   4.146   1.584   3.729  0.6283  1.1831 -0.3736
 2778SOL    HW119970   4.232   1.625   3.735  1.2879 -0.3837  0.5848
 2778SOL    HW219971   4.100   1.636   3.662 -2.4713 -0.9060  0.1609
 2779SOL     OW19972   2.429   3.127   1.836  0.3335 -0.1195  0.0590
 2779SOL    HW119973   2.389   3.048   1.874  1.4720  0.1649  1.8425
 2779SOL    HW219974   2.408   3.199   1.896 -0.3704 -1.5263  1.4833
 2780SOL     OW19975   1.904   4.104  14.854 -0.1783  0.9541  0.9104
 2780SOL    HW119976   1.890   4.080  14.945  2.0036  0.2368  1.0554
 2780SOL    HW219977   1.859   4.027  14.819  1.1902  0.3197  0.5426
 2781SOL     OW19978   4.720   3.481   6.265 -0.3068 -0.4831 -0.2840
 2781SOL    HW119979   0.015   3.503   6.178 -0.5911 -0.9425 -0.5040
 2781SOL    HW219980   4.696   3.390   6.249 -0.4350 -0.6987  1.1263
 2782SOL     OW19981   4.333   2.303   3.830  0.3321  0.4436  0.1081
 2782SOL    HW119982   4.396   2.331   3.897  1.1310 -0.4965 -0.2583
 2782SOL    HW219983   4.252   2.291   3.879 -0.1757 -0.9052 -1.0708
 2783SOL     OW19984   4.526   3.832   7.547 -1.1363 -0.3836  0.4366
 2783SOL    HW119985   4.483   3.888   7.482  2.3902 -0.1847 -1.7369
 2783SOL    HW219986   4.507   3.872   7.632 -1.3602 -2.7178  1.4707
 2784SOL     OW19987   0.801   3.002   3.912  0.1298 -0.1212 -0.2352
 2784SOL    HW119988   0.754   3.061   3.971  1.4427 -0.0884  0.7912
 2784SOL    HW219989   0.893   3.009   3.937  0.1297  0.8505 -0.5214
 2785SOL     OW19990   4.213   0.795   1.886 -0.2849 -0.5770 -1.0079
 2785SOL    HW119991   4.196   0.816   1.794 -2.0234  0.7427 -0.3851
 2785SOL    HW219992   4.308   0.804   1.882 -0.2877 -0.8560 -1.7735
 2786SOL     OW19993   2.531   0.965   4.399  0.6244 -0.0337  1.0147
 2786SOL    HW119994   2.480   0.898   4.445  1.3532 -0.3571  1.3373
 2786SOL    HW219995   2.607   0.910   4.383 -1.3741 -1.2732 -4.2703
 2787SOL     OW19996   2.247   2.219  10.445 -0.1462 -0.2614  0.4776
 2787SOL    HW119997   2.278   2.254  10.528 -0.9231 -0.5820  0.9036
 2787SOL    HW219998   2.329   2.200  10.399 -0.1297 -2.3803  1.3821
 2788SOL     OW19999   1.508   2.111   9.559  0.0470  0.4038  0.0023
 2788SOL    HW120000   1.599   2.086   9.541 -0.2365  0.1754 -1.1384
 2788SOL    HW220001   1.459   2.046   9.507  0.3941 -0.0984  0.3030
 2789SOL     OW20002   1.573   1.825   4.231  0.0126  0.0983 -0.3938
 2789SOL    HW120003   1.650   1.828   4.288 -1.8303  0.3447  2.0575
 2789SOL    HW220004   1.533   1.749   4.272 -0.6265 -0.6465 -2.3996
 2790SOL     OW20005   4.648   2.936  12.827  0.1658  0.3022 -0.0309
 2790SOL    HW120006   4.734   2.896  12.814 -1.1181 -1.0820 -4.3708
 2790SOL    HW220007   4.639   2.904  12.916 -1.0005  0.1266 -0.2089
 2791SOL     OW20008   4.699   4.473  16.315 -0.0031  1.0459  0.9328
 2791SOL    HW120009   4.714   4.392  16.266 -0.8992  0.9112  0.8668
 2791SOL    HW220010   4.609   4.471  16.348 -0.6853  0.0427 -0.9909
 2792SOL     OW20011   3.525   2.962   1.885 -0.7204 -0.4901 -0.1028
 2792SOL    HW120012   3.506   2.904   1.812  2.9244  1.4783 -2.5860
 2792SOL    HW220013   3.532   3.041   1.831  2.2016 -1.2181 -0.7591
 2793SOL     OW20014   2.847   1.759   5.860 -1.2216  0.0471  0.4281
 2793SOL    HW120015   2.879   1.681   5.906 -1.6775 -1.7976 -2.3571
 2793SOL    HW220016   2.894   1.753   5.777 -1.0343 -1.0248  0.6096
 2794SOL     OW20017   4.603   2.014   7.569 -0.0332  0.2362  0.2624
 2794SOL    HW120018   4.660   1.998   7.494 -0.9767  0.3263 -0.4831
 2794SOL    HW220019   4.635   2.097   7.603  1.8299 -0.2868 -0.2532
 2795SOL     OW20020   2.101   3.210   6.819  0.4202  0.1735 -0.0145
 2795SOL    HW120021   2.038   3.250   6.759 -0.3963  1.3861  1.6667
 2795SOL    HW220022   2.185   3.252   6.798  1.3773 -1.1953  1.0734
 2796SOL     OW20023   0.685   2.461   5.965 -0.2819  0.1622  0.7145
 2796SOL    HW120024   0.655   2.549   5.988  1.7330  1.0686 -0.1741
 2796SOL    HW220025   0.747   2.491   5.899 -1.9081  0.1771 -0.8069
 2797SOL     OW20026   3.260   0.554   2.863  0.4596 -0.1970 -0.3869
 2797SOL    HW120027   3.197   0.569   2.793  0.9737 -1.6150 -1.1647
 2797SOL    HW220028   3.308   0.481   2.824 -0.0925 -0.0215 -1.3843
 2798SOL     OW20029   2.149   1.211   6.279  0.1877  0.2938 -0.5665
 2798SOL    HW120030   2.128   1.118   6.266 -3.0792  0.9796 -0.0897
 2798SOL    HW220031   2.241   1.227   6.258  0.4135  0.1813  0.3819
 2799SOL     OW20032   4.505   2.088   7.305  0.0979 -0.3836 -0.2282
 2799SOL    HW120033   4.474   1.998   7.318  1.7447 -1.2110 -2.1125
 2799SOL    HW220034   4.537   2.099   7.394 -1.8027 -1.5830  0.5994
 2800SOL     OW20035   2.994   4.249   3.392 -0.0554  0.1945 -0.4932
 2800SOL    HW120036   3.062   4.202   3.441 -0.8867 -1.0344 -0.5258
 2800SOL    HW220037   2.921   4.257   3.453 -0.1649  0.8664 -0.7095
 2801SOL     OW20038   2.566   3.404  12.588  0.1894 -0.4069 -0.4713
 2801SOL    HW120039   2.612   3.321  12.601 -0.3133 -0.2606  2.0881
 2801SOL    HW220040   2.601   3.455  12.661  0.5349 -1.6997  0.2761
 2802SOL     OW20041   2.630   0.905   5.181 -0.8181  0.2910 -0.2583
 2802SOL    HW120042   2.595   0.966   5.116 -3.0798 -0.8251 -0.0621
 2802SOL    HW220043   2.568   0.834   5.170  1.0383 -1.4163  0.3250
 2803SOL     OW20044   2.190   2.582   8.823  0.7929  0.5690  0.5271
 2803SOL    HW120045   2.284   2.563   8.828  0.8642  1.2989  1.8769
 2803SOL    HW220046   2.159   2.491   8.826  0.2913  0.7911  2.1193
 2804SOL     OW20047   0.414   0.245   7.517  0.4832  0.6198  0.0268
 2804SOL    HW120048   0.357   0.179   7.477 -0.2987  1.6792 -0.6334
 2804SOL    HW220049   0.370   0.263   7.601 -2.1445 -1.3684 -0.9295
 2805SOL     OW20050   0.682   3.325   3.834  0.4044 -0.2520  0.5638
 2805SOL    HW120051   0.769   3.292   3.857  1.2386  2.3765  1.1664
 2805SOL    HW220052   0.698   3.417   3.811 -0.2396 -0.5242 -0.9694
 2806SOL     OW20053   1.157   2.947   4.533 -0.0793  0.3974 -0.3083
 2806SOL    HW120054   1.170   3.034   4.496 -1.6534 -0.4465 -2.8513
 2806SOL    HW220055   1.224   2.956   4.601  1.8447 -0.3985 -2.0612
 2807SOL     OW20056   2.502   0.036  13.423  0.0713  0.2155 -0.8021
 2807SOL    HW120057   2.590   0.042  13.385 -0.5924 -0.4880 -2.4451
 2807SOL    HW220058   2.492   0.119  13.468 -0.5187  0.6705 -1.7698
 2808SOL     OW20059   1.459   1.131  15.080 -0.1056  0.0842  0.2797
 2808SOL    HW120060   1.425   1.073  15.148 -2.1565  1.2684  0.2690
 2808SOL    HW220061   1.525   1.074  15.039 -0.8760 -1.1829  0.8000
 2809SOL     OW20062   0.952   0.478   2.284 -0.3516 -0.2258  0.2526
 2809SOL    HW120063   1.022   0.438   2.336  2.0695  1.8564 -1.4074
 2809SOL    HW220064   0.997   0.551   2.241 -0.8305 -0.8490 -1.3274
 2810SOL     OW20065   2.437   4.361   6.160  0.1621 -0.3424  0.0102
 2810SOL    HW120066   2.373   4.295   6.135  1.2613 -1.1506 -0.6536
 2810SOL    HW220067   2.426   4.353   6.255  0.7103 -0.9623  0.0202
 2811SOL     OW20068   1.831   3.496   1.166  0.5729 -0.2150 -0.5056
 2811SOL    HW120069   1.758   3.556   1.178  0.3936 -0.2826 -1.2514
 2811SOL    HW220070   1.818   3.433   1.237 -1.7511 -1.3106 -1.9159
 2812SOL     OW20071   2.279   3.092   4.426 -0.2998 -0.2239 -0.3492
 2812SOL    HW120072   2.230   3.174   4.436 -0.4960 -0.0709 -2.6171
 2812SOL    HW220073   2.289   3.076   4.332  2.8089  0.7557 -0.1864
 2813SOL     OW20074   0.778   3.433   4.516  0.0686  0.0479  0.0227
 2813SOL    HW120075   0.756   3.370   4.584 -0.2447 -0.5597 -0.6471
 2813SOL    HW220076   0.870   3.453   4.536 -0.3689  1.5513  0.5399
 2814SOL     OW20077   3.994   2.610  17.393 -0.3493  0.9416 -0.1669
 2814SOL    HW120078   4.023   2.642  17.478  0.3580  1.6070 -0.6595
 2814SOL    HW220079   3.995   2.692  17.343 -0.6087 -0.7346 -2.9550
 2815SOL     OW20080   4.641   4.672   2.634 -0.0965 -0.4745  0.2957
 2815SOL    HW120081   4.573   4.688   2.568 -0.9185 -0.1066  1.2392
 2815SOL    HW220082   4.717   4.683   2.577 -0.1550  0.2366  0.3557
 2816SOL     OW20083   4.590   3.524   4.611  0.0953  0.1716  0.5901
 2816SOL    HW120084   4.676   3.554   4.641  0.9608 -1.5203 -0.1989
 2816SOL    HW220085   4.607   3.430   4.607  0.4309  0.2963 -0.8893
 2817SOL     OW20086   3.309   0.367   2.428 -0.2274  0.3066 -0.3118
 2817SOL    HW120087   3.260   0.383   2.347  3.0487 -1.2324 -2.6087
 2817SOL    HW220088   3.400   0.368   2.398 -0.8940  1.5177 -2.3242
 2818SOL     OW20089   2.068   2.386   4.823  0.4444 -0.0462  0.0973
 2818SOL    HW120090   2.115   2.470   4.817  2.5282 -1.4993 -3.9361
 2818SOL    HW220091   2.028   2.371   4.737 -1.0781  0.2856  0.7436
 2819SOL     OW20092   4.240   3.794   5.475 -0.1550  0.2370 -0.0231
 2819SOL    HW120093   4.328   3.793   5.512 -0.2639  1.0736  0.2596
 2819SOL    HW220094   4.216   3.703   5.494  1.1199  0.2489  1.5644
 2820SOL     OW20095   2.714   1.421  12.548  0.0394 -0.2059 -0.4720
 2820SOL    HW120096   2.731   1.398  12.457 -3.2255 -2.1370 -0.6205
 2820SOL    HW220097   2.805   1.407  12.574 -0.0449 -2.9301 -1.6080
 2821SOL     OW20098   3.113   0.258   5.964 -0.4684  0.0862  0.0338
 2821SOL    HW120099   3.112   0.295   5.875  1.1757 -0.9179 -0.4019
 2821SOL    HW220100   3.205   0.235   5.974 -0.9020 -2.4050 -1.9440
 2822SOL     OW20101   4.547   1.663   2.216  0.0172 -0.2627 -0.4373
 2822SOL    HW120102   4.468   1.680   2.165 -1.3609  1.4474  2.2271
 2822SOL    HW220103   4.579   1.583   2.175  1.2218  0.8581 -1.6979
 2823SOL     OW20104   1.729   1.366   3.378 -0.2362 -0.1033 -0.0721
 2823SOL    HW120105   1.705   1.391   3.289 -0.4740  1.9362  0.5618
 2823SOL    HW220106   1.790   1.434   3.407 -1.9756  1.5091 -0.1778
 2824SOL     OW20107   2.945   0.895  16.633  0.2763  0.0708  0.4781
 2824SOL    HW120108   2.903   0.856  16.556  1.6417 -1.2869  0.4282
 2824SOL    HW220109   3.035   0.862  16.628  1.2410  2.6663  0.6459
 2825SOL     OW20110   3.723   4.418   2.597  0.0314 -0.3910 -0.4161
 2825SOL    HW120111   3.633   4.447   2.584  0.2099  0.1903 -0.3712
 2825SOL    HW220112   3.709   4.324   2.609  1.0484 -0.3076  1.5596
 2826SOL     OW20113   3.179   1.515   5.800 -0.4001  0.1266 -0.2884
 2826SOL    HW120114   3.243   1.576   5.764 -0.8908  1.6219  1.3249
 2826SOL    HW220115   3.119   1.568   5.853  1.1594  1.8641 -0.2451
 2827SOL     OW20116   3.815   4.201   7.832  0.4140 -0.1741 -0.4093
 2827SOL    HW120117   3.886   4.136   7.832 -0.6171 -1.2951 -0.1350
 2827SOL    HW220118   3.799   4.213   7.926 -0.7280  1.5414 -0.8339
 2828SOL     OW20119   3.979   4.376  13.477  0.0916  0.2419  0.3140
 2828SOL    HW120120   3.935   4.435  13.539 -0.6179 -1.4104  1.3958
 2828SOL    HW220121   4.034   4.320  13.531  1.9205  1.0520 -0.6919
 2829SOL     OW20122   1.118   1.292  16.485  0.3561 -0.1484 -0.0178
 2829SOL    HW120123   1.033   1.291  16.529  0.7066  0.9367  0.6934
 2829SOL    HW220124   1.146   1.383  16.496 -0.4639  0.0419  0.5180
 2830SOL     OW20125   4.363   3.199   5.677  0.6897  0.5063  0.6442
 2830SOL    HW120126   4.320   3.114   5.672  0.9340  0.3541  1.1378
 2830SOL    HW220127   4.311   3.244   5.610  0.8421 -0.8403 -0.3834
 2831SOL     OW20128   1.081   4.614   0.731 -0.5782 -0.2157  0.0914
 2831SOL    HW120129   1.092   4.523   0.706 -1.5271  0.4181 -2.6922
 2831SOL    HW220130   1.054   4.603   0.822  0.4761  0.9793  0.5415
 2832SOL     OW20131   2.488   2.142  11.580 -0.3076 -0.2259  0.1583
 2832SOL    HW120132   2.406   2.189  11.597  0.5066  0.8886  0.9779
 2832SOL    HW220133   2.554   2.208  11.601  0.7596 -1.2191 -0.1124
 2833SOL     OW20134   2.429   2.423  14.443 -0.1736 -0.7070  0.1822
 2833SOL    HW120135   2.446   2.337  14.406  0.0712  0.0175 -1.3817
 2833SOL    HW220136   2.476   2.479  14.381 -1.7344  0.7467  0.3167
 2834SOL     OW20137   2.330   2.663   8.405 -0.7242 -0.4803  0.0368
 2834SOL    HW120138   2.302   2.573   8.422 -1.5539 -0.3614 -0.6303
 2834SOL    HW220139   2.415   2.658   8.449 -0.4964  0.0713 -0.3455
 2835SOL     OW20140   2.290   0.068   8.606  0.3360  0.3399  0.5000
 2835SOL    HW120141   2.264   0.000   8.668 -1.0469 -0.0716 -0.5438
 2835SOL    HW220142   2.381   0.041   8.595 -0.0940 -1.9330  2.5408
 2836SOL     OW20143   0.098   1.012   3.504 -0.0667 -0.2080  0.0088
 2836SOL    HW120144   0.015   0.964   3.503 -1.7704  2.6789  1.7475
 2836SOL    HW220145   0.129   1.006   3.414  0.7582 -0.8893  0.3333
 2837SOL     OW20146   1.504   1.831  12.659  0.0604 -0.2111 -0.2693
 2837SOL    HW120147   1.571   1.798  12.719  2.7613  1.7713 -2.1319
 2837SOL    HW220148   1.524   1.795  12.572  0.2963 -0.7704  0.0193
 2838SOL     OW20149   2.147   0.703  12.942 -0.3696  0.2587  0.0273
 2838SOL    HW120150   2.156   0.754  12.861 -1.1730 -1.4495 -1.1598
 2838SOL    HW220151   2.231   0.712  12.985 -0.1289 -0.1448 -0.3632
 2839SOL     OW20152   2.681   2.283   5.731  0.2086 -0.3039  0.5255
 2839SOL    HW120153   2.665   2.235   5.650 -1.0453 -0.3985  0.8328
 2839SOL    HW220154   2.627   2.361   5.718 -1.0616 -1.0110  1.6400
 2840SOL     OW20155   1.135   4.496   6.550  0.0543  0.0498 -0.1091
 2840SOL    HW120156   1.066   4.562   6.541  0.9498  1.0185  0.1615
 2840SOL    HW220157   1.072   4.424   6.544 -2.1970  2.1108 -1.3400
 2841SOL     OW20158   2.828   1.705   9.632 -0.7839  0.6759 -0.2463
 2841SOL    HW120159   2.840   1.780   9.689  0.7055 -0.4784  0.9414
 2841SOL    HW220160   2.805   1.633   9.691  0.9111 -1.4025 -2.1467
 2842SOL     OW20161   3.249   2.777   6.084  0.2668  0.1984 -0.2770
 2842SOL    HW120162   3.157   2.769   6.059  0.0343  0.8860  0.3458
 2842SOL    HW220163   3.257   2.720   6.161 -2.3585 -2.1690 -1.7868
 2843SOL     OW20164   1.356   0.521   5.988 -0.0027  0.0669 -0.0083
 2843SOL    HW120165   1.438   0.475   5.970 -0.1724 -0.0482 -0.4795
 2843SOL    HW220166   1.387   0.602   6.030 -2.1599 -0.5995  2.8228
 2844SOL     OW20167   0.874   4.711  14.526  0.5652  0.4384  0.2350
 2844SOL    HW120168   0.968   4.693  14.521  0.4055  0.0822 -1.5282
 2844SOL    HW220169   0.842   4.680  14.610  2.0194  1.9662  1.3634
 2845SOL     OW20170   0.148   0.855   8.301  0.2366 -0.8869 -0.8968
 2845SOL    HW120171   0.241   0.841   8.317  0.4487  2.5570  0.9705
 2845SOL    HW220172   0.141   0.801   8.222  0.3032 -0.1231 -1.4164
 2846SOL     OW20173   0.914   1.295   8.420  0.1792 -0.0283 -0.3369
 2846SOL    HW120174   0.919   1.243   8.339  0.8050  1.1483 -1.0527
 2846SOL    HW220175   0.828   1.276   8.457 -0.9593  2.7107 -1.6401
 2847SOL     OW20176   3.920   1.846   0.592 -0.0753 -0.2241 -0.1630
 2847SOL    HW120177   3.825   1.860   0.588  0.1651  0.9981 -1.5955
 2847SOL    HW220178   3.943   1.867   0.502  1.1695 -0.9016 -0.0055
 2848SOL     OW20179   3.900   3.103   9.206 -0.6568  0.1706  0.4692
 2848SOL    HW120180   3.973   3.106   9.144 -2.4687 -0.0223 -1.6632
 2848SOL    HW220181   3.888   3.198   9.215  2.3733  0.6062 -0.0472
 2849SOL     OW20182   0.121   3.986  15.482 -0.0631 -0.4755 -0.6153
 2849SOL    HW120183   0.084   3.989  15.570  2.8637  1.7055  0.5347
 2849SOL    HW220184   0.099   4.075  15.454  0.4726 -0.1313  0.0754
 2850SOL     OW20185   4.530   1.670   1.674  0.1355  0.4301  0.5707
 2850SOL    HW120186   4.606   1.643   1.725  0.8799  1.0166 -0.2239
 2850SOL    HW220187   4.526   1.604   1.605  0.1873  0.1467  0.8373
 2851SOL     OW20188   4.510   1.570   6.345 -0.3846  0.2317  0.2233
 2851SOL    HW120189   4.468   1.505   6.289 -2.6663  1.3713  0.5934
 2851SOL    HW220190   4.555   1.508   6.403  2.2399 -0.0804 -2.1403
 2852SOL     OW20191   4.421   2.928   3.414 -0.2635 -0.3101 -0.5841
 2852SOL    HW120192   4.395   2.999   3.472 -1.9521 -1.1745 -0.3021
 2852SOL    HW220193   4.362   2.938   3.340 -0.5016  3.9863  0.2328
 2853SOL     OW20194   0.279   1.068   6.987 -0.0070  0.4005  0.3246
 2853SOL    HW120195   0.263   1.028   6.901  0.9253  1.0927 -0.1800
 2853SOL    HW220196   0.330   1.003   7.035 -0.8246  0.5740  1.4078
 2854SOL     OW20197   1.823   1.757   0.326  0.4677  0.5699  0.0223
 2854SOL    HW120198   1.852   1.673   0.362  0.8620  1.9315  2.8392
 2854SOL    HW220199   1.735   1.767   0.360 -0.1464 -0.0354 -1.3983
 2855SOL     OW20200   1.313   0.424  11.693 -0.2243 -0.5589 -0.4525
 2855SOL    HW120201   1.372   0.495  11.718 -1.1363  0.7440 -2.0249
 2855SOL    HW220202   1.321   0.419  11.598 -0.0981 -0.6365 -0.4386
 2856SOL     OW20203   1.133   2.994  11.663  0.0469  0.3019  0.4188
 2856SOL    HW120204   1.227   2.981  11.654  0.0672 -0.6336  1.9666
 2856SOL    HW220205   1.106   2.903  11.675 -0.3848  0.5305  1.1671
 2857SOL     OW20206   1.400   0.408   5.631  0.4010 -0.0483 -0.5060
 2857SOL    HW120207   1.387   0.460   5.551  0.7485 -0.5016 -0.8580
 2857SOL    HW220208   1.332   0.344   5.612  1.0681 -0.8088 -0.3231
 2858SOL     OW20209   2.090   1.063  16.773 -0.4431 -0.0664 -0.0437
 2858SOL    HW120210   2.046   0.980  16.754 -1.1215  0.5998 -1.4384
 2858SOL    HW220211   2.140   1.047  16.852 -1.1084 -0.1690  0.3562
 2859SOL     OW20212   3.137   2.726   9.473  0.5640 -0.2357  0.4264
 2859SOL    HW120213   3.094   2.809   9.492 -0.0411 -0.8838  1.9133
 2859SOL    HW220214   3.065   2.662   9.479 -1.1007  1.5246 -1.0546
 2860SOL     OW20215   2.566   1.770   1.441 -0.2341 -0.4838  0.2911
 2860SOL    HW120216   2.519   1.722   1.373 -0.0247 -1.6564  0.9714
 2860SOL    HW220217   2.592   1.710   1.511 -0.1170  1.3906  1.8190
 2861SOL     OW20218   0.840   2.808   2.093  0.2966  0.1870  0.3230
 2861SOL    HW120219   0.771   2.864   2.128  0.9868  0.1836  1.6834
 2861SOL    HW220220   0.839   2.735   2.155 -1.3418 -0.3345 -0.3265
 2862SOL     OW20221   2.479   1.595   6.600 -0.1945  0.4158  0.5111
 2862SOL    HW120222   2.541   1.629   6.664 -1.0991  2.7390  0.1582
 2862SOL    HW220223   2.409   1.659   6.613 -1.7201 -0.9100 -1.2100
 2863SOL     OW20224   3.797   1.737   3.948 -0.0920  0.1879  0.0862
 2863SOL    HW120225   3.813   1.691   4.030  0.0217  0.0632 -0.0062
 2863SOL    HW220226   3.722   1.683   3.921 -0.8028  0.5986  1.2675
 2864SOL     OW20227   1.471   4.174   2.476 -0.0698  0.1722 -0.1618
 2864SOL    HW120228   1.443   4.109   2.541  0.5349 -0.1832 -0.2533
 2864SOL    HW220229   1.476   4.252   2.532  1.6427 -0.0343 -0.0198
 2865SOL     OW20230   4.002   3.159   2.087  0.3670  0.1682  0.7209
 2865SOL    HW120231   4.083   3.166   2.038 -1.5733 -1.0876 -2.6676
 2865SOL    HW220232   4.025   3.217   2.159 -1.5958  0.8930  0.7748
 2866SOL     OW20233   2.340   2.554   7.461  0.2591  0.2472 -0.6936
 2866SOL    HW120234   2.347   2.640   7.420  1.0425 -0.2007 -1.4798
 2866SOL    HW220235   2.261   2.574   7.512 -0.3109 -1.2781 -0.9891
 2867SOL     OW20236   0.960   3.776   5.411 -0.0994 -0.1081  0.1959
 2867SOL    HW120237   1.024   3.845   5.428 -0.4336  0.4716 -0.8393
 2867SOL    HW220238   1.013   3.698   5.397 -0.5913 -0.6145  1.2025
 2868SOL     OW20239   0.584   2.429  15.252  0.5443 -0.6683  0.2058
 2868SOL    HW120240   0.638   2.508  15.266  1.8092 -1.5430  0.2929
 2868SOL    HW220241   0.632   2.373  15.313 -3.8596 -2.6057  1.8368
 2869SOL     OW20242   3.477   0.791   5.811  0.0955  0.0470 -0.1540
 2869SOL    HW120243   3.552   0.793   5.871  0.9137 -2.1036 -1.0697
 2869SOL    HW220244   3.457   0.884   5.801 -0.0807 -0.2785 -3.0279
 2870SOL     OW20245   2.011   2.683  13.879  0.0764 -0.2722 -0.4039
 2870SOL    HW120246   1.928   2.728  13.897 -0.9497 -2.0955 -0.5609
 2870SOL    HW220247   2.008   2.650  13.790  0.4648 -0.8715 -0.1941
 2871SOL     OW20248   0.175   3.519  11.978 -0.1626  0.0199  0.4139
 2871SOL    HW120249   0.107   3.521  12.045 -0.9782 -0.8241 -0.3666
 2871SOL    HW220250   0.187   3.612  11.959 -0.5830 -0.3134 -1.5788
 2872SOL     OW20251   2.738   1.479   9.752  0.5388  0.5956 -0.0148
 2872SOL    HW120252   2.683   1.481   9.831 -1.7885 -0.8083 -1.5998
 2872SOL    HW220253   2.744   1.384   9.750  2.7443  0.7682 -1.6968
 2873SOL     OW20254   4.678   1.268  11.806 -0.8631  0.5158 -0.2987
 2873SOL    HW120255   4.687   1.322  11.885 -1.5087  1.8210 -1.1058
 2873SOL    HW220256   0.021   1.217  11.815  0.2531  1.8656 -2.4267
 2874SOL     OW20257   0.534   0.304   3.745  0.4281  0.4904  0.4792
 2874SOL    HW120258   0.491   0.250   3.680  0.4925  1.1641 -0.1232
 2874SOL    HW220259   0.526   0.393   3.710  0.5785 -0.0569 -0.9156
 2875SOL     OW20260   3.765   4.538  15.773 -0.4984 -0.1793 -0.1619
 2875SOL    HW120261   3.706   4.467  15.747 -2.4226  1.7880 -1.0569
 2875SOL    HW220262   3.742   4.551  15.865  1.4634  2.1259 -0.0023
 2876SOL     OW20263   2.226   0.478  13.674 -0.4000 -1.4549  0.2609
 2876SOL    HW120264   2.224   0.464  13.768 -0.8204  1.3724  0.6532
 2876SOL    HW220265   2.137   0.474  13.639 -0.1153  3.0752 -0.9125
 2877SOL     OW20266   4.439   2.933   4.580 -1.0261  0.1263 -1.0262
 2877SOL    HW120267   4.509   2.873   4.606  1.6399  2.7726 -2.0705
 2877SOL    HW220268   4.366   2.876   4.558 -0.6689 -1.7877  2.6740
 2878SOL     OW20269   0.573   0.793   3.946  0.1078 -0.4862 -0.2544
 2878SOL    HW120270   0.573   0.871   4.003 -0.1120 -0.4761 -0.2679
 2878SOL    HW220271   0.663   0.764   3.958 -0.3603 -3.0422 -3.2467
 2879SOL     OW20272   4.081   3.189   8.693  0.1878  0.2662  0.4264
 2879SOL    HW120273   4.108   3.227   8.609 -1.9400  2.2705  0.6351
 2879SOL    HW220274   4.156   3.215   8.746 -2.0956  2.3033  2.6562
 2880SOL     OW20275   3.330   4.493  10.327  0.5090  0.0564  0.4756
 2880SOL    HW120276   3.295   4.562  10.271  0.0252 -0.7588 -0.2409
 2880SOL    HW220277   3.396   4.527  10.387  1.4586  1.2640 -1.2381
 2881SOL     OW20278   0.299   2.716   2.482  0.4908 -0.2993  0.6569
 2881SOL    HW120279   0.258   2.770   2.550 -0.9298  1.3323 -1.4817
 2881SOL    HW220280   0.321   2.643   2.540  1.6466  1.1976  2.1040
 2882SOL     OW20281   1.293   2.253  12.196  0.1921  0.1520  0.2370
 2882SOL    HW120282   1.288   2.347  12.184  1.0386 -0.0026 -1.3341
 2882SOL    HW220283   1.231   2.214  12.134  0.8963  0.5165 -0.7055
 2883SOL     OW20284   3.877   2.623   3.507 -0.5178  0.4992  0.1254
 2883SOL    HW120285   3.862   2.548   3.449 -0.4082 -0.4851  1.3894
 2883SOL    HW220286   3.968   2.616   3.532 -0.0772  2.3625 -0.8840
 2884SOL     OW20287   2.505   1.127   6.569  0.2564  0.5902 -0.0379
 2884SOL    HW120288   2.554   1.078   6.635  0.7254 -1.8877 -2.2312
 2884SOL    HW220289   2.460   1.188   6.627  0.2911  0.8708 -0.3082
 2885SOL     OW20290   3.530   0.645   4.439  0.4218 -0.0128 -0.4084
 2885SOL    HW120291   3.498   0.731   4.414  2.6097 -0.3256 -4.3676
 2885SOL    HW220292   3.460   0.603   4.489 -0.7386  3.9385  1.2345
 2886SOL     OW20293   4.225   2.224   2.190  0.4939 -0.1502  0.0713
 2886SOL    HW120294   4.311   2.256   2.216  0.9943  0.1512 -1.9147
 2886SOL    HW220295   4.182   2.200   2.272 -0.6666 -0.1202 -0.5265
 2887SOL     OW20296   3.731   3.462   4.535 -0.2047 -0.2950 -0.7177
 2887SOL    HW120297   3.756   3.407   4.609 -1.2254  2.7434  1.8857
 2887SOL    HW220298   3.813   3.477   4.488  1.1478  0.4590  1.9124
 2888SOL     OW20299   3.953   2.566   8.814 -0.3823 -0.0117  0.1100
 2888SOL    HW120300   3.954   2.545   8.720  1.3508  1.5964 -0.2177
 2888SOL    HW220301   3.973   2.482   8.855  3.1160  0.7456 -0.0334
 2889SOL     OW20302   3.365   1.269   6.816  0.1081 -0.7227 -0.0030
 2889SOL    HW120303   3.295   1.335   6.820  0.5452 -0.2231 -0.6167
 2889SOL    HW220304   3.367   1.238   6.906 -1.2465 -1.9501 -0.3953
 2890SOL     OW20305   3.582   4.306   0.457  0.2562  1.0934 -0.0969
 2890SOL    HW120306   3.613   4.276   0.372 -0.5283 -3.5119  1.2268
 2890SOL    HW220307   3.619   4.241   0.518  1.9965  1.6131 -0.5905
 2891SOL     OW20308   4.572   1.883   4.266 -0.4501 -0.6750 -0.2273
 2891SOL    HW120309   4.526   1.834   4.334 -0.3951  0.7627  0.8380
 2891SOL    HW220310   4.512   1.865   4.194  0.6174 -1.7199 -0.8545
 2892SOL     OW20311   2.307   2.569   4.165 -0.0353 -0.7856 -0.3711
 2892SOL    HW120312   2.227   2.590   4.117 -0.0056 -0.2339 -0.1858
 2892SOL    HW220313   2.364   2.539   4.095  0.2398  0.7167 -0.7952
 2893SOL     OW20314   3.601   2.104   4.156 -0.4192  0.2644 -0.1097
 2893SOL    HW120315   3.606   2.090   4.062  3.2236 -2.6381  0.5123
 2893SOL    HW220316   3.645   2.188   4.160 -2.9596  1.5136  1.5582
 2894SOL     OW20317   3.773   1.319   7.790  0.0859 -0.4853 -0.2277
 2894SOL    HW120318   3.737   1.238   7.825 -1.0390  1.0348  2.1582
 2894SOL    HW220319   3.851   1.340   7.842 -0.3618 -2.0441  1.0760
 2895SOL     OW20320   3.726   2.235   6.906 -0.1907  0.0545 -0.0802
 2895SOL    HW120321   3.751   2.247   6.814  2.2160  0.4728  0.6399
 2895SOL    HW220322   3.662   2.164   6.912 -1.7572  1.5967  1.3302
 2896SOL     OW20323   3.902   1.238   4.093  0.4938  0.1514  0.4197
 2896SOL    HW120324   3.957   1.277   4.025 -0.7660 -1.5714 -1.5656
 2896SOL    HW220325   3.871   1.158   4.050 -1.6736  0.2608  1.7897
 2897SOL     OW20326   2.814   1.322   4.240 -0.3108  0.1669  0.2222
 2897SOL    HW120327   2.760   1.303   4.163  1.0271 -2.3543 -0.0909
 2897SOL    HW220328   2.890   1.361   4.198  0.1235 -2.0244 -1.0463
 2898SOL     OW20329   0.246   1.825  13.512  0.0663  0.4843  0.0655
 2898SOL    HW120330   0.338   1.800  13.503 -0.2294 -0.3698 -0.4918
 2898SOL    HW220331   0.211   1.770  13.442 -1.3219 -1.6241  2.4505
 2899SOL     OW20332   0.555   0.671   4.502 -0.1268 -0.2318 -0.3917
 2899SOL    HW120333   0.624   0.612   4.531  0.8453  1.3216  0.4144
 2899SOL    HW220334   0.484   0.651   4.563  1.3499 -1.8074  0.7703
 2900SOL     OW20335   3.957   1.815   7.156 -0.7681 -0.2598 -0.2231
 2900SOL    HW120336   3.947   1.907   7.130  0.0011  0.2389  1.2657
 2900SOL    HW220337   3.990   1.800   7.067  2.3222  4.2654  0.1675
 2901SOL     OW20338   3.474   2.483  16.699 -0.8988  0.6008  0.1450
 2901SOL    HW120339   3.556   2.465  16.745  1.0888  1.9788 -2.8942
 2901SOL    HW220340   3.465   2.407  16.642  1.8486  0.1256  0.3338
 2902SOL     OW20341   3.776   4.707   4.366 -0.0074 -0.2720 -0.6039
 2902SOL    HW120342   3.683   4.686   4.373  0.1709 -0.4232  1.2051
 2902SOL    HW220343   3.787   4.673   4.277  0.0293  0.1787 -0.7745
 2903SOL     OW20344   0.619   3.194   5.528 -0.1637  0.0334 -0.4669
 2903SOL    HW120345   0.549   3.129   5.526  0.1950 -0.2866 -2.4951
 2903SOL    HW220346   0.694   3.135   5.536 -3.1178 -3.7310 -0.2656
 2904SOL     OW20347   1.527   2.587   4.035  0.2165 -0.2753 -0.3576
 2904SOL    HW120348   1.494   2.588   4.125 -0.7329  0.8581 -0.7226
 2904SOL    HW220349   1.498   2.672   4.001  1.4452  0.0308 -0.6689
 2905SOL     OW20350   1.983   2.396   8.997 -0.0405 -0.0256 -0.1561
 2905SOL    HW120351   1.953   2.485   8.977 -1.9766 -1.3463 -3.1565
 2905SOL    HW220352   1.903   2.344   8.994 -0.0626  0.0480 -0.9970
 2906SOL     OW20353   4.671   3.548   8.288  0.0663 -0.2878  0.1163
 2906SOL    HW120354   4.707   3.619   8.235 -1.3119  1.7344  1.8800
 2906SOL    HW220355   4.687   3.469   8.237  0.0377 -1.5528  2.0342
 2907SOL     OW20356   0.426   0.713   5.586 -0.7171  0.3172 -0.4207
 2907SOL    HW120357   0.401   0.697   5.678  1.4335  0.4319  0.1842
 2907SOL    HW220358   0.518   0.689   5.586 -0.9707 -0.6730 -0.3752
 2908SOL     OW20359   0.756   2.727   6.149 -0.5015 -0.2479  0.4383
 2908SOL    HW120360   0.793   2.812   6.175  0.4698 -1.6403  3.6259
 2908SOL    HW220361   0.831   2.670   6.164  1.2068  1.9160  0.2336
 2909SOL     OW20362   4.077   4.048   2.034  0.1092  0.4410  0.8500
 2909SOL    HW120363   4.118   4.032   1.949  0.8707 -0.7419  1.4370
 2909SOL    HW220364   3.986   4.070   2.016  0.0698  0.7690  1.4288
 2910SOL     OW20365   4.307   4.585   8.771  0.0459 -0.3766  0.1912
 2910SOL    HW120366   4.335   4.673   8.797 -0.4185  0.4342 -2.0389
 2910SOL    HW220367   4.257   4.551   8.845 -1.8057  1.8436 -0.0429
 2911SOL     OW20368   1.339   1.365   6.457  0.0100  0.4481 -0.7399
 2911SOL    HW120369   1.396   1.410   6.394  0.8149 -2.3469 -2.0393
 2911SOL    HW220370   1.252   1.364   6.416 -0.1304  1.7968 -0.4651
 2912SOL     OW20371   2.041   2.238   1.855  0.2615  0.4002  0.0429
 2912SOL    HW120372   2.048   2.150   1.892 -0.7049  0.1470 -0.3753
 2912SOL    HW220373   2.086   2.231   1.770 -1.0567 -0.1527 -0.6085
 2913SOL     OW20374   4.363   1.759   8.279  0.4123  0.5594 -0.3287
 2913SOL    HW120375   4.366   1.680   8.225 -1.7537 -0.1997  0.6923
 2913SOL    HW220376   4.300   1.739   8.348  1.1052  0.6231  0.3263
 2914SOL     OW20377   1.793   2.514   5.921 -0.3851  0.0803  0.0733
 2914SOL    HW120378   1.818   2.428   5.888  0.7939  0.9096 -1.2054
 2914SOL    HW220379   1.710   2.486   5.960 -0.1939  0.1528  0.5418
 2915SOL     OW20380   4.603   3.862   8.628 -0.3148  0.1082  0.1501
 2915SOL    HW120381   4.669   3.828   8.688 -1.9531 -0.4806  1.6024
 2915SOL    HW220382   4.543   3.906   8.687 -0.8802  0.7147 -0.8762
 2916SOL     OW20383   3.371   2.255   7.193 -0.0789 -0.0547 -0.7597
 2916SOL    HW120384   3.355   2.323   7.128 -0.9276  1.5937  1.1555
 2916SOL    HW220385   3.428   2.198   7.142  0.0470 -1.5080  0.9932
 2917SOL     OW20386   4.521   0.842   4.379  0.0437 -0.1194  0.1525
 2917SOL    HW120387   4.501   0.932   4.404 -1.9817 -0.5639  0.1314
 2917SOL    HW220388   4.509   0.807   4.467  1.7670  1.7292  1.1437
 2918SOL     OW20389   3.411   0.871   3.249  0.3537 -0.4896 -0.0768
 2918SOL    HW120390   3.463   0.831   3.179 -0.8423 -1.3483 -0.4747
 2918SOL    HW220391   3.478   0.928   3.287 -0.7280  1.7794 -1.5822
 2919SOL     OW20392   4.027   1.303  10.352 -0.2402  0.1456 -0.2816
 2919SOL    HW120393   3.998   1.213  10.336 -2.9046  0.9642 -0.0940
 2919SOL    HW220394   4.121   1.295  10.335 -0.1301  0.8575 -0.0099
 2920SOL     OW20395   3.544   4.678   4.904  0.1465  0.2941 -0.3705
 2920SOL    HW120396   3.607   4.725   4.958 -1.8812  0.2931  1.9877
 2920SOL    HW220397   3.552   4.593   4.945 -2.6856  0.3543  0.3150
 2921SOL     OW20398   1.631   2.872   2.023  0.0653  0.0401 -0.1519
 2921SOL    HW120399   1.619   2.803   1.958 -2.2436  0.9512 -0.7085
 2921SOL    HW220400   1.600   2.952   1.979 -2.1015 -1.1264 -0.7464
 2922SOL     OW20401   0.546   3.422   5.675  0.4137  0.2106  0.5497
 2922SOL    HW120402   0.570   3.350   5.616 -1.2965 -0.0482  0.1806
 2922SOL    HW220403   0.451   3.417   5.678  0.2737  2.0195 -0.6653
 2923SOL     OW20404   3.983   1.049   1.845  0.1102 -0.2794  0.1194
 2923SOL    HW120405   3.910   0.986   1.844  2.3463 -2.8517 -0.1114
 2923SOL    HW220406   3.933   1.130   1.854  1.6565  0.9074 -2.0602
 2924SOL     OW20407   3.329   1.444  13.317  0.1017 -0.3260  0.5035
 2924SOL    HW120408   3.353   1.388  13.391  3.4144 -0.8375 -0.9581
 2924SOL    HW220409   3.376   1.524  13.341  0.9654 -0.2399 -1.4890
 2925SOL     OW20410   2.127   0.033  11.366 -0.0878 -0.0606  0.1608
 2925SOL    HW120411   2.033   0.046  11.358  0.2107  1.3782 -1.0649
 2925SOL    HW220412   2.147   0.017  11.458  0.8995  1.0100  0.1221
 2926SOL     OW20413   0.174   1.820   3.487 -0.1619  0.1287  0.4359
 2926SOL    HW120414   0.098   1.878   3.494 -0.5283 -0.3386  0.3879
 2926SOL    HW220415   0.157   1.775   3.569 -1.9076  0.8599  0.4872
 2927SOL     OW20416   1.271   3.691   2.768 -0.6035 -0.2938  0.5683
 2927SOL    HW120417   1.285   3.625   2.836  1.6733  0.2889  0.6810
 2927SOL    HW220418   1.176   3.695   2.761 -0.7207  0.7933  2.7705
 2928SOL     OW20419   0.567   0.536   3.625  0.6055 -0.0475  0.2081
 2928SOL    HW120420   0.607   0.523   3.539  2.8905 -2.0798  1.5548
 2928SOL    HW220421   0.575   0.631   3.624  1.8525 -0.1442  1.5055
 2929SOL     OW20422   1.859   4.483   5.959  0.0035  0.4872  0.3245
 2929SOL    HW120423   1.913   4.486   6.038 -0.7433 -0.8544  0.8963
 2929SOL    HW220424   1.915   4.520   5.891 -2.3573  0.5405 -1.5847
 2930SOL     OW20425   0.054   3.027  10.973  0.3584  0.1332 -0.6200
 2930SOL    HW120426   0.074   3.083  11.048 -0.1556 -0.1688 -0.2609
 2930SOL    HW220427   4.696   3.034  10.962  0.1311 -1.2156  0.5322
 2931SOL     OW20428   3.531   4.104   1.153 -0.3860  0.7820 -0.9634
 2931SOL    HW120429   3.612   4.149   1.178  1.3356 -1.9802 -1.6286
 2931SOL    HW220430   3.484   4.185   1.131 -2.1014  0.1854  0.5005
 2932SOL     OW20431   2.094   2.260   9.606 -0.3832  0.3118 -0.1675
 2932SOL    HW120432   2.079   2.173   9.644  0.5572 -0.7005 -2.1043
 2932SOL    HW220433   2.013   2.304   9.628  0.2838  0.9582  0.9991
 2933SOL     OW20434   1.841   4.078  12.540  0.0440  0.1282 -0.6469
 2933SOL    HW120435   1.932   4.106  12.547  0.2329 -0.8021  0.5951
 2933SOL    HW220436   1.833   4.030  12.457  0.4880 -0.4008 -0.3784
 2934SOL     OW20437   1.902   4.093   9.476 -0.0288 -0.1372 -0.1313
 2934SOL    HW120438   1.954   4.144   9.413  1.6719 -1.4042  0.2265
 2934SOL    HW220439   1.967   4.027   9.501 -0.3012  0.1917  1.4127
 2935SOL     OW20440   3.380   3.142  15.277  0.3065 -0.1597  0.4137
 2935SOL    HW120441   3.313   3.211  15.274 -0.0777 -0.5601 -0.2603
 2935SOL    HW220442   3.368   3.092  15.196 -0.4158 -1.4260  1.3204
 2936SOL     OW20443   0.391   2.127   1.539 -0.1908  0.0569  0.3402
 2936SOL    HW120444   0.469   2.170   1.575  0.3000 -1.8151  1.5269
 2936SOL    HW220445   0.400   2.037   1.571  1.1350 -0.7091 -2.1717
 2937SOL     OW20446   0.759   2.640   0.303 -0.6964  0.2388 -0.2475
 2937SOL    HW120447   0.705   2.630   0.382  0.2124  2.3002  0.6243
 2937SOL    HW220448   0.688   2.659   0.241  0.1878  0.8302 -1.0821
 2938SOL     OW20449   1.780   1.529   4.360 -0.2146  0.5832 -0.0958
 2938SOL    HW120450   1.860   1.479   4.347 -0.5195 -0.3584  1.6047
 2938SOL    HW220451   1.715   1.461   4.340  0.9791  0.0448 -2.1570
 2939SOL     OW20452   4.685   0.092  16.883  0.1977 -0.7419 -0.1439
 2939SOL    HW120453   4.723   0.126  16.965 -2.2234  0.3333  0.5341
 2939SOL    HW220454   0.012   0.121  16.818 -0.0990  1.9798  0.7793
 2940SOL     OW20455   1.397   0.866  14.252  0.0254 -0.5249 -0.7689
 2940SOL    HW120456   1.341   0.789  14.261 -0.1818 -0.1356  1.4484
 2940SOL    HW220457   1.446   0.853  14.334 -1.8242  0.6344  0.5303
 2941SOL     OW20458   0.299   3.274  12.282 -0.0926 -0.8935 -0.1210
 2941SOL    HW120459   0.359   3.348  12.286 -1.2963  0.1675 -1.7776
 2941SOL    HW220460   0.312   3.220  12.360  1.3073 -0.7719 -0.2812
 2942SOL     OW20461   1.357   1.986   9.385 -0.5743 -0.2155 -0.3091
 2942SOL    HW120462   1.272   2.031   9.381 -1.8627 -2.6326  0.0724
 2942SOL    HW220463   1.395   2.012   9.301 -1.7078 -1.9189 -1.3302
 2943SOL     OW20464   0.216   0.575   1.846 -0.4107  0.3763  0.3850
 2943SOL    HW120465   0.125   0.604   1.853 -0.1771  1.1488  0.2100
 2943SOL    HW220466   0.248   0.603   1.932  2.0558  2.5842 -1.2708
 2944SOL     OW20467   4.100   0.721   8.412  0.3642  0.2507  0.8061
 2944SOL    HW120468   4.057   0.715   8.327  0.4640 -0.4512  0.8115
 2944SOL    HW220469   4.155   0.643   8.402 -0.3661 -0.5144  2.8652
 2945SOL     OW20470   3.959   0.702   6.068  0.1482 -0.0432  0.5331
 2945SOL    HW120471   3.944   0.640   6.140 -1.6538 -1.1630 -0.8055
 2945SOL    HW220472   3.995   0.640   6.005 -0.3369 -0.8836  1.0739
 2946SOL     OW20473   1.640   3.928   8.616 -0.2909 -0.4908 -0.6098
 2946SOL    HW120474   1.719   3.885   8.583 -0.2497 -0.5340 -0.4549
 2946SOL    HW220475   1.676   4.017   8.621  0.3400 -0.7134 -1.0618
 2947SOL     OW20476   0.138   3.390   4.379  0.2546  0.5876  0.3898
 2947SOL    HW120477   0.202   3.461   4.377  2.8252 -1.6817  0.9248
 2947SOL    HW220478   0.181   3.313   4.417  1.4386  1.4994  0.9190
 2948SOL     OW20479   0.177   1.398   5.337 -0.0379 -0.3557  0.7464
 2948SOL    HW120480   0.242   1.335   5.305  0.3153  0.2021  0.3784
 2948SOL    HW220481   0.110   1.389   5.270 -0.3184  0.3232  0.9381
 2949SOL     OW20482   2.086   3.202   9.221 -0.7396 -0.5254  0.4402
 2949SOL    HW120483   2.023   3.259   9.177  1.0484 -0.1694 -1.6962
 2949SOL    HW220484   2.072   3.234   9.310  1.4784  0.6707  0.3560
 2950SOL     OW20485   1.213   0.529   9.105 -0.5087  0.1709  0.2447
 2950SOL    HW120486   1.142   0.482   9.060 -0.5024 -0.4771  0.9081
 2950SOL    HW220487   1.171   0.603   9.147  1.8859  2.0509 -0.6991
 2951SOL     OW20488   4.526   3.653   7.160 -0.0579  0.0132  0.0260
 2951SOL    HW120489   4.518   3.565   7.195  3.1095 -0.8382 -1.4241
 2951SOL    HW220490   4.460   3.701   7.209 -0.0390  0.6110 -0.5248
 2952SOL     OW20491   2.254   2.184   3.513 -0.5157 -0.0271  0.5806
 2952SOL    HW120492   2.305   2.183   3.431 -2.6567  0.7883 -0.7677
 2952SOL    HW220493   2.282   2.103   3.555 -1.7543 -0.0803  1.2763
 2953SOL     OW20494   4.623   2.132  13.047 -0.1388 -0.5667 -0.2404
 2953SOL    HW120495   4.618   2.071  12.974 -0.6418 -0.3877 -0.3549
 2953SOL    HW220496   4.566   2.204  13.021  0.7443  0.0569 -0.4308
 2954SOL     OW20497   4.470   3.753  15.825 -0.1584 -0.2421  0.2859
 2954SOL    HW120498   4.446   3.842  15.847  1.2289 -0.6396  3.3740
 2954SOL    HW220499   4.559   3.748  15.860 -0.3985  0.9168  1.0354
 2955SOL     OW20500   2.107   0.451   4.872  0.3887  0.8282  0.4453
 2955SOL    HW120501   2.032   0.496   4.911  0.9362  0.9530  1.3631
 2955SOL    HW220502   2.124   0.502   4.793 -1.2352 -0.2397 -0.5999
 2956SOL     OW20503   4.596   3.163   0.683  0.4852  0.4475  0.3955
 2956SOL    HW120504   4.603   3.146   0.589 -2.0452 -1.6131  0.5555
 2956SOL    HW220505   4.658   3.236   0.685  1.0828 -0.0213 -1.4240
 2957SOL     OW20506   0.865   2.564   4.008  0.2440 -0.1669  0.6406
 2957SOL    HW120507   0.800   2.532   3.946 -0.6991 -0.0202  1.5455
 2957SOL    HW220508   0.811   2.619   4.065 -1.2063 -0.3849 -0.5281
 2958SOL     OW20509   3.374   0.171   5.963 -0.0417 -0.0242  0.0593
 2958SOL    HW120510   3.455   0.212   5.993  0.6971 -0.9890 -0.6281
 2958SOL    HW220511   3.377   0.078   5.982 -2.8924 -0.3500 -0.9631
 2959SOL     OW20512   3.323   4.636   1.490 -0.2671  0.7882 -0.3380
 2959SOL    HW120513   3.416   4.645   1.469  0.1036 -1.5481  0.2404
 2959SOL    HW220514   3.316   4.614   1.583 -0.2944 -1.9406 -0.9965
 2960SOL     OW20515   1.276   0.176   8.196  0.3753 -0.0498  0.7577
 2960SOL    HW120516   1.241   0.258   8.161  1.6437  0.4199  0.6021
 2960SOL    HW220517   1.258   0.191   8.289 -0.4756 -2.1359  0.9231
 2961SOL     OW20518   3.770   0.844   0.766 -0.1281  0.0846 -1.1387
 2961SOL    HW120519   3.741   0.754   0.779 -2.4459  1.1846  1.4197
 2961SOL    HW220520   3.854   0.847   0.812 -0.7160 -0.2399 -0.0501
 2962SOL     OW20521   1.617   2.453   2.145 -0.2791  0.3490 -0.0749
 2962SOL    HW120522   1.561   2.420   2.216  2.0531 -1.7056  0.8125
 2962SOL    HW220523   1.565   2.529   2.119 -0.1679 -0.3463 -2.3323
 2963SOL     OW20524   1.316   4.320   2.021 -0.2438 -0.0470  0.2875
 2963SOL    HW120525   1.369   4.301   2.098 -0.0889  1.9138  0.6698
 2963SOL    HW220526   1.352   4.255   1.962  0.9607  0.5762  0.3326
 2964SOL     OW20527   3.439   1.883   4.649  0.3354  0.2231 -0.0095
 2964SOL    HW120528   3.363   1.910   4.599 -1.3490 -3.4350  0.5340
 2964SOL    HW220529   3.439   1.942   4.725 -0.3294 -1.5459  1.3790
 2965SOL     OW20530   0.302   3.615   9.600  0.0749 -0.0836  0.1478
 2965SOL    HW120531   0.393   3.602   9.574  0.6237 -0.7846  2.4226
 2965SOL    HW220532   0.264   3.529   9.584 -2.3147  1.1602 -0.8653
 2966SOL     OW20533   0.820   2.192  17.382  0.7232  0.0701 -0.3868
 2966SOL    HW120534   0.784   2.106  17.400 -0.6936  0.1490 -2.8619
 2966SOL    HW220535   0.882   2.212  17.453  0.7170  0.0564 -0.3775
 2967SOL     OW20536   2.963   3.255  12.344 -0.5571  0.0646 -0.6122
 2967SOL    HW120537   3.036   3.196  12.362  1.9975  3.0444 -1.2423
 2967SOL    HW220538   2.952   3.287  12.433 -1.2677  2.3604 -1.5068
 2968SOL     OW20539   3.084   3.448   1.456 -0.6283 -0.1720  0.5297
 2968SOL    HW120540   3.179   3.447   1.466 -0.7316 -0.8851  1.5058
 2968SOL    HW220541   3.064   3.357   1.434  2.2971 -0.8749  0.8346
 2969SOL     OW20542   4.608   2.165   1.394  0.7058 -0.1988 -0.2504
 2969SOL    HW120543   4.601   2.253   1.430 -1.4290 -1.3909  2.3503
 2969SOL    HW220544   4.519   2.151   1.361 -0.0709  0.0540  1.7498
 2970SOL     OW20545   1.834   0.001  12.094  0.5317  0.0001  0.3159
 2970SOL    HW120546   1.874   0.079  12.054  0.7541 -1.3343 -2.0274
 2970SOL    HW220547   1.886   4.670  12.052 -1.5816 -0.1507 -2.0199
 2971SOL     OW20548   0.140   4.323   7.125 -0.0602  0.2159  0.2896
 2971SOL    HW120549   0.145   4.350   7.217  0.0425 -0.8741  0.6021
 2971SOL    HW220550   0.232   4.338   7.102 -0.4064  2.6657  0.5088
 2972SOL     OW20551   4.274   0.988  11.823 -0.0953 -0.0166 -0.0963
 2972SOL    HW120552   4.348   1.033  11.783  0.0004  0.4787  0.6445
 2972SOL    HW220553   4.280   1.023  11.912 -0.7441  0.7898 -0.3746
 2973SOL     OW20554   3.884   1.534  15.116 -0.6096 -0.6032 -0.7932
 2973SOL    HW120555   3.918   1.604  15.172  1.3868 -2.1589 -0.0382
 2973SOL    HW220556   3.789   1.549  15.114 -0.5906 -0.3662  0.2826
 2974SOL     OW20557   2.691   0.909   3.731  0.2875 -1.0992 -0.6034
 2974SOL    HW120558   2.694   0.813   3.731 -0.9708 -1.1140  2.0572
 2974SOL    HW220559   2.598   0.921   3.748  0.4476 -0.1380 -0.4496
 2975SOL     OW20560   2.466   3.849   4.977 -0.2528  0.1235  0.0129
 2975SOL    HW120561   2.527   3.825   4.907  2.1656 -1.2113  2.6049
 2975SOL    HW220562   2.382   3.824   4.938 -0.8357  1.9833  0.0733
 2976SOL     OW20563   3.376   2.142   6.789  0.2716 -0.5066 -0.0236
 2976SOL    HW120564   3.352   2.086   6.716  1.5128  2.1120 -2.4070
 2976SOL    HW220565   3.292   2.127   6.834 -0.5915  2.2134 -0.7304
 2977SOL     OW20566   3.661   1.582  17.228  0.5793 -0.3714 -0.2483
 2977SOL    HW120567   3.574   1.544  17.217  0.5285 -0.5728  0.8959
 2977SOL    HW220568   3.653   1.672  17.197  0.8222 -0.1866  0.2225
 2978SOL     OW20569   2.845   3.313   9.862  0.4169 -1.0844 -0.4359
 2978SOL    HW120570   2.769   3.362   9.830 -0.0856 -2.0406 -0.7305
 2978SOL    HW220571   2.860   3.371   9.936 -2.3039  1.3790 -1.8332
 2979SOL     OW20572   1.323   3.314   3.591  0.1309 -0.1516 -0.2186
 2979SOL    HW120573   1.347   3.347   3.677  1.7418  0.6506 -0.9763
 2979SOL    HW220574   1.266   3.241   3.615 -2.1524  2.0530  1.0277
 2980SOL     OW20575   0.159   2.307   7.910 -0.3370 -0.3647  0.2695
 2980SOL    HW120576   0.242   2.287   7.867  0.6198 -1.2794  2.5617
 2980SOL    HW220577   0.168   2.276   8.000  1.7184 -2.0255 -0.5171
 2981SOL     OW20578   3.877   0.771  16.084  0.2214  0.5884  0.2794
 2981SOL    HW120579   3.798   0.727  16.053  2.0475 -0.9988 -2.1331
 2981SOL    HW220580   3.935   0.698  16.108 -1.4911  0.0168  2.6738
 2982SOL     OW20581   2.641   1.078   4.047  0.3334  0.1016 -0.4799
 2982SOL    HW120582   2.596   1.082   3.963 -1.8225  0.6823  0.6843
 2982SOL    HW220583   2.715   1.020   4.031  0.7206 -0.0245  1.7636
 2983SOL     OW20584   1.758   2.148   0.318 -0.3405  0.2529 -0.4228
 2983SOL    HW120585   1.792   2.191   0.397  1.4202 -1.5906 -0.1773
 2983SOL    HW220586   1.844   2.136   0.278 -1.4149  1.3095 -3.0503
 2984SOL     OW20587   3.201   0.688  17.371  0.0848  0.6534 -0.0202
 2984SOL    HW120588   3.189   0.752  17.441  2.7898  2.2721 -1.0321
 2984SOL    HW220589   3.294   0.667  17.382  0.1195  0.8582  0.0831
 2985SOL     OW20590   3.567   2.516  11.033 -0.2085 -0.5235 -0.3290
 2985SOL    HW120591   3.570   2.581  11.103  0.6710 -0.9114 -0.0034
 2985SOL    HW220592   3.477   2.488  11.048  0.2447 -2.3184 -0.9119
 2986SOL     OW20593   2.683   1.547   1.572  0.2340  0.1436 -0.1680
 2986SOL    HW120594   2.625   1.513   1.504 -0.2885  0.0984  0.2956
 2986SOL    HW220595   2.665   1.495   1.651 -1.2584  1.2715  0.2194
 2987SOL     OW20596   3.884   4.576   8.298 -0.7134  0.4131 -0.5576
 2987SOL    HW120597   3.868   4.547   8.209 -0.8998  2.8515 -1.3218
 2987SOL    HW220598   3.953   4.515   8.327  0.0507  2.1935  1.3790
 2988SOL     OW20599   1.423   2.270   3.929 -0.1774  0.5653 -0.9812
 2988SOL    HW120600   1.333   2.301   3.942 -0.5650  0.1861 -2.7831
 2988SOL    HW220601   1.428   2.209   4.004  0.6192  1.4161 -0.3447
 2989SOL     OW20602   3.433   1.066   5.858  0.1591  0.2984 -0.3978
 2989SOL    HW120603   3.412   1.158   5.870 -2.1290 -0.3273  0.2670
 2989SOL    HW220604   3.424   1.040   5.949  0.8162  1.8789  0.1155
 2990SOL     OW20605   0.619   3.330  14.564  0.3429 -0.1138  0.2086
 2990SOL    HW120606   0.637   3.367  14.478 -1.4855  0.7184  0.2016
 2990SOL    HW220607   0.542   3.276  14.545 -0.7769  2.2663 -1.9142
 2991SOL     OW20608   3.288   3.389   6.168 -0.4724 -0.3594  0.2769
 2991SOL    HW120609   3.290   3.472   6.215 -1.7126 -0.3623  0.3316
 2991SOL    HW220610   3.233   3.341   6.229 -0.5808  0.2462  0.6590
 2992SOL     OW20611   2.164   3.199  15.532  0.3130 -0.0531  0.7072
 2992SOL    HW120612   2.231   3.267  15.528  0.5323 -0.3431 -0.4168
 2992SOL    HW220613   2.229   3.129  15.539 -0.6411 -0.9905  0.1652
 2993SOL     OW20614   3.134   1.488   7.169 -0.4177 -0.4412  0.2996
 2993SOL    HW120615   3.046   1.470   7.202 -1.1271  1.1026 -0.7626
 2993SOL    HW220616   3.162   1.555   7.233 -0.1576 -0.5524  0.3034
 2994SOL     OW20617   1.431   4.318   3.794 -0.5137 -0.4988 -0.9279
 2994SOL    HW120618   1.413   4.397   3.846  0.9423 -0.9252  0.2237
 2994SOL    HW220619   1.350   4.312   3.743 -0.1850 -0.2813 -1.4868
 2995SOL     OW20620   1.368   2.423   9.322  0.3435 -0.3368 -0.0013
 2995SOL    HW120621   1.339   2.514   9.327 -0.5714 -0.6129 -0.2026
 2995SOL    HW220622   1.426   2.428   9.398 -1.0315  0.3473  1.0118
 2996SOL     OW20623   4.428   3.430   8.691  0.1675 -0.0337  0.1747
 2996SOL    HW120624   4.514   3.425   8.733  0.4062  0.4202 -0.2581
 2996SOL    HW220625   4.454   3.401   8.603  0.4307  1.0892 -0.1189
 2997SOL     OW20626   3.796   2.933   3.101 -0.1448 -0.6483  0.2249
 2997SOL    HW120627   3.847   2.852   3.094 -1.4200 -1.5317  1.0810
 2997SOL    HW220628   3.861   2.985   3.148 -1.0055  1.0520 -0.4591
 2998SOL     OW20629   0.208   1.996  17.217 -0.3866  0.2630 -0.4903
 2998SOL    HW120630   0.191   1.918  17.165 -4.2324  1.5781 -1.1744
 2998SOL    HW220631   0.200   1.959  17.305  1.8667 -1.2116 -0.9096
 2999SOL     OW20632   3.518   0.661   0.218  0.4546  0.1786 -0.6274
 2999SOL    HW120633   3.473   0.621   0.144  2.9756  0.8075 -2.4786
 2999SOL    HW220634   3.542   0.744   0.177  1.7434  0.2544  0.2813
 3000SOL     OW20635   3.411   0.481   8.025  0.2417  0.1569 -0.5314
 3000SOL    HW120636   3.417   0.438   7.940  0.4674  1.0797 -0.9790
 3000SOL    HW220637   3.370   0.563   7.997  0.0888 -0.4891 -2.2226
 3001SOL     OW20638   2.231   0.065   2.755  0.8955 -0.1493  0.3185
 3001SOL    HW120639   2.310   0.039   2.803  1.7263  0.1419 -0.8848
 3001SOL    HW220640   2.163   0.006   2.786  0.9281 -0.4776 -0.2266
 3002SOL     OW20641   1.261   3.486  17.060  0.8717 -0.6227  0.3124
 3002SOL    HW120642   1.327   3.536  17.013  1.1789 -0.1204  1.2650
 3002SOL    HW220643   1.209   3.441  16.994 -1.0258  1.4749  0.3443
 3003SOL     OW20644   4.169   4.559  15.111 -0.0580 -0.3472  0.0139
 3003SOL    HW120645   4.073   4.555  15.112 -0.0512 -0.7120 -0.7284
 3003SOL    HW220646   4.192   4.642  15.068 -0.5377 -0.7665 -1.0675
 3004SOL     OW20647   3.058   1.093   7.407  0.1675  0.1716  0.5668
 3004SOL    HW120648   3.020   1.029   7.347  0.2732  0.4446  0.2040
 3004SOL    HW220649   2.981   1.148   7.421 -1.0039 -1.2052 -0.3896
 3005SOL     OW20650   1.827   1.122   7.737  0.1673  0.3763  0.0952
 3005SOL    HW120651   1.918   1.109   7.710  0.4482  2.1185  0.1619
 3005SOL    HW220652   1.795   1.146   7.650 -2.5105  0.6656  1.1747
 3006SOL     OW20653   0.011   3.466   5.730  0.1709 -0.0353  0.2485
 3006SOL    HW120654   4.686   3.538   5.719 -0.1541 -0.7528 -2.4279
 3006SOL    HW220655   4.711   3.406   5.666 -1.5634  0.7319  0.5433
 3007SOL     OW20656   4.119   0.465  11.953 -0.7283  0.2195  0.1154
 3007SOL    HW120657   4.150   0.463  11.863  0.0862 -1.5947  0.4339
 3007SOL    HW220658   4.166   0.543  11.981  0.8360  0.7152 -4.0116
 3008SOL     OW20659   1.130   1.038  17.658  0.8563 -0.1686 -0.4330
 3008SOL    HW120660   1.156   1.080  17.576  0.4930  0.8042 -0.0406
 3008SOL    HW220661   1.061   0.983  17.621  0.8260  0.4597 -1.3147
 3009SOL     OW20662   3.197   4.094   7.898  0.1515  0.1774  0.4087
 3009SOL    HW120663   3.204   4.008   7.856  3.2101  0.9058 -0.6102
 3009SOL    HW220664   3.185   4.080   7.992 -0.8954 -2.4821 -0.1210
 3010SOL     OW20665   1.052   1.547   8.811 -0.4463  0.8794  0.0620
 3010SOL    HW120666   1.117   1.533   8.880 -2.6364 -0.8098  1.8040
 3010SOL    HW220667   0.992   1.472   8.817  0.1110  0.3974 -0.4304
 3011SOL     OW20668   0.031   4.716  12.946 -0.1777  0.4613 -0.0259
 3011SOL    HW120669   0.019   4.622  12.961  2.8174 -0.1122 -1.2489
 3011SOL    HW220670   0.109   4.735  12.999  1.4867  0.5917 -2.5339
 3012SOL     OW20671   1.296   0.590  12.087 -0.1749  0.1802 -0.1218
 3012SOL    HW120672   1.248   0.541  12.021 -0.1196 -0.6164  0.4248
 3012SOL    HW220673   1.330   0.521  12.145 -0.0381  1.0786  0.8762
 3013SOL     OW20674   3.293   2.141   3.214  0.0799  0.9305  0.9998
 3013SOL    HW120675   3.315   2.063   3.266 -0.9190  0.5181  0.8149
 3013SOL    HW220676   3.378   2.154   3.173  0.4979 -0.7351  1.3347
 3014SOL     OW20677   3.296   4.316   3.654 -0.8785 -0.1427  0.1780
 3014SOL    HW120678   3.212   4.354   3.678 -0.4319  0.1734  1.2326
 3014SOL    HW220679   3.344   4.329   3.735  1.8528  2.0924 -1.7880
 3015SOL     OW20680   4.186   2.100   4.998 -0.1373  0.0795 -0.7409
 3015SOL    HW120681   4.138   2.062   5.072  2.7742 -0.3263  0.9176
 3015SOL    HW220682   4.244   2.033   4.963  0.4915 -0.2785  0.9806
 3016SOL     OW20683   0.370   2.484  10.810  0.2776 -0.0609 -0.2018
 3016SOL    HW120684   0.277   2.463  10.818  0.2439  0.0632 -0.2578
 3016SOL    HW220685   0.374   2.486  10.714 -1.8190  0.2035 -0.2923
 3017SOL     OW20686   3.250   3.612  15.789  0.5916 -0.1328  0.2861
 3017SOL    HW120687   3.170   3.578  15.830 -0.5644  0.7529 -1.2324
 3017SOL    HW220688   3.245   3.706  15.804 -0.5931  0.0912 -1.4506
 3018SOL     OW20689   2.560   1.219  11.884  0.0076  0.2548  0.1449
 3018SOL    HW120690   2.514   1.269  11.817  0.3550  0.0194 -0.2714
 3018SOL    HW220691   2.487   1.172  11.925  0.2706  0.1136  0.4538
 3019SOL     OW20692   1.952   1.139   2.576  0.3713  0.4370  0.1983
 3019SOL    HW120693   2.027   1.123   2.518  0.6217  2.8535 -0.1883
 3019SOL    HW220694   1.982   1.218   2.623 -1.8597  1.1109  0.4978
 3020SOL     OW20695   0.055   1.087   7.682  0.2053 -0.1520 -0.0328
 3020SOL    HW120696   4.698   1.095   7.667  0.1446  0.7438  0.7736
 3020SOL    HW220697   0.078   1.015   7.624  0.6190 -0.8184  0.9481
 3021SOL     OW20698   0.086   3.009   6.464  0.8084 -0.3457 -0.5838
 3021SOL    HW120699   0.111   2.917   6.460 -0.6428 -0.6283 -3.0413
 3021SOL    HW220700   4.729   3.004   6.448  0.8395 -0.8834 -0.5850
 3022SOL     OW20701   3.638   1.887   5.686 -0.2560  0.3378  0.0150
 3022SOL    HW120702   3.723   1.907   5.724  1.2538  0.0488 -3.1507
 3022SOL    HW220703   3.622   1.793   5.699  0.8932  0.0778 -0.4496
 3023SOL     OW20704   3.063   4.605   0.863 -0.7187 -0.4546 -1.0901
 3023SOL    HW120705   3.158   4.594   0.855 -0.3188  0.6959  2.1137
 3023SOL    HW220706   3.050   4.688   0.816  0.5123  1.6868  2.4144
 3024SOL     OW20707   3.193   1.805  16.064 -0.4864  0.1444  0.2275
 3024SOL    HW120708   3.122   1.822  16.001  0.8088  1.7991 -0.7898
 3024SOL    HW220709   3.233   1.889  16.085  1.8709 -0.2410 -2.7323
 3025SOL     OW20710   4.381   3.330  13.564 -0.2494 -0.6935  0.3365
 3025SOL    HW120711   4.418   3.403  13.615  0.5746 -0.9567  0.1171
 3025SOL    HW220712   4.299   3.371  13.536 -0.4941 -1.8383 -0.6099
 3026SOL     OW20713   1.911   4.492   7.168  0.3191 -0.5289  0.3725
 3026SOL    HW120714   1.882   4.551   7.098  1.2175 -0.9530 -0.3625
 3026SOL    HW220715   1.885   4.405   7.138 -1.9165  0.1787  0.2965
 3027SOL     OW20716   1.124   1.129  15.077  0.6462 -0.2704  0.3056
 3027SOL    HW120717   1.046   1.163  15.121  0.8179  0.0607  0.3589
 3027SOL    HW220718   1.191   1.171  15.131 -0.0132 -0.1668  1.0477
 3028SOL     OW20719   3.885   2.882   4.672 -0.1158 -0.2868 -0.0312
 3028SOL    HW120720   3.811   2.937   4.649 -0.3098  0.8111  3.2811
 3028SOL    HW220721   3.832   2.802   4.674  0.2197 -0.5164 -0.1995
 3029SOL     OW20722   2.075   0.777   6.440  0.1265 -0.4658 -0.2559
 3029SOL    HW120723   2.043   0.859   6.401 -0.3617 -0.2826  0.5428
 3029SOL    HW220724   2.114   0.814   6.518 -0.5244 -1.3629  0.4910
 3030SOL     OW20725   1.614   3.145   7.253 -0.1198 -0.3340 -0.3717
 3030SOL    HW120726   1.649   3.141   7.164 -0.3618 -1.2944 -0.4241
 3030SOL    HW220727   1.525   3.173   7.230 -1.0618 -4.5145 -1.7178
 3031SOL     OW20728   2.831   2.789   8.683  0.0677 -0.0215 -0.1481
 3031SOL    HW120729   2.894   2.734   8.636 -0.3336 -0.0246 -0.6875
 3031SOL    HW220730   2.882   2.832   8.751  1.2985  1.0449 -1.7671
 3032SOL     OW20731   0.068   4.214   4.372 -0.3520  0.5730  0.0059
 3032SOL    HW120732   0.130   4.279   4.339 -0.0514 -0.3662 -1.2753
 3032SOL    HW220733   0.053   4.165   4.291  0.9562  0.3663 -0.0986
 3033SOL     OW20734   0.327   2.383   3.273  0.2497 -0.3810 -0.7901
 3033SOL    HW120735   0.245   2.342   3.300  0.1735  0.1298 -0.2460
 3033SOL    HW220736   0.332   2.365   3.179  1.0690  1.3617 -1.0835
 3034SOL     OW20737   2.195   0.457   2.517 -0.2834  0.4902  0.4476
 3034SOL    HW120738   2.175   0.363   2.520  0.4513  0.3750  1.7531
 3034SOL    HW220739   2.157   0.472   2.430 -1.0607 -3.0693  0.1841
 3035SOL     OW20740   0.144   1.140   5.884  0.9684  0.5713 -0.4463
 3035SOL    HW120741   0.228   1.160   5.843  0.0675  0.8928 -2.1264
 3035SOL    HW220742   0.080   1.149   5.814 -1.8896 -1.7053  1.8915
 3036SOL     OW20743   3.644   3.742   3.481 -0.5275  0.0470  0.6523
 3036SOL    HW120744   3.648   3.720   3.575 -0.5846 -1.2577  0.3483
 3036SOL    HW220745   3.738   3.749   3.465 -0.7054  1.6291  0.3479
 3037SOL     OW20746   3.816   0.446  16.775  0.4569  0.0903 -0.4384
 3037SOL    HW120747   3.860   0.380  16.829 -1.2012 -0.3443  0.4097
 3037SOL    HW220748   3.883   0.461  16.709  0.7672  1.7804  0.2772
 3038SOL     OW20749   0.109   4.232   2.318  0.0501 -0.4912 -0.2250
 3038SOL    HW120750   0.140   4.303   2.373 -1.4981  0.7830 -1.0033
 3038SOL    HW220751   0.095   4.280   2.236 -1.2065  0.6665  0.6690
 3039SOL     OW20752   2.810   3.689   7.496  0.2502  0.4095 -0.0502
 3039SOL    HW120753   2.856   3.688   7.580  2.7965 -1.6000 -1.4635
 3039SOL    HW220754   2.779   3.598   7.493 -0.8970  0.7618  1.2754
 3040SOL     OW20755   2.387   4.157   2.565  0.1218  0.3107 -0.3145
 3040SOL    HW120756   2.357   4.102   2.638  2.7989  0.0309  0.5767
 3040SOL    HW220757   2.451   4.091   2.535  0.1097  0.2388 -0.1795
 3041SOL     OW20758   4.722   3.459   0.040  0.0485 -0.0296  0.1791
 3041SOL    HW120759   4.670   3.431   0.115  0.4336 -0.3069  0.3461
 3041SOL    HW220760   4.723   3.380  17.733  1.8212  1.5893 -2.1470
 3042SOL     OW20761   1.190   4.035   2.528 -0.0686  0.0613  0.5211
 3042SOL    HW120762   1.249   4.050   2.602 -0.1779 -1.3825  0.8856
 3042SOL    HW220763   1.101   4.054   2.559 -0.0936  1.7374 -0.5648
 3043SOL     OW20764   4.057   4.518   3.201  0.5261 -0.0643 -0.0863
 3043SOL    HW120765   3.978   4.521   3.255 -0.4223  0.0067 -1.4536
 3043SOL    HW220766   4.053   4.603   3.156 -0.5897  0.3523  0.7881
 3044SOL     OW20767   0.214   2.760  13.033  0.2377 -0.3930  0.5442
 3044SOL    HW120768   0.124   2.760  13.065 -0.0102  0.2170 -0.1364
 3044SOL    HW220769   0.204   2.779  12.939 -1.8134  0.4434  0.9113
 3045SOL     OW20770   3.418   0.104  12.461  0.0785  0.2715 -0.3477
 3045SOL    HW120771   3.408   0.026  12.405 -0.8761 -0.0160  0.2143
 3045SOL    HW220772   3.508   0.122  12.435  0.3407 -1.0015 -0.3575
 3046SOL     OW20773   3.600   1.865   1.668 -0.0841 -0.1641 -0.4025
 3046SOL    HW120774   3.523   1.906   1.629  0.8838 -0.9766 -3.1554
 3046SOL    HW220775   3.656   1.942   1.672  0.3475 -0.4709 -0.5179
 3047SOL     OW20776   2.917   2.693   5.197  0.7785  0.0776 -0.0138
 3047SOL    HW120777   2.896   2.605   5.227 -0.4825  1.1813  2.3442
 3047SOL    HW220778   2.879   2.704   5.109  1.1908 -0.2452 -0.2323
 3048SOL     OW20779   2.410   2.451  11.465  0.0532  0.0039 -0.0355
 3048SOL    HW120780   2.494   2.481  11.429  0.2661 -1.1753 -0.5087
 3048SOL    HW220781   2.384   2.380  11.407  0.1087  1.7344 -2.1766
 3049SOL     OW20782   2.320   1.880   7.627 -0.3012 -0.1657  0.3152
 3049SOL    HW120783   2.279   1.956   7.667  0.7841  0.4805  0.1887
 3049SOL    HW220784   2.336   1.827   7.705  0.7624 -0.7889 -0.3312
 3050SOL     OW20785   3.054   2.774   3.482 -0.2056 -0.2585 -0.3062
 3050SOL    HW120786   3.132   2.826   3.503 -0.0632  0.3888 -2.4362
 3050SOL    HW220787   3.027   2.823   3.404 -1.7785 -1.1300 -0.3110
 3051SOL     OW20788   3.453   3.110   4.760  0.3561  0.4701  0.1313
 3051SOL    HW120789   3.481   3.201   4.777  0.7841  0.7076 -1.8464
 3051SOL    HW220790   3.370   3.121   4.805  0.3520  0.5167  0.1125
 3052SOL     OW20791   0.198   2.917   5.166  0.3428 -0.3819  0.2587
 3052SOL    HW120792   0.152   2.940   5.247 -2.2508 -1.7570 -0.8277
 3052SOL    HW220793   0.150   2.842   5.132 -0.5939  1.1765 -1.8374
 3053SOL     OW20794   4.725   1.398   6.020  0.1046 -0.3741 -0.8595
 3053SOL    HW120795   0.077   1.387   5.987 -0.5542 -3.5569 -1.6013
 3053SOL    HW220796   4.690   1.422   5.935  0.4237  0.6868 -0.6857
 3054SOL     OW20797   3.995   4.025  17.064 -0.3330 -0.2609 -0.2238
 3054SOL    HW120798   3.949   3.941  17.068  0.6545 -0.7708  0.2676
 3054SOL    HW220799   4.085   3.998  17.083 -0.7087 -1.1865  0.2431
 3055SOL     OW20800   2.855   3.261   3.307 -0.4314  0.2659  0.2510
 3055SOL    HW120801   2.866   3.341   3.256 -0.0585 -0.2513 -0.4841
 3055SOL    HW220802   2.775   3.223   3.270 -0.9047  0.0832  1.4528
 3056SOL     OW20803   4.571   1.953   5.576  0.0723  0.0990  0.2155
 3056SOL    HW120804   4.494   2.009   5.586 -0.3566 -0.1737 -1.5485
 3056SOL    HW220805   4.603   1.986   5.492  0.5892  1.8979  1.1420
 3057SOL     OW20806   3.320   0.575   7.369  0.6818 -0.1528 -0.0868
 3057SOL    HW120807   3.344   0.643   7.306 -1.3193  1.6150  1.0404
 3057SOL    HW220808   3.273   0.511   7.314  0.8191 -0.1547 -0.2021
 3058SOL     OW20809   0.655   0.875   0.643  0.4287  0.7460  0.2714
 3058SOL    HW120810   0.566   0.862   0.676  0.5720  0.7067  0.6451
 3058SOL    HW220811   0.638   0.897   0.551 -0.1156  1.4664  0.5388
 3059SOL     OW20812   1.189   4.462   5.368 -0.0889  0.1117  0.2120
 3059SOL    HW120813   1.285   4.464   5.368 -0.0715 -0.9356 -0.0197
 3059SOL    HW220814   1.173   4.470   5.274  1.8764 -0.5559 -0.1854
 3060SOL     OW20815   1.798   2.913   6.569  0.3825 -0.0379  0.1768
 3060SOL    HW120816   1.705   2.933   6.561  0.1378 -0.6836  1.4158
 3060SOL    HW220817   1.801   2.854   6.493 -2.0178 -0.9874  0.8097
 3061SOL     OW20818   0.001   3.414   8.616  0.0206  0.1762 -0.1112
 3061SOL    HW120819   0.029   3.494   8.572  1.4637 -0.2943 -0.0396
 3061SOL    HW220820   0.032   3.347   8.555 -0.5909 -1.3595  1.2781
 3062SOL     OW20821   1.826   2.329   0.857 -0.4554  0.3709  0.3273
 3062SOL    HW120822   1.755   2.313   0.796  0.0753 -1.7850  0.2778
 3062SOL    HW220823   1.884   2.380   0.801  0.2553 -0.1877  0.5400
 3063SOL     OW20824   1.841   3.932  11.197 -0.3140 -0.7471 -0.9737
 3063SOL    HW120825   1.811   3.996  11.132  0.8360  0.6580 -0.1347
 3063SOL    HW220826   1.773   3.945  11.264  0.7677 -0.6169  0.1103
 3064SOL     OW20827   1.723   2.002   9.246 -0.0928 -0.9222 -0.1041
 3064SOL    HW120828   1.758   2.049   9.322  1.1950 -0.3441 -1.0512
 3064SOL    HW220829   1.640   2.049   9.244  2.3260  3.4064  0.8102
 3065SOL     OW20830   3.709   3.015   6.907  0.5348 -0.2740  0.6386
 3065SOL    HW120831   3.651   2.943   6.933  1.0999  0.0047  2.6992
 3065SOL    HW220832   3.688   3.039   6.817  2.3076  2.4677  0.9229
 3066SOL     OW20833   2.092   4.042   3.633 -0.8956  0.1897  0.2240
 3066SOL    HW120834   2.075   3.952   3.661  0.3746  0.6253  2.3556
 3066SOL    HW220835   2.119   4.028   3.542  0.6372  0.6944  0.6036
 3067SOL     OW20836   0.383   2.578   6.777  0.0546 -0.3393  0.7226
 3067SOL    HW120837   0.448   2.620   6.720 -0.4614 -1.2810 -0.5650
 3067SOL    HW220838   0.344   2.519   6.712 -0.8295 -0.8520  1.7408
 3068SOL     OW20839   2.882   1.144  11.371  0.3201  0.2134 -0.1866
 3068SOL    HW120840   2.961   1.126  11.422 -0.3456 -0.0646  0.7423
 3068SOL    HW220841   2.855   1.058  11.337  1.8965  0.0852 -1.1604
 3069SOL     OW20842   0.735   0.825   1.013 -0.0521 -0.3081 -0.4785
 3069SOL    HW120843   0.709   0.873   1.092 -0.8590  0.2260 -1.0701
 3069SOL    HW220844   0.679   0.748   1.003  0.4686 -0.8810  1.0228
 3070SOL     OW20845   0.433   1.637   3.838  0.2952  0.0231 -0.1542
 3070SOL    HW120846   0.492   1.674   3.773 -0.5049 -0.0396 -0.9231
 3070SOL    HW220847   0.391   1.566   3.789  0.8148  0.5130 -1.3274
 3071SOL     OW20848   2.235   2.996   0.726  0.2329  0.4847 -0.2644
 3071SOL    HW120849   2.282   2.981   0.808 -3.2661 -0.3698  1.5761
 3071SOL    HW220850   2.180   3.064   0.765  0.4195 -0.1831  1.1444
 3072SOL     OW20851   3.822   2.473  14.832  0.0637 -0.3013  0.1287
 3072SOL    HW120852   3.769   2.541  14.874  1.2975 -0.1503  1.4432
 3072SOL    HW220853   3.787   2.468  14.743 -0.5309  0.4903  0.3232
 3073SOL     OW20854   1.633   0.569   6.262  0.0078 -0.8318  0.4348
 3073SOL    HW120855   1.691   0.507   6.217  0.7317 -1.0282  1.6417
 3073SOL    HW220856   1.692   0.594   6.333  1.0331  0.8446 -1.0190
 3074SOL     OW20857   0.541   2.919   3.418 -0.1158 -0.9534 -0.9122
 3074SOL    HW120858   0.461   2.939   3.369  0.1539  2.0812 -0.1137
 3074SOL    HW220859   0.598   2.984   3.375  0.4248 -2.2271 -2.1132
 3075SOL     OW20860   1.836   0.038  16.455 -0.1681 -0.3104 -0.0930
 3075SOL    HW120861   1.884   0.021  16.536  0.7310  1.8236 -0.1583
 3075SOL    HW220862   1.879   4.724  16.386 -1.4057 -0.9384 -0.3831
 3076SOL     OW20863   3.520   1.918   7.847 -0.0694 -0.3215  0.1792
 3076SOL    HW120864   3.541   1.953   7.760 -1.3336 -0.0336 -0.0020
 3076SOL    HW220865   3.609   1.900   7.879 -1.4802 -2.9939  2.5232
 3077SOL     OW20866   3.974   2.862  14.609  0.3348  0.0851 -0.0267
 3077SOL    HW120867   3.942   2.950  14.589 -1.7174 -0.7586 -0.4418
 3077SOL    HW220868   4.003   2.868  14.700 -2.6608 -1.6724  1.0597
 3078SOL     OW20869   3.158   2.328   2.293 -0.2825 -0.4536  0.2188
 3078SOL    HW120870   3.113   2.257   2.247  0.0077 -0.9715  0.7307
 3078SOL    HW220871   3.087   2.390   2.305  1.4935  1.7708 -0.8403
 3079SOL     OW20872   0.538   2.549   4.811  0.1929  0.2320 -0.0157
 3079SOL    HW120873   0.603   2.616   4.830 -0.5216  0.0810  3.0297
 3079SOL    HW220874   0.521   2.548   4.717  0.5825  0.7931 -0.0891
 3080SOL     OW20875   3.390   3.547   4.678 -0.1331 -0.1594 -0.6375
 3080SOL    HW120876   3.453   3.477   4.695  0.4075  0.4787  0.0373
 3080SOL    HW220877   3.422   3.603   4.750 -1.9138 -1.1552  0.9062
 3081SOL     OW20878   0.868   1.120   6.341  0.1072  0.1912 -0.5272
 3081SOL    HW120879   0.793   1.074   6.378  0.1037  1.3767  0.9303
 3081SOL    HW220880   0.848   1.111   6.248 -3.6266  1.3351  0.1692
 3082SOL     OW20881   2.538   1.672   8.881  0.1549 -0.1522  0.2226
 3082SOL    HW120882   2.611   1.619   8.914  0.3368 -1.4007 -2.1458
 3082SOL    HW220883   2.463   1.613   8.889 -0.4411  0.1679 -2.7933
 3083SOL     OW20884   2.320   3.473  11.836 -0.5861 -0.2405  0.2923
 3083SOL    HW120885   2.289   3.486  11.747 -0.6097  2.8078  0.7271
 3083SOL    HW220886   2.236   3.458  11.880 -0.1215  0.7028  1.5253
 3084SOL     OW20887   2.649   1.303   8.024 -0.0211  0.2065  0.1257
 3084SOL    HW120888   2.645   1.303   7.928 -0.2045 -0.1882  0.1343
 3084SOL    HW220889   2.559   1.321   8.053  0.3536  2.2786  0.0152
 3085SOL     OW20890   3.222   3.704  16.572  0.4141  0.0456  0.0699
 3085SOL    HW120891   3.248   3.726  16.483  1.4911 -2.1025 -0.1513
 3085SOL    HW220892   3.132   3.673  16.559  0.2732  0.7282 -0.5720
 3086SOL     OW20893   4.546   2.448   2.883 -0.1317  0.6495 -0.1785
 3086SOL    HW120894   4.603   2.375   2.907  0.5158  0.2242 -2.9949
 3086SOL    HW220895   4.608   2.513   2.850  0.6089 -0.5216 -1.1054
 3087SOL     OW20896   4.138   1.643   6.484  0.4663  0.2059 -0.0817
 3087SOL    HW120897   4.151   1.572   6.422 -0.0975 -0.4172  0.5225
 3087SOL    HW220898   4.174   1.614   6.568 -0.2213 -1.6864 -0.4549
 3088SOL     OW20899   1.655   0.480   2.352 -0.1585  0.1676 -0.4064
 3088SOL    HW120900   1.602   0.470   2.431  0.4797  1.8854  0.2367
 3088SOL    HW220901   1.671   0.573   2.338  0.5476  0.1196  0.0861
 3089SOL     OW20902   1.056   0.463   3.755 -0.0168  0.5405  0.1911
 3089SOL    HW120903   0.978   0.423   3.718  0.2347  2.2525 -2.1362
 3089SOL    HW220904   1.047   0.433   3.846  1.3001 -1.7569 -0.4125
 3090SOL     OW20905   2.543   0.766   1.776  0.6661  0.4544  0.2269
 3090SOL    HW120906   2.459   0.775   1.731 -0.0586 -1.3325  1.2297
 3090SOL    HW220907   2.607   0.810   1.720  0.0653  0.3817 -0.5230
 3091SOL     OW20908   0.692   0.950   9.942 -0.0351 -0.4897  0.2503
 3091SOL    HW120909   0.640   0.983   9.869  0.5132 -1.7317 -0.7102
 3091SOL    HW220910   0.642   0.986  10.015 -0.6176  1.1716 -0.9730
 3092SOL     OW20911   2.752   2.378  14.851 -0.2409 -0.0758  0.5570
 3092SOL    HW120912   2.818   2.312  14.828 -0.7571 -0.3637 -0.0944
 3092SOL    HW220913   2.671   2.350  14.808 -1.7282 -0.3212  3.5291
 3093SOL     OW20914   3.321   0.381  15.219 -0.6686 -0.5449 -0.6588
 3093SOL    HW120915   3.351   0.445  15.153  0.3842  0.1544  0.5053
 3093SOL    HW220916   3.238   0.422  15.243 -0.0715  1.5627 -2.1766
 3094SOL     OW20917   3.936   3.240   2.559 -0.2809  0.5521  0.1469
 3094SOL    HW120918   3.896   3.158   2.589 -1.0525  0.7756 -0.2939
 3094SOL    HW220919   3.906   3.245   2.468 -0.9356 -3.4580  0.1313
 3095SOL     OW20920   1.306   4.481   8.165 -0.7150 -0.1817 -0.0615
 3095SOL    HW120921   1.260   4.554   8.123  2.1809  1.3911 -0.4968
 3095SOL    HW220922   1.237   4.436   8.213 -1.5909  1.2003 -0.0327
 3096SOL     OW20923   1.890   2.664   5.510  0.3482 -0.1858  0.2102
 3096SOL    HW120924   1.880   2.571   5.492  0.3721 -0.3478  1.0094
 3096SOL    HW220925   1.867   2.667   5.603 -1.0935  2.5753 -0.2518
 3097SOL     OW20926   3.547   1.745   3.322 -0.5111  0.0622 -0.9471
 3097SOL    HW120927   3.494   1.723   3.398  0.9084  1.2627  0.3870
 3097SOL    HW220928   3.597   1.664   3.310  1.6175  0.9502  2.0655
 3098SOL     OW20929   4.300   0.140   8.475  0.6652 -0.3838 -0.2961
 3098SOL    HW120930   4.346   0.135   8.392 -0.0711  0.2648 -0.7453
 3098SOL    HW220931   4.302   0.050   8.506 -1.3503  0.3482  2.0192
 3099SOL     OW20932   3.983   2.994   6.939 -0.0383  0.6183 -0.2713
 3099SOL    HW120933   4.011   3.060   7.002 -0.2360  0.4573 -0.0132
 3099SOL    HW220934   3.892   3.013   6.916 -0.7382 -0.6957  1.3175
 3100SOL     OW20935   2.939   0.352   4.689 -1.0417 -0.3259 -0.0600
 3100SOL    HW120936   2.891   0.270   4.698  0.2095 -1.0333  0.1918
 3100SOL    HW220937   2.897   0.381   4.608 -2.8661 -0.6478  0.7887
 3101SOL     OW20938   4.136   2.343   2.796 -0.6409  0.0913  0.0175
 3101SOL    HW120939   4.226   2.352   2.828 -1.0253  0.8582  0.8794
 3101SOL    HW220940   4.148   2.278   2.727 -0.7137 -0.1879  0.2707
 3102SOL     OW20941   2.282   3.372   2.477 -0.3688 -0.4210 -1.1704
 3102SOL    HW120942   2.294   3.332   2.391  0.9088  0.9362 -1.6122
 3102SOL    HW220943   2.222   3.303   2.508 -0.7481  0.8785  0.9836
 3103SOL     OW20944   1.357   0.312  12.197 -0.1604 -0.0124 -0.5212
 3103SOL    HW120945   1.311   0.230  12.211 -0.3658  0.1016 -0.5215
 3103SOL    HW220946   1.432   0.298  12.254  1.0141  0.4773 -1.9304
 3104SOL     OW20947   1.579   1.670   2.385 -0.6127  0.0213  0.0928
 3104SOL    HW120948   1.600   1.605   2.318 -2.1366  0.8271 -1.1676
 3104SOL    HW220949   1.524   1.615   2.441 -1.9895  0.7265 -0.5735
 3105SOL     OW20950   0.899   0.650  13.557 -0.4145  0.3098  0.2671
 3105SOL    HW120951   0.896   0.684  13.647  1.8540 -0.9089  0.7825
 3105SOL    HW220952   0.943   0.568  13.577 -1.6850 -0.6694 -0.9569
 3106SOL     OW20953   2.698   0.010  11.197 -0.5641 -0.4802 -0.1258
 3106SOL    HW120954   2.624   4.686  11.198 -0.5839 -0.4927 -2.4150
 3106SOL    HW220955   2.768   4.691  11.162  1.6061  1.1745  1.5309
 3107SOL     OW20956   3.399   4.031   0.809 -0.3811  0.2612  0.2893
 3107SOL    HW120957   3.355   3.981   0.878  0.2988  0.4843  0.8900
 3107SOL    HW220958   3.493   4.023   0.825 -0.3222  0.2805 -0.0635
 3108SOL     OW20959   4.041   0.666  14.392 -0.2107 -0.6223 -0.1574
 3108SOL    HW120960   4.003   0.701  14.311  0.5414 -1.1343 -0.7334
 3108SOL    HW220961   4.020   0.733  14.456  1.7269  0.7084 -0.9228
 3109SOL     OW20962   3.110   1.656   5.489  0.0188 -0.1018 -0.4255
 3109SOL    HW120963   3.074   1.569   5.508  0.5815 -0.4720 -1.0615
 3109SOL    HW220964   3.188   1.623   5.445  1.9538  1.1530  2.0166
 3110SOL     OW20965   3.802   2.447  12.108 -0.7489 -0.2666  0.7451
 3110SOL    HW120966   3.816   2.472  12.200 -1.1643 -2.2947  1.3503
 3110SOL    HW220967   3.742   2.375  12.128 -1.3399 -0.5511 -2.1611
 3111SOL     OW20968   2.336   0.049  11.031  0.1813 -0.2223 -0.2540
 3111SOL    HW120969   2.332   0.021  11.122 -1.8691 -0.5509 -0.4401
 3111SOL    HW220970   2.246   0.051  10.997 -0.3789 -1.0365  1.2121
 3112SOL     OW20971   4.067   2.403  16.622  0.4776  0.1521  0.1677
 3112SOL    HW120972   4.129   2.342  16.582 -0.4979 -0.3894 -0.5013
 3112SOL    HW220973   4.110   2.406  16.708 -0.0885 -2.6183  0.5368
 3113SOL     OW20974   0.321   3.493   0.866  0.4710  0.6163  0.6892
 3113SOL    HW120975   0.404   3.533   0.840  1.8287 -1.1881  2.1960
 3113SOL    HW220976   0.345   3.443   0.944 -0.2629  0.9652  1.1415
 3114SOL     OW20977   3.543   3.147   9.383  0.7265  0.6867  0.0192
 3114SOL    HW120978   3.474   3.183   9.440  1.9394  1.5012  0.9768
 3114SOL    HW220979   3.501   3.063   9.368 -1.7078  2.2498 -2.0433
 3115SOL     OW20980   3.250   3.827  13.644 -0.6842  0.4648 -0.0827
 3115SOL    HW120981   3.224   3.738  13.621 -3.4044  0.7414  1.8800
 3115SOL    HW220982   3.280   3.809  13.733  0.3791  0.3611 -0.4610
 3116SOL     OW20983   2.973   4.036  15.845 -0.2278  0.4929 -0.2009
 3116SOL    HW120984   2.972   4.105  15.780  3.8886  1.6031  0.9046
 3116SOL    HW220985   2.888   3.992  15.837  0.1983 -0.1625 -1.1530
 3117SOL     OW20986   0.647   1.587   4.369 -0.1011  0.0008 -0.3610
 3117SOL    HW120987   0.556   1.598   4.398  0.6782 -1.2815  2.5527
 3117SOL    HW220988   0.695   1.585   4.452 -1.2460  0.5692  0.3126
 3118SOL     OW20989   1.240   0.063   6.223 -0.1642 -0.6456  0.4481
 3118SOL    HW120990   1.235   0.155   6.199 -0.4746 -0.7151  0.2496
 3118SOL    HW220991   1.153   0.052   6.262 -0.5829  0.5168 -0.1596
 3119SOL     OW20992   2.292   0.846   1.670 -0.3593  0.0407 -0.2074
 3119SOL    HW120993   2.221   0.853   1.606  0.4486 -0.4713 -1.1529
 3119SOL    HW220994   2.252   0.863   1.755  1.3494 -1.5356  0.8989
 3120SOL     OW20995   3.165   2.388   2.989  0.4023 -0.3615  0.1903
 3120SOL    HW120996   3.188   2.476   2.959 -1.8158  0.6238  1.3933
 3120SOL    HW220997   3.213   2.387   3.072 -0.9924  0.0621  1.0117
 3121SOL     OW20998   4.299   1.878   5.867  0.2410 -0.3755 -0.4858
 3121SOL    HW120999   4.227   1.940   5.850  0.4013 -0.0019  0.2038
 3121SOL    HW221000   4.373   1.930   5.836  1.2688 -1.5901 -0.0837
 3122SOL     OW21001   0.215   2.653   7.293 -0.0208 -0.4446 -0.2283
 3122SOL    HW121002   0.307   2.645   7.268 -0.2428 -0.5319 -1.0119
 3122SOL    HW221003   0.169   2.637   7.210 -1.2199  0.9732  0.1610
 3123SOL     OW21004   1.266   1.674  13.746 -0.1485 -0.4434  0.0052
 3123SOL    HW121005   1.182   1.641  13.715 -0.9016 -2.1539  3.8084
 3123SOL    HW221006   1.310   1.710  13.669 -2.2301  3.1393  0.5215
 3124SOL     OW21007   1.499   0.642   3.520  0.3160 -0.8601 -0.2545
 3124SOL    HW121008   1.574   0.645   3.580  2.3042  0.4405 -2.8001
 3124SOL    HW221009   1.471   0.731   3.539 -1.7843 -1.3838 -0.9005
 3125SOL     OW21010   3.841   2.908   7.470  0.2209  0.1111 -0.0197
 3125SOL    HW121011   3.818   2.835   7.413 -1.1570  1.5379 -1.2976
 3125SOL    HW221012   3.936   2.897   7.476  0.3021  0.0235 -1.6315
 3126SOL     OW21013   3.678   4.083   0.589 -0.1472  0.2513  0.3752
 3126SOL    HW121014   3.752   4.070   0.531 -0.9682 -1.0006 -0.3955
 3126SOL    HW221015   3.690   4.009   0.649  1.2136 -0.1869 -0.4618
 3127SOL     OW21016   3.234   4.487   1.289  0.4423  0.1709 -0.0217
 3127SOL    HW121017   3.251   4.542   1.365 -0.8063  2.7117 -1.6020
 3127SOL    HW221018   3.201   4.554   1.229  1.6965  0.8838  0.0866
 3128SOL     OW21019   1.187   1.507   6.937 -0.0959  0.3542  0.2881
 3128SOL    HW121020   1.172   1.461   6.854 -0.8173  1.1133 -0.0016
 3128SOL    HW221021   1.157   1.434   6.992  2.8019 -0.5553  0.6464
 3129SOL     OW21022   1.239   0.250   8.796 -0.1090 -0.1103  0.2091
 3129SOL    HW121023   1.312   0.292   8.751 -0.5879 -0.0263 -0.4882
 3129SOL    HW221024   1.255   0.163   8.760  1.1434  0.3239 -0.3163
 3130SOL     OW21025   1.692   3.271   7.484  0.3671  0.0673 -0.2753
 3130SOL    HW121026   1.661   3.251   7.395 -1.2489 -0.6130  0.4378
 3130SOL    HW221027   1.764   3.332   7.467  2.3876 -1.4685  2.7703
 3131SOL     OW21028   4.027   2.091  15.389 -0.6020 -0.2818  0.7930
 3131SOL    HW121029   3.994   2.075  15.301 -0.9790 -1.8602  1.2311
 3131SOL    HW221030   3.987   2.022  15.441  1.3849 -0.9408  1.4685
 3132SOL     OW21031   0.767   3.170   9.605 -0.3085 -0.1226  0.7226
 3132SOL    HW121032   0.678   3.136   9.606 -1.0247  1.6888 -0.6498
 3132SOL    HW221033   0.748   3.263   9.617  1.2150  0.2152  0.5344
 3133SOL     OW21034   3.375   3.945  16.173 -0.3404  0.2054  0.2849
 3133SOL    HW121035   3.408   4.013  16.232 -1.1982  0.3481  0.6066
 3133SOL    HW221036   3.354   4.000  16.098 -1.7612 -0.8509 -0.0914
 3134SOL     OW21037   4.565   0.898   2.093  0.3969 -0.0923  0.2016
 3134SOL    HW121038   4.632   0.939   2.147  0.5944  1.2621 -1.0477
 3134SOL    HW221039   4.489   0.912   2.148 -0.5814  2.4020 -1.7995
 3135SOL     OW21040   1.443   0.616   2.173 -0.1851  0.2932  0.8137
 3135SOL    HW121041   1.499   0.549   2.134 -0.6143  0.6713 -0.4509
 3135SOL    HW221042   1.488   0.698   2.150 -0.6730  0.5356  0.7180
 3136SOL     OW21043   3.764   0.251  15.969  0.4529  0.2001 -0.0603
 3136SOL    HW121044   3.769   0.200  15.888 -2.0154 -0.2680  0.0790
 3136SOL    HW221045   3.675   0.231  15.997  1.1892 -2.4350  0.3902
 3137SOL     OW21046   0.837   2.745   1.794  0.5932 -0.2673 -0.1378
 3137SOL    HW121047   0.849   2.653   1.820 -4.7788 -0.7195  0.7408
 3137SOL    HW221048   0.829   2.777   1.884  1.2049 -2.4956  0.7102
 3138SOL     OW21049   1.048   0.146   3.882 -0.0691 -0.6518 -0.6542
 3138SOL    HW121050   1.141   0.139   3.860  0.1356 -0.5771  0.2004
 3138SOL    HW221051   1.039   0.130   3.976  0.9191  0.9889 -0.2895
 3139SOL     OW21052   3.225   0.397   8.777  0.7089 -0.1441 -0.7030
 3139SOL    HW121053   3.216   0.492   8.788 -0.0261 -0.0216 -2.4318
 3139SOL    HW221054   3.244   0.368   8.867  0.7514  2.4813  0.1289
 3140SOL     OW21055   2.332   1.298   8.527  0.9866 -0.0732 -0.5534
 3140SOL    HW121056   2.403   1.334   8.473  1.8201  0.3338  0.8251
 3140SOL    HW221057   2.269   1.369   8.527 -0.3670 -1.2618 -1.9746
 3141SOL     OW21058   0.377   4.242   9.142 -0.0791 -0.0118 -0.1012
 3141SOL    HW121059   0.405   4.248   9.233 -2.6695  2.6114  0.5379
 3141SOL    HW221060   0.464   4.260   9.107 -0.0689  0.1066 -0.0156
 3142SOL     OW21061   3.116   4.707   5.225 -0.3523 -0.2804 -0.0178
 3142SOL    HW121062   3.151   4.634   5.276  0.8683 -0.5038 -1.1847
 3142SOL    HW221063   3.186   0.034   5.213 -0.2842 -0.1887  0.8614
 3143SOL     OW21064   1.952   1.404   8.829 -0.3356  0.1067  0.2523
 3143SOL    HW121065   1.985   1.493   8.842  0.0286  0.5223 -3.5513
 3143SOL    HW221066   1.994   1.396   8.743 -1.5664 -0.8243 -0.2684
 3144SOL     OW21067   2.572   3.269   3.768  0.2390 -0.5631 -0.2484
 3144SOL    HW121068   2.536   3.180   3.766  0.2821 -0.5837 -0.0545
 3144SOL    HW221069   2.642   3.254   3.831 -1.3717  0.6249  1.8147
 3145SOL     OW21070   2.685   1.913   3.838 -0.1168  0.1876  0.5882
 3145SOL    HW121071   2.755   1.879   3.783 -1.5618  1.8917 -2.2790
 3145SOL    HW221072   2.655   1.833   3.882  2.3893 -1.8995 -1.4834
 3146SOL     OW21073   2.129   3.325  16.559 -0.0015 -0.0508  0.4070
 3146SOL    HW121074   2.131   3.420  16.546 -0.8295  0.0680  1.2361
 3146SOL    HW221075   2.044   3.307  16.599 -0.6072 -0.5219 -1.0870
 3147SOL     OW21076   0.800   1.684   0.769  0.0602 -0.0943 -0.0149
 3147SOL    HW121077   0.888   1.701   0.804  0.3074 -0.9209 -0.2364
 3147SOL    HW221078   0.774   1.771   0.737 -0.3777 -1.1994 -2.6632
 3148SOL     OW21079   4.355   0.011   9.519 -0.2253 -0.1692  0.0342
 3148SOL    HW121080   4.267   0.029   9.552 -0.4567 -1.3062  0.0498
 3148SOL    HW221081   4.336   4.679   9.456 -1.1890 -0.8191  1.0317
 3149SOL     OW21082   3.860   4.436  13.032 -0.2224  0.2728 -0.2202
 3149SOL    HW121083   3.819   4.404  13.112  0.8255  1.3499  0.7446
 3149SOL    HW221084   3.904   4.352  13.027  0.6505  0.6489  1.1322
 3150SOL     OW21085   1.890   1.172   6.649  0.0279  0.1140  0.2180
 3150SOL    HW121086   1.965   1.210   6.602 -0.4316 -1.3606 -1.6951
 3150SOL    HW221087   1.823   1.179   6.581 -0.0114 -2.6783 -0.0029
 3151SOL     OW21088   0.779   2.348   6.549 -0.0230  0.4561  0.1814
 3151SOL    HW121089   0.692   2.388   6.548 -0.9841 -1.6456 -0.8355
 3151SOL    HW221090   0.814   2.405   6.617  0.0212 -0.0160  0.5565
 3152SOL     OW21091   3.628   0.952   6.360  0.4185 -0.6828  0.7987
 3152SOL    HW121092   3.692   0.954   6.431 -0.3980  0.9814  1.4948
 3152SOL    HW221093   3.562   1.013   6.394  1.7488  1.9061 -1.2164
 3153SOL     OW21094   2.147   1.588   5.643 -0.2767  0.2250  0.2368
 3153SOL    HW121095   2.128   1.606   5.735 -0.8760 -0.4499  0.2440
 3153SOL    HW221096   2.083   1.520   5.622 -0.4461 -0.3830  2.7122
 3154SOL     OW21097   4.180   0.733   4.356  0.1600  0.1746  0.6399
 3154SOL    HW121098   4.219   0.733   4.269 -2.0886  1.0235 -0.3819
 3154SOL    HW221099   4.190   0.641   4.380 -1.3636 -0.3658 -0.7597
 3155SOL     OW21100   1.424   1.405   8.066  0.5604  0.5291  0.3168
 3155SOL    HW121101   1.463   1.491   8.049  1.1919  0.1226 -0.3414
 3155SOL    HW221102   1.493   1.363   8.117  1.1472  0.6075 -0.4053
 3156SOL     OW21103   2.717   0.680   5.996 -0.4397 -0.0119 -0.2105
 3156SOL    HW121104   2.778   0.747   6.029 -0.4989  0.4729 -1.1008
 3156SOL    HW221105   2.781   0.614   5.970 -0.3060  0.2805 -0.6208
 3157SOL     OW21106   4.667   0.934  14.886 -0.8703 -0.6783  0.1237
 3157SOL    HW121107   4.699   1.009  14.837 -1.2506  0.7954  2.1373
 3157SOL    HW221108   4.702   0.866  14.829 -0.7680  0.6242 -1.3408
 3158SOL     OW21109   0.544   3.659  15.569  0.0838 -0.0305  0.5563
 3158SOL    HW121110   0.450   3.675  15.558  0.1085 -1.3749 -1.6441
 3158SOL    HW221111   0.540   3.564  15.557  2.1325 -0.4742  3.5627
 3159SOL     OW21112   1.131   4.594   8.479  0.5162 -0.0685  0.3302
 3159SOL    HW121113   1.107   4.503   8.458 -1.1928  0.6472 -0.7900
 3159SOL    HW221114   1.214   4.577   8.522  0.1425 -0.4490  0.9040
 3160SOL     OW21115   3.102   4.117   9.967  0.4883  0.4341  0.5375
 3160SOL    HW121116   3.081   4.211   9.973 -3.7907 -0.3887 -0.9872
 3160SOL    HW221117   3.155   4.102  10.045 -1.6689 -2.0594  1.5229
 3161SOL     OW21118   2.017   4.112   1.632 -0.0771  0.3648  0.6885
 3161SOL    HW121119   2.017   4.104   1.536  0.8148 -1.1316  0.8052
 3161SOL    HW221120   2.082   4.043   1.649  0.5348  0.1875 -2.3402
 3162SOL     OW21121   3.541   3.842   6.602 -0.2156  0.0021  0.2179
 3162SOL    HW121122   3.581   3.864   6.518 -0.9063  1.1546  0.1897
 3162SOL    HW221123   3.617   3.832   6.659 -2.0896 -0.2910  2.6893
 3163SOL     OW21124   2.797   2.797   1.694 -0.0129  0.2839  0.5401
 3163SOL    HW121125   2.831   2.837   1.774 -0.0768 -0.0168  0.7181
 3163SOL    HW221126   2.743   2.866   1.656  1.1160 -0.0272 -1.6082
 3164SOL     OW21127   2.765   1.669   4.417 -0.2283 -0.7681 -0.4832
 3164SOL    HW121128   2.760   1.720   4.335  1.0792 -1.6138 -1.0831
 3164SOL    HW221129   2.683   1.684   4.465  0.7195  0.2535  0.8041
 3165SOL     OW21130   3.056   2.047   3.039 -0.0950 -0.1787  0.8869
 3165SOL    HW121131   3.089   2.040   2.949  0.2281 -0.5120  1.0305
 3165SOL    HW221132   3.137   2.072   3.084 -0.1230  1.9472 -0.2589
 3166SOL     OW21133   0.461   2.179   3.916 -0.1718  0.4182  0.3591
 3166SOL    HW121134   0.474   2.137   4.001  1.5503  0.4294  0.0983
 3166SOL    HW221135   0.409   2.255   3.942  0.0034 -0.3739  3.0298
 3167SOL     OW21136   4.419   3.262   3.869  0.4384  0.0944  0.1758
 3167SOL    HW121137   4.337   3.312   3.869 -1.2952 -2.7318 -3.2536
 3167SOL    HW221138   4.425   3.214   3.952 -0.5316  2.9175  1.8582
 3168SOL     OW21139   1.794   4.170  10.553  0.0512  0.4125 -0.8561
 3168SOL    HW121140   1.708   4.206  10.533  1.2240  3.1728 -0.8732
 3168SOL    HW221141   1.841   4.248  10.582  0.3046  0.0093 -0.1936
 3169SOL     OW21142   2.332   0.868   1.993  0.1839  0.1323 -0.0216
 3169SOL    HW121143   2.289   0.789   1.960 -1.9170  1.0222  0.5994
 3169SOL    HW221144   2.419   0.838   2.018  0.8041  1.3024 -0.7526
 3170SOL     OW21145   4.617   3.271   4.800 -0.3414 -0.3558  0.1923
 3170SOL    HW121146   4.639   3.178   4.814 -0.1735 -0.4393 -0.6670
 3170SOL    HW221147   4.617   3.303   4.890  0.0896  1.4984 -0.4753
 3171SOL     OW21148   3.669   4.701   0.014 -0.0413  0.1383 -0.3167
 3171SOL    HW121149   3.691   4.672   0.103  0.3554 -0.0530 -0.4784
 3171SOL    HW221150   3.729   4.661  17.698  0.3609  1.0065 -0.4769
 3172SOL     OW21151   3.414   3.356  16.169 -0.7275  0.0316 -0.3526
 3172SOL    HW121152   3.363   3.435  16.190 -1.6437 -1.0801  1.5795
 3172SOL    HW221153   3.352   3.287  16.148 -1.5407  0.1509  1.6518
 3173SOL     OW21154   4.492   1.500   9.406  0.5585  0.1944  0.3792
 3173SOL    HW121155   4.447   1.422   9.437  1.1571  0.3892  1.7376
 3173SOL    HW221156   4.578   1.461   9.389 -0.1178 -0.9437 -0.3842
 3174SOL     OW21157   4.216   1.279   5.401 -0.0753  0.1730  0.3848
 3174SOL    HW121158   4.225   1.264   5.495 -0.2662  1.1134  0.5473
 3174SOL    HW221159   4.166   1.200   5.378  0.4459  0.4265 -1.6062
 3175SOL     OW21160   2.036   2.408   2.830  0.2287 -0.1585 -0.0938
 3175SOL    HW121161   1.979   2.332   2.816 -0.3245  0.6533 -2.2383
 3175SOL    HW221162   1.967   2.471   2.850 -0.1200 -0.4218 -0.4923
 3176SOL     OW21163   1.650   2.579  11.417  0.0065 -0.3582  0.0192
 3176SOL    HW121164   1.626   2.643  11.350  0.1011 -0.7095 -0.3495
 3176SOL    HW221165   1.675   2.507  11.359 -2.0805  1.2690 -2.9048
 3177SOL     OW21166   4.547   2.247   2.655 -0.0303 -0.5620  0.1621
 3177SOL    HW121167   4.637   2.218   2.635  0.3746  1.1092 -0.3945
 3177SOL    HW221168   4.551   2.339   2.631 -0.3406 -0.2784  1.2020
 3178SOL     OW21169   1.797   2.136   5.176  0.3706  0.1265 -0.3146
 3178SOL    HW121170   1.835   2.057   5.138 -0.1950 -0.4932  0.3984
 3178SOL    HW221171   1.760   2.111   5.260  1.7630 -0.7544  0.0339
 3179SOL     OW21172   3.245   0.838   2.463  0.4182 -0.0327 -0.3354
 3179SOL    HW121173   3.169   0.786   2.435  1.9595 -3.0371  1.1458
 3179SOL    HW221174   3.294   0.780   2.521  0.2018 -0.1521 -0.2681
 3180SOL     OW21175   0.660   1.786  16.018 -0.8122 -0.3490  0.4372
 3180SOL    HW121176   0.622   1.734  16.088 -1.2995 -0.7549 -0.1297
 3180SOL    HW221177   0.710   1.851  16.068 -0.9832 -0.9575  1.3845
 3181SOL     OW21178   0.971   1.850   7.146 -0.0672 -0.1696 -0.2245
 3181SOL    HW121179   0.919   1.772   7.127  3.0494 -2.1373 -0.6502
 3181SOL    HW221180   0.951   1.885   7.232  2.7455  0.6522  0.0775
 3182SOL     OW21181   2.517   3.725  13.021  0.5116  0.5120 -0.2311
 3182SOL    HW121182   2.579   3.785  12.980 -0.7507  1.7979 -0.2939
 3182SOL    HW221183   2.476   3.787  13.082 -1.8081 -0.5627 -0.6706
 3183SOL     OW21184   1.893   4.389   5.428 -0.7352 -0.5202 -0.3020
 3183SOL    HW121185   1.978   4.430   5.412 -0.5081 -0.4084  1.2228
 3183SOL    HW221186   1.848   4.466   5.460 -0.9919  0.4903 -3.0960
 3184SOL     OW21187   0.089   1.835   2.478  0.3118 -0.2460 -0.1062
 3184SOL    HW121188   0.181   1.827   2.505  0.0804 -0.5084  0.6170
 3184SOL    HW221189   0.050   1.748   2.485  0.9081 -0.5884 -1.1494
 3185SOL     OW21190   2.199   0.670   5.554  0.5193 -0.8245  0.6440
 3185SOL    HW121191   2.104   0.684   5.550  0.9648  1.8062 -0.7663
 3185SOL    HW221192   2.201   0.654   5.648 -1.1120 -3.3258  0.2501
 3186SOL     OW21193   1.939   1.368   9.322  0.0735 -0.3858  0.0740
 3186SOL    HW121194   1.917   1.284   9.282  2.0718 -0.5523 -0.7094
 3186SOL    HW221195   1.918   1.418   9.243 -0.8416  0.0476  0.5899
 3187SOL     OW21196   4.610   0.785  13.492  0.3394 -0.3242  0.0983
 3187SOL    HW121197   4.634   0.705  13.540 -0.9821  0.2813  1.7724
 3187SOL    HW221198   4.554   0.819  13.562  0.3151 -1.1410  0.4802
 3188SOL     OW21199   2.482   1.087   5.044  0.3554  0.9566 -0.0066
 3188SOL    HW121200   2.496   1.019   4.977  1.2363  1.1245  0.0119
 3188SOL    HW221201   2.387   1.083   5.028  0.2458 -0.4911  1.0200
 3189SOL     OW21202   4.200   4.208   4.460 -0.2992 -0.1326  0.3168
 3189SOL    HW121203   4.294   4.219   4.445  0.0590  2.4368  4.1730
 3189SOL    HW221204   4.193   4.114   4.475  1.6584 -0.0430  1.7571
 3190SOL     OW21205   4.692   2.700   1.512  0.7325 -0.2836 -0.0278
 3190SOL    HW121206   4.719   2.730   1.599  0.4318  0.9755 -0.3695
 3190SOL    HW221207   0.017   2.631   1.490  1.3894 -0.2236  1.6897
 3191SOL     OW21208   4.322   3.692   6.730  0.3122 -0.1884  0.1193
 3191SOL    HW121209   4.238   3.656   6.759  1.4994 -1.1340  2.3097
 3191SOL    HW221210   4.298   3.777   6.693  2.0779 -0.6104 -2.0006
 3192SOL     OW21211   1.468   0.965   7.558 -0.2540  0.0402  0.0320
 3192SOL    HW121212   1.557   0.935   7.544 -0.3170 -0.0386 -0.1954
 3192SOL    HW221213   1.448   0.903   7.628 -0.9878 -1.8181 -1.8226
 3193SOL     OW21214   2.081   2.740   2.647  0.1509  0.7982  0.2971
 3193SOL    HW121215   2.032   2.809   2.602  1.2174 -0.2274 -2.3958
 3193SOL    HW221216   2.027   2.661   2.635  0.5827  0.8118 -1.5700
 3194SOL     OW21217   0.011   2.419  12.215  0.6127  0.3400 -0.0155
 3194SOL    HW121218   4.666   2.393  12.258 -0.9950 -0.7969 -3.7368
 3194SOL    HW221219   0.077   2.426  12.284  0.4457 -0.5112  0.2306
 3195SOL     OW21220   0.777   1.763   4.216  0.0280  0.0062 -0.3210
 3195SOL    HW121221   0.700   1.787   4.165 -1.0986 -0.8071  1.0242
 3195SOL    HW221222   0.735   1.705   4.279  1.8785 -0.0644  0.8436
 3196SOL     OW21223   2.419   2.234   1.631 -0.3465  0.2552 -0.0684
 3196SOL    HW121224   2.480   2.296   1.591  1.4761 -0.3926  1.7432
 3196SOL    HW221225   2.430   2.154   1.580 -0.9471  0.8835 -1.1996
 3197SOL     OW21226   2.432   2.624   7.051 -0.2768 -0.0441  0.2568
 3197SOL    HW121227   2.519   2.663   7.038  0.0965 -0.5391  1.2205
 3197SOL    HW221228   2.406   2.683   7.122 -0.1350  1.9944 -1.3874
 3198SOL     OW21229   2.731   1.939   2.670 -0.1349 -0.5480 -0.3042
 3198SOL    HW121230   2.682   2.016   2.698  0.1478 -0.6498  0.5037
 3198SOL    HW221231   2.689   1.873   2.725 -1.1025  0.3620  0.0429
 3199SOL     OW21232   0.511   4.096   7.779  0.4901  0.1753 -0.2510
 3199SOL    HW121233   0.434   4.043   7.760  0.0304  0.9613 -0.5826
 3199SOL    HW221234   0.565   4.058   7.710 -1.9781 -1.1625 -1.4197
 3200SOL     OW21235   2.631   1.436   2.979 -0.3342  0.0707 -0.3435
 3200SOL    HW121236   2.640   1.375   3.052  2.4409 -1.8673 -2.3148
 3200SOL    HW221237   2.630   1.503   3.048 -1.2574  0.1531 -0.4375
 3201SOL     OW21238   3.832   4.398   4.202 -0.2438 -0.6039  0.1482
 3201SOL    HW121239   3.817   4.462   4.132 -2.0612 -2.2292 -0.9609
 3201SOL    HW221240   3.757   4.400   4.261 -2.5511 -1.7888 -2.7542
 3202SOL     OW21241   3.080   4.023   9.316  0.4446  0.5091 -0.3288
 3202SOL    HW121242   3.149   3.964   9.346  0.8442  1.1277 -0.0225
 3202SOL    HW221243   3.069   3.993   9.226  0.0212  0.0546 -0.1255
 3203SOL     OW21244   3.024   0.797   1.215 -0.1536  0.4334  0.2283
 3203SOL    HW121245   2.941   0.834   1.185 -0.5347 -0.6955 -0.1452
 3203SOL    HW221246   3.066   0.779   1.131  1.4231 -2.3215  1.6214
 3204SOL     OW21247   1.367   2.608   8.790  0.1659  0.9260  0.2725
 3204SOL    HW121248   1.388   2.587   8.881  0.6747 -2.4116 -0.6370
 3204SOL    HW221249   1.291   2.665   8.804 -0.5654  0.2555 -0.8924
 3205SOL     OW21250   0.538   3.359   2.355 -0.8352  0.6499  0.2562
 3205SOL    HW121251   0.531   3.386   2.446  1.6534 -0.3660  0.7654
 3205SOL    HW221252   0.584   3.434   2.318  1.5845 -0.4382  1.0254
 3206SOL     OW21253   3.203   2.933   1.693 -0.6540 -0.2004  0.4784
 3206SOL    HW121254   3.289   2.892   1.681 -0.6469 -0.2016  0.5344
 3206SOL    HW221255   3.189   2.899   1.782 -1.3348  1.7030  1.0962
 3207SOL     OW21256   0.428   2.157   6.925  0.1736 -0.2304 -0.5328
 3207SOL    HW121257   0.397   2.239   6.963 -0.3759 -0.1647 -1.1490
 3207SOL    HW221258   0.523   2.169   6.924  0.2314 -0.7269 -0.7166
 3208SOL     OW21259   1.532   1.715   0.309  0.8802 -0.1585  0.0721
 3208SOL    HW121260   1.519   1.721   0.214 -0.1375  1.6737  0.3326
 3208SOL    HW221261   1.503   1.801   0.340  0.1970 -0.7495  1.0811
 3209SOL     OW21262   0.703   1.633   1.916 -0.0197 -0.6054  0.7177
 3209SOL    HW121263   0.627   1.593   1.874  0.6102 -1.9742  0.8950
 3209SOL    HW221264   0.672   1.664   2.001 -0.5331  0.9551 -0.0225
 3210SOL     OW21265   4.628   4.040   2.267  0.3446 -0.1432 -0.3374
 3210SOL    HW121266   4.584   4.009   2.347 -1.7564  0.9571 -1.0829
 3210SOL    HW221267   4.667   4.122   2.296 -0.0321 -0.5118  1.2772
 3211SOL     OW21268   4.655   1.618   7.374 -0.2281 -0.0754 -0.4654
 3211SOL    HW121269   0.012   1.616   7.359 -0.2345  1.6347 -0.6583
 3211SOL    HW221270   4.665   1.612   7.469  2.0498 -0.9573 -0.7619
 3212SOL     OW21271   3.881   0.893   5.622 -0.3454  0.2523 -0.1326
 3212SOL    HW121272   3.824   0.818   5.638  0.1245  0.2835  1.7145
 3212SOL    HW221273   3.826   0.969   5.638 -1.6155 -0.8786  0.8789
 3213SOL     OW21274   3.675   4.506   3.147  0.0313  0.3857  0.2477
 3213SOL    HW121275   3.589   4.465   3.153  0.9985 -1.6712  0.1387
 3213SOL    HW221276   3.694   4.545   3.232 -1.8286 -3.8881  2.6400
 3214SOL     OW21277   1.069   3.503   3.911  0.3355 -0.2130 -0.1254
 3214SOL    HW121278   1.017   3.538   3.984  0.8367 -2.2567  1.1847
 3214SOL    HW221279   1.151   3.545   3.936 -0.0113  0.8195 -0.6788
 3215SOL     OW21280   4.103   0.899   4.567  0.7690 -0.5296 -0.3232
 3215SOL    HW121281   4.171   0.876   4.631  0.3717 -2.7548 -0.7328
 3215SOL    HW221282   4.126   0.852   4.487  2.4670 -0.0602 -0.1303
 3216SOL     OW21283   1.888   2.449   7.797  0.0704  0.2960  0.2174
 3216SOL    HW121284   1.811   2.484   7.842 -0.5525 -1.5761  0.6129
 3216SOL    HW221285   1.850   2.379   7.744 -1.4017 -0.3596  2.1635
 3217SOL     OW21286   0.492   3.908   4.759  0.0009 -0.8154 -0.0632
 3217SOL    HW121287   0.510   3.873   4.847 -0.2469 -1.0216 -0.0947
 3217SOL    HW221288   0.580   3.933   4.730 -0.8105  2.5781  0.4951
 3218SOL     OW21289   1.420   1.102  17.672 -0.5572 -0.4813 -0.5348
 3218SOL    HW121290   1.400   1.045  17.746 -1.2005  0.6876  0.1944
 3218SOL    HW221291   1.502   1.135  17.708 -0.1182 -2.1794  0.0342
 3219SOL     OW21292   1.171   0.411   6.918 -0.2849 -0.6709 -0.1350
 3219SOL    HW121293   1.241   0.443   6.861  2.0225 -0.4421  2.8179
 3219SOL    HW221294   1.089   0.427   6.871  1.7805  1.2297 -3.1162
 3220SOL     OW21295   1.072   0.127   3.333  0.0943 -0.4586 -0.2426
 3220SOL    HW121296   1.010   0.190   3.370  0.3647  0.5748 -1.5529
 3220SOL    HW221297   1.142   0.117   3.397 -0.1947 -1.7816 -0.1387
 3221SOL     OW21298   3.037   2.149  16.092  0.8984 -0.1566 -0.0061
 3221SOL    HW121299   3.014   2.167  16.001  2.2173 -1.2612 -0.5558
 3221SOL    HW221300   2.954   2.180  16.129  0.9028 -0.8605  0.5920
 3222SOL     OW21301   1.313   4.058   6.358  0.0147 -0.8079  0.0054
 3222SOL    HW121302   1.317   4.154   6.363 -1.1920 -0.8123  1.2553
 3222SOL    HW221303   1.222   4.055   6.329 -0.1107 -1.1488  0.4365
 3223SOL     OW21304   4.383   0.510   3.791  0.2864 -0.1899 -0.5890
 3223SOL    HW121305   4.339   0.440   3.839  0.2649 -1.0054 -1.7642
 3223SOL    HW221306   4.405   0.467   3.707 -1.4072  0.9231 -1.5905
 3224SOL     OW21307   1.561   1.604   2.073  0.0846  0.2432 -0.3514
 3224SOL    HW121308   1.587   1.575   1.986 -0.1161 -1.5203  0.1873
 3224SOL    HW221309   1.468   1.622   2.057 -0.4077 -1.5714  0.5048
 3225SOL     OW21310   0.372   0.370   2.914  0.5470 -0.3130  0.1010
 3225SOL    HW121311   0.370   0.315   2.993  1.1891 -0.5880 -0.0768
 3225SOL    HW221312   0.350   0.456   2.948  2.6093 -0.2531  1.2885
 3226SOL     OW21313   4.111   0.444   3.222 -0.4413  1.1798 -0.2740
 3226SOL    HW121314   4.155   0.360   3.233 -1.9029  0.5707  0.9801
 3226SOL    HW221315   4.021   0.411   3.229  0.4606 -1.5951 -1.5289
 3227SOL     OW21316   1.003   3.766   2.706 -0.2905  0.2812 -0.0657
 3227SOL    HW121317   0.988   3.768   2.612  1.5433  3.2597 -0.3012
 3227SOL    HW221318   0.918   3.763   2.749 -0.5296  1.7201 -0.4310
 3228SOL     OW21319   3.669   2.809   2.357  0.4465  0.1685 -0.6234
 3228SOL    HW121320   3.618   2.862   2.418  0.9988 -0.7058  0.5785
 3228SOL    HW221321   3.618   2.729   2.370 -0.4513  1.3884  3.4524
 3229SOL     OW21322   0.965   3.541  17.698  0.2320 -0.1988 -0.5958
 3229SOL    HW121323   0.903   3.469  17.688  1.3310 -1.2373 -0.0437
 3229SOL    HW221324   0.904   3.606  17.731  0.6138  0.4881 -1.2348
 3230SOL     OW21325   2.137   4.641   8.379 -0.2438 -0.2352  0.0464
 3230SOL    HW121326   2.219   4.600   8.405 -0.2394  0.2233  0.7502
 3230SOL    HW221327   2.174   4.702   8.315  0.6499 -0.5511  0.2628
 3231SOL     OW21328   0.947   0.060  17.470  0.0189 -0.0691 -0.2609
 3231SOL    HW121329   0.973   0.136  17.418  2.2173  1.9330  3.7886
 3231SOL    HW221330   1.034   0.025  17.485  0.2000  0.2559 -0.5476
 3232SOL     OW21331   1.689   0.946   6.917  0.1719 -0.5978 -0.0209
 3232SOL    HW121332   1.641   1.024   6.888  0.9216  1.1087  3.2933
 3232SOL    HW221333   1.638   0.871   6.887  1.3567 -1.7885  0.9642
 3233SOL     OW21334   4.361   2.465   4.733 -0.4486  0.0309 -0.0747
 3233SOL    HW121335   4.310   2.480   4.653 -1.0831  0.6949  0.4533
 3233SOL    HW221336   4.314   2.384   4.752  0.8549 -0.2675  1.9097
 3234SOL     OW21337   4.079   0.185  15.762 -0.3034  0.0833  0.0631
 3234SOL    HW121338   4.160   0.208  15.716 -0.0380 -0.2699  0.3646
 3234SOL    HW221339   4.061   0.263  15.815 -0.1477  0.9443 -1.1390
 3235SOL     OW21340   3.978   3.270   0.239 -0.2083 -0.0785 -0.4201
 3235SOL    HW121341   4.020   3.355   0.246  1.1806 -0.7156 -0.8914
 3235SOL    HW221342   4.047   3.204   0.236 -0.6050 -0.5479  0.8675
 3236SOL     OW21343   0.399   1.390   6.991  0.2818  1.0564 -0.5632
 3236SOL    HW121344   0.408   1.366   6.899  0.2709  1.2944 -0.6263
 3236SOL    HW221345   0.449   1.319   7.030 -0.9982  1.0419  1.0701
 3237SOL     OW21346   3.056   3.093   0.149 -0.5547 -0.6966  0.1531
 3237SOL    HW121347   3.036   3.185   0.133 -0.0287 -0.2667  1.9611
 3237SOL    HW221348   2.974   3.067   0.193 -0.2833 -0.4887  0.7802
 3238SOL     OW21349   2.135   2.903   4.245 -0.3835  0.0805 -0.3655
 3238SOL    HW121350   2.172   2.914   4.333 -2.8144  1.6647  0.4708
 3238SOL    HW221351   2.046   2.936   4.246 -1.0015 -1.6336  0.1389
 3239SOL     OW21352   0.466   0.667  11.938  0.8315  0.0715 -0.1262
 3239SOL    HW121353   0.379   0.628  11.927  0.2269  1.7746 -1.3246
 3239SOL    HW221354   0.455   0.750  11.891  1.8116 -0.4263 -1.2234
 3240SOL     OW21355   4.319   2.405   7.892  0.1970  0.5192 -0.0951
 3240SOL    HW121356   4.283   2.465   7.827 -1.4260  0.8609  1.1336
 3240SOL    HW221357   4.375   2.352   7.834 -0.2641  1.2775 -1.2275
 3241SOL     OW21358   4.455   0.397   7.979 -0.1575  0.2071  0.6041
 3241SOL    HW121359   4.496   0.310   7.987  0.3043  0.2319 -1.5689
 3241SOL    HW221360   4.504   0.427   7.902  2.8185 -0.4743  2.2129
 3242SOL     OW21361   3.207   2.676  13.308 -0.2637  0.3643 -0.1307
 3242SOL    HW121362   3.178   2.676  13.399  1.0780 -1.2619  0.3028
 3242SOL    HW221363   3.187   2.588  13.275 -1.3998  0.3062  0.7432
 3243SOL     OW21364   0.877   4.132   5.977 -0.5763 -0.5513  0.2792
 3243SOL    HW121365   0.885   4.198   6.046 -1.5966 -1.8250  1.6258
 3243SOL    HW221366   0.935   4.165   5.908  0.6596  0.3830  1.7768
 3244SOL     OW21367   0.052   1.302   7.832  0.0576  0.0065 -0.2452
 3244SOL    HW121368   0.049   1.229   7.771  0.5111  0.1771 -0.4680
 3244SOL    HW221369   0.146   1.319   7.828  0.2736 -1.5319 -1.9072
 3245SOL     OW21370   0.115   2.765  16.866 -0.6118  0.0784 -0.6314
 3245SOL    HW121371   0.181   2.743  16.932  1.4786 -0.2348 -2.8337
 3245SOL    HW221372   0.165   2.773  16.785 -0.7437 -0.1528 -0.7364
 3246SOL     OW21373   1.431   1.740   0.050  0.0818  0.5292  0.6554
 3246SOL    HW121374   1.404   1.649   0.033  1.1997 -0.0947  2.2151
 3246SOL    HW221375   1.349   1.786   0.067  1.0323  2.1396  0.8204
 3247SOL     OW21376   1.147   3.580   0.518 -0.3430 -0.4133 -0.2676
 3247SOL    HW121377   1.166   3.604   0.608 -3.0725 -1.9230  0.7193
 3247SOL    HW221378   1.178   3.490   0.518 -4.1037 -1.7318 -1.1763
 3248SOL     OW21379   0.288   0.752   5.165  0.0431  0.0741 -0.0680
 3248SOL    HW121380   0.295   0.660   5.137 -0.0248  1.3719 -4.2697
 3248SOL    HW221381   0.200   0.777   5.140  0.1636 -0.4927 -1.0540
 3249SOL     OW21382   0.081   2.753   3.258 -0.2101  0.0925  0.0557
 3249SOL    HW121383   0.045   2.805   3.330 -1.1794 -0.5144  0.0077
 3249SOL    HW221384   0.146   2.707   3.311 -0.7537  0.2077  0.8312
 3250SOL     OW21385   1.413   2.762   4.452  0.3016 -0.0983 -0.2060
 3250SOL    HW121386   1.428   2.734   4.542  0.8747 -0.0754 -0.2926
 3250SOL    HW221387   1.447   2.683   4.410  0.0808  0.3314 -1.1771
 3251SOL     OW21388   4.211   1.546   5.460 -0.2058 -0.4991  0.7566
 3251SOL    HW121389   4.215   1.469   5.403 -1.1022  0.3769 -0.4929
 3251SOL    HW221390   4.132   1.531   5.512  0.5034 -0.1640  1.9348
 3252SOL     OW21391   0.232   2.306   5.109  0.1686  0.4958  0.3501
 3252SOL    HW121392   0.229   2.211   5.125 -0.0204  0.5489  0.6250
 3252SOL    HW221393   0.322   2.309   5.076 -0.6203  0.4181 -1.7521
 3253SOL     OW21394   3.462   3.368   2.819 -0.4157  0.2045  0.2763
 3253SOL    HW121395   3.541   3.343   2.771 -0.7393  1.5417 -0.9350
 3253SOL    HW221396   3.499   3.350   2.906 -1.2246 -1.8800  0.1906
 3254SOL     OW21397   2.187   0.097   8.199  0.2336 -0.3334  0.4372
 3254SOL    HW121398   2.110   0.074   8.147  1.8329 -0.8834 -1.6840
 3254SOL    HW221399   2.243   0.152   8.143 -2.4456  0.3755 -1.5425
 3255SOL     OW21400   1.892   1.230  11.327  0.1858  0.2223 -0.3481
 3255SOL    HW121401   1.954   1.299  11.302  0.1135  0.5250  0.2834
 3255SOL    HW221402   1.825   1.289  11.363 -2.4456 -3.4883  0.7580
 3256SOL     OW21403   2.054   1.111   1.468  0.4993 -0.1074 -0.4610
 3256SOL    HW121404   2.095   1.130   1.553  0.5560  0.4513 -0.6147
 3256SOL    HW221405   2.059   1.015   1.472 -0.1080 -0.1018  0.5314
 3257SOL     OW21406   1.825   0.806   7.665 -0.0681  0.1683  0.3782
 3257SOL    HW121407   1.731   0.794   7.683 -1.1190  2.5285 -3.5077
 3257SOL    HW221408   1.806   0.839   7.577  1.3648 -0.4492 -0.1588
 3258SOL     OW21409   4.569   3.644  11.915 -0.2440  0.3880 -0.5325
 3258SOL    HW121410   4.635   3.601  11.860 -2.2456 -2.3358 -0.8025
 3258SOL    HW221411   4.617   3.655  11.997 -0.6079 -1.5620 -0.0601
 3259SOL     OW21412   2.059   4.377   6.799 -0.0326 -0.1715  0.6681
 3259SOL    HW121413   2.098   4.372   6.886  2.1075  2.6205 -0.1277
 3259SOL    HW221414   2.081   4.291   6.763  0.8029  0.4487 -0.3011
 3260SOL     OW21415   2.340   3.353   6.744 -0.3613 -0.6017  0.6476
 3260SOL    HW121416   2.379   3.440   6.750  0.5844 -0.8062 -2.6439
 3260SOL    HW221417   2.391   3.299   6.804 -0.5724 -0.9357  0.5271
 3261SOL     OW21418   2.413   0.774  15.406  0.1317 -0.1749 -0.3334
 3261SOL    HW121419   2.440   0.692  15.446  2.0834 -1.0090 -3.3557
 3261SOL    HW221420   2.319   0.761  15.420 -0.1520  1.8838 -0.3132
 3262SOL     OW21421   1.699   1.113  11.729  0.2683  0.0907 -0.4026
 3262SOL    HW121422   1.675   1.134  11.638 -0.0871  0.4144 -0.2339
 3262SOL    HW221423   1.649   1.175  11.783 -1.1214  0.4180 -2.0438
 3263SOL     OW21424   3.702   4.481   6.295  0.0473 -0.0086  0.4414
 3263SOL    HW121425   3.649   4.504   6.372 -1.4290 -1.5057 -0.1427
 3263SOL    HW221426   3.642   4.448   6.228 -1.8600  0.3814  1.9684
 3264SOL     OW21427   4.187   0.725  13.323  0.0042 -0.2558  0.5772
 3264SOL    HW121428   4.235   0.646  13.344 -0.4883 -0.8684 -0.6358
 3264SOL    HW221429   4.247   0.776  13.268 -0.5421  0.2999  0.4942
 3265SOL     OW21430   3.322   3.072  14.179 -0.3713  0.0933 -0.3960
 3265SOL    HW121431   3.383   3.061  14.107  0.4888  0.1289  0.3272
 3265SOL    HW221432   3.240   3.094  14.134 -0.6250 -2.5724 -1.2063
 3266SOL     OW21433   1.480   0.761   6.755  0.2046 -0.6482 -0.3334
 3266SOL    HW121434   1.519   0.674   6.743 -1.0991 -1.1101 -1.2757
 3266SOL    HW221435   1.448   0.745   6.844  2.6861  0.6678  0.7846
 3267SOL     OW21436   4.316   4.520   6.721 -0.0148  0.0216 -0.4623
 3267SOL    HW121437   4.221   4.532   6.725  0.0201 -0.3456  1.1763
 3267SOL    HW221438   4.331   4.526   6.626  0.1074 -0.1484 -0.4551
 3268SOL     OW21439   3.309   3.846   7.989  0.5886 -0.4663  0.2388
 3268SOL    HW121440   3.296   3.883   8.076  0.4396  3.0462 -1.2760
 3268SOL    HW221441   3.286   3.756   8.011  2.0762 -0.3012  2.4390
 3269SOL     OW21442   1.162   4.354  12.114  0.3792  0.0859 -0.2714
 3269SOL    HW121443   1.232   4.328  12.054  2.3138  0.4742  1.8010
 3269SOL    HW221444   1.090   4.320  12.061 -0.3715 -0.0882  0.8579
 3270SOL     OW21445   3.767   3.574   5.888 -0.0116  0.7298  0.0779
 3270SOL    HW121446   3.835   3.640   5.874  1.9566 -0.9991  1.4945
 3270SOL    HW221447   3.695   3.627   5.920  1.2907  1.7999  1.2645
 3271SOL     OW21448   3.341   3.219  12.517  1.0479 -0.7436 -0.3839
 3271SOL    HW121449   3.263   3.168  12.492 -0.3937  2.2234 -1.9367
 3271SOL    HW221450   3.388   3.166  12.582  2.2272  0.0060 -0.6465
 3272SOL     OW21451   4.100   1.590   6.077  0.2711 -0.5997  0.1103
 3272SOL    HW121452   4.069   1.680   6.090  0.5622 -0.5766  0.6488
 3272SOL    HW221453   4.010   1.560   6.073  0.8193 -2.1522 -0.5298
 3273SOL     OW21454   1.910   0.903   3.020  0.1872 -0.1983 -0.2628
 3273SOL    HW121455   1.985   0.867   3.068  1.0846  1.1686 -0.6474
 3273SOL    HW221456   1.956   0.933   2.941 -1.2257  2.9844  0.0972
 3274SOL     OW21457   0.715   0.443   6.656 -0.4269  0.2985 -0.1016
 3274SOL    HW121458   0.629   0.428   6.696  0.0492  0.2625  0.9114
 3274SOL    HW221459   0.738   0.354   6.632  2.6785  0.9168  0.5656
 3275SOL     OW21460   1.266   0.148   7.071 -0.3726  0.3252  0.5336
 3275SOL    HW121461   1.194   0.178   7.125 -1.0968 -0.0539 -0.2226
 3275SOL    HW221462   1.334   0.172   7.134  0.7270  0.9135 -0.8835
 3276SOL     OW21463   2.129   0.233   2.185 -0.0220  0.2880 -0.6147
 3276SOL    HW121464   2.093   0.239   2.273  1.4952 -0.7585  0.0665
 3276SOL    HW221465   2.075   0.160   2.154 -0.3986  1.5224 -2.8886
 3277SOL     OW21466   0.131   0.065   2.962  0.5634  0.1219  0.9446
 3277SOL    HW121467   0.197   0.004   2.928  2.6024  1.8471  1.8147
 3277SOL    HW221468   0.048   0.019   2.952 -0.7830  2.6246  0.6357
 3278SOL     OW21469   3.286   1.197   4.926  0.3585  0.4180  0.6409
 3278SOL    HW121470   3.233   1.177   4.849  2.3544 -1.0064 -0.3494
 3278SOL    HW221471   3.270   1.121   4.982  2.4154  0.1246  0.8376
 3279SOL     OW21472   3.680   1.760   0.414  0.3161  0.0075  0.6477
 3279SOL    HW121473   3.652   1.806   0.335 -1.6038 -2.2983  0.0193
 3279SOL    HW221474   3.642   1.810   0.487 -2.9632 -1.8122  0.2009
 3280SOL     OW21475   1.661   4.474   8.976 -0.6048  0.3807 -0.5468
 3280SOL    HW121476   1.614   4.532   9.037 -2.2797 -2.1953  0.6220
 3280SOL    HW221477   1.753   4.498   8.965 -0.8647  1.3444 -0.5969
 3281SOL     OW21478   2.836   2.424  15.162  0.4838  0.4795 -0.3726
 3281SOL    HW121479   2.762   2.483  15.178 -1.1716 -2.0524  1.3249
 3281SOL    HW221480   2.806   2.355  15.103 -0.6087 -0.4674  1.2848
 3282SOL     OW21481   2.922   3.508   6.515 -0.6307  0.2178 -0.0429
 3282SOL    HW121482   2.925   3.434   6.576  2.0583  0.5526  0.2374
 3282SOL    HW221483   2.954   3.581   6.569 -1.5013  0.4075  0.2205
 3283SOL     OW21484   0.921   4.402   3.414 -0.3523 -0.2415  0.0105
 3283SOL    HW121485   0.931   4.464   3.341 -2.2591  1.3810  1.1303
 3283SOL    HW221486   0.827   4.396   3.432 -0.3209 -1.2365 -0.1478
 3284SOL     OW21487   0.826   4.294  15.139 -0.3947 -0.6010 -0.2969
 3284SOL    HW121488   0.797   4.304  15.230 -1.2699  1.8594 -0.8456
 3284SOL    HW221489   0.920   4.300  15.154 -0.6051 -1.2452  1.2764
 3285SOL     OW21490   4.071   2.959  15.125 -0.2662  0.5105  0.5395
 3285SOL    HW121491   4.055   2.876  15.168  0.5323 -0.2526 -0.6321
 3285SOL    HW221492   4.018   3.008  15.188 -0.6389  1.6139 -0.6246
 3286SOL     OW21493   2.536   3.170  10.628  0.4647 -0.3061 -0.2554
 3286SOL    HW121494   2.518   3.249  10.678  0.6662  0.3223 -1.1758
 3286SOL    HW221495   2.458   3.118  10.647  0.3849 -0.2711 -0.4888
 3287SOL     OW21496   0.979   3.623   4.241  0.1427  0.0274  0.4001
 3287SOL    HW121497   0.975   3.716   4.265  0.3539 -0.3526  1.8719
 3287SOL    HW221498   0.885   3.606   4.242  0.4093 -1.4149  0.7860
 3288SOL     OW21499   2.991   1.465   8.278  0.0669  0.0664  0.1330
 3288SOL    HW121500   2.985   1.374   8.251  0.2752  0.5811 -1.6739
 3288SOL    HW221501   2.978   1.462   8.373 -1.2404  0.6413 -0.0359
 3289SOL     OW21502   0.195   0.100  16.718 -0.8245 -0.0842  0.1894
 3289SOL    HW121503   0.198   0.037  16.789  0.8566 -0.1943  0.0287
 3289SOL    HW221504   0.231   0.054  16.641 -0.9416  1.8083 -1.0051
 3290SOL     OW21505   1.940   3.872   4.651  0.1911 -0.2936 -0.2680
 3290SOL    HW121506   1.968   3.832   4.733  1.6090 -2.0831 -1.6320
 3290SOL    HW221507   2.017   3.856   4.596  0.7647  3.2706 -0.4951
 3291SOL     OW21508   1.276   4.331   7.429  0.0666  0.0897  0.0131
 3291SOL    HW121509   1.326   4.368   7.357 -1.9459 -1.5867 -2.2248
 3291SOL    HW221510   1.216   4.272   7.383  0.4696 -0.3357  0.0325
 3292SOL     OW21511   1.371   1.014   3.545  0.5008  0.4187 -0.1795
 3292SOL    HW121512   1.332   0.972   3.622  1.4210  1.3399  0.7915
 3292SOL    HW221513   1.438   1.072   3.581  0.8572  0.1658 -0.4274
 3293SOL     OW21514   3.375   1.168   9.513 -0.6660 -0.1795 -0.1510
 3293SOL    HW121515   3.403   1.156   9.422  0.0581  2.2360 -0.2260
 3293SOL    HW221516   3.454   1.198   9.558 -0.9235  2.0677 -1.2351
 3294SOL     OW21517   1.178   2.004   1.715  0.3384  0.2511 -0.4680
 3294SOL    HW121518   1.189   2.007   1.810  0.1471 -0.6125 -0.4154
 3294SOL    HW221519   1.103   1.944   1.711  0.6537 -0.2144  0.8101
 3295SOL     OW21520   0.404   4.436   2.544  0.3805  0.2304  0.0363
 3295SOL    HW121521   0.323   4.415   2.591  0.8183  0.6792  0.9941
 3295SOL    HW221522   0.374   4.426   2.454  0.4526  1.4183 -0.1197
 3296SOL     OW21523   2.416   1.766  12.589 -0.4827  0.8669  0.3684
 3296SOL    HW121524   2.330   1.738  12.558 -0.3720  0.0049  0.8451
 3296SOL    HW221525   2.472   1.689  12.584  1.1144  2.1715 -1.5607
 3297SOL     OW21526   1.402   4.676   5.857 -0.0460 -0.1445 -0.6604
 3297SOL    HW121527   1.374   4.646   5.944 -0.2969  1.2825 -0.2529
 3297SOL    HW221528   1.321   4.676   5.806  0.4786  0.3375 -1.4839
 3298SOL     OW21529   4.384   2.501   5.762 -0.3234  0.0883 -0.1894
 3298SOL    HW121530   4.399   2.420   5.812  3.6205  2.0015  1.6976
 3298SOL    HW221531   4.443   2.485   5.689  0.3935 -0.7957  0.5919
 3299SOL     OW21532   2.118   1.571   7.147 -0.1542  0.3327  0.1567
 3299SOL    HW121533   2.037   1.589   7.100 -1.2779 -0.9474  1.5906
 3299SOL    HW221534   2.182   1.616   7.092 -0.7306  1.0557  0.0826
 3300SOL     OW21535   2.293   2.241  13.601 -0.0037 -0.2815  0.3078
 3300SOL    HW121536   2.266   2.165  13.549  0.8650 -1.4645  1.6099
 3300SOL    HW221537   2.313   2.301  13.529 -0.4152  1.7473  1.8777
 3301SOL     OW21538   1.695   2.989   7.830 -0.4274  0.0926 -0.3026
 3301SOL    HW121539   1.732   3.072   7.800  1.3489 -0.9262 -0.8738
 3301SOL    HW221540   1.717   2.982   7.923  0.6516 -1.7301 -0.7012
 3302SOL     OW21541   2.474   4.400   2.639  0.7339  0.1297  0.5415
 3302SOL    HW121542   2.460   4.312   2.606 -0.4963  0.4551  0.1953
 3302SOL    HW221543   2.490   4.381   2.731  0.4346 -1.8151  0.1857
 3303SOL     OW21544   2.979   1.881  15.919 -0.0545 -0.0724  0.2479
 3303SOL    HW121545   2.971   1.850  15.829  0.7976  1.7388 -0.4375
 3303SOL    HW221546   2.899   1.933  15.928 -0.8149 -1.0773 -0.8000
 3304SOL     OW21547   3.183   0.417   7.177  0.0370  0.4144 -0.0632
 3304SOL    HW121548   3.122   0.347   7.199 -0.7059  1.5278  1.4213
 3304SOL    HW221549   3.187   0.429   7.082 -0.5418 -2.1051 -0.4121
 3305SOL     OW21550   4.650   3.812  16.225  0.0104 -0.2922  0.4101
 3305SOL    HW121551   4.561   3.828  16.257  0.6448  1.6619  1.2100
 3305SOL    HW221552   4.700   3.844  16.300  0.8734 -2.2224  0.6429
 3306SOL     OW21553   2.601   1.363   5.443  0.1706 -0.2642 -0.2333
 3306SOL    HW121554   2.593   1.270   5.422  0.0328 -0.1432 -0.7102
 3306SOL    HW221555   2.507   1.380   5.445  0.2233 -0.1542  1.1623
 3307SOL     OW21556   3.173   3.673   7.296  0.1257 -0.1713  0.3306
 3307SOL    HW121557   3.161   3.686   7.390  1.4575  0.9817  0.3426
 3307SOL    HW221558   3.131   3.755   7.273 -0.3326 -0.2927  0.7471
 3308SOL     OW21559   0.159   2.686   9.242 -0.1989  0.2570  0.6439
 3308SOL    HW121560   0.198   2.603   9.269 -2.3015 -1.1540 -0.6095
 3308SOL    HW221561   0.220   2.752   9.276  0.9147  0.1862 -1.2843
 3309SOL     OW21562   2.915   3.134   5.503  0.1458  0.1478 -0.3599
 3309SOL    HW121563   2.876   3.121   5.589  0.2245  1.0284 -0.1914
 3309SOL    HW221564   2.898   3.049   5.463 -0.2509  0.7193 -1.4135
 3310SOL     OW21565   4.011   0.478   7.385  0.6362  0.5279  0.4216
 3310SOL    HW121566   3.958   0.417   7.437 -0.8594  1.1442 -0.3941
 3310SOL    HW221567   3.946   0.536   7.347 -2.3045 -2.4605  0.9334
 3311SOL     OW21568   0.869   4.265   7.364  0.7747  0.2482 -0.7067
 3311SOL    HW121569   0.885   4.194   7.302  0.7070 -0.0490 -0.3777
 3311SOL    HW221570   0.944   4.323   7.348  0.3630  1.0259  0.1858
 3312SOL     OW21571   2.909   3.022   9.155 -1.0898 -0.0111 -0.2560
 3312SOL    HW121572   2.893   2.979   9.071  0.4542 -1.9983  0.4742
 3312SOL    HW221573   2.846   2.978   9.211  0.9685 -1.0705  1.2188
 3313SOL     OW21574   4.681   3.999   3.606 -0.0602 -0.0874 -0.2887
 3313SOL    HW121575   0.034   4.015   3.634 -0.1867  0.8342 -0.4192
 3313SOL    HW221576   4.632   3.964   3.680 -1.0890  2.0187  0.0160
 3314SOL     OW21577   2.263   0.763  11.198  0.1761  0.3196 -0.3140
 3314SOL    HW121578   2.266   0.733  11.107 -2.1701 -1.2222  0.1085
 3314SOL    HW221579   2.261   0.859  11.189  0.8391  0.1477 -2.3296
 3315SOL     OW21580   0.036   4.310  12.275  0.0811  0.1066  0.6867
 3315SOL    HW121581   0.045   4.383  12.336  0.0498  1.2648 -0.7298
 3315SOL    HW221582   4.714   4.352  12.213 -0.0798 -0.6247  0.3489
 3316SOL     OW21583   3.893   2.073   9.819  0.0300  0.3152  0.3054
 3316SOL    HW121584   3.858   2.086   9.907  0.3015  0.2361  0.4233
 3316SOL    HW221585   3.914   1.980   9.829 -0.5193  0.1022 -0.4554
 3317SOL     OW21586   4.477   3.242  13.867 -0.3760 -1.1692  0.1033
 3317SOL    HW121587   4.568   3.229  13.839  0.5516  3.3181  1.0514
 3317SOL    HW221588   4.429   3.168  13.829 -2.2674 -0.8902  1.9361
 3318SOL     OW21589   3.003   1.412   5.583  0.2175  0.7282  0.6221
 3318SOL    HW121590   2.995   1.318   5.566  0.3118  0.4856  1.9568
 3318SOL    HW221591   3.009   1.420   5.678 -1.2585  2.7818  0.5487
 3319SOL     OW21592   3.075   1.089  10.909  0.1285 -0.3747 -0.5126
 3319SOL    HW121593   3.079   1.118  11.000  0.6254 -1.2429 -0.2562
 3319SOL    HW221594   3.144   1.022  10.909 -0.7941 -1.3350 -0.5256
 3320SOL     OW21595   4.350   4.475   2.015 -0.0292 -0.3854 -0.5237
 3320SOL    HW121596   4.419   4.410   2.031 -0.6073 -0.7698  0.4003
 3320SOL    HW221597   4.319   4.436   1.933  1.4463 -0.3073 -1.1177
 3321SOL     OW21598   3.637   3.274   9.611 -0.1534  0.4127 -0.0593
 3321SOL    HW121599   3.648   3.199   9.553  1.0111 -0.4577  1.2735
 3321SOL    HW221600   3.691   3.243   9.684 -1.1835 -0.5812  0.2843
 3322SOL     OW21601   4.055   0.938   2.867 -0.2953 -0.4273  0.1401
 3322SOL    HW121602   4.104   0.876   2.813 -0.2513  0.6598 -1.0395
 3322SOL    HW221603   3.968   0.931   2.828  0.8545  1.7765 -2.8169
 3323SOL     OW21604   0.647   1.621  14.069  0.1525 -0.0891  0.3739
 3323SOL    HW121605   0.575   1.583  14.019  2.2884 -1.0766 -1.9446
 3323SOL    HW221606   0.604   1.635  14.153 -0.5859  0.1276 -0.0422
 3324SOL     OW21607   3.477   2.065   3.879 -0.3314 -0.2301 -0.4959
 3324SOL    HW121608   3.410   2.130   3.858  0.6755  0.3259 -1.9581
 3324SOL    HW221609   3.434   1.989   3.918  1.1215  0.0216  1.6148
 3325SOL     OW21610   2.502   3.429  10.734 -0.6321  0.1870  0.0127
 3325SOL    HW121611   2.494   3.515  10.693 -0.4790  0.4365  0.4991
 3325SOL    HW221612   2.540   3.458  10.817  1.2557 -3.1481  0.3275
 3326SOL     OW21613   1.421   3.034   5.749 -1.0132 -0.9135  0.3915
 3326SOL    HW121614   1.348   3.059   5.694 -1.3398  0.8948  1.6389
 3326SOL    HW221615   1.381   2.955   5.785 -1.0670 -1.0800 -0.0458
 3327SOL     OW21616   3.529   0.834  14.905  0.5311 -0.1218 -0.1583
 3327SOL    HW121617   3.560   0.857  14.993 -0.6589 -1.6298  0.6513
 3327SOL    HW221618   3.459   0.891  14.874  1.1937 -1.2150 -3.7563
 3328SOL     OW21619   2.126   3.073   7.703 -0.1584 -0.5416 -0.1131
 3328SOL    HW121620   2.177   3.035   7.774  0.1728  0.9193  0.4409
 3328SOL    HW221621   2.162   3.028   7.627  1.6799  1.1000 -0.2256
 3329SOL     OW21622   1.622   1.707   5.231 -0.3937  0.0020 -0.3600
 3329SOL    HW121623   1.617   1.618   5.266 -1.5765  0.1429 -0.1590
 3329SOL    HW221624   1.580   1.706   5.145  3.2854 -0.2118 -2.1497
 3330SOL     OW21625   2.889   1.989   7.020  0.0674  0.6882 -0.2679
 3330SOL    HW121626   2.795   1.987   7.037  0.1691  0.2569  0.2284
 3330SOL    HW221627   2.901   2.067   7.074  1.9898 -0.4662  0.9648
 3331SOL     OW21628   2.352   2.901   4.629  0.0774 -0.4074 -0.1839
 3331SOL    HW121629   2.444   2.874   4.636  1.0128  2.8977  0.3494
 3331SOL    HW221630   2.363   2.968   4.561  0.7149 -0.9226 -0.5884
 3332SOL     OW21631   3.515   3.752  12.168  0.3298  0.3621  0.4677
 3332SOL    HW121632   3.434   3.802  12.179 -0.4350 -0.5864 -0.9752
 3332SOL    HW221633   3.566   3.814  12.116  1.4810  1.7222  3.2408
 3333SOL     OW21634   2.866   4.546   3.952 -0.7202  0.4238  0.3787
 3333SOL    HW121635   2.931   4.615   3.965  1.0104 -1.3585  1.2453
 3333SOL    HW221636   2.798   4.586   4.006 -1.5429 -0.4400 -0.0279
 3334SOL     OW21637   4.508   4.414   9.019 -0.1947  0.3635  0.5925
 3334SOL    HW121638   4.505   4.510   9.022  2.0460  0.3597  2.3211
 3334SOL    HW221639   4.446   4.386   9.086 -1.1650  0.5187 -0.2317
 3335SOL     OW21640   0.830   0.418   8.586  0.1942  0.2493 -0.7217
 3335SOL    HW121641   0.774   0.489   8.555 -4.0832 -3.6295 -1.8433
 3335SOL    HW221642   0.767   0.357   8.625  1.3807 -1.1823 -1.0097
 3336SOL     OW21643   4.365   1.314  16.888  0.3587  0.5699  0.1960
 3336SOL    HW121644   4.460   1.312  16.894  0.2463 -0.5005  1.6575
 3336SOL    HW221645   4.360   1.329  16.793 -1.6365  0.3648  0.2703
 3337SOL     OW21646   1.248   3.271   9.568  0.0567 -0.0545  0.2785
 3337SOL    HW121647   1.197   3.197   9.536  0.4854  0.0361 -0.6343
 3337SOL    HW221648   1.271   3.257   9.660  0.6667  0.9657  0.2897
 3338SOL     OW21649   3.119   2.640   8.697  0.5607  0.2533  0.0859
 3338SOL    HW121650   3.208   2.652   8.664  0.5547  0.4579  0.1426
 3338SOL    HW221651   3.131   2.651   8.791  0.8566  0.3332  0.0403
 3339SOL     OW21652   1.603   2.200   7.764  0.3316  0.2277 -0.1090
 3339SOL    HW121653   1.632   2.111   7.785 -0.1284  0.9687  3.5590
 3339SOL    HW221654   1.554   2.182   7.683  0.3795 -1.2048  0.1728
 3340SOL     OW21655   0.949   0.177   6.734 -0.1628  0.2036  0.3817
 3340SOL    HW121656   0.994   0.134   6.807 -0.8339 -2.0457 -0.5215
 3340SOL    HW221657   0.890   0.225   6.792 -2.6362 -1.1230 -0.9990
 3341SOL     OW21658   1.737   2.855   2.803 -0.3527 -0.1880 -0.1947
 3341SOL    HW121659   1.782   2.771   2.811  1.8873  0.8791 -1.7570
 3341SOL    HW221660   1.650   2.814   2.805 -0.8808  0.9667  0.2437
 3342SOL     OW21661   2.777   3.636   8.549 -0.0841 -0.2989 -0.1013
 3342SOL    HW121662   2.737   3.708   8.502  1.6021  0.9410  0.3478
 3342SOL    HW221663   2.804   3.578   8.478 -0.9468 -1.3992  0.4717
 3343SOL     OW21664   2.646   0.303   5.839  0.4513 -0.2215 -0.3720
 3343SOL    HW121665   2.576   0.248   5.873 -0.4948  0.9610 -0.4050
 3343SOL    HW221666   2.728   0.259   5.862  1.4050 -0.0058 -3.3073
 3344SOL     OW21667   2.422   4.269   8.168 -0.1055 -0.5166 -0.0042
 3344SOL    HW121668   2.412   4.265   8.073 -1.2974  0.8428  0.0698
 3344SOL    HW221669   2.331   4.295   8.185  0.7101  2.7302 -0.7735
 3345SOL     OW21670   3.660   1.426   2.602 -0.3822 -0.3078 -0.4248
 3345SOL    HW121671   3.581   1.391   2.561 -1.1861 -2.3197  2.8574
 3345SOL    HW221672   3.632   1.517   2.599  1.0624  0.1866  0.9364
 3346SOL     OW21673   1.922   0.742  13.096 -0.0902  0.6666 -0.8558
 3346SOL    HW121674   1.902   0.834  13.075  2.5193  1.5074  0.3230
 3346SOL    HW221675   1.997   0.731  13.037  0.2487  1.5693 -0.5906
 3347SOL     OW21676   4.619   4.292  17.067  0.2852 -0.4101  0.5098
 3347SOL    HW121677   4.558   4.251  17.127 -1.2995 -3.9971 -3.5612
 3347SOL    HW221678   4.607   4.249  16.982  1.2495 -2.8683  1.6118
 3348SOL     OW21679   0.263   0.357  17.478  0.2273  0.2423  0.4102
 3348SOL    HW121680   0.330   0.366  17.410 -2.4827  1.6088 -2.0840
 3348SOL    HW221681   0.178   0.344  17.436  0.4285  3.4791 -0.9896
 3349SOL     OW21682   4.159   3.709   9.195  0.3702 -0.0243 -0.1205
 3349SOL    HW121683   4.221   3.735   9.262  0.1272 -0.0024  0.0972
 3349SOL    HW221684   4.094   3.667   9.252 -1.6671  1.4420 -1.3795
 3350SOL     OW21685   2.970   1.100   8.998  0.3879  0.2243  0.2528
 3350SOL    HW121686   2.918   1.062   9.068  0.2021 -2.3963 -1.3055
 3350SOL    HW221687   3.058   1.083   9.032 -0.5580 -3.7783  0.6859
 3351SOL     OW21688   3.400   1.041   6.654 -0.0444 -0.0416 -0.1287
 3351SOL    HW121689   3.482   0.994   6.669 -0.2889 -0.6089 -0.5404
 3351SOL    HW221690   3.426   1.122   6.698  0.1158 -0.9632  1.4656
 3352SOL     OW21691   3.098   2.798   4.684  0.3600 -0.2575 -0.0127
 3352SOL    HW121692   3.065   2.711   4.660 -0.2001  1.0027 -3.7867
 3352SOL    HW221693   3.192   2.785   4.678  0.5044  1.7322 -2.1079
 3353SOL     OW21694   0.598   3.067   6.426  0.1218 -0.0722  0.3055
 3353SOL    HW121695   0.529   3.002   6.409  0.0538 -0.7657  3.2009
 3353SOL    HW221696   0.655   3.053   6.350 -1.2742  0.5519 -0.8625
 3354SOL     OW21697   1.989   1.891   4.803 -0.0986 -0.4197 -0.3397
 3354SOL    HW121698   1.924   1.885   4.872 -0.4239 -2.6928 -0.8436
 3354SOL    HW221699   2.022   1.801   4.798  0.5502 -0.1666 -0.6000
 3355SOL     OW21700   1.920   2.233   3.101 -0.1852  0.0263  0.1541
 3355SOL    HW121701   1.997   2.284   3.128  0.6207 -0.7754 -0.6189
 3355SOL    HW221702   1.907   2.180   3.180 -1.0447 -1.6976 -1.1468
 3356SOL     OW21703   2.533   3.043   2.208  0.1897 -0.0118  0.1837
 3356SOL    HW121704   2.515   2.956   2.173 -0.5126 -0.4054  1.5159
 3356SOL    HW221705   2.581   3.015   2.286  2.7573  0.9928 -1.0359
 3357SOL     OW21706   3.900   1.234   5.472 -0.0886  0.7385 -0.5266
 3357SOL    HW121707   3.813   1.202   5.446  0.2037  0.1231 -0.7259
 3357SOL    HW221708   3.952   1.208   5.397  1.1806  0.1867  0.5383
 3358SOL     OW21709   0.743   3.960   5.566  0.2043 -0.1393 -0.4901
 3358SOL    HW121710   0.732   3.980   5.659  0.7896  0.1821 -0.4953
 3358SOL    HW221711   0.810   4.023   5.544 -3.3693  3.5075 -0.9340
 3359SOL     OW21712   1.645   3.462   6.284 -0.2580  0.7884 -0.6350
 3359SOL    HW121713   1.669   3.441   6.194  0.4252  0.0092 -0.2690
 3359SOL    HW221714   1.585   3.529   6.252 -2.3325 -0.6531  0.2759
 3360SOL     OW21715   1.384   1.469  17.745  0.0822 -0.1294  0.0910
 3360SOL    HW121716   1.315   1.413  17.711  2.2482 -1.5002 -2.0581
 3360SOL    HW221717   1.434   1.491  17.666  1.2997  0.3269  0.9819
 3361SOL     OW21718   1.420   4.137  12.769  0.0999  0.3779 -0.2299
 3361SOL    HW121719   1.460   4.223  12.779 -0.7623  0.7354  0.0834
 3361SOL    HW221720   1.429   4.118  12.676  0.8261 -2.9910  0.5035
 3362SOL     OW21721   0.335   0.609  10.941 -0.3924 -0.3836  0.5512
 3362SOL    HW121722   0.263   0.650  10.988 -1.0178 -0.8346 -0.0171
 3362SOL    HW221723   0.412   0.664  10.957 -1.8844  1.8471  0.1000
 3363SOL     OW21724   4.389   1.241   1.913 -0.3391  0.3150 -0.2259
 3363SOL    HW121725   4.301   1.218   1.943  0.1074  0.9684  1.5619
 3363SOL    HW221726   4.378   1.284   1.828  1.2916 -0.1523 -0.6648
 3364SOL     OW21727   1.893   3.657  12.519 -0.2658 -0.1434 -0.4932
 3364SOL    HW121728   1.880   3.710  12.441  0.2633  0.8891  0.1161
 3364SOL    HW221729   1.914   3.726  12.582  1.5562 -0.8346 -0.3263
 3365SOL     OW21730   3.350   4.063  13.547 -0.2298 -0.3963  0.3670
 3365SOL    HW121731   3.313   3.978  13.568 -0.6535 -0.2893  0.0516
 3365SOL    HW221732   3.423   4.059  13.610  0.1507 -2.1082 -0.1924
 3366SOL     OW21733   4.231   4.379   5.738 -0.3658  0.7600 -0.3112
 3366SOL    HW121734   4.307   4.434   5.722 -0.9649  1.6026 -0.2662
 3366SOL    HW221735   4.172   4.386   5.662 -0.6096 -0.7093 -0.2659
 3367SOL     OW21736   4.064   2.552  14.690 -0.1371  0.3244 -0.2107
 3367SOL    HW121737   3.980   2.584  14.721  0.0469  1.2097 -0.6101
 3367SOL    HW221738   4.119   2.584  14.762  0.5985  0.5937 -0.8908
 3368SOL     OW21739   0.084   1.077  11.312  0.3052  0.0358  0.2286
 3368SOL    HW121740   0.149   1.147  11.305 -0.1926  0.1925 -2.8457
 3368SOL    HW221741   0.114   1.014  11.247 -1.0120 -1.2675  0.8910
 3369SOL     OW21742   0.375   3.717   2.908  0.2600 -0.5402 -0.2538
 3369SOL    HW121743   0.333   3.790   2.953  1.4618  0.1173 -0.1921
 3369SOL    HW221744   0.435   3.769   2.855 -1.0764  0.4396 -0.7884
 3370SOL     OW21745   2.691   3.021   2.436 -0.1698  0.2000  0.0209
 3370SOL    HW121746   2.751   3.091   2.464 -0.6149  0.1142  1.1590
 3370SOL    HW221747   2.685   2.962   2.511  0.4648 -1.0544 -0.9142
 3371SOL     OW21748   2.482   2.853   6.788 -0.1933 -0.0698 -0.3864
 3371SOL    HW121749   2.392   2.876   6.812 -0.6854 -0.4338 -1.8790
 3371SOL    HW221750   2.472   2.759   6.776  0.8645  0.0081 -1.9064
 3372SOL     OW21751   2.744   3.325  11.740 -0.1789  0.1436  0.3504
 3372SOL    HW121752   2.801   3.297  11.811  0.2505 -1.6081 -0.6804
 3372SOL    HW221753   2.657   3.324  11.781 -0.7009  0.7668 -0.7305
 3373SOL     OW21754   3.450   3.586   3.961  0.1912 -0.3648 -0.1955
 3373SOL    HW121755   3.389   3.626   4.023 -0.6912 -2.3964  0.2624
 3373SOL    HW221756   3.384   3.575   3.893 -1.9834 -0.5861  1.9523
 3374SOL     OW21757   4.641   4.056   4.544  0.4037  0.0726  0.1436
 3374SOL    HW121758   4.722   4.076   4.498 -1.1033  0.3753 -2.3933
 3374SOL    HW221759   4.589   4.123   4.500  2.4003  1.5116  0.0047
 3375SOL     OW21760   1.409   2.450   7.145  0.8832  0.3463  0.3347
 3375SOL    HW121761   1.382   2.541   7.161  1.9199  1.0543 -1.8877
 3375SOL    HW221762   1.337   2.404   7.188 -0.2564  2.1133  0.3435
 3376SOL     OW21763   3.699   3.224   7.638  0.2835  0.0915  0.0084
 3376SOL    HW121764   3.741   3.309   7.653  0.2529  0.2765 -1.0173
 3376SOL    HW221765   3.658   3.222   7.552 -0.4455  1.4447  0.3220
 3377SOL     OW21766   2.314   2.330   5.026 -0.0377  0.2059 -0.3299
 3377SOL    HW121767   2.276   2.254   4.982  0.9106 -0.3192 -0.2279
 3377SOL    HW221768   2.286   2.395   4.961  0.4080  1.8288  1.0931
 3378SOL     OW21769   4.204   2.442  16.847  0.5031  0.2654 -0.5307
 3378SOL    HW121770   4.297   2.430  16.865  0.1600 -1.8105 -0.0940
 3378SOL    HW221771   4.197   2.528  16.888  0.4999 -0.6949  1.4906
 3379SOL     OW21772   0.869   1.233   2.485 -0.2868  0.3674  0.2050
 3379SOL    HW121773   0.865   1.161   2.421 -0.6277  0.1516  0.4695
 3379SOL    HW221774   0.828   1.185   2.557  2.5245  1.0344  2.2156
 3380SOL     OW21775   0.918   3.986   1.939 -0.1105  0.0203 -0.4783
 3380SOL    HW121776   0.940   3.998   2.032 -1.1812 -0.1707 -0.1993
 3380SOL    HW221777   0.986   3.924   1.913  0.3696 -0.8464  2.8318
 3381SOL     OW21778   0.995   0.389   3.996 -0.5710 -0.2398  0.5092
 3381SOL    HW121779   1.002   0.304   3.953 -0.8283 -0.1007  0.1938
 3381SOL    HW221780   0.955   0.346   4.072 -0.7295 -3.7644 -1.5527
 3382SOL     OW21781   2.896   4.214   1.358  0.6624 -0.2348 -1.1053
 3382SOL    HW121782   2.852   4.287   1.401  2.0908 -0.2257  0.3754
 3382SOL    HW221783   2.926   4.255   1.277 -1.3882 -1.2900 -2.3842
 3383SOL     OW21784   4.564   0.302   6.762 -0.2184 -0.3943  0.3223
 3383SOL    HW121785   4.580   0.209   6.746 -1.7111 -0.6145  0.1288
 3383SOL    HW221786   4.655   0.326   6.779 -0.5960 -0.4434  2.4101
 3384SOL     OW21787   3.747   3.771   9.181  0.4885  0.3097 -0.5564
 3384SOL    HW121788   3.778   3.851   9.138 -0.9663  0.0042 -2.1942
 3384SOL    HW221789   3.652   3.779   9.174  0.3789 -0.6762 -0.2323
 3385SOL     OW21790   4.487   1.938   1.644 -0.1732  0.1899 -0.2758
 3385SOL    HW121791   4.575   1.920   1.611  0.1751  0.7953  0.3200
 3385SOL    HW221792   4.459   1.847   1.645  0.0097  0.1457  1.0253
 3386SOL     OW21793   3.379   4.178   8.569  0.3202  0.0431  0.3481
 3386SOL    HW121794   3.308   4.172   8.504  0.0477  2.5564  0.4370
 3386SOL    HW221795   3.321   4.200   8.642 -2.7993 -0.1831 -2.0199
 3387SOL     OW21796   0.819   2.582   9.491 -0.5535 -0.3784 -0.3012
 3387SOL    HW121797   0.761   2.602   9.418  1.2232  0.5599 -1.4752
 3387SOL    HW221798   0.837   2.489   9.480  1.2007  0.0802 -1.3885
 3388SOL     OW21799   1.564   0.402   5.847  0.7866 -0.2146  0.0887
 3388SOL    HW121800   1.511   0.404   5.767  0.7844  1.8175  0.1368
 3388SOL    HW221801   1.595   0.312   5.841  2.4053  0.4631 -1.7590
 3389SOL     OW21802   0.984   3.507   3.644 -0.3002 -0.4617  0.2764
 3389SOL    HW121803   1.040   3.510   3.721 -1.7456 -1.1459  1.3617
 3389SOL    HW221804   0.910   3.558   3.677 -0.5049  0.1367 -1.0940
 3390SOL     OW21805   0.713   1.762   6.086  0.0040  0.2631 -0.2726
 3390SOL    HW121806   0.682   1.738   5.999  0.0215  1.9768 -0.7431
 3390SOL    HW221807   0.722   1.681   6.136  0.0565  0.9326  0.7999
 3391SOL     OW21808   2.081   4.054   4.896  0.0764  0.4600  0.0657
 3391SOL    HW121809   2.145   4.039   4.965 -0.3794  0.0148  0.3920
 3391SOL    HW221810   2.002   4.064   4.950  1.0222 -2.1895  1.9563
 3392SOL     OW21811   4.509   2.003   6.899  0.0020 -0.1904  0.5287
 3392SOL    HW121812   4.597   1.998   6.936  1.7466  0.3751 -3.6024
 3392SOL    HW221813   4.461   1.966   6.974 -0.3888  1.5249  1.1353
 3393SOL     OW21814   1.353   2.380   1.862  0.1212 -0.3936  0.0605
 3393SOL    HW121815   1.394   2.376   1.776  1.0852 -2.1880  0.5906
 3393SOL    HW221816   1.409   2.320   1.910 -0.7635 -0.0985  1.4746
 3394SOL     OW21817   1.327   1.587   2.521 -0.0737  0.4970  0.1290
 3394SOL    HW121818   1.262   1.575   2.590 -2.6543  0.2370 -2.3282
 3394SOL    HW221819   1.321   1.682   2.522 -2.0903  0.3638  0.3877
 3395SOL     OW21820   2.842   3.129   8.166 -0.2314 -0.0192  0.7644
 3395SOL    HW121821   2.847   3.132   8.070 -2.3310  0.0922  0.6634
 3395SOL    HW221822   2.922   3.083   8.191 -0.4637 -0.9919 -0.2841
 3396SOL     OW21823   0.317   4.468   4.580 -0.5502  0.9167  0.2269
 3396SOL    HW121824   0.411   4.454   4.580 -1.0099 -2.0268  2.0608
 3396SOL    HW221825   0.308   4.548   4.632  1.4401  0.9161  0.5719
 3397SOL     OW21826   3.943   0.362   6.153 -0.2094 -0.0333  0.8506
 3397SOL    HW121827   3.991   0.413   6.087  0.3799 -0.9666  0.5478
 3397SOL    HW221828   3.852   0.358   6.125 -0.3384  0.8778  1.1604
 3398SOL     OW21829   1.095   2.785   1.980 -0.2697  0.5563  0.0646
 3398SOL    HW121830   1.113   2.709   1.924  0.2386  1.8323 -1.5162
 3398SOL    HW221831   1.012   2.766   2.023  0.0548  0.3220  0.5884
 3399SOL     OW21832   1.724   3.041   8.833  0.1306  0.7671 -0.1756
 3399SOL    HW121833   1.629   3.047   8.829 -0.1444 -1.9550  2.5007
 3399SOL    HW221834   1.745   3.019   8.742 -0.2332 -0.9016  0.1442
 3400SOL     OW21835   3.080   0.804   0.920 -0.3262 -0.0034 -0.8437
 3400SOL    HW121836   3.158   0.860   0.917  0.0799 -0.5018  0.4306
 3400SOL    HW221837   3.113   0.721   0.887  3.2948  0.8136  0.7192
 3401SOL     OW21838   2.469   1.242   0.077 -0.2535  0.1694 -0.6675
 3401SOL    HW121839   2.539   1.307   0.080 -0.4857  0.2432  3.0499
 3401SOL    HW221840   2.443   1.238  17.732  1.8174  1.4061 -1.2926
 3402SOL     OW21841   4.655   2.597  10.861  0.2950 -0.2412  0.0682
 3402SOL    HW121842   4.671   2.652  10.784  1.0457 -0.2143  0.2485
 3402SOL    HW221843   4.638   2.662  10.929 -0.9146 -0.4814 -0.0071
 3403SOL     OW21844   1.599   2.531   8.350  0.1673  0.4566 -0.1898
 3403SOL    HW121845   1.584   2.598   8.416  0.3757  1.1560 -0.8517
 3403SOL    HW221846   1.692   2.507   8.358  0.0449  0.3126  0.7983
 3404SOL     OW21847   2.965   2.263   9.616  0.1705  0.4115 -0.1515
 3404SOL    HW121848   2.925   2.189   9.572 -0.1189  0.0701  0.6861
 3404SOL    HW221849   2.975   2.228   9.705  1.8782  0.3567 -0.3548
 3405SOL     OW21850   0.428   1.608   5.024 -0.1630 -0.1727 -0.3990
 3405SOL    HW121851   0.507   1.646   4.984  2.1805 -1.7393  2.7016
 3405SOL    HW221852   0.466   1.523   5.046  2.3303  1.4536  1.5542
 3406SOL     OW21853   1.111   2.739   8.785 -0.3223  0.0253  0.1821
 3406SOL    HW121854   1.072   2.825   8.766  0.2798  0.1275 -0.6134
 3406SOL    HW221855   1.043   2.688   8.827  0.4599 -0.6450  0.6384
 3407SOL     OW21856   0.420   0.583   8.243 -0.1281 -0.2690 -0.0333
 3407SOL    HW121857   0.422   0.642   8.318 -0.8866 -1.2176  0.7222
 3407SOL    HW221858   0.399   0.645   8.172 -0.7649  1.4968  1.7019
 3408SOL     OW21859   3.034   4.113   7.409  0.2147 -0.1597 -0.2090
 3408SOL    HW121860   3.095   4.167   7.459  0.8005 -0.5551 -0.5053
 3408SOL    HW221861   2.952   4.121   7.458  0.2618 -1.9674  0.1541
 3409SOL     OW21862   1.205   3.962  10.399  0.2087  0.2647  0.0268
 3409SOL    HW121863   1.203   3.933  10.490 -0.0651  1.8932  0.5306
 3409SOL    HW221864   1.169   4.050  10.408 -1.9022 -0.5838  0.0885
 3410SOL     OW21865   1.765   2.308   9.648 -0.6293 -0.7691 -0.0377
 3410SOL    HW121866   1.708   2.363   9.702 -0.2510 -0.8241  0.4260
 3410SOL    HW221867   1.766   2.237   9.712  0.9640 -0.2871  0.4912
 3411SOL     OW21868   2.580   2.157   0.099  0.1933  0.4094 -0.1573
 3411SOL    HW121869   2.535   2.172   0.182 -1.5857  2.1113 -1.4096
 3411SOL    HW221870   2.667   2.129   0.126  0.6985  1.3762 -0.7683
 3412SOL     OW21871   0.238   3.677  17.491  0.3929 -0.6023  0.1549
 3412SOL    HW121872   0.160   3.621  17.491 -0.0710  0.0647  1.9923
 3412SOL    HW221873   0.272   3.676  17.580  2.6722  0.9694 -0.6984
 3413SOL     OW21874   3.148   1.709   4.685 -0.0600 -0.6468  1.3082
 3413SOL    HW121875   3.100   1.762   4.621  1.0524  2.6545  3.2099
 3413SOL    HW221876   3.186   1.782   4.733  3.5822 -1.8164  0.1513
 3414SOL     OW21877   0.863   0.267   5.591  0.0144  0.4664 -0.1697
 3414SOL    HW121878   0.853   0.336   5.526  0.1757 -1.4076 -2.1652
 3414SOL    HW221879   0.942   0.297   5.636  0.3099 -1.9243  0.9327
 3415SOL     OW21880   1.107   4.334   8.309 -0.1057  0.0260  0.0743
 3415SOL    HW121881   1.079   4.294   8.226 -2.4409 -0.5838  1.1538
 3415SOL    HW221882   1.068   4.280   8.378  0.3789 -0.6581 -0.1902
 3416SOL     OW21883   0.053   0.043  12.264  0.0060  0.3237 -0.1226
 3416SOL    HW121884   4.709   4.731  12.252  1.5344 -2.2601  0.1707
 3416SOL    HW221885   0.114   0.013  12.197 -3.2603 -2.5217 -1.8522
 3417SOL     OW21886   4.001   1.332   9.905 -0.1791  0.0866  0.0170
 3417SOL    HW121887   3.988   1.277   9.828  2.9382 -1.5713  0.6603
 3417SOL    HW221888   3.959   1.277   9.972 -2.9471  1.4781 -0.5483
 3418SOL     OW21889   0.325   0.601  17.666  0.4331  0.7109 -0.1047
 3418SOL    HW121890   0.287   0.549  17.595  1.0066 -0.5867  0.5291
 3418SOL    HW221891   0.415   0.567  17.660  0.5211  0.9756 -0.2921
 3419SOL     OW21892   4.266   3.932  17.151 -0.3589 -0.1945  0.5935
 3419SOL    HW121893   4.306   3.938  17.065  1.7297 -2.8707  1.3724
 3419SOL    HW221894   4.313   3.863  17.198  0.3194 -0.8669 -1.0834
 3420SOL     OW21895   0.642   3.738   7.873 -0.1264  0.1310 -0.1945
 3420SOL    HW121896   0.604   3.749   7.786 -0.3817 -0.9207 -0.2100
 3420SOL    HW221897   0.657   3.829   7.901 -1.9980 -0.3621  2.3805
 3421SOL     OW21898   3.938   4.404   1.061 -0.8681 -0.2928 -0.0281
 3421SOL    HW121899   4.004   4.468   1.087  0.3019 -1.6204  0.2079
 3421SOL    HW221900   3.898   4.385   1.145 -0.2951 -2.1936 -0.1885
 3422SOL     OW21901   3.282   2.767  15.193 -0.4713 -0.5139 -0.2209
 3422SOL    HW121902   3.357   2.805  15.149 -1.8296  0.5527 -1.6358
 3422SOL    HW221903   3.317   2.719  15.268 -3.0896 -1.6944  0.2513
 3423SOL     OW21904   1.655   0.896   5.065  0.2312  0.5543 -0.3015
 3423SOL    HW121905   1.698   0.822   5.024 -1.7289 -1.1829  0.7316
 3423SOL    HW221906   1.600   0.865   5.138  1.8179  1.3580  1.2500
 3424SOL     OW21907   1.244   0.908   6.693  0.4817 -0.0548  0.7662
 3424SOL    HW121908   1.213   0.888   6.781  0.7243 -1.3284  0.5651
 3424SOL    HW221909   1.326   0.859   6.703  1.0192  0.8799  0.9443
 3425SOL     OW21910   2.485   1.621   4.534  0.0652 -0.1667 -0.1220
 3425SOL    HW121911   2.464   1.588   4.446 -2.0472 -0.9760  0.6673
 3425SOL    HW221912   2.531   1.546   4.571  0.2770  0.8028  1.5544
 3426SOL     OW21913   0.666   0.645   9.914 -0.1798  0.1453  0.1197
 3426SOL    HW121914   0.721   0.691   9.851 -2.0198 -1.2442 -2.4828
 3426SOL    HW221915   0.622   0.720   9.955 -0.5742  0.7243 -1.3770
 3427SOL     OW21916   3.465   4.601   4.162 -0.1490 -0.1322 -0.3117
 3427SOL    HW121917   3.455   4.622   4.255 -3.0493 -1.7852 -0.2512
 3427SOL    HW221918   3.472   4.690   4.127  1.0934  0.4021  1.3260
 3428SOL     OW21919   3.006   1.743   3.082  0.3025  0.1389 -0.0359
 3428SOL    HW121920   3.039   1.811   3.023 -0.9658  0.3684 -0.4772
 3428SOL    HW221921   2.926   1.784   3.115  2.0104  1.6781  2.1832
 3429SOL     OW21922   3.820   3.348   4.772  0.3588  0.0767  0.2603
 3429SOL    HW121923   3.869   3.267   4.787 -3.4138 -2.4857 -1.1767
 3429SOL    HW221924   3.874   3.410   4.821  0.9120 -0.4009  0.2548
 3430SOL     OW21925   1.289   2.398   4.772 -0.3037 -0.3903 -0.0394
 3430SOL    HW121926   1.202   2.423   4.742 -0.2310 -1.5175 -1.2273
 3430SOL    HW221927   1.292   2.422   4.864  0.2528 -1.2351  0.1565
 3431SOL     OW21928   3.862   3.189  17.315  0.1254  0.0299 -0.0369
 3431SOL    HW121929   3.804   3.118  17.343  0.0988  0.0890  0.0566
 3431SOL    HW221930   3.824   3.221  17.233  0.2667  1.9063  0.6408
 3432SOL     OW21931   2.939   2.278  15.363 -0.2888  0.1802  0.8556
 3432SOL    HW121932   2.897   2.340  15.303 -1.3172  0.2002  1.5772
 3432SOL    HW221933   2.862   2.277  15.420 -1.2495 -1.9306 -0.5009
 3433SOL     OW21934   3.379   3.344   1.544  1.0106  1.0032 -0.1727
 3433SOL    HW121935   3.351   3.427   1.581  0.0122 -0.0619  1.4869
 3433SOL    HW221936   3.448   3.362   1.480  1.7498 -1.0113  0.0401
 3434SOL     OW21937   2.730   0.222   2.897  0.5128  0.1690  0.3387
 3434SOL    HW121938   2.796   0.155   2.912  1.4479  1.0553  0.2161
 3434SOL    HW221939   2.794   0.272   2.846 -0.8639  0.2709 -1.2756
 3435SOL     OW21940   4.259   4.270   5.369  0.0429  0.5150 -0.0100
 3435SOL    HW121941   4.353   4.262   5.350 -0.0220 -1.0452  0.3624
 3435SOL    HW221942   4.240   4.193   5.422  0.8297  0.0290 -0.4375
 3436SOL     OW21943   3.940   4.443   1.609  0.4758  0.7322  0.2785
 3436SOL    HW121944   3.898   4.427   1.693  1.7058 -0.2223  0.7188
 3436SOL    HW221945   3.946   4.538   1.618 -2.1777  1.2639 -3.3697
 3437SOL     OW21946   1.452   3.089   8.293 -0.5044 -0.3545  0.6542
 3437SOL    HW121947   1.523   3.076   8.229  0.5700 -2.1487  2.2064
 3437SOL    HW221948   1.393   3.141   8.238 -0.4956  0.4980  1.4424
 3438SOL     OW21949   2.097   1.830   8.703 -0.1499 -0.2836  0.9331
 3438SOL    HW121950   2.022   1.889   8.709 -0.8625 -1.0991  0.2013
 3438SOL    HW221951   2.174   1.886   8.690 -1.3173  0.9504 -0.6358
 3439SOL     OW21952   0.791   4.365   5.709 -0.3018  0.2872  0.0971
 3439SOL    HW121953   0.838   4.283   5.722 -2.2298 -0.6100  1.3293
 3439SOL    HW221954   0.823   4.384   5.621  1.3839 -0.6809  0.4979
 3440SOL     OW21955   0.768   0.086  15.147 -0.2568 -0.0123  0.0641
 3440SOL    HW121956   0.789   0.008  15.095 -3.0944 -0.7295 -0.0446
 3440SOL    HW221957   0.781   0.067  15.240 -0.9525  0.9604  0.3689
 3441SOL     OW21958   4.669   1.377   6.447 -0.0283 -0.5498 -0.0490
 3441SOL    HW121959   0.023   1.372   6.417 -0.1610  1.5201 -0.8096
 3441SOL    HW221960   4.635   1.313   6.385 -0.5686 -1.5580  1.2838
 3442SOL     OW21961   4.059   3.835  17.538 -0.3091 -0.0606  0.3541
 3442SOL    HW121962   4.026   3.764  17.593  2.5268 -1.0122  0.8383
 3442SOL    HW221963   4.025   3.815  17.450  1.5494  2.4783 -0.9447
 3443SOL     OW21964   3.103   1.643   8.127 -0.4928  0.4141 -0.0245
 3443SOL    HW121965   3.054   1.592   8.192 -1.1119 -5.0293 -4.8175
 3443SOL    HW221966   3.186   1.596   8.133 -0.2819  0.7025 -0.7559
 3444SOL     OW21967   1.569   3.103   6.430 -0.0236 -0.1724  0.0763
 3444SOL    HW121968   1.505   3.158   6.385 -2.5071 -2.0525  1.2673
 3444SOL    HW221969   1.545   3.136   6.516  1.4352  0.3467  0.2758
 3445SOL     OW21970   3.996   2.517   8.522 -0.1198 -1.0339  0.1714
 3445SOL    HW121971   3.936   2.589   8.503  0.9524 -0.2493 -0.2179
 3445SOL    HW221972   4.057   2.522   8.448  1.2697 -1.9169  1.2520
 3446SOL     OW21973   3.489   1.434   2.024  0.2062 -0.1856 -0.2885
 3446SOL    HW121974   3.562   1.467   1.972 -0.2362  0.3366 -0.5871
 3446SOL    HW221975   3.485   1.506   2.088  1.8108  0.1984 -0.6053
 3447SOL     OW21976   3.887   2.721   6.102 -0.0068  0.5593 -0.3493
 3447SOL    HW121977   3.880   2.644   6.160 -0.4462  2.3627  1.9994
 3447SOL    HW221978   3.825   2.704   6.031 -0.9656 -4.0879  1.5677
 3448SOL     OW21979   2.250   3.005   1.511  0.0785  0.5134 -0.7607
 3448SOL    HW121980   2.188   3.004   1.583  2.5473  0.9400  1.3938
 3448SOL    HW221981   2.267   3.099   1.514  0.8105  0.4483 -2.4739
 3449SOL     OW21982   1.806   0.449  14.739 -0.0824  0.1348 -0.6479
 3449SOL    HW121983   1.792   0.376  14.799  2.4253  0.1810  0.0112
 3449SOL    HW221984   1.886   0.415  14.698  0.0377  0.4396 -0.6612
 3450SOL     OW21985   2.428   0.923   3.735 -1.0669 -0.0818  0.0678
 3450SOL    HW121986   2.394   0.965   3.656 -0.4396 -0.0814 -0.2071
 3450SOL    HW221987   2.363   0.863   3.769  0.7147  0.1527  3.8745
 3451SOL     OW21988   1.929   3.272  15.400  0.0691 -0.3679 -0.0401
 3451SOL    HW121989   2.011   3.235  15.433 -0.4151 -1.2810  0.1494
 3451SOL    HW221990   1.941   3.359  15.438 -1.8329  0.5374 -1.4795
 3452SOL     OW21991   4.571   4.612   3.347 -0.7008  0.0022 -0.0782
 3452SOL    HW121992   4.633   4.603   3.275 -1.1602  1.1523 -0.6241
 3452SOL    HW221993   4.540   4.522   3.355  0.2821 -0.3120  0.3265
 3453SOL     OW21994   1.125   0.691   2.212 -1.0584 -0.0712 -0.0892
 3453SOL    HW121995   1.123   0.755   2.282 -1.3707  0.2767 -0.4169
 3453SOL    HW221996   1.217   0.664   2.215 -1.6647 -2.1108  0.3519
 3454SOL     OW21997   1.167   2.618   3.464  0.4069  0.2192  0.9206
 3454SOL    HW121998   1.123   2.610   3.549  2.4324 -2.7751  1.7110
 3454SOL    HW221999   1.135   2.706   3.446 -1.4269 -0.4209  1.0400
 3455SOL     OW22000   2.611   1.036   8.123 -0.0982  0.4468 -0.1316
 3455SOL    HW122001   2.589   1.108   8.063 -1.6089 -0.2919 -0.4661
 3455SOL    HW222002   2.678   0.986   8.076 -0.2299  1.0735 -0.9938
 3456SOL     OW22003   3.073   3.874   4.902  0.3708  0.4599 -0.4678
 3456SOL    HW122004   3.042   3.889   4.991  1.6946 -1.4655  0.3248
 3456SOL    HW222005   3.110   3.961   4.884 -1.1078  0.8096 -1.8606
 3457SOL     OW22006   3.046   1.258   4.754  0.3854  0.0221 -0.0371
 3457SOL    HW122007   3.060   1.279   4.662  0.0910  2.3218  0.4322
 3457SOL    HW222008   3.053   1.342   4.801  0.3483  0.4555 -0.8007
 3458SOL     OW22009   4.004   4.031  16.711 -0.4323 -0.0181  0.7129
 3458SOL    HW122010   3.946   4.081  16.768  0.5705  0.0928  1.6335
 3458SOL    HW222011   3.971   4.051  16.624 -0.1023  2.6163  1.2080
 3459SOL     OW22012   1.644   1.439   5.237  0.7705 -0.3479  0.2148
 3459SOL    HW122013   1.582   1.376   5.202 -0.1916  1.0188 -0.5590
 3459SOL    HW222014   1.661   1.393   5.319  0.2918  1.0703  1.1107
 3460SOL     OW22015   0.146   2.066  13.472  0.8935 -0.1141 -0.2642
 3460SOL    HW122016   0.186   1.981  13.488 -1.0111 -0.3935  3.0709
 3460SOL    HW222017   0.105   2.054  13.387  0.8118  1.4046 -0.4442
 3461SOL     OW22018   3.034   2.903   4.015 -0.0541 -0.1316 -0.3827
 3461SOL    HW122019   2.997   2.976   3.964 -0.8465  0.2045  0.6698
 3461SOL    HW222020   2.977   2.830   3.990 -1.7052  0.7597  0.7789
 3462SOL     OW22021   1.186   2.112   8.985 -0.2756 -0.1918 -0.0004
 3462SOL    HW122022   1.166   2.028   9.026  1.1201 -0.9434 -0.8668
 3462SOL    HW222023   1.112   2.114   8.924 -1.1353  0.0628  1.0650
 3463SOL     OW22024   3.021   2.335   0.896  0.0072  0.0213  0.0055
 3463SOL    HW122025   2.934   2.374   0.890 -0.2831 -0.7033 -0.3496
 3463SOL    HW222026   3.066   2.407   0.941 -1.1922 -1.0612  2.9347
 3464SOL     OW22027   4.597   3.703   5.571 -0.4176  0.2133 -0.1108
 3464SOL    HW122028   4.528   3.703   5.637  0.4542  0.7107  0.8173
 3464SOL    HW222029   4.664   3.745   5.625  0.8136 -1.0293 -0.6764
 3465SOL     OW22030   2.334   0.724   3.477 -0.1682  0.3175  0.2923
 3465SOL    HW122031   2.401   0.702   3.412  0.4820 -2.7656  1.9747
 3465SOL    HW222032   2.382   0.702   3.558  0.6935 -0.0309 -0.3088
 3466SOL     OW22033   3.671   1.405   4.396  0.4754  0.2013 -0.9106
 3466SOL    HW122034   3.623   1.487   4.386 -3.4579 -2.3687 -3.2891
 3466SOL    HW222035   3.706   1.422   4.484 -3.8570 -0.5798  0.9810
 3467SOL     OW22036   2.924   2.001   5.947  0.3450  0.0636  0.0377
 3467SOL    HW122037   2.914   1.906   5.941  2.8411 -0.3126  2.0498
 3467SOL    HW222038   2.932   2.034   5.857 -1.4758 -1.6646 -0.7620
 3468SOL     OW22039   3.496   3.072  15.983 -0.4295  0.6731 -0.4449
 3468SOL    HW122040   3.439   3.004  16.019  0.7285  0.3953  0.8243
 3468SOL    HW222041   3.574   3.044  16.030 -0.5527  0.0519 -0.6148
 3469SOL     OW22042   3.373   4.370   6.461 -0.1141 -0.3453 -0.1025
 3469SOL    HW122043   3.347   4.303   6.525 -0.5947  1.3254  1.4385
 3469SOL    HW222044   3.314   4.442   6.485 -2.4690 -2.3885  0.2620
 3470SOL     OW22045   3.741   1.265  11.146 -0.1201 -0.4392 -0.6622
 3470SOL    HW122046   3.821   1.252  11.094 -0.8326 -2.1992 -1.3047
 3470SOL    HW222047   3.693   1.185  11.126 -0.7605  0.1774 -1.5507
 3471SOL     OW22048   2.507   2.256   8.555 -0.4437  0.6571 -0.1950
 3471SOL    HW122049   2.565   2.296   8.620  1.0011 -0.4965 -0.7919
 3471SOL    HW222050   2.562   2.229   8.482 -2.8406 -1.9956 -1.0305
 3472SOL     OW22051   1.149   1.581  15.718  0.4521 -0.9471 -0.0880
 3472SOL    HW122052   1.074   1.523  15.710 -1.1596  1.1731 -0.4389
 3472SOL    HW222053   1.170   1.608  15.628  1.5424  1.4684  0.8704
 3473SOL     OW22054   3.011   1.179  10.384 -0.4865 -0.0857 -0.1074
 3473SOL    HW122055   3.088   1.125  10.399 -0.7109 -0.5619 -0.6714
 3473SOL    HW222056   3.028   1.247  10.318 -0.2488  1.6573  1.7679
 3474SOL     OW22057   4.683   2.962   8.240 -0.6498  0.0002 -0.0108
 3474SOL    HW122058   4.648   2.879   8.274 -1.3809  1.1374  2.0267
 3474SOL    HW222059   4.695   2.931   8.150 -3.7338  2.9675 -1.4445
 3475SOL     OW22060   2.156   1.032   4.783  0.1991 -0.0409  0.0222
 3475SOL    HW122061   2.122   0.996   4.701  0.0489  0.4954 -0.1504
 3475SOL    HW222062   2.105   1.113   4.780  0.2052 -0.0762 -1.1924
 3476SOL     OW22063   2.279   3.562   8.963  0.1745 -0.5828 -0.0514
 3476SOL    HW122064   2.259   3.484   8.910  1.4795 -0.3004 -0.9448
 3476SOL    HW222065   2.355   3.518   9.002 -0.8117 -1.9499  0.3404
 3477SOL     OW22066   3.231   1.359   2.360 -0.3110  0.7388 -0.3327
 3477SOL    HW122067   3.195   1.384   2.275  0.5233  0.9052 -0.6362
 3477SOL    HW222068   3.214   1.265   2.354  2.3503  0.1938  0.4458
 3478SOL     OW22069   3.643   2.059   7.604  0.3370 -0.1543  0.2034
 3478SOL    HW122070   3.581   2.126   7.575 -1.6900 -2.5569 -0.9960
 3478SOL    HW222071   3.728   2.098   7.583  1.3594 -1.5304  1.8099
 3479SOL     OW22072   4.067   4.150   5.207 -0.0212 -0.1807 -0.5524
 3479SOL    HW122073   4.129   4.172   5.275 -2.0087  0.8706  0.9145
 3479SOL    HW222074   4.113   4.084   5.155  1.8886  0.0216  0.8915
 3480SOL     OW22075   4.088   4.435   5.490  0.0821  0.0051  0.3246
 3480SOL    HW122076   4.165   4.399   5.445  0.4474  0.1613  0.8274
 3480SOL    HW222077   4.071   4.512   5.436  0.4258 -0.6171 -0.6844
 3481SOL     OW22078   2.494   0.408   0.821 -0.5005 -0.1703  0.2489
 3481SOL    HW122079   2.503   0.504   0.818 -0.2920 -0.2019 -0.1676
 3481SOL    HW222080   2.401   0.400   0.799 -0.3232 -1.2893 -0.0732
 3482SOL     OW22081   3.672   3.472   6.202  0.2606  0.3290  0.5696
 3482SOL    HW122082   3.720   3.546   6.166 -0.4476  1.3984  1.8129
 3482SOL    HW222083   3.731   3.452   6.275  2.1911 -1.2535 -1.4468
 3483SOL     OW22084   3.575   1.479   7.106 -0.3753 -0.0328  0.1805
 3483SOL    HW122085   3.531   1.529   7.038 -0.3771 -1.3571 -0.8030
 3483SOL    HW222086   3.609   1.550   7.160  2.2393  0.0975 -1.6100
 3484SOL     OW22087   1.314   2.940   3.465 -0.4357 -0.0316  0.3400
 3484SOL    HW122088   1.348   2.873   3.525  0.8913 -0.2198 -0.6356
 3484SOL    HW222089   1.221   2.920   3.471  0.0687 -1.9507  1.6558
 3485SOL     OW22090   3.911   3.868   8.341  0.6010 -0.2469  0.2743
 3485SOL    HW122091   3.990   3.835   8.384  1.6153 -0.3092 -1.6006
 3485SOL    HW222092   3.866   3.789   8.310 -0.7678  0.5609  0.2060
 3486SOL     OW22093   4.582   2.897  13.808 -0.1842 -0.1441 -0.2221
 3486SOL    HW122094   4.507   2.852  13.769  0.5867 -0.6956 -1.0847
 3486SOL    HW222095   4.544   2.913  13.894 -0.2414 -2.5773  0.2211
 3487SOL     OW22096   1.353   1.828   4.819 -0.0136  0.3318  0.9388
 3487SOL    HW122097   1.262   1.846   4.844 -0.8331 -1.5786 -0.6408
 3487SOL    HW222098   1.380   1.918   4.802 -0.1477 -0.1199 -1.8059
 3488SOL     OW22099   0.199   4.351   2.678 -0.4595  0.3058  0.5799
 3488SOL    HW122100   0.104   4.358   2.682 -0.8180 -3.0498 -2.2576
 3488SOL    HW222101   0.217   4.299   2.756 -1.2456 -0.6225  0.1355
 3489SOL     OW22102   2.533   2.284  14.713  0.3855  0.0493  0.3591
 3489SOL    HW122103   2.479   2.291  14.791  0.1298  2.1927 -0.0007
 3489SOL    HW222104   2.477   2.244  14.647  0.6926 -2.4611  1.6379
 3490SOL     OW22105   3.316   3.218  14.607 -0.0104  0.0626 -0.5305
 3490SOL    HW122106   3.287   3.151  14.546  1.6080 -0.2334 -0.9676
 3490SOL    HW222107   3.303   3.173  14.691 -0.5679 -0.2333 -0.7801
 3491SOL     OW22108   1.873   4.448  16.073  0.3116 -0.2058 -0.0161
 3491SOL    HW122109   1.931   4.404  16.010 -0.6433 -3.3834  1.3165
 3491SOL    HW222110   1.799   4.468  16.016  1.6163  0.4264 -1.4826
 3492SOL     OW22111   2.142   3.959   9.524  0.4240  0.1155  0.3842
 3492SOL    HW122112   2.117   3.879   9.478  0.6086  1.9040 -2.8405
 3492SOL    HW222113   2.238   3.960   9.523  0.4273 -0.2577  0.4590
 3493SOL     OW22114   4.261   2.600   1.666  0.3415  0.6741 -0.3459
 3493SOL    HW122115   4.317   2.646   1.728 -0.5562  0.7739  0.3870
 3493SOL    HW222116   4.290   2.621   1.577 -1.1829  0.6787 -0.8484
 3494SOL     OW22117   2.508   2.688   8.143 -0.0182  0.1655 -0.1150
 3494SOL    HW122118   2.553   2.606   8.163  1.1242  0.6053 -0.8529
 3494SOL    HW222119   2.553   2.747   8.204  2.3022 -1.2454 -0.4424
 3495SOL     OW22120   0.052   2.426   9.499 -0.4726 -0.1673  0.6947
 3495SOL    HW122121   0.056   2.337   9.464 -0.5862  0.9342 -2.0895
 3495SOL    HW222122   0.089   2.464   9.419  1.1054  0.0071  1.5009
 3496SOL     OW22123   3.353   3.071   8.289  0.1393  0.3901  0.1922
 3496SOL    HW122124   3.419   3.129   8.327  0.4984  0.3008 -0.2884
 3496SOL    HW222125   3.365   2.992   8.342  0.8909  0.0949 -0.4098
 3497SOL     OW22126   2.243   0.533  17.212  0.4132 -0.0143 -0.1716
 3497SOL    HW122127   2.303   0.481  17.266  0.0843 -0.7909 -0.5569
 3497SOL    HW222128   2.286   0.523  17.127  1.3674  0.1911  0.2796
 3498SOL     OW22129   1.971   1.425  17.662 -0.5395 -0.0488 -0.0725
 3498SOL    HW122130   1.993   1.392  17.575  0.9687  0.2330  0.2161
 3498SOL    HW222131   1.899   1.364  17.682 -2.8436  2.0626 -1.8785
 3499SOL     OW22132   0.133   1.207  10.178  0.0376  0.1737  0.3582
 3499SOL    HW122133   0.168   1.223  10.091 -0.6419 -0.1551  0.0234
 3499SOL    HW222134   0.135   1.293  10.221  1.4489  0.0554  0.5302
 3500SOL     OW22135   1.457   1.458   6.234  0.6006 -0.0473 -0.2133
 3500SOL    HW122136   1.503   1.388   6.188 -0.1120  1.1358 -2.7609
 3500SOL    HW222137   1.519   1.531   6.236  0.4676  0.1205 -1.7657
 3501SOL     OW22138   1.801   0.474  13.072 -0.1847 -0.5763 -0.1567
 3501SOL    HW122139   1.848   0.555  13.053 -1.0134  0.5252  2.5415
 3501SOL    HW222140   1.727   0.517  13.114 -0.5207 -1.7667  0.4806
 3502SOL     OW22141   0.250   2.090   3.730  0.0926  0.5164  0.2097
 3502SOL    HW122142   0.310   2.107   3.802 -1.2615  2.6272  0.8496
 3502SOL    HW222143   0.223   1.999   3.739  0.0687  0.6494  1.4959
 3503SOL     OW22144   4.260   2.338   4.232  0.0369  0.3490 -0.0241
 3503SOL    HW122145   4.201   2.263   4.239 -1.7193  1.6854 -0.5381
 3503SOL    HW222146   4.348   2.304   4.216 -0.5787 -1.1496 -0.2360
 3504SOL     OW22147   2.787   3.003   8.514 -0.1939 -0.3513  0.2608
 3504SOL    HW122148   2.786   2.948   8.592 -0.2929 -0.0147  0.4961
 3504SOL    HW222149   2.881   3.005   8.502 -0.1114 -2.6892  0.4470
 3505SOL     OW22150   2.483   4.379   4.107  0.0619 -0.1948 -0.1194
 3505SOL    HW122151   2.474   4.289   4.140  0.5457  0.4306  1.7156
 3505SOL    HW222152   2.517   4.361   4.019 -2.6400 -0.3934 -1.1176
 3506SOL     OW22153   0.635   4.097   7.448  0.1308  0.1514  0.0403
 3506SOL    HW122154   0.714   4.045   7.467  1.3098  0.6970 -3.4209
 3506SOL    HW222155   0.684   4.176   7.423 -0.6501 -0.2390 -2.7152
 3507SOL     OW22156   3.564   3.292  16.915 -0.1342 -0.5819  0.3010
 3507SOL    HW122157   3.476   3.314  16.946  0.7722 -0.7973  3.0343
 3507SOL    HW222158   3.553   3.197  16.903  1.8481 -1.3524  4.5637
 3508SOL     OW22159   3.181   3.028   7.522  0.0053 -0.4531 -0.0826
 3508SOL    HW122160   3.118   3.040   7.451  0.0843 -0.7447 -0.1995
 3508SOL    HW222161   3.202   3.121   7.538 -0.1383 -0.6575  1.3523
 3509SOL     OW22162   2.177   3.630   8.372 -0.0341  0.0657  0.1681
 3509SOL    HW122163   2.101   3.653   8.319  1.0055  0.2761 -1.2195
 3509SOL    HW222164   2.189   3.544   8.331 -1.7150  0.1464 -0.4955
 3510SOL     OW22165   2.627   1.000   9.682  0.1974 -0.6717  0.1691
 3510SOL    HW122166   2.634   0.904   9.679  1.6339 -0.6011  0.9411
 3510SOL    HW222167   2.601   1.028   9.594 -0.3812 -1.7149  0.0097
 3511SOL     OW22168   1.577   0.219   3.106  0.1993 -0.6512  0.1659
 3511SOL    HW122169   1.666   0.184   3.095 -0.5327 -2.9304  1.5686
 3511SOL    HW222170   1.588   0.306   3.067 -0.7912  0.6410  2.8282
 3512SOL     OW22171   2.143   0.602   8.264  0.6921 -0.4132 -0.4485
 3512SOL    HW122172   2.096   0.518   8.265  0.3086 -0.1564  3.2327
 3512SOL    HW222173   2.198   0.606   8.342  1.8639 -0.9626 -1.2535
 3513SOL     OW22174   3.504   3.098   8.615  0.8488  0.4031  0.2072
 3513SOL    HW122175   3.499   3.152   8.536  1.4671 -2.1595 -1.5828
 3513SOL    HW222176   3.592   3.061   8.609 -0.5332 -2.6197 -1.1121
 3514SOL     OW22177   2.275   1.402  11.288  0.3841 -0.4259 -0.1814
 3514SOL    HW122178   2.184   1.431  11.297 -0.0230 -1.4570 -1.0412
 3514SOL    HW222179   2.308   1.444  11.208  0.1812 -0.5816 -0.3494
 3515SOL     OW22180   3.365   1.836   8.775 -0.1105 -0.5754  0.2382
 3515SOL    HW122181   3.331   1.748   8.796 -0.6560  0.3370  3.1384
 3515SOL    HW222182   3.370   1.826   8.680  2.1593 -1.2316  0.4227
 3516SOL     OW22183   0.082   3.630  17.100 -0.2762  0.7365  0.0472
 3516SOL    HW122184   0.043   3.620  17.187 -0.3168 -1.3085 -0.2051
 3516SOL    HW222185   0.009   3.647  17.040 -0.1551 -2.2929 -1.0048
 3517SOL     OW22186   2.655   0.089   0.445 -0.0098 -1.0254 -0.3114
 3517SOL    HW122187   2.662   0.163   0.505  0.8992 -1.0351 -0.4038
 3517SOL    HW222188   2.741   0.049   0.442  0.4229 -0.2085  1.2039
 3518SOL     OW22189   4.307   1.572  13.606 -0.3256 -0.2145  0.8508
 3518SOL    HW122190   4.299   1.573  13.511 -1.6681 -0.5215  0.9579
 3518SOL    HW222191   4.215   1.592  13.625 -0.8027 -0.4650 -1.1725
 3519SOL     OW22192   2.780   3.348  17.086  0.2707 -0.6849 -0.2202
 3519SOL    HW122193   2.783   3.443  17.075 -4.1747 -0.4180  0.8290
 3519SOL    HW222194   2.763   3.350  17.180 -0.2900  1.1390 -0.3550
 3520SOL     OW22195   1.298   0.847  12.200 -0.4245 -0.0165  0.0034
 3520SOL    HW122196   1.253   0.819  12.281 -0.0191 -0.8783 -0.0656
 3520SOL    HW222197   1.287   0.770  12.144 -1.0994  1.7041 -2.1777
 3521SOL     OW22198   0.062   1.599   6.215  0.3288  0.5048 -0.1001
 3521SOL    HW122199   0.052   1.513   6.174 -0.7831  1.0744 -0.9942
 3521SOL    HW222200   4.713   1.639   6.210 -1.2515 -2.7605  0.6845
 3522SOL     OW22201   2.025   0.904   5.291 -0.3893  0.1312  0.4736
 3522SOL    HW122202   1.959   0.955   5.245  0.0003  0.4577  0.2777
 3522SOL    HW222203   1.978   0.821   5.301 -1.0847  0.3035 -1.4994
 3523SOL     OW22204   3.657   3.716   4.894 -0.1085  0.3618 -0.3242
 3523SOL    HW122205   3.733   3.659   4.878 -0.6128 -0.5332  0.4466
 3523SOL    HW222206   3.587   3.652   4.909 -0.6223  0.8731 -0.5370
 3524SOL     OW22207   4.102   0.787   5.257  0.6640 -0.1595  0.1239
 3524SOL    HW122208   4.078   0.825   5.342  3.2063  1.6625  0.0104
 3524SOL    HW222209   4.195   0.807   5.250  0.7155 -1.3778 -2.6117
 3525SOL     OW22210   3.319   1.134   3.846 -0.3303 -0.6154  0.2306
 3525SOL    HW122211   3.280   1.055   3.808  0.8119 -0.4062 -1.3877
 3525SOL    HW222212   3.391   1.107   3.902 -1.8722 -2.2473  1.4285
 3526SOL     OW22213   3.140   0.744   5.561  0.1735  0.2488 -0.3311
 3526SOL    HW122214   3.061   0.741   5.615  1.4026  0.2207  1.4336
 3526SOL    HW222215   3.146   0.839   5.549 -1.0356  0.6552  2.2933
 3527SOL     OW22216   0.449   3.541   9.929  0.1582 -0.2208 -0.3189
 3527SOL    HW122217   0.393   3.605   9.886  0.1173 -0.6789 -0.9474
 3527SOL    HW222218   0.491   3.585  10.003 -3.3742  0.8008  1.0692
 3528SOL     OW22219   0.039   1.977   5.101 -0.1475  0.4616  0.2681
 3528SOL    HW122220   0.125   1.998   5.136 -0.7905 -0.4853  2.4499
 3528SOL    HW222221   0.065   1.944   5.015  0.5947  0.5604  0.4616
 3529SOL     OW22222   1.506   3.249   5.288  0.0596  0.3078  0.6561
 3529SOL    HW122223   1.592   3.263   5.248  0.5115 -0.1380  1.4792
 3529SOL    HW222224   1.530   3.277   5.376 -0.5800 -2.2929  1.6391
 3530SOL     OW22225   2.414   1.406   8.045 -0.6812 -0.3916  0.2630
 3530SOL    HW122226   2.382   1.390   7.956 -0.2440 -2.8655  0.5488
 3530SOL    HW222227   2.334   1.384   8.091 -0.2655 -0.0167  1.1699
 3531SOL     OW22228   3.264   4.233   0.701  0.9851  0.7124 -0.6888
 3531SOL    HW122229   3.299   4.153   0.741 -1.5494 -0.0986 -0.0928
 3531SOL    HW222230   3.283   4.230   0.607  2.3942 -0.0033 -0.3881
 3532SOL     OW22231   2.499   1.386   1.426 -0.0227  0.0711 -0.0370
 3532SOL    HW122232   2.508   1.409   1.333 -0.9948  0.7710  0.0333
 3532SOL    HW222233   2.427   1.445   1.451 -1.0352 -0.9634 -0.5182
 3533SOL     OW22234   3.574   0.865   0.051 -0.3280  0.5849  0.4740
 3533SOL    HW122235   3.536   0.951   0.030  1.4391  1.7273  1.9737
 3533SOL    HW222236   3.608   0.846  17.711 -3.4393 -3.1546  0.0752
 3534SOL     OW22237   1.202   0.069   5.235  0.0117  0.3094 -0.6873
 3534SOL    HW122238   1.188   0.043   5.326  0.6072  2.6260  0.0488
 3534SOL    HW222239   1.117   0.112   5.227  0.0440  0.3555 -0.7766
 3535SOL     OW22240   2.592   0.358   7.699 -0.6862 -0.4325 -0.0708
 3535SOL    HW122241   2.667   0.353   7.758  0.7138 -2.7008 -2.0450
 3535SOL    HW222242   2.623   0.425   7.638  0.8158  0.1066  1.2796
 3536SOL     OW22243   4.648   3.531  16.191 -0.1434  0.4473 -0.5091
 3536SOL    HW122244   4.661   3.623  16.214  0.0248  0.0900  0.8446
 3536SOL    HW222245   4.625   3.531  16.099 -3.0053 -0.4504  0.2243
 3537SOL     OW22246   4.456   3.879   3.763  0.2849  0.4232 -0.1936
 3537SOL    HW122247   4.474   3.791   3.729  1.3132 -0.4113  2.5168
 3537SOL    HW222248   4.413   3.857   3.845  0.1003  0.1318 -0.3665
 3538SOL     OW22249   2.306   4.242   2.210 -0.2119 -0.4129  0.1197
 3538SOL    HW122250   2.396   4.214   2.195 -0.0399  0.5625 -0.6618
 3538SOL    HW222251   2.324   4.336   2.223 -1.4690 -0.4380  2.1665
 3539SOL     OW22252   4.200   0.964  14.006  0.5498  0.2817 -0.0377
 3539SOL    HW122253   4.141   0.928  13.940 -1.2105 -1.1326  2.2903
 3539SOL    HW222254   4.255   0.888  14.026 -0.8504 -0.8318 -0.4297
 3540SOL     OW22255   2.602   0.367   3.148  0.0036  0.1262  0.0202
 3540SOL    HW122256   2.515   0.343   3.179  0.1944 -2.1479 -1.1877
 3540SOL    HW222257   2.653   0.311   3.208 -2.4638 -1.4236  0.6772
 3541SOL     OW22258   1.036   4.284   4.470 -0.2656  0.0009  0.2255
 3541SOL    HW122259   0.991   4.253   4.392  0.6516 -1.9557  0.4814
 3541SOL    HW222260   1.030   4.210   4.531  0.5868  0.6365  1.0829
 3542SOL     OW22261   4.210   3.468  17.128  0.3994  0.8069 -0.0941
 3542SOL    HW122262   4.176   3.430  17.209 -2.5123  4.2047  0.2939
 3542SOL    HW222263   4.127   3.484  17.083 -0.4599 -1.7858  0.5483
 3543SOL     OW22264   4.610   4.464  12.084  0.4916 -0.2466 -0.2674
 3543SOL    HW122265   4.589   4.521  12.010 -2.1684 -1.4032 -0.4014
 3543SOL    HW222266   4.627   4.536  12.145  0.4381 -1.2516  0.9304
 3544SOL     OW22267   3.759   3.808   0.507  0.1898  0.1360  0.1836
 3544SOL    HW122268   3.734   3.733   0.452 -1.8099 -0.1240  1.4383
 3544SOL    HW222269   3.707   3.800   0.587 -2.2204  0.0322 -1.3711
 3545SOL     OW22270   0.546   2.501   7.820  0.3632  0.3421  0.0133
 3545SOL    HW122271   0.619   2.498   7.882  1.0070  0.7798 -0.7163
 3545SOL    HW222272   0.539   2.596   7.809  2.3542  0.6017  0.8763
 3546SOL     OW22273   3.276   4.674   7.763  0.3403  0.2324  0.0047
 3546SOL    HW122274   3.324   4.641   7.839 -1.9317 -1.0037  0.8866
 3546SOL    HW222275   3.185   4.656   7.785  0.7622  0.6194  2.0846
 3547SOL     OW22276   0.146   0.677   7.314  0.7585 -0.0788  0.4880
 3547SOL    HW122277   0.158   0.584   7.333 -0.9396  0.4253  3.8321
 3547SOL    HW222278   0.063   0.665   7.267  0.7543  2.8046 -0.2370
 3548SOL     OW22279   0.940   3.108   8.396 -0.1103  0.0093 -0.7540
 3548SOL    HW122280   1.006   3.109   8.326  0.3056  1.4650 -0.3493
 3548SOL    HW222281   0.967   3.194   8.429  0.1016 -0.7812  1.1290
 3549SOL     OW22282   4.579   1.157   8.978  0.1395 -0.1734  0.2374
 3549SOL    HW122283   4.653   1.098   8.963  0.2390 -0.1445  0.5996
 3549SOL    HW222284   4.514   1.100   8.938 -0.9401  0.5746  0.8845
 3550SOL     OW22285   0.770   0.114  13.570 -0.6724  0.4371 -0.0864
 3550SOL    HW122286   0.720   0.032  13.571  0.4996 -0.2946 -1.4250
 3550SOL    HW222287   0.850   0.100  13.619  0.0932 -0.7048 -1.6396
 3551SOL     OW22288   2.461   1.700  14.187  0.0908  0.2688  0.7476
 3551SOL    HW122289   2.391   1.764  14.198 -0.5758 -0.1551 -0.9646
 3551SOL    HW222290   2.437   1.676  14.097  0.8384  1.4938  0.2155
 3552SOL     OW22291   0.329   2.404  11.845 -0.1438 -0.0434 -0.3932
 3552SOL    HW122292   0.301   2.460  11.917  0.0295 -0.1433 -0.2494
 3552SOL    HW222293   0.400   2.358  11.890  0.6147  0.5428 -0.9952
 3553SOL     OW22294   4.272   2.147  16.528 -0.5759 -0.5740  0.1883
 3553SOL    HW122295   4.272   2.181  16.439  0.0263 -1.6283 -0.2090
 3553SOL    HW222296   4.321   2.067  16.509 -3.5271 -2.0587 -1.2276
 3554SOL     OW22297   2.817   0.028   6.801  0.1749 -0.2927 -0.0550
 3554SOL    HW122298   2.827   4.671   6.782  0.4557 -0.2803  0.0222
 3554SOL    HW222299   2.841   0.032   6.893  0.4726 -1.7474 -0.0632
 3555SOL     OW22300   2.647   2.050   7.760  0.0958 -0.1836  0.7890
 3555SOL    HW122301   2.719   1.992   7.787 -1.2723 -1.7190  1.1200
 3555SOL    HW222302   2.589   2.039   7.836 -1.2160  1.2877  0.0054
 3556SOL     OW22303   4.266   0.534   7.738  0.2435 -0.2927  0.1404
 3556SOL    HW122304   4.264   0.496   7.825  0.2992 -0.6186  0.0002
 3556SOL    HW222305   4.214   0.615   7.740  0.6925 -0.1165  3.6224
 3557SOL     OW22306   4.097   4.652   0.619  0.3233 -0.7677  0.1828
 3557SOL    HW122307   4.108   0.005   0.650  1.5575 -0.9205  0.1815
 3557SOL    HW222308   4.184   4.611   0.624  0.4706 -0.4944 -0.1391
 3558SOL     OW22309   3.166   2.000   7.148  0.1150 -0.5323 -0.0194
 3558SOL    HW122310   3.215   2.080   7.169 -1.2466 -0.2131  1.9928
 3558SOL    HW222311   3.232   1.931   7.141 -0.8805 -1.4500 -0.2925
 3559SOL     OW22312   2.280   4.680   4.572 -0.1544 -0.4842  0.6649
 3559SOL    HW122313   2.309   4.590   4.590  0.4647 -1.0550 -3.3344
 3559SOL    HW222314   2.201   4.669   4.519  0.4985 -0.8857 -0.2231
 3560SOL     OW22315   3.070   4.469   9.518 -0.7136 -0.1130  0.2056
 3560SOL    HW122316   3.045   4.419   9.595 -0.2625 -0.6793 -0.0170
 3560SOL    HW222317   3.077   4.559   9.552  0.7441 -0.0590 -0.2101
 3561SOL     OW22318   0.282   1.421   9.523  0.1622 -0.8422 -0.6714
 3561SOL    HW122319   0.279   1.389   9.433  3.1090  0.4787 -1.2160
 3561SOL    HW222320   0.290   1.342   9.577 -0.3234  1.5892  2.9182
 3562SOL     OW22321   2.234   0.458  11.218  0.4254 -0.2904  0.1570
 3562SOL    HW122322   2.325   0.445  11.189  0.3241  1.9046 -1.1641
 3562SOL    HW222323   2.245   0.476  11.311  2.3846 -0.4073 -0.0471
 3563SOL     OW22324   0.604   0.343  12.673  0.0660 -0.3726 -0.7858
 3563SOL    HW122325   0.649   0.319  12.755 -0.5152 -1.3243 -0.7409
 3563SOL    HW222326   0.672   0.319  12.610  0.9923 -0.0350  0.0771
 3564SOL     OW22327   4.100   0.474   5.967 -0.3101 -0.0556 -0.2638
 3564SOL    HW122328   4.185   0.464   6.011 -0.9377 -0.4985  0.8381
 3564SOL    HW222329   4.108   0.448   5.875  1.1384  0.6543 -0.3505
 3565SOL     OW22330   2.693   4.083   5.246 -0.2660 -0.2216  0.7830
 3565SOL    HW122331   2.699   4.178   5.252  1.4423 -0.1939 -1.6847
 3565SOL    HW222332   2.682   4.063   5.339  0.3224 -3.0083  0.2497
 3566SOL     OW22333   0.943   3.297   6.138  0.0329  0.7118 -0.2538
 3566SOL    HW122334   0.867   3.354   6.125 -0.8318 -0.9409 -2.3243
 3566SOL    HW222335   1.008   3.359   6.103  1.9006 -1.4690 -0.5973
 3567SOL     OW22336   0.367   2.215   2.202 -0.4673  0.1960 -0.0267
 3567SOL    HW122337   0.395   2.221   2.293 -0.8293  0.9248  0.0431
 3567SOL    HW222338   0.305   2.288   2.193  0.5435  1.0712  0.0447
 3568SOL     OW22339   3.397   3.814   2.834 -0.4047  0.3384 -0.1759
 3568SOL    HW122340   3.384   3.730   2.790 -1.1631 -0.3832  1.4482
 3568SOL    HW222341   3.441   3.786   2.914  0.6662  0.4966 -0.7049
 3569SOL     OW22342   0.179   1.500   2.279  0.2587  0.6219 -0.0016
 3569SOL    HW122343   0.108   1.553   2.314  0.7657  1.4097 -0.1509
 3569SOL    HW222344   0.237   1.509   2.355  0.4316  1.4485 -0.2315
 3570SOL     OW22345   3.293   1.998   5.806  0.2440  0.3982  0.4387
 3570SOL    HW122346   3.261   2.042   5.728  0.2932 -1.1563 -0.4511
 3570SOL    HW222347   3.230   2.041   5.865  0.1268 -1.1310  1.4222
 3571SOL     OW22348   2.068   4.119   6.695  0.0702  0.1511 -0.2066
 3571SOL    HW122349   2.096   4.029   6.709  2.8922  0.9908 -0.4887
 3571SOL    HW222350   1.993   4.114   6.635  1.6155  1.1756 -2.2396
 3572SOL     OW22351   3.504   4.555  10.514  0.7185 -0.2844 -0.7044
 3572SOL    HW122352   3.524   4.530  10.605 -0.0448  0.7433 -0.2543
 3572SOL    HW222353   3.574   4.617  10.495 -0.2228  0.2430 -2.3868
 3573SOL     OW22354   0.412   1.741   9.940 -0.5030 -0.4770 -0.3109
 3573SOL    HW122355   0.470   1.813   9.965 -2.1312  0.0197  1.9531
 3573SOL    HW222356   0.433   1.732   9.847  2.3738 -1.5271  0.4461
 3574SOL     OW22357   3.212   1.893   4.862  0.2980  0.1022 -0.5879
 3574SOL    HW122358   3.224   1.960   4.929  0.3824 -0.9927  0.4853
 3574SOL    HW222359   3.284   1.831   4.874 -1.9123 -2.2639  0.2612
 3575SOL     OW22360   0.479   1.309   3.827 -0.1860  0.3122  0.4050
 3575SOL    HW122361   0.489   1.300   3.732  0.1266 -0.3315  0.4963
 3575SOL    HW222362   0.561   1.354   3.846  1.2358 -2.4012  0.7983
 3576SOL     OW22363   3.281   0.956  14.878 -0.0256  0.5325  0.0684
 3576SOL    HW122364   3.212   0.993  14.932 -0.5976  0.1864 -0.4290
 3576SOL    HW222365   3.232   0.931  14.800 -1.1661 -2.5278  1.7628
 3577SOL     OW22366   2.943   2.520   3.577 -0.0771  0.0519  0.8627
 3577SOL    HW122367   2.972   2.433   3.603  1.4978  0.3190 -0.0048
 3577SOL    HW222368   3.015   2.566   3.534 -0.5391  1.0329  1.1412
 3578SOL     OW22369   3.113   0.676  12.249  0.1976  0.1875  0.1956
 3578SOL    HW122370   3.197   0.714  12.274 -0.0473  1.3454 -0.7872
 3578SOL    HW222371   3.120   0.595  12.300 -0.4906 -0.7544 -1.2201
 3579SOL     OW22372   2.935   0.525   5.967  0.4496 -0.1754 -0.4223
 3579SOL    HW122373   2.996   0.495   6.034  1.1616  1.1702 -0.4824
 3579SOL    HW222374   2.955   0.461   5.898 -0.4683 -0.1465 -0.7159
 3580SOL     OW22375   4.084   1.324   2.735 -0.1107  0.3711 -0.5837
 3580SOL    HW122376   4.098   1.391   2.668  2.1000  0.8576  0.3638
 3580SOL    HW222377   3.989   1.316   2.730 -0.0220 -0.9174 -0.0677
 3581SOL     OW22378   2.299   3.394  10.095  0.0059  0.1620 -0.1687
 3581SOL    HW122379   2.266   3.404  10.184  0.0279  1.9086 -0.3505
 3581SOL    HW222380   2.368   3.328  10.106  0.2808  0.6680  1.0891
 3582SOL     OW22381   3.143   0.084   2.665  0.1242 -0.2519 -0.0099
 3582SOL    HW122382   3.205   0.099   2.593  1.5179 -1.9689  0.8404
 3582SOL    HW222383   3.193   0.021   2.717 -0.9038 -1.8102 -0.9037
 3583SOL     OW22384   1.870   3.002  13.749  0.3956  0.0978 -0.2884
 3583SOL    HW122385   1.900   3.036  13.834 -1.7412  1.3170 -0.0236
 3583SOL    HW222386   1.787   3.046  13.731 -0.2094 -0.5217  0.9575
 3584SOL     OW22387   4.289   4.346  15.253 -0.6166  0.3684  0.8027
 3584SOL    HW122388   4.242   4.415  15.207 -1.3742 -1.0617 -0.5980
 3584SOL    HW222389   4.218   4.289  15.286  0.8792 -1.7504  0.3622
 3585SOL     OW22390   2.206   3.714   9.188 -0.4285 -0.0197 -0.1270
 3585SOL    HW122391   2.211   3.696   9.094  1.7837  0.3367 -0.0736
 3585SOL    HW222392   2.274   3.659   9.227  1.5882  2.2551 -0.4375
 3586SOL     OW22393   2.888   0.572  11.442 -0.1548  0.0372  0.1052
 3586SOL    HW122394   2.873   0.479  11.425 -0.9368  0.4279 -1.3338
 3586SOL    HW222395   2.973   0.566  11.485 -0.3888  0.7205  0.6688
 3587SOL     OW22396   1.085   1.142   6.660 -0.4338  0.5537  0.5141
 3587SOL    HW122397   1.159   1.087   6.686  0.4346 -0.9454 -4.9341
 3587SOL    HW222398   1.014   1.100   6.708  0.3523 -0.6059  0.6531
 3588SOL     OW22399   3.824   1.734   8.395  1.0061 -0.6473  0.1706
 3588SOL    HW122400   3.772   1.785   8.334 -1.6809 -0.2332  2.8262
 3588SOL    HW222401   3.877   1.693   8.327 -0.4929  1.6912 -2.3753
 3589SOL     OW22402   0.013   0.345   2.257 -0.6745  0.0058 -0.3244
 3589SOL    HW122403   0.061   0.372   2.335 -1.6044  0.5850  0.0499
 3589SOL    HW222404   0.075   0.298   2.201 -1.3969 -1.0894 -0.1943
 3590SOL     OW22405   3.842   3.434   7.738  0.4431  0.2798 -0.3295
 3590SOL    HW122406   3.809   3.504   7.794  2.6178 -0.5941  2.0604
 3590SOL    HW222407   3.896   3.388   7.803  0.8873  2.3231  0.7591
 3591SOL     OW22408   0.867   0.170  11.088  0.0411  0.2461 -0.4232
 3591SOL    HW122409   0.906   0.242  11.038  1.4167  0.9719  1.7264
 3591SOL    HW222410   0.945   0.118  11.109 -0.1683 -0.0107 -0.2816
 3592SOL     OW22411   0.913   1.101   6.052 -0.2572  0.0915 -0.5753
 3592SOL    HW122412   0.834   1.052   6.075 -0.7928  1.2512  0.0853
 3592SOL    HW222413   0.883   1.139   5.970 -0.0733  2.9553  0.6755
 3593SOL     OW22414   2.051   0.994   4.516 -0.7344 -0.3673 -0.1451
 3593SOL    HW122415   2.114   1.053   4.475  1.4874 -2.5619  0.1298
 3593SOL    HW222416   2.038   0.943   4.436  0.5174  1.0267 -1.2503
 3594SOL     OW22417   4.349   1.644  11.584  0.1844 -0.3480 -0.0554
 3594SOL    HW122418   4.318   1.709  11.521 -0.1790  0.6295  1.1285
 3594SOL    HW222419   4.270   1.615  11.629  2.3417 -0.3691  3.7508
 3595SOL     OW22420   1.236   1.681   5.094  0.2123 -0.4171  0.0140
 3595SOL    HW122421   1.193   1.698   5.178  0.2976  1.8099 -0.4002
 3595SOL    HW222422   1.205   1.593   5.073 -1.7822 -0.0027  1.1536
 3596SOL     OW22423   1.662   4.641   1.586  0.0315 -0.1078  0.4297
 3596SOL    HW122424   1.642   4.661   1.678  1.9081 -1.4971  1.1575
 3596SOL    HW222425   1.650   4.546   1.594  0.6475 -0.2940 -1.0013
 3597SOL     OW22426   0.685   0.722  17.096  0.2432 -0.3841  0.2185
 3597SOL    HW122427   0.665   0.730  17.190  1.3883  0.3395  0.3991
 3597SOL    HW222428   0.672   0.628  17.084 -0.5541 -0.0988 -1.1641
 3598SOL     OW22429   1.664   3.378   3.721 -0.0304  0.1257 -0.4612
 3598SOL    HW122430   1.708   3.333   3.649 -1.1687 -0.4390 -0.8052
 3598SOL    HW222431   1.730   3.445   3.740  0.1482 -0.7449  1.9758
 3599SOL     OW22432   0.366   1.535   3.498  0.3082 -0.0262 -0.4352
 3599SOL    HW122433   0.337   1.493   3.417 -2.9804  0.2244  0.6130
 3599SOL    HW222434   0.411   1.608   3.456 -1.7178  0.5914 -1.5148
 3600SOL     OW22435   2.533   2.154   3.927  0.4636 -0.2707  0.3728
 3600SOL    HW122436   2.564   2.064   3.939  1.1928  0.0028  0.5379
 3600SOL    HW222437   2.498   2.149   3.838  0.1349 -3.3187  0.6646
 3601SOL     OW22438   4.157   3.064   2.346 -0.2141 -0.2358  0.1135
 3601SOL    HW122439   4.246   3.069   2.379  0.3506 -2.0102 -1.1326
 3601SOL    HW222440   4.122   3.150   2.369 -1.5640 -0.4234 -1.2256
 3602SOL     OW22441   1.156   3.932   3.290 -0.0859 -0.4544  0.0684
 3602SOL    HW122442   1.151   3.840   3.316 -1.7947  0.1557  1.8367
 3602SOL    HW222443   1.224   3.925   3.223  1.8223  0.7992  1.8779
 3603SOL     OW22444   4.381   1.298  12.531  0.0988 -0.1690 -0.0848
 3603SOL    HW122445   4.354   1.211  12.562  0.1414  0.3393  1.3978
 3603SOL    HW222446   4.294   1.340  12.526  0.2379  0.1325  0.0222
 3604SOL     OW22447   0.328   0.806   4.661  0.2960 -0.4754 -0.1628
 3604SOL    HW122448   0.235   0.821   4.676  0.4944  0.2468  0.3255
 3604SOL    HW222449   0.343   0.747   4.735  2.1622  1.3023  0.8453
 3605SOL     OW22450   2.968   0.070   8.011  0.2190  0.0409  0.1342
 3605SOL    HW122451   3.059   0.098   8.006  0.3242 -0.3516 -0.1592
 3605SOL    HW222452   2.953   0.068   8.105  1.1928  2.0810  0.3291
 3606SOL     OW22453   0.592   3.823   8.294 -0.4064 -0.4449 -0.1253
 3606SOL    HW122454   0.557   3.809   8.206 -0.8955  0.9916 -0.1513
 3606SOL    HW222455   0.645   3.902   8.286 -0.1194 -0.6419 -0.1513
 3607SOL     OW22456   0.401   4.714   5.800 -0.2428  0.0011  0.3731
 3607SOL    HW122457   0.456   4.646   5.763 -0.6110 -0.1177  0.0448
 3607SOL    HW222458   0.338   4.735   5.731  0.9040  1.7814 -0.1115
 3608SOL     OW22459   4.514   3.298   3.183 -0.2330 -0.6453 -0.0673
 3608SOL    HW122460   4.440   3.257   3.228 -0.9918  1.0476  0.2500
 3608SOL    HW222461   4.497   3.296   3.088 -1.6270 -1.0570  0.1820
 3609SOL     OW22462   1.425   0.907   1.444 -0.7762 -0.3826  0.5364
 3609SOL    HW122463   1.516   0.878   1.433 -0.4501  1.2156 -0.9800
 3609SOL    HW222464   1.424   0.988   1.394  1.6800 -1.5846 -1.4513
 3610SOL     OW22465   3.987   4.494   3.969  0.7432  0.4604  0.3467
 3610SOL    HW122466   4.038   4.432   4.023  1.1249  1.2346  0.8795
 3610SOL    HW222467   4.053   4.555   3.935  1.4554  0.1681  1.1928
 3611SOL     OW22468   2.578   3.109   4.553  0.1034 -0.2475 -0.3713
 3611SOL    HW122469   2.622   3.037   4.508  0.9887 -0.6191  1.1167
 3611SOL    HW222470   2.531   3.142   4.476 -0.2221  1.4464  0.5659
 3612SOL     OW22471   3.042   2.591   7.518 -0.3629  0.4958  0.0326
 3612SOL    HW122472   3.131   2.589   7.552 -1.5074 -2.6874  2.7576
 3612SOL    HW222473   3.002   2.663   7.568  0.4350  1.2528 -0.4046
 3613SOL     OW22474   3.465   3.793   6.222  0.4205  0.1219 -0.0650
 3613SOL    HW122475   3.501   3.739   6.151 -0.6536 -0.2712 -0.3123
 3613SOL    HW222476   3.418   3.862   6.175  0.9899 -1.1224 -2.5106
 3614SOL     OW22477   0.343   2.512   2.645 -0.2073 -0.1318  0.5210
 3614SOL    HW122478   0.400   2.490   2.718 -0.1797  2.2807  1.2239
 3614SOL    HW222479   0.260   2.472   2.669 -0.1124 -0.5351  0.1748
 3615SOL     OW22480   2.590   2.625   0.691 -0.1063 -0.3327 -0.0558
 3615SOL    HW122481   2.502   2.626   0.729  0.7631 -0.8763  2.0091
 3615SOL    HW222482   2.573   2.598   0.601  4.1346 -0.7765 -0.6896
 3616SOL     OW22483   0.268   0.275   3.447 -0.0314  0.7274 -0.0729
 3616SOL    HW122484   0.222   0.242   3.524  0.8021  0.7410  0.4369
 3616SOL    HW222485   0.246   0.204   3.386  3.2472 -0.3426 -0.0236
 3617SOL     OW22486   2.808   1.437   2.519 -0.1407 -0.4095 -0.3605
 3617SOL    HW122487   2.901   1.452   2.533  0.2086 -0.3857 -2.6777
 3617SOL    HW222488   2.784   1.430   2.611 -1.0149  0.2003 -0.5332
 3618SOL     OW22489   2.965   2.055   5.668  0.4823  0.1613 -0.1914
 3618SOL    HW122490   2.913   2.097   5.600 -2.6067 -2.4048  0.5682
 3618SOL    HW222491   3.040   2.031   5.615 -0.1292  1.5967 -1.7069
 3619SOL     OW22492   0.221   3.093  11.483 -0.4842 -0.1112  0.6657
 3619SOL    HW122493   0.195   3.184  11.470 -0.3140 -0.4005 -1.7214
 3619SOL    HW222494   0.316   3.093  11.471 -0.6113 -3.8332 -0.3212
 3620SOL     OW22495   2.755   1.910   4.767  0.7421 -0.3256 -0.0287
 3620SOL    HW122496   2.673   1.863   4.751 -0.0655  1.3741 -0.7895
 3620SOL    HW222497   2.797   1.854   4.833 -1.1748 -2.0399 -0.2293
 3621SOL     OW22498   1.438   0.561  10.859  0.1323 -0.1779 -0.3709
 3621SOL    HW122499   1.528   0.584  10.833  0.2871 -1.5312 -1.0388
 3621SOL    HW222500   1.395   0.645  10.870  1.2054  0.6508 -2.5094
 3622SOL     OW22501   4.614   2.818   2.378 -0.0945  0.2191 -0.0756
 3622SOL    HW122502   4.697   2.804   2.331 -0.3506  0.8163 -0.7080
 3622SOL    HW222503   4.651   2.849   2.461 -1.1105  0.8609  0.1300
 3623SOL     OW22504   0.949   2.088   4.574  0.2381 -0.4430 -0.1951
 3623SOL    HW122505   1.044   2.099   4.580  0.2818  0.3024 -2.1839
 3623SOL    HW222506   0.937   2.045   4.489 -1.4363 -0.0346 -0.1530
 3624SOL     OW22507   1.260   3.539   7.660  0.2189 -0.0016  0.2043
 3624SOL    HW122508   1.221   3.470   7.714  0.4430 -0.8974 -0.7685
 3624SOL    HW222509   1.281   3.483   7.585  2.5669  0.7497  0.2973
 3625SOL     OW22510   1.588   0.889   2.063 -0.9180  0.1042 -0.3263
 3625SOL    HW122511   1.533   0.950   2.113  0.4867 -1.2604  2.9234
 3625SOL    HW222512   1.548   0.883   1.976 -0.9952 -2.5779 -0.1260
 3626SOL     OW22513   0.348   1.551   2.489 -0.8401  0.3355 -0.7967
 3626SOL    HW122514   0.436   1.556   2.451 -0.2370  0.1855  0.5645
 3626SOL    HW222515   0.335   1.640   2.524  1.0802  0.3472 -0.0756
 3627SOL     OW22516   1.450   2.825   6.690  0.4450  0.2047  0.3767
 3627SOL    HW122517   1.365   2.835   6.647 -0.0320 -3.6860  0.3613
 3627SOL    HW222518   1.425   2.850   6.779 -4.1672 -1.3535 -0.4760
 3628SOL     OW22519   1.206   0.787   8.765 -0.5115 -0.0851 -0.0145
 3628SOL    HW122520   1.271   0.727   8.802  0.3664  1.2364  0.6072
 3628SOL    HW222521   1.120   0.745   8.769 -1.7219  2.4094  0.0900
 3629SOL     OW22522   2.789   0.151   4.633  0.1952  0.4279 -0.3405
 3629SOL    HW122523   2.696   0.156   4.656  0.1559 -0.9003 -0.2282
 3629SOL    HW222524   2.786   0.094   4.556  1.3629  1.3137 -1.0391
 3630SOL     OW22525   0.989   2.438  15.634 -0.2346 -0.2176 -0.5854
 3630SOL    HW122526   1.026   2.424  15.721  0.3686  0.8587 -0.6757
 3630SOL    HW222527   1.045   2.376  15.587 -0.8308 -0.7365 -0.6103
 3631SOL     OW22528   2.226   4.058   2.930 -0.3870 -0.1299 -0.1588
 3631SOL    HW122529   2.253   4.048   3.022  0.0080  2.5063  0.0223
 3631SOL    HW222530   2.181   4.142   2.930  0.9505  0.5887  0.3509
 3632SOL     OW22531   2.082   1.387   1.631 -0.1022 -0.1498 -0.0475
 3632SOL    HW122532   2.110   1.296   1.632 -1.0649 -0.4472 -0.3333
 3632SOL    HW222533   2.166   1.432   1.637  0.9443 -2.2664  1.0857
 3633SOL     OW22534   0.268   4.326   8.416 -0.3419  0.1719  0.6546
 3633SOL    HW122535   0.281   4.271   8.493 -0.3365  1.2608  1.4297
 3633SOL    HW222536   0.329   4.276   8.360  0.6305  1.8372  0.2264
 3634SOL     OW22537   0.370   1.158   7.535  0.2554 -0.2936 -0.0233
 3634SOL    HW122538   0.294   1.207   7.565 -0.3585 -1.1817 -0.1269
 3634SOL    HW222539   0.374   1.094   7.606  0.2928 -0.7125 -0.4060
 3635SOL     OW22540   0.154   0.088   3.624  0.3485 -0.4708 -0.5244
 3635SOL    HW122541   0.071   0.051   3.594  0.8749 -0.9863 -1.3611
 3635SOL    HW222542   0.128   0.125   3.708 -0.0764  0.1350 -0.9193
 3636SOL     OW22543   0.034   4.150   7.568 -0.0074 -0.1633 -0.1230
 3636SOL    HW122544   4.679   4.172   7.581 -0.0368 -0.4977  0.2313
 3636SOL    HW222545   0.043   4.160   7.474  1.0143  0.9111  0.0852
 3637SOL     OW22546   3.088   0.138  12.368 -0.5520 -0.2100  0.0064
 3637SOL    HW122547   3.093   0.156  12.274 -1.5515 -1.2948 -0.2575
 3637SOL    HW222548   3.026   0.209  12.383 -1.7075 -1.4283  0.9286
 3638SOL     OW22549   2.021   0.541   1.408 -0.1973  0.5158 -0.0643
 3638SOL    HW122550   2.003   0.447   1.418  1.6028  0.1853  0.0302
 3638SOL    HW222551   2.083   0.538   1.335 -1.2147 -3.0263 -0.7873
 3639SOL     OW22552   0.577   3.578   9.175 -0.2906  0.1558  0.2654
 3639SOL    HW122553   0.515   3.641   9.211 -1.2116  0.3603 -1.6555
 3639SOL    HW222554   0.659   3.628   9.178 -1.9975  2.9038  0.6842
 3640SOL     OW22555   2.899   3.949   4.689 -0.0315  0.2018  0.1801
 3640SOL    HW122556   2.906   3.887   4.616 -0.9616  0.3243 -0.0056
 3640SOL    HW222557   2.960   3.907   4.750  1.2253 -1.6344 -2.3806
 3641SOL     OW22558   4.170   1.654   8.446 -0.1329 -0.4995  0.6363
 3641SOL    HW122559   4.248   1.668   8.499  1.0858 -2.6986 -0.6006
 3641SOL    HW222560   4.104   1.626   8.510 -2.6558  0.6949 -1.4227
 3642SOL     OW22561   3.399   1.823   7.124 -0.0889 -0.2500 -0.0165
 3642SOL    HW122562   3.416   1.769   7.201  0.0049  2.8387  2.1054
 3642SOL    HW222563   3.365   1.753   7.068 -0.1209 -1.2746  1.2950
 3643SOL     OW22564   4.063   0.787  10.752 -0.0929  0.0077 -0.6423
 3643SOL    HW122565   3.978   0.772  10.710  1.7727 -2.8671 -3.3715
 3643SOL    HW222566   4.116   0.712  10.726 -0.1474 -0.1650 -0.2499
 3644SOL     OW22567   3.164   2.050  11.364  0.7713 -0.0499 -0.1580
 3644SOL    HW122568   3.221   1.974  11.372  0.1238 -0.4413  0.7556
 3644SOL    HW222569   3.082   2.021  11.325 -0.2791  2.2008  0.3567
 3645SOL     OW22570   3.165   0.370  10.247  0.1050 -0.0640 -0.5470
 3645SOL    HW122571   3.077   0.338  10.225 -0.8817  4.0554 -2.5972
 3645SOL    HW222572   3.154   0.363  10.342  1.5002  2.4564 -0.1830
 3646SOL     OW22573   3.243   0.354  14.234 -0.3072  0.6959 -0.8620
 3646SOL    HW122574   3.203   0.295  14.170 -0.2606 -0.4164  0.1395
 3646SOL    HW222575   3.168   0.407  14.262  1.2465  2.1973  0.5100
 3647SOL     OW22576   2.487   3.931   7.174 -0.1278 -0.4354 -0.0525
 3647SOL    HW122577   2.499   3.872   7.100 -0.7672  0.0846 -0.5672
 3647SOL    HW222578   2.523   4.010   7.134 -1.7508  1.2021  1.7011
 3648SOL     OW22579   3.005   3.336  16.293  0.0519 -0.6236  0.6305
 3648SOL    HW122580   2.987   3.265  16.355 -0.9000  0.2221  1.3123
 3648SOL    HW222581   2.994   3.290  16.210  0.7506  1.3083 -0.5374
 3649SOL     OW22582   2.726   0.921   2.252  0.5382 -0.0417  0.2995
 3649SOL    HW122583   2.682   0.853   2.201  1.6000 -0.9602  0.5993
 3649SOL    HW222584   2.668   0.996   2.242  0.9202  0.4949  2.1956
 3650SOL     OW22585   1.600   0.654   8.043 -0.2659 -0.0283  0.1992
 3650SOL    HW122586   1.592   0.591   8.115  0.3128 -0.7149 -0.3344
 3650SOL    HW222587   1.632   0.594   7.975  1.6682  0.7158  0.4629
 3651SOL     OW22588   0.911   1.860  13.415  0.0258 -0.2339  0.0889
 3651SOL    HW122589   0.915   1.774  13.373 -0.9466  1.0852 -2.7014
 3651SOL    HW222590   0.840   1.848  13.478  0.4966  0.2280  0.7050
 3652SOL     OW22591   4.422   2.561   9.997 -0.1823 -0.2623  0.1657
 3652SOL    HW122592   4.498   2.614   9.977 -0.7586 -0.3987 -2.3160
 3652SOL    HW222593   4.370   2.578   9.919  0.0778 -0.4886 -0.0545
 3653SOL     OW22594   1.525   1.093   0.298 -0.2008  0.0446  0.1883
 3653SOL    HW122595   1.508   1.186   0.285 -1.0384 -0.4708 -2.5054
 3653SOL    HW222596   1.586   1.097   0.224  0.3111  2.8400  0.7778
 3654SOL     OW22597   2.445   0.002   9.449  0.2384  0.3338  0.1982
 3654SOL    HW122598   2.536   0.031   9.443  0.2324  0.0556 -1.2832
 3654SOL    HW222599   2.404   0.088   9.463 -1.2902 -0.3687  0.0058
 3655SOL     OW22600   2.130   3.955   3.386 -0.3040 -0.8368  0.2027
 3655SOL    HW122601   2.067   4.014   3.344  1.0908  1.0878  0.8453
 3655SOL    HW222602   2.198   3.960   3.319  0.3076 -1.2829  0.7988
 3656SOL     OW22603   0.940   2.877   7.095 -0.1544  0.3630 -0.3069
 3656SOL    HW122604   0.996   2.907   7.023 -0.1655  2.9689  0.7626
 3656SOL    HW222605   0.918   2.789   7.065  0.4297  0.4047 -0.8737
 3657SOL     OW22606   4.663   4.168   2.033 -0.2727 -0.1989 -0.3555
 3657SOL    HW122607   4.693   4.093   1.980 -0.5357 -0.5423 -0.0165
 3657SOL    HW222608   4.631   4.125   2.112  0.5065 -0.0677  0.0345
 3658SOL     OW22609   3.368   0.521  11.569 -0.6131  0.2109 -0.5259
 3658SOL    HW122610   3.449   0.558  11.533 -0.4457 -0.5685 -0.9282
 3658SOL    HW222611   3.336   0.482  11.488  1.3300 -1.8058 -0.3277
 3659SOL     OW22612   0.781   0.110   4.353  0.4664 -0.0884  0.3576
 3659SOL    HW122613   0.734   0.034   4.317 -1.0629  1.4194 -0.8374
 3659SOL    HW222614   0.737   0.117   4.438 -0.1680 -4.3403  0.3805
 3660SOL     OW22615   1.206   1.040  14.333  0.4422 -0.5001 -0.0820
 3660SOL    HW122616   1.272   0.970  14.336  0.6850 -0.2859 -0.3793
 3660SOL    HW222617   1.189   1.035  14.239  1.0236 -0.8772 -0.1651
 3661SOL     OW22618   3.823   3.793  17.107 -0.4460  0.0082 -0.8121
 3661SOL    HW122619   3.782   3.707  17.097 -0.5699 -0.0363  0.0491
 3661SOL    HW222620   3.896   3.766  17.163 -0.2646 -0.3809 -1.2309
 3662SOL     OW22621   0.158   2.390   2.918 -0.1563  0.3702 -0.4020
 3662SOL    HW122622   0.250   2.366   2.926 -0.3233 -0.1620 -0.1124
 3662SOL    HW222623   0.160   2.476   2.959  0.5452 -0.0291  0.3870
 3663SOL     OW22624   1.991   3.724   1.047 -0.0415  0.5058  0.4498
 3663SOL    HW122625   1.968   3.656   1.111  0.5542  0.6314  0.7954
 3663SOL    HW222626   2.076   3.695   1.013 -2.0074 -2.2209 -2.1416
 3664SOL     OW22627   0.352   4.704   9.358 -0.1265 -0.4254 -0.6594
 3664SOL    HW122628   0.265   4.681   9.325 -0.8642 -0.2526  1.1643
 3664SOL    HW222629   0.348   4.721   9.453  1.0839  1.3622 -0.9337
 3665SOL     OW22630   0.131   4.218   0.688  0.1509 -0.1585 -0.0576
 3665SOL    HW122631   0.040   4.240   0.707  0.5276  0.0820  1.5118
 3665SOL    HW222632   0.173   4.257   0.764  1.9183  0.1586 -1.1961
 3666SOL     OW22633   2.492   2.922   7.574 -0.0850  1.3020 -0.1732
 3666SOL    HW122634   2.529   2.955   7.656  0.8460 -0.5629  0.1704
 3666SOL    HW222635   2.564   2.865   7.548  0.4661  2.2015 -0.6400
 3667SOL     OW22636   4.713   1.312   3.898  0.4832  0.0705 -0.2719
 3667SOL    HW122637   4.641   1.273   3.947  0.4071  2.2152  1.3433
 3667SOL    HW222638   0.012   1.244   3.841  0.0454  0.1888 -0.6939
 3668SOL     OW22639   1.363   4.634   3.282  0.0106  0.4534 -0.3898
 3668SOL    HW122640   1.408   4.630   3.366 -1.1465 -0.3142  0.1841
 3668SOL    HW222641   1.298   4.565   3.288 -0.9274  1.1441 -2.6726
 3669SOL     OW22642   3.609   1.077   2.664  0.0154  0.2901 -0.2216
 3669SOL    HW122643   3.566   1.162   2.652  1.3543  0.9024 -0.6508
 3669SOL    HW222644   3.643   1.069   2.575  2.2125  3.3076  0.3431
 3670SOL     OW22645   2.156   0.475  13.934 -0.2064  0.3797 -0.6586
 3670SOL    HW122646   2.159   0.571  13.944 -1.1480  0.0700  2.6332
 3670SOL    HW222647   2.083   0.456  13.992 -1.6062  1.8003 -1.9419
 3671SOL     OW22648   4.735   1.061   4.481  0.4380 -0.0353 -0.0453
 3671SOL    HW122649   4.692   1.144   4.461  0.0278 -0.2672 -0.1225
 3671SOL    HW222650   0.069   1.053   4.417  0.9037  1.7357  0.2415
 3672SOL     OW22651   3.329   2.546   1.969 -0.1545 -0.1099  0.0223
 3672SOL    HW122652   3.314   2.460   2.009 -0.6238  0.5091  1.1683
 3672SOL    HW222653   3.248   2.553   1.918 -0.6125  0.8268  0.8723
 3673SOL     OW22654   2.984   4.203   5.096  0.0219  0.0337  0.1562
 3673SOL    HW122655   2.913   4.267   5.105 -0.5871 -0.2264 -2.7035
 3673SOL    HW222656   2.943   4.134   5.044 -2.1562 -0.9343  3.1904
 3674SOL     OW22657   4.167   3.507  17.506 -0.0258  0.1066  0.2234
 3674SOL    HW122658   4.164   3.438  17.573 -0.5664  1.6316  1.7741
 3674SOL    HW222659   4.076   3.513  17.479 -0.1323  3.1761  1.3162
 3675SOL     OW22660   4.269   0.536   4.141  0.1014  0.1556  0.3133
 3675SOL    HW122661   4.364   0.542   4.149 -0.1111  3.0881  0.5023
 3675SOL    HW222662   4.256   0.470   4.073 -2.4438  0.7019  0.2426
 3676SOL     OW22663   2.053   2.001   9.692  0.2688  0.4176  0.3785
 3676SOL    HW122664   2.041   1.992   9.786  1.6486  1.1766  0.6340
 3676SOL    HW222665   2.145   1.975   9.695  0.2016  0.1419 -0.0007
 3677SOL     OW22666   1.095   1.167   4.294 -0.3202  0.4144 -0.0123
 3677SOL    HW122667   1.027   1.221   4.334  1.1569  1.0310  1.7235
 3677SOL    HW222668   1.164   1.234   4.296  2.4515 -2.4598  0.9904
 3678SOL     OW22669   3.643   3.393   9.308 -0.0009  0.3545 -0.0603
 3678SOL    HW122670   3.576   3.442   9.260 -0.2344  0.7677  0.6970
 3678SOL    HW222671   3.610   3.304   9.309 -0.5773  0.5550 -0.7376
 3679SOL     OW22672   0.678   2.145  11.267  0.5028 -0.5929 -0.5007
 3679SOL    HW122673   0.724   2.131  11.350  2.9322  1.0351 -1.5666
 3679SOL    HW222674   0.747   2.134  11.201 -0.0187  0.4974 -1.2276
 3680SOL     OW22675   4.502   2.550   7.109  0.1705  0.6215 -0.2410
 3680SOL    HW122676   4.500   2.636   7.067  0.4178 -0.5707 -2.7222
 3680SOL    HW222677   4.487   2.562   7.203  1.3058 -0.7821  0.1217
 3681SOL     OW22678   0.117   3.790   5.377  0.2158  0.2301  0.0388
 3681SOL    HW122679   0.178   3.862   5.364 -1.7353  1.6563 -1.3182
 3681SOL    HW222680   0.110   3.783   5.472 -0.5593  1.5890  0.0883
 3682SOL     OW22681   2.513   3.267  15.518 -0.4485 -0.1026  0.2999
 3682SOL    HW122682   2.559   3.255  15.601 -0.6554  0.8203  0.5415
 3682SOL    HW222683   2.439   3.323  15.542 -0.2464 -0.0249  0.7372
 3683SOL     OW22684   3.609   1.462  10.559 -0.3556  0.1444 -0.1108
 3683SOL    HW122685   3.650   1.423  10.635  1.1564  1.1181 -0.4368
 3683SOL    HW222686   3.635   1.554  10.567 -1.1546  0.2970  0.7785
 3684SOL     OW22687   0.747   0.522   3.397 -0.3989  0.0180  0.0544
 3684SOL    HW122688   0.829   0.570   3.398  0.9624 -2.4183  2.9183
 3684SOL    HW222689   0.700   0.555   3.320 -0.3337 -0.9212 -0.3950
 3685SOL     OW22690   0.068   1.320  13.652  0.6227  0.5639  0.0438
 3685SOL    HW122691   0.102   1.378  13.721  1.4452 -0.1864  0.2594
 3685SOL    HW222692   4.715   1.354  13.653  1.0212  1.6287  1.7576
 3686SOL     OW22693   2.735   4.653   4.463  0.8401 -0.3885  0.1198
 3686SOL    HW122694   2.814   4.657   4.409  0.3927 -2.6102 -0.6771
 3686SOL    HW222695   2.761   4.577   4.514 -1.9647 -0.7739  0.9363
 3687SOL     OW22696   2.564   0.395  14.749 -0.0647 -0.0302  0.6856
 3687SOL    HW122697   2.655   0.365  14.746  0.1362  0.5419  1.0288
 3687SOL    HW222698   2.577   0.470  14.806  0.1018  0.3209  0.1878
 3688SOL     OW22699   0.171   0.303   6.522  0.4585 -0.2416 -0.1643
 3688SOL    HW122700   0.090   0.284   6.474  0.9719  0.4238 -1.2767
 3688SOL    HW222701   0.131   0.334   6.603  2.4568  0.8920  0.3872
 3689SOL     OW22702   2.803   3.329   4.650  0.1227  0.0322  0.1327
 3689SOL    HW122703   2.792   3.413   4.696 -0.5521  1.7274 -3.1050
 3689SOL    HW222704   2.767   3.268   4.715  0.0079  1.6226  1.5804
 3690SOL     OW22705   0.703   1.331   7.772  0.3257 -0.0959  0.2778
 3690SOL    HW122706   0.779   1.390   7.772  0.9236 -0.8657 -0.6997
 3690SOL    HW222707   0.632   1.395   7.784  1.6343  0.8475  3.0323
 3691SOL     OW22708   0.084   3.930   0.901 -0.0844  0.3163 -0.3404
 3691SOL    HW122709   0.167   3.976   0.890 -0.1099  0.5071  0.2248
 3691SOL    HW222710   0.100   3.838   0.880 -1.4652 -0.1156  0.5197
 3692SOL     OW22711   0.373   2.788  10.304  0.2062  1.0632 -0.3317
 3692SOL    HW122712   0.309   2.858  10.318  0.7671  1.4745  0.1549
 3692SOL    HW222713   0.426   2.812  10.227 -0.9323  1.4487 -0.9988
 3693SOL     OW22714   1.738   1.860  13.194 -0.1348  0.2147 -0.1959
 3693SOL    HW122715   1.768   1.945  13.226 -1.3065 -0.0651  1.6297
 3693SOL    HW222716   1.738   1.868  13.098  3.8131  1.2330 -0.0965
 3694SOL     OW22717   3.095   2.669   8.956  0.0110 -0.3433 -0.2801
 3694SOL    HW122718   3.125   2.671   9.047 -0.6603 -2.2320 -0.0185
 3694SOL    HW222719   3.093   2.761   8.928 -2.0742 -0.1273  0.5556
 3695SOL     OW22720   4.081   1.265   4.824 -0.3152  0.2051 -0.0203
 3695SOL    HW122721   3.996   1.238   4.860 -0.3786 -0.6631 -0.8292
 3695SOL    HW222722   4.081   1.224   4.738 -2.0364  1.7389 -0.7539
 3696SOL     OW22723   0.340   0.975   2.823  0.0403 -0.4361 -0.2285
 3696SOL    HW122724   0.394   0.960   2.745 -0.5905 -0.2857 -0.7012
 3696SOL    HW222725   0.253   0.965   2.783 -0.3739  0.7575  0.3917
 3697SOL     OW22726   0.131   0.529  16.841 -0.3674 -0.0672  0.3961
 3697SOL    HW122727   0.153   0.612  16.799 -5.1482  2.1276  2.1983
 3697SOL    HW222728   0.107   0.492  16.755 -1.6484 -0.8517  1.0881
 3698SOL     OW22729   0.431   0.423   5.377  0.1984  0.7742  0.2488
 3698SOL    HW122730   0.381   0.414   5.458 -2.4140 -0.9573 -1.5401
 3698SOL    HW222731   0.506   0.371   5.406 -1.9044 -1.9234  0.8648
 3699SOL     OW22732   0.834   3.767   6.739  0.5911  0.2656  0.7198
 3699SOL    HW122733   0.921   3.790   6.706 -0.3036  1.3165 -0.8693
 3699SOL    HW222734   0.834   3.674   6.715  0.4366 -0.0931  2.1117
 3700SOL     OW22735   0.863   1.029   4.356 -0.0241  0.4058 -0.2335
 3700SOL    HW122736   0.947   1.029   4.311 -1.0881 -1.4504 -2.1877
 3700SOL    HW222737   0.811   1.035   4.276 -0.3095 -1.0196 -0.1587
 3701SOL     OW22738   3.885   2.575   9.782  0.1772  0.0958  0.2364
 3701SOL    HW122739   3.915   2.486   9.764 -1.7236 -1.0342  2.7195
 3701SOL    HW222740   3.948   2.623   9.727  0.2300 -0.0477  0.1722
 3702SOL     OW22741   3.875   3.743   6.123  0.0878  0.1181 -0.3152
 3702SOL    HW122742   3.897   3.651   6.109  1.9801  0.5200  0.0252
 3702SOL    HW222743   3.875   3.739   6.219 -2.2234  0.5413 -0.2921
 3703SOL     OW22744   2.415   0.085   2.410  0.2954  0.3435 -0.0567
 3703SOL    HW122745   2.456   0.121   2.488  0.2511  1.2137 -0.4264
 3703SOL    HW222746   2.485   0.029   2.379  0.7697  1.7751 -1.5730
 3704SOL     OW22747   3.525   3.049   5.193 -0.0136 -0.1491 -0.2761
 3704SOL    HW122748   3.554   3.139   5.182 -3.1033  0.7276 -1.1333
 3704SOL    HW222749   3.436   3.082   5.192 -0.2044 -0.6637 -0.8213
 3705SOL     OW22750   1.527   1.313   7.358  0.0002  0.1161  0.5137
 3705SOL    HW122751   1.447   1.362   7.373  0.4273  0.6439  1.0676
 3705SOL    HW222752   1.497   1.244   7.298 -2.0896  2.0250 -0.6199
 3706SOL     OW22753   4.136   3.496   0.885  0.1119  0.0431  0.3753
 3706SOL    HW122754   4.130   3.469   0.793  0.3692  1.1018  0.0522
 3706SOL    HW222755   4.047   3.530   0.897 -0.2559 -1.1519  1.1064
 3707SOL     OW22756   1.508   4.130   8.101  0.1040  0.2335  0.5648
 3707SOL    HW122757   1.533   4.154   8.190 -0.3920  1.7628  0.3077
 3707SOL    HW222758   1.442   4.062   8.114  0.4334 -0.7854 -2.9898
 3708SOL     OW22759   2.386   0.615   3.008  0.0845 -0.2620 -0.8061
 3708SOL    HW122760   2.413   0.554   2.940  0.2228 -1.9834  0.7753
 3708SOL    HW222761   2.313   0.561   3.040 -0.0780  0.5666  0.2417
 3709SOL     OW22762   0.759   2.877   3.019 -0.8057 -0.2256 -0.3836
 3709SOL    HW122763   0.719   2.929   3.089 -1.3190 -1.4553  0.2484
 3709SOL    HW222764   0.698   2.883   2.946 -0.4091  3.4100 -0.4198
 3710SOL     OW22765   4.429   1.078   3.428  0.1252  0.1586  0.1552
 3710SOL    HW122766   4.390   1.155   3.386  0.6484 -1.2448 -2.8316
 3710SOL    HW222767   4.380   1.003   3.394  2.0686 -0.5298 -1.0654
 3711SOL     OW22768   1.326   1.515  13.404 -0.1552 -0.5552  0.4715
 3711SOL    HW122769   1.393   1.493  13.470  2.8954 -1.6223 -2.9912
 3711SOL    HW222770   1.332   1.436  13.350 -1.0054 -1.3914  1.6106
 3712SOL     OW22771   0.432   0.031  11.681 -0.8493  0.0643  0.4207
 3712SOL    HW122772   0.355   4.711  11.676 -0.7449 -0.1120  0.8602
 3712SOL    HW222773   0.443   0.054  11.589  1.2387 -2.4446  0.0236
 3713SOL     OW22774   1.582   1.453   8.510  0.0042 -0.1859  0.6200
 3713SOL    HW122775   1.541   1.405   8.438  0.7125  1.2999 -0.7818
 3713SOL    HW222776   1.635   1.386   8.554 -0.5637  0.4215  2.2260
 3714SOL     OW22777   1.783   0.828   2.292  0.2904  0.3951  0.0825
 3714SOL    HW122778   1.746   0.915   2.307 -0.0067  0.1513  0.7363
 3714SOL    HW222779   1.786   0.830   2.196  0.7885  1.7770  0.1340
 3715SOL     OW22780   3.340   1.001  12.041 -0.0828 -0.5779  0.7736
 3715SOL    HW122781   3.261   0.967  11.998  0.6041 -1.1805 -0.0236
 3715SOL    HW222782   3.388   0.923  12.067 -1.1906 -1.5321 -0.0295
 3716SOL     OW22783   2.047   0.306   1.826  0.1208  0.1812  0.3542
 3716SOL    HW122784   2.109   0.302   1.753 -0.0561  2.4898  0.0696
 3716SOL    HW222785   2.091   0.246   1.885  0.8556  0.9991  0.6445
 3717SOL     OW22786   1.378   0.591   6.414 -0.5182  0.1496  0.4807
 3717SOL    HW122787   1.452   0.552   6.367 -0.1944  1.9181 -0.4887
 3717SOL    HW222788   1.366   0.665   6.355 -0.8578  1.3508  2.0618
 3718SOL     OW22789   3.955   4.343   2.475 -0.5316  0.2563  0.2146
 3718SOL    HW122790   3.872   4.368   2.516 -0.8865  0.4296 -0.6094
 3718SOL    HW222791   3.923   4.286   2.405  1.5710 -2.0724  1.1784
 3719SOL     OW22792   3.596   2.152   2.857 -0.6645 -0.1750  0.3104
 3719SOL    HW122793   3.546   2.232   2.836 -1.9044 -0.5446  1.8249
 3719SOL    HW222794   3.670   2.155   2.797 -0.4926  0.2777  0.5497
 3720SOL     OW22795   2.453   4.123   8.784 -0.7306 -0.0761 -0.1821
 3720SOL    HW122796   2.436   4.212   8.753 -0.2590 -0.9580 -2.9723
 3720SOL    HW222797   2.477   4.072   8.707  2.7685  1.9652 -0.4391
 3721SOL     OW22798   0.673   4.228   2.193  0.8011 -0.3354  0.4460
 3721SOL    HW122799   0.598   4.287   2.185  0.1794 -1.1423  0.3483
 3721SOL    HW222800   0.743   4.281   2.232 -1.1849  1.4181  1.5910
 3722SOL     OW22801   3.891   0.683   5.108 -0.0968  0.6125  0.0617
 3722SOL    HW122802   3.902   0.603   5.160  0.2042  1.1470  0.8062
 3722SOL    HW222803   3.976   0.722   5.130  0.8213 -1.0351 -0.5445
 3723SOL     OW22804   3.911   3.044   3.922  0.0180 -0.3983 -0.2204
 3723SOL    HW122805   3.838   3.073   3.867 -0.7870  1.8080  2.0413
 3723SOL    HW222806   3.899   2.949   3.932 -0.7481 -0.1204  1.3435
 3724SOL     OW22807   1.784   1.251   7.086  0.1354 -0.5558  0.5388
 3724SOL    HW122808   1.739   1.335   7.098 -2.4299 -1.5810 -1.6725
 3724SOL    HW222809   1.784   1.256   6.991 -0.6370  1.8049  0.6436
 3725SOL     OW22810   0.713   3.297   8.893  0.8424 -0.5026 -0.2029
 3725SOL    HW122811   0.688   3.247   8.815 -1.1380 -0.7944  0.6245
 3725SOL    HW222812   0.740   3.232   8.958  1.9878  0.0492 -0.1289
 3726SOL     OW22813   4.047   2.883   0.301  0.1182  0.0750  1.1777
 3726SOL    HW122814   4.132   2.886   0.258  0.0065 -0.1861  0.9396
 3726SOL    HW222815   3.986   2.889   0.227  0.9413  0.9174  0.5559
 3727SOL     OW22816   0.011   3.300  15.239  0.5031  0.2776  0.2755
 3727SOL    HW122817   4.674   3.342  15.282  0.3220 -0.9749  1.1836
 3727SOL    HW222818   0.077   3.336  15.298 -0.4908  1.8932  0.3972
 3728SOL     OW22819   4.324   4.171   7.064  0.4613  0.4699 -0.2127
 3728SOL    HW122820   4.367   4.177   7.150  0.2201  2.2395 -0.2155
 3728SOL    HW222821   4.318   4.257   7.023  0.4391 -0.1465 -1.4907
 3729SOL     OW22822   0.378   0.313   8.218 -0.1689  0.0875 -0.2401
 3729SOL    HW122823   0.398   0.401   8.251  0.5742  0.0615 -0.6187
 3729SOL    HW222824   0.373   0.328   8.123 -1.4906  2.2561  0.1643
 3730SOL     OW22825   2.608   1.278   0.401  0.7102 -0.8025 -0.2226
 3730SOL    HW122826   2.564   1.244   0.478 -0.8681 -0.8486 -1.1583
 3730SOL    HW222827   2.533   1.324   0.363  2.7515  4.4084  1.9970
 3731SOL     OW22828   0.510   3.494   7.955  0.3229  0.5635 -0.0392
 3731SOL    HW122829   0.579   3.557   7.932  0.7042 -0.3884 -1.5092
 3731SOL    HW222830   0.548   3.417   7.912 -0.0457  0.0771  0.4997
 3732SOL     OW22831   1.579   4.611   7.512 -0.2527  0.4443 -0.0704
 3732SOL    HW122832   1.588   4.538   7.572  0.4499  0.0573 -0.6450
 3732SOL    HW222833   1.646   4.584   7.449 -0.3447 -0.7034  0.3412
 3733SOL     OW22834   1.138   0.959   4.076 -0.5449 -0.6566  0.2531
 3733SOL    HW122835   1.158   1.031   4.136 -1.9484 -0.9142  1.0038
 3733SOL    HW222836   1.064   0.983   4.020 -0.5521  1.4159  1.1504
 3734SOL     OW22837   1.614   0.069  16.289 -0.6634 -0.1126  0.2776
 3734SOL    HW122838   1.657   0.114  16.362 -1.5128  2.9828 -1.1159
 3734SOL    HW222839   1.585   4.725  16.331 -0.6898  0.1112  0.6954
 3735SOL     OW22840   1.296   2.631  14.782 -0.3310 -0.7442 -0.2711
 3735SOL    HW122841   1.237   2.655  14.710 -0.7640 -0.8669  0.0401
 3735SOL    HW222842   1.265   2.542  14.798 -0.1591 -0.6040  0.8431
 3736SOL     OW22843   0.636   1.125  16.991 -0.0010 -0.3330  0.6571
 3736SOL    HW122844   0.588   1.201  16.958 -0.0248 -0.7618 -0.2835
 3736SOL    HW222845   0.576   1.055  16.967 -0.2699  0.4081 -0.8797
 3737SOL     OW22846   0.667   1.318   6.086  0.1287  0.4591 -0.1221
 3737SOL    HW122847   0.580   1.289   6.113  0.1188  1.5816  1.0549
 3737SOL    HW222848   0.670   1.308   5.991  2.9309 -3.3255  0.3520
 3738SOL     OW22849   2.409   3.208  12.153  0.6150  0.5963  0.0635
 3738SOL    HW122850   2.469   3.180  12.222 -0.4633  1.5994  1.4127
 3738SOL    HW222851   2.347   3.141  12.124  1.1826 -0.3154  0.9392
 3739SOL     OW22852   3.980   1.657  16.071 -0.2469  0.0114  0.4535
 3739SOL    HW122853   3.933   1.707  16.138  1.1085  1.1214  0.5754
 3739SOL    HW222854   4.013   1.582  16.119  1.3888  1.0065  0.8802
 3740SOL     OW22855   3.614   0.637   7.802  0.4816 -0.4149 -0.5570
 3740SOL    HW122856   3.620   0.564   7.739  1.3384 -2.1645  1.5616
 3740SOL    HW222857   3.519   0.639   7.796  0.4640 -1.4790 -0.7341
 3741SOL     OW22858   0.362   3.426   6.424 -0.2683 -0.5594  0.0291
 3741SOL    HW122859   0.319   3.347   6.391  0.7072 -0.6470 -1.0442
 3741SOL    HW222860   0.307   3.463   6.493  0.8777  0.0068  0.6483
 3742SOL     OW22861   0.151   4.289   9.391  0.1261  1.0077 -0.3580
 3742SOL    HW122862   0.182   4.335   9.469  1.4466 -1.0916  0.3764
 3742SOL    HW222863   0.239   4.274   9.356  0.2375  0.0811  0.3321
 3743SOL     OW22864   3.198   3.066   5.080  0.2793 -0.3754  0.3155
 3743SOL    HW122865   3.170   2.974   5.076  1.0800 -0.5681 -0.8081
 3743SOL    HW222866   3.196   3.073   5.176  0.2236  0.6309  0.2396
 3744SOL     OW22867   1.423   1.247   5.130 -0.2327  0.0161 -0.3960
 3744SOL    HW122868   1.406   1.173   5.188  1.6712  0.7992  1.1387
 3744SOL    HW222869   1.414   1.205   5.045 -1.5490 -0.7019  0.0915
 3745SOL     OW22870   0.353   0.596   4.811 -0.3665  0.1581 -0.3830
 3745SOL    HW122871   0.403   0.522   4.776  0.2446 -0.8752  2.6245
 3745SOL    HW222872   0.303   0.557   4.884  0.6452 -0.0510  0.1947
 3746SOL     OW22873   1.614   4.160  10.280 -0.4402  0.8114  0.4813
 3746SOL    HW122874   1.565   4.120  10.352 -1.5252  0.5482 -0.4062
 3746SOL    HW222875   1.628   4.078  10.234  1.3014  0.6342  1.3204
 3747SOL     OW22876   3.232   3.071   8.038  0.4177 -0.1186  0.0956
 3747SOL    HW122877   3.294   3.099   8.106  1.8944 -1.6564 -0.5928
 3747SOL    HW222878   3.166   3.030   8.093 -0.5196  0.9721 -0.2158
 3748SOL     OW22879   4.216   2.625   7.750 -0.3321  0.1806  0.5805
 3748SOL    HW122880   4.300   2.669   7.735 -0.9250  0.1886 -2.7256
 3748SOL    HW222881   4.175   2.688   7.809 -1.3485 -0.9709  1.0862
 3749SOL     OW22882   0.503   2.349  13.504 -0.3412  0.3104  0.4113
 3749SOL    HW122883   0.543   2.421  13.455  0.6104 -1.6859 -1.7409
 3749SOL    HW222884   0.494   2.387  13.591  0.1646  2.0962 -0.3195
 3750SOL     OW22885   2.942   2.810  17.681  0.0882 -0.6205 -0.5557
 3750SOL    HW122886   2.881   2.874  17.716 -0.0116 -1.1278  0.1850
 3750SOL    HW222887   2.988   2.786   0.014 -1.8936 -0.1235  0.7122
 3751SOL     OW22888   1.307   4.483  11.102  0.8482  0.3619  0.5787
 3751SOL    HW122889   1.213   4.503  11.106  0.9706  0.5767  2.1301
 3751SOL    HW222890   1.338   4.558  11.152  0.7172 -0.0412  1.2547
 3752SOL     OW22891   3.873   1.767  16.320  0.4815 -0.0535 -0.2939
 3752SOL    HW122892   3.870   1.698  16.386  1.2220 -1.3992 -1.6749
 3752SOL    HW222893   3.896   1.836  16.382  2.2003 -1.1153  0.2667
 3753SOL     OW22894   0.262   0.631   8.990  0.3079  0.4695 -0.3177
 3753SOL    HW122895   0.224   0.566   9.050 -0.7938  2.0221  0.6557
 3753SOL    HW222896   0.234   0.715   9.025  1.5764  0.5718  0.4551
 3754SOL     OW22897   4.472   3.566  15.449  0.2953  0.6864  0.0834
 3754SOL    HW122898   4.471   3.492  15.389 -0.5718 -0.7823  1.8974
 3754SOL    HW222899   4.407   3.622  15.407  0.6343  0.2639 -0.9957
 3755SOL     OW22900   1.206   1.665   2.937  0.3713  0.1208 -0.3737
 3755SOL    HW122901   1.236   1.597   2.998 -0.6898  1.1738  1.3256
 3755SOL    HW222902   1.200   1.735   3.001  2.7801  2.0511 -2.2729
 3756SOL     OW22903   4.506   0.968  13.139  0.0287 -0.1843 -0.2612
 3756SOL    HW122904   4.461   0.891  13.174 -2.7334  0.8719 -1.4277
 3756SOL    HW222905   4.595   0.934  13.130  0.6787  2.0683 -2.3087
 3757SOL     OW22906   0.466   4.330   7.516 -0.5649  0.2343  0.0189
 3757SOL    HW122907   0.528   4.370   7.455  1.3521 -1.6442  0.7337
 3757SOL    HW222908   0.496   4.239   7.508 -0.4790  0.0908  2.1432
 3758SOL     OW22909   1.302   0.373   2.978 -0.0807 -0.0496 -0.5160
 3758SOL    HW122910   1.319   0.439   3.045 -0.0337 -1.1763  0.5682
 3758SOL    HW222911   1.221   0.331   3.005  0.7413  0.1189  2.2272
 3759SOL     OW22912   3.408   0.507  12.613  0.2281  0.5975 -0.1521
 3759SOL    HW122913   3.399   0.480  12.522  1.2817  1.8776 -0.6428
 3759SOL    HW222914   3.480   0.449  12.640  0.7820  1.9274  1.2757
 3760SOL     OW22915   3.429   1.399   2.865  0.2637 -0.2629  0.0423
 3760SOL    HW122916   3.511   1.447   2.855 -0.2983  0.4954 -0.9178
 3760SOL    HW222917   3.388   1.449   2.935 -0.4208 -1.1700  0.2926
 3761SOL     OW22918   0.954   1.749   9.456  0.1482 -0.4550 -0.0905
 3761SOL    HW122919   1.049   1.764   9.460 -0.0823  1.4674 -1.3526
 3761SOL    HW222920   0.914   1.819   9.507 -1.7392 -0.1508 -1.9675
 3762SOL     OW22921   4.395   3.948   2.096 -0.1297 -0.0972 -0.3732
 3762SOL    HW122922   4.329   3.965   2.163 -0.0759 -1.1917 -0.0358
 3762SOL    HW222923   4.470   3.943   2.155  0.3656  2.6515 -0.7712
 3763SOL     OW22924   2.628   1.149  16.739  0.0870  0.0863 -0.0922
 3763SOL    HW122925   2.543   1.109  16.723  0.2678 -0.9248  1.4967
 3763SOL    HW222926   2.663   1.108  16.818  0.8565 -2.0851 -1.5267
 3764SOL     OW22927   0.624   1.180  15.391  0.0114  0.1995  0.1618
 3764SOL    HW122928   0.667   1.181  15.306  0.5367 -0.5065  0.4230
 3764SOL    HW222929   0.687   1.148  15.455 -1.3059 -0.7138  1.0133
 3765SOL     OW22930   2.544   3.369   5.342 -0.0857 -0.1275 -0.5113
 3765SOL    HW122931   2.461   3.386   5.297 -2.2120  2.7449  4.4317
 3765SOL    HW222932   2.562   3.457   5.375 -2.1449 -1.2907  3.7192
 3766SOL     OW22933   4.559   1.312  16.633 -0.4324 -0.1756  0.7579
 3766SOL    HW122934   4.537   1.377  16.565 -0.9675 -1.4849 -0.3225
 3766SOL    HW222935   4.643   1.345  16.664 -1.1036  0.3111  2.0225
 3767SOL     OW22936   4.026   0.105   6.494 -0.3408  0.2970  0.2424
 3767SOL    HW122937   3.991   0.110   6.583 -3.0562 -0.0362 -0.8199
 3767SOL    HW222938   3.974   0.043   6.444  1.5585 -1.6826  0.7402
 3768SOL     OW22939   0.720   1.363   3.698  0.5863 -0.1529  0.2868
 3768SOL    HW122940   0.716   1.269   3.679  1.4504 -0.0374 -0.4733
 3768SOL    HW222941   0.788   1.365   3.766 -1.0026 -0.0243  1.8778
 3769SOL     OW22942   3.627   2.944  13.047 -0.1350 -0.0119  0.0378
 3769SOL    HW122943   3.680   2.968  13.123 -0.6358  0.7405  0.1549
 3769SOL    HW222944   3.676   2.871  13.010  0.3774 -0.7219  2.0988
 3770SOL     OW22945   0.889   0.799   4.530  0.2336  0.3238  0.4268
 3770SOL    HW122946   0.858   0.745   4.457 -1.4684 -0.1202  1.4640
 3770SOL    HW222947   0.882   0.883   4.486  0.7303 -0.2549 -0.7667
 3771SOL     OW22948   0.879   2.393   9.945  0.0430  0.1979  0.0356
 3771SOL    HW122949   0.807   2.377   9.884  1.5482 -1.6224 -1.3008
 3771SOL    HW222950   0.837   2.419  10.027 -0.5640 -1.8453  0.3672
 3772SOL     OW22951   0.680   3.356   7.766  0.2259 -0.3708  0.1386
 3772SOL    HW122952   0.773   3.379   7.756  0.2210 -0.0330  0.8717
 3772SOL    HW222953   0.657   3.361   7.673  0.5762  2.2774  0.1913
 3773SOL     OW22954   2.727   2.611   3.246  0.2121  0.7971 -0.1985
 3773SOL    HW122955   2.683   2.528   3.227  1.5038 -0.5841  2.8365
 3773SOL    HW222956   2.771   2.622   3.162 -1.1384  0.2373 -0.9752
 3774SOL     OW22957   1.774   2.825  11.518  0.3056  0.3749 -0.7296
 3774SOL    HW122958   1.747   2.859  11.603 -1.5490 -0.0203 -1.1582
 3774SOL    HW222959   1.726   2.744  11.501 -0.1374  0.4627  0.0835
 3775SOL     OW22960   1.719   1.817   8.575  0.2367 -0.6806  0.2377
 3775SOL    HW122961   1.625   1.800   8.582 -0.0877  0.8883 -0.3982
 3775SOL    HW222962   1.744   1.758   8.503  2.9533 -1.0018  1.4271
 3776SOL     OW22963   3.700   0.778   2.341  0.0588 -0.1985 -0.2838
 3776SOL    HW122964   3.758   0.730   2.282 -0.3151  1.7710 -2.2273
 3776SOL    HW222965   3.722   0.870   2.331 -1.2198 -0.0104 -1.2711
 3777SOL     OW22966   1.214   3.155  17.579 -0.0343 -0.6479 -0.8049
 3777SOL    HW122967   1.229   3.150  17.484 -0.4522  2.6861 -1.0268
 3777SOL    HW222968   1.207   3.249  17.593 -1.3296 -1.0665  1.3945
 3778SOL     OW22969   4.446   0.644   5.193  0.7671 -0.2778  0.2433
 3778SOL    HW122970   4.481   0.731   5.172 -0.1833  0.2741  0.9287
 3778SOL    HW222971   4.476   0.589   5.122 -1.6221 -0.3882 -0.6794
 3779SOL     OW22972   1.728   4.646   7.012  0.1551  0.4594  0.7189
 3779SOL    HW122973   1.639   4.643   7.047 -1.2469  1.3851 -2.7636
 3779SOL    HW222974   1.723   4.560   6.969  3.0357  1.4240 -1.5355
 3780SOL     OW22975   2.812   3.595   1.015 -0.1064 -0.2018  0.3657
 3780SOL    HW122976   2.854   3.640   1.088 -1.2176 -1.0576  1.5392
 3780SOL    HW222977   2.811   3.664   0.948 -0.7702 -0.2189  0.3560
 3781SOL     OW22978   4.300   3.079   7.029  0.2812  0.0699  0.1098
 3781SOL    HW122979   4.220   3.118   6.993  1.0773  2.7646  1.2971
 3781SOL    HW222980   4.368   3.136   6.993  0.4234  1.1189  2.0496
 3782SOL     OW22981   3.935   1.894   8.593 -0.2216  0.1173  0.1401
 3782SOL    HW122982   3.953   1.838   8.668  3.2425 -0.2614 -0.9706
 3782SOL    HW222983   3.881   1.835   8.541 -1.9577  0.4278  1.5948
 3783SOL     OW22984   3.312   0.151   5.151  0.2561 -0.2019 -0.0949
 3783SOL    HW122985   3.397   0.108   5.160 -0.0053 -0.3350  1.7012
 3783SOL    HW222986   3.336   0.242   5.169  0.4849 -0.1718 -0.5627
 3784SOL     OW22987   2.343   1.554   9.976  0.0738  0.3459  0.4126
 3784SOL    HW122988   2.280   1.551   9.904  1.8893 -0.1612 -1.1741
 3784SOL    HW222989   2.351   1.461   9.997 -0.9669 -0.1908 -1.5427
 3785SOL     OW22990   1.983   1.158  15.157  0.2997  0.6198  0.5923
 3785SOL    HW122991   1.995   1.245  15.118 -0.0073  0.9260  1.1724
 3785SOL    HW222992   1.976   1.099  15.083 -1.0745  0.1351  1.1122
 3786SOL     OW22993   1.165   3.131   3.749 -0.0423 -0.3039 -0.1534
 3786SOL    HW122994   1.170   3.040   3.777 -2.0154 -0.5461 -0.5768
 3786SOL    HW222995   1.236   3.167   3.802  2.6195 -2.2858 -2.3895
 3787SOL     OW22996   3.775   3.693   8.137  0.1175 -0.1862 -0.4666
 3787SOL    HW122997   3.815   3.607   8.120  0.9634 -0.6822  4.0100
 3787SOL    HW222998   3.755   3.730   8.051 -0.3313  1.6269  0.4149
 3788SOL     OW22999   0.172   3.620   1.188 -0.4068  0.0577  0.2337
 3788SOL    HW123000   0.137   3.634   1.276  0.0904 -0.7596  0.5644
 3788SOL    HW223001   0.139   3.692   1.134  0.7824 -0.5812 -1.3748
 3789SOL     OW23002   2.521   2.658  13.864  0.4003 -0.4289  0.2590
 3789SOL    HW123003   2.435   2.615  13.862 -0.5308  1.4339 -0.2494
 3789SOL    HW223004   2.525   2.690  13.773  1.2198 -2.2395 -0.3289
 3790SOL     OW23005   1.065   0.842   2.455  0.1761  0.4733  0.0174
 3790SOL    HW123006   1.031   0.920   2.410 -0.1329  0.9882  1.1440
 3790SOL    HW223007   1.078   0.877   2.543  1.0319 -1.9442  0.8563
 3791SOL     OW23008   2.994   3.344   6.040  0.0859 -0.3672  0.1867
 3791SOL    HW123009   3.086   3.367   6.034  0.6231 -2.5775  0.0386
 3791SOL    HW223010   2.976   3.331   6.134  0.2462  0.5820  0.3537
 3792SOL     OW23011   3.352   2.099   9.287 -0.1425  0.3233 -0.6582
 3792SOL    HW123012   3.351   2.152   9.207 -0.9856  1.6626  0.2483
 3792SOL    HW223013   3.344   2.163   9.357  0.5043  1.3024 -1.4682
 3793SOL     OW23014   1.646   0.547   3.847 -0.1024 -0.0631  0.0534
 3793SOL    HW123015   1.688   0.602   3.781 -0.4755 -1.6296 -1.4883
 3793SOL    HW223016   1.705   0.472   3.857 -0.0696 -0.1652 -0.8623
 3794SOL     OW23017   4.462   1.147   5.223 -0.1723  0.0111  0.2061
 3794SOL    HW123018   4.431   1.102   5.302  0.4391  0.1904  0.5566
 3794SOL    HW223019   4.426   1.236   5.222  0.1163  0.1178 -0.4359
 3795SOL     OW23020   3.733   0.234   4.708 -0.0966 -0.6985 -0.1455
 3795SOL    HW123021   3.724   0.304   4.643  0.3157  0.1118  0.6760
 3795SOL    HW223022   3.807   0.182   4.676 -2.1522 -1.8690 -3.0213
 3796SOL     OW23023   0.729   4.608   7.850  0.3071  0.4669 -0.1485
 3796SOL    HW123024   0.666   4.623   7.920  0.7739 -1.9348  0.8187
 3796SOL    HW223025   0.806   4.635   7.901  0.5495 -1.2064  0.4011
 3797SOL     OW23026   4.614   2.876   2.660 -0.3708  0.3313 -0.1109
 3797SOL    HW123027   4.699   2.856   2.698 -0.0320  2.8858  0.4792
 3797SOL    HW223028   4.559   2.831   2.724  2.5810 -0.3184  1.9587
 3798SOL     OW23029   0.345   1.812   5.204 -0.2531 -0.4868  0.1863
 3798SOL    HW123030   0.297   1.746   5.253  0.8100 -1.6309 -0.3056
 3798SOL    HW223031   0.370   1.758   5.129  1.3214  0.5479 -0.0291
 3799SOL     OW23032   4.143   2.069   2.912  0.0145  0.1951  0.0905
 3799SOL    HW123033   4.201   2.144   2.912 -1.1503  1.1028  2.3883
 3799SOL    HW223034   4.163   2.029   2.997  2.6894 -0.2443 -0.7493
 3800SOL     OW23035   3.286   3.833   8.505  0.0248  0.1676  0.2657
 3800SOL    HW123036   3.323   3.836   8.416 -0.2727 -2.7368  0.0365
 3800SOL    HW223037   3.304   3.743   8.532 -3.0890 -0.1558  1.2084
 3801SOL     OW23038   1.516   3.186   6.693 -0.0978  0.8414 -0.6764
 3801SOL    HW123039   1.462   3.117   6.732 -0.9316  0.9878 -1.5507
 3801SOL    HW223040   1.446   3.248   6.672 -0.3547  0.3003 -1.4181
 3802SOL     OW23041   1.727   3.399   8.206  0.1106  0.0756 -0.2578
 3802SOL    HW123042   1.806   3.346   8.214  0.2021  0.1966 -0.3484
 3802SOL    HW223043   1.708   3.403   8.300 -2.4298  1.7883 -0.8397
 3803SOL     OW23044   0.503   2.010   1.839 -0.0415 -0.0017 -0.4038
 3803SOL    HW123045   0.582   1.967   1.873 -2.4952 -2.3300  2.3160
 3803SOL    HW223046   0.542   2.088   1.799 -0.6936  0.2916 -0.4754
 3804SOL     OW23047   3.091   3.353   5.571 -0.3776 -0.0487  0.9242
 3804SOL    HW123048   3.174   3.330   5.614  0.5249 -0.0628 -0.8300
 3804SOL    HW223049   3.049   3.268   5.554 -0.9239  0.1314  1.3676
 3805SOL     OW23050   2.483   1.085  10.338 -0.1496  0.7419 -0.0659
 3805SOL    HW123051   2.439   1.001  10.330 -0.6398  0.9514  0.4387
 3805SOL    HW223052   2.409   1.132  10.376  0.5912  1.8160  0.0616
 3806SOL     OW23053   4.393   4.379  16.491 -0.5206  0.1695 -0.1950
 3806SOL    HW123054   4.372   4.456  16.438  0.8683  0.6204 -0.0908
 3806SOL    HW223055   4.404   4.409  16.581 -0.8689 -1.4375  0.3904
 3807SOL     OW23056   4.258   1.887  15.363  0.5845 -0.8470 -0.1786
 3807SOL    HW123057   4.240   1.853  15.451  0.3321  0.3732  0.2397
 3807SOL    HW223058   4.208   1.818  15.318  0.9718 -1.1797 -0.1038
 3808SOL     OW23059   1.810   4.660  13.803 -0.5055  0.4805 -0.5722
 3808SOL    HW123060   1.897   4.638  13.771 -0.7687  0.7253 -1.4658
 3808SOL    HW223061   1.754   4.644  13.727  1.2289 -0.1231 -1.6998
 3809SOL     OW23062   4.642   2.206  12.717 -1.0440 -0.1977  0.2686
 3809SOL    HW123063   4.649   2.115  12.746  1.1699  0.6631  2.3840
 3809SOL    HW223064   4.733   2.231  12.700 -2.1218  3.8996  0.5053
 3810SOL     OW23065   1.851   4.709  12.376  0.4124  0.0809 -0.1346
 3810SOL    HW123066   1.919   0.038  12.383  0.7915 -0.2744 -0.4678
 3810SOL    HW223067   1.816   4.714  12.287  1.0860 -3.1379 -0.5688
 3811SOL     OW23068   2.124   2.459   1.492 -0.3887  0.3554 -0.5188
 3811SOL    HW123069   2.173   2.520   1.438  0.9366  1.7521  2.2329
 3811SOL    HW223070   2.047   2.434   1.442 -1.9406 -0.3517  2.1801
 3812SOL     OW23071   4.005   3.157  14.780  0.3550 -0.6558 -0.0301
 3812SOL    HW123072   4.071   3.088  14.780 -0.5499 -1.5296 -2.6645
 3812SOL    HW223073   4.057   3.237  14.784 -1.3381  0.4466 -0.1625
 3813SOL     OW23074   1.682   0.183   5.584  0.0969  0.7098 -0.6847
 3813SOL    HW123075   1.629   0.226   5.652  0.3061 -1.5757  0.9152
 3813SOL    HW223076   1.761   0.166   5.636 -0.6993 -0.3487  0.1771
 3814SOL     OW23077   2.998   1.968   2.596  0.0713 -0.2859  0.1496
 3814SOL    HW123078   2.991   1.898   2.531  3.7679 -0.4722 -0.0644
 3814SOL    HW223079   2.923   1.953   2.654  1.4463  0.9043  2.2217
 3815SOL     OW23080   0.955   0.693   8.748  0.0237 -0.4548 -0.0443
 3815SOL    HW123081   0.967   0.632   8.675 -1.8197  0.0640 -0.7968
 3815SOL    HW223082   0.881   0.742   8.713  0.3820 -0.5105 -0.8928
 3816SOL     OW23083   1.074   3.676   4.627 -0.4689  0.6976  0.1207
 3816SOL    HW123084   1.080   3.588   4.591  3.5597  1.1316 -0.3648
 3816SOL    HW223085   1.090   3.672   4.722 -0.0080 -1.7112 -0.0615
 3817SOL     OW23086   2.389   2.699   9.569 -0.3851 -0.1361  0.4103
 3817SOL    HW123087   2.334   2.631   9.608  1.4359 -0.1803  2.9701
 3817SOL    HW223088   2.404   2.666   9.480  2.0402  2.6031 -0.1952
 3818SOL     OW23089   4.625   4.276   6.628 -0.1743  0.0712 -0.1894
 3818SOL    HW123090   4.541   4.242   6.660 -0.0243  0.4819  0.6531
 3818SOL    HW223091   4.687   4.272   6.701 -0.5527 -0.2420  0.1126
 3819SOL     OW23092   2.664   2.864   6.996 -0.2049  0.0756 -0.1484
 3819SOL    HW123093   2.614   2.846   6.916 -0.5528 -1.2547  0.3676
 3819SOL    HW223094   2.730   2.796   6.988  1.3197  1.4485  0.8489
 3820SOL     OW23095   4.490   1.626  11.804 -0.1895 -0.4181 -0.1617
 3820SOL    HW123096   4.557   1.694  11.793 -1.6164  1.4153  2.4099
 3820SOL    HW223097   4.436   1.639  11.726 -1.5717 -3.3351  0.3137
 3821SOL     OW23098   3.386   2.181   8.097  0.5209  0.0664 -0.5157
 3821SOL    HW123099   3.459   2.239   8.074  0.8005 -0.7110 -1.5757
 3821SOL    HW223100   3.402   2.163   8.190  2.8737 -0.2843 -0.9891
 3822SOL     OW23101   1.053   0.298   7.794  0.1196  0.1444  0.3336
 3822SOL    HW123102   0.983   0.245   7.833 -1.1334 -1.3927 -3.9511
 3822SOL    HW223103   1.124   0.236   7.775 -0.0303  0.0309  0.1419
 3823SOL     OW23104   3.007   4.623   5.745 -0.1961 -0.2594  0.0082
 3823SOL    HW123105   3.074   4.589   5.804 -1.2506  0.5418  1.6434
 3823SOL    HW223106   2.964   4.546   5.708 -0.8770  1.0108 -1.8399
 3824SOL     OW23107   4.258   2.355  17.149  0.2886 -0.8824 -0.0915
 3824SOL    HW123108   4.272   2.411  17.073  1.6675 -2.5152 -1.0652
 3824SOL    HW223109   4.230   2.274  17.106 -0.7925 -2.4392  3.4942
 3825SOL     OW23110   4.157   2.179   3.329 -0.2260  0.4409  0.4486
 3825SOL    HW123111   4.191   2.175   3.419  1.9851 -0.9484 -0.4275
 3825SOL    HW223112   4.199   2.102   3.290  0.9708  2.4162 -2.1149
 3826SOL     OW23113   2.078   2.885   9.964 -0.0844  0.1318  0.0186
 3826SOL    HW123114   2.120   2.872   9.880 -1.8635  0.6919 -0.9702
 3826SOL    HW223115   2.042   2.799   9.983  0.0302  0.3022  1.0229
 3827SOL     OW23116   1.173   0.157   2.142  0.5774  0.1949 -0.1803
 3827SOL    HW123117   1.226   0.078   2.146  0.5407  0.2465  1.3418
 3827SOL    HW223118   1.182   0.196   2.229  1.0300  0.6105 -0.4095
 3828SOL     OW23119   4.487   3.470   6.633 -0.3376  0.2186  0.4898
 3828SOL    HW123120   4.418   3.417   6.592  1.0089 -0.9306 -0.3074
 3828SOL    HW223121   4.439   3.552   6.646  0.6724  0.5828  1.8569
 3829SOL     OW23122   0.904   2.210   2.603 -0.2914 -0.1537 -0.0946
 3829SOL    HW123123   0.917   2.304   2.616 -0.2756 -0.2441  0.5802
 3829SOL    HW223124   0.987   2.164   2.613 -0.3207 -0.0453  0.6327
 3830SOL     OW23125   0.811   0.429   7.119  0.0675  0.2044  0.3441
 3830SOL    HW123126   0.732   0.464   7.160 -0.5000 -1.6755  0.8648
 3830SOL    HW223127   0.870   0.504   7.127 -2.4638  2.3870 -1.1507
 3831SOL     OW23128   2.947   2.252   4.504  0.2455 -0.0553  0.1839
 3831SOL    HW123129   2.928   2.206   4.587  2.7255 -0.3093  0.6248
 3831SOL    HW223130   2.875   2.224   4.448  0.7742  2.5911 -1.7915
 3832SOL     OW23131   3.700   3.309   5.854  0.3761 -0.2480  0.5604
 3832SOL    HW123132   3.711   3.403   5.870  1.3928 -0.6937  2.4840
 3832SOL    HW223133   3.607   3.304   5.832  0.3451  1.4170  0.3250
 3833SOL     OW23134   3.520   1.429   5.240  0.0160 -0.0745 -0.2487
 3833SOL    HW123135   3.562   1.354   5.197  1.5011 -0.5689  2.0886
 3833SOL    HW223136   3.452   1.450   5.176 -1.6520 -1.7195  0.9778
 3834SOL     OW23137   2.587   3.215   0.817 -0.4697 -0.2454  0.2929
 3834SOL    HW123138   2.601   3.302   0.855 -1.5093  0.4476 -0.9087
 3834SOL    HW223139   2.631   3.226   0.733  0.0588  2.4156  0.9030
 3835SOL     OW23140   2.318   3.066   6.209  0.4524 -0.3058 -0.3805
 3835SOL    HW123141   2.260   3.109   6.146 -1.2493 -0.9893  0.7086
 3835SOL    HW223142   2.257   3.004   6.250 -0.1024 -0.9671 -2.1935
 3836SOL     OW23143   3.519   1.103   3.445  0.3420 -0.5325  0.3926
 3836SOL    HW123144   3.507   1.015   3.483 -2.6837  0.2055  1.1873
 3836SOL    HW223145   3.523   1.157   3.524 -1.1796 -0.3324  0.3471
 3837SOL     OW23146   2.491   4.443   0.713  0.1003  0.4441  0.1895
 3837SOL    HW123147   2.426   4.431   0.782  0.0162 -1.0501 -0.1548
 3837SOL    HW223148   2.518   4.529   0.745 -1.2750  0.6500  0.8122
 3838SOL     OW23149   1.915   0.295   7.215  0.1707  0.1579 -0.2843
 3838SOL    HW123150   1.974   0.371   7.219  0.5907 -0.1745 -0.1604
 3838SOL    HW223151   1.942   0.244   7.139  1.6485  0.6962 -0.1347
 3839SOL     OW23152   4.188   2.025  11.752 -0.1838 -0.1077 -0.0037
 3839SOL    HW123153   4.108   2.072  11.778  1.2753  2.1064  0.4113
 3839SOL    HW223154   4.236   2.098  11.715 -1.5935  0.3636 -0.9134
 3840SOL     OW23155   1.141   2.342  10.155 -0.0375 -0.9193 -0.0015
 3840SOL    HW123156   1.204   2.297  10.211 -0.3843 -0.2613  0.9198
 3840SOL    HW223157   1.180   2.429  10.150  1.7590 -1.7363 -0.3135
 3841SOL     OW23158   1.393   2.200  14.777 -0.7839  0.0769 -0.0022
 3841SOL    HW123159   1.318   2.259  14.775 -1.1200 -0.2941  1.1449
 3841SOL    HW223160   1.448   2.247  14.839  1.3842  0.7292 -2.4436
 3842SOL     OW23161   1.294   4.560   6.108  0.3262  0.9031  0.2217
 3842SOL    HW123162   1.343   4.497   6.162 -2.5756 -0.9856  0.6495
 3842SOL    HW223163   1.263   4.627   6.169  0.7131  2.2262 -1.0282
 3843SOL     OW23164   3.851   0.608   5.807 -1.0089 -0.0504  0.0760
 3843SOL    HW123165   3.915   0.540   5.787 -0.4084  0.2265  1.0426
 3843SOL    HW223166   3.797   0.564   5.873 -1.7424  0.0383 -0.4640
 3844SOL     OW23167   0.295   3.149  12.032  0.0259 -0.1876 -0.0304
 3844SOL    HW123168   0.235   3.075  12.040  1.0510 -0.8014  2.0457
 3844SOL    HW223169   0.275   3.195  12.113  1.6760  0.6930 -0.1218
 3845SOL     OW23170   3.649   1.765  13.165  0.3981  0.1696 -0.0317
 3845SOL    HW123171   3.717   1.713  13.207 -0.0089  1.5663  2.4237
 3845SOL    HW223172   3.664   1.855  13.194  1.7396  0.2509 -1.0256
 3846SOL     OW23173   2.184   3.705   4.592  0.4779  0.2901 -0.2593
 3846SOL    HW123174   2.132   3.637   4.550  0.0721 -1.0923  2.4949
 3846SOL    HW223175   2.189   3.777   4.528 -0.8164 -0.1376 -0.8328
 3847SOL     OW23176   1.689   1.805   4.648  0.3705  0.1276  0.2971
 3847SOL    HW123177   1.711   1.898   4.650  2.3921 -0.3794  0.7758
 3847SOL    HW223178   1.684   1.795   4.553 -0.1906  1.3459  0.2005
 3848SOL     OW23179   2.887   1.161  16.507  0.1434  0.1298  0.0927
 3848SOL    HW123180   2.887   1.089  16.570 -0.6951  1.1965  1.3015
 3848SOL    HW223181   2.966   1.142  16.457  0.8197 -0.0692  1.2433
 3849SOL     OW23182   0.595   0.132   2.161  0.0343 -0.1502 -0.1849
 3849SOL    HW123183   0.628   0.221   2.150  0.6840 -0.4871 -0.8918
 3849SOL    HW223184   0.527   0.125   2.094 -0.0466 -2.5989  0.1425
 3850SOL     OW23185   0.178   0.329   5.610  0.1268  0.2674 -1.1020
 3850SOL    HW123186   0.168   0.360   5.700  0.1803 -1.7012 -0.4219
 3850SOL    HW223187   0.117   0.394   5.575 -1.4053 -0.4119  0.3083
 3851SOL     OW23188   2.129   3.657   6.225  0.1661  0.5791 -0.2246
 3851SOL    HW123189   2.186   3.681   6.298  0.1178  2.5088 -0.8273
 3851SOL    HW223190   2.150   3.564   6.226 -0.5852  0.4293  2.0185
 3852SOL     OW23191   1.751   3.427   6.025  0.5359 -0.2030  0.6028
 3852SOL    HW123192   1.816   3.367   6.062  1.7723  0.8329  0.1432
 3852SOL    HW223193   1.810   3.501   6.009  0.4436 -0.8733 -2.8040
 3853SOL     OW23194   4.385   3.350   2.675  0.3304 -0.5545  0.7763
 3853SOL    HW123195   4.452   3.297   2.631 -0.6019  0.4144 -1.8408
 3853SOL    HW223196   4.352   3.296   2.747 -0.6732 -1.0509 -0.0645
 3854SOL     OW23197   4.330   0.918   8.373 -0.2016 -0.5255 -0.0531
 3854SOL    HW123198   4.346   1.009   8.346 -1.0775 -0.0805  0.8977
 3854SOL    HW223199   4.250   0.903   8.323 -2.3108  1.8499  2.5471
 3855SOL     OW23200   3.558   1.273  13.727  0.0155  0.0436 -0.0565
 3855SOL    HW123201   3.544   1.209  13.796 -3.2283  1.0164  0.1605
 3855SOL    HW223202   3.652   1.293  13.720  0.0722 -0.1638  0.1042
 3856SOL     OW23203   3.265   2.584   6.313 -0.0190  0.0193 -0.3231
 3856SOL    HW123204   3.211   2.511   6.281 -0.0503 -0.5986  1.1545
 3856SOL    HW223205   3.217   2.617   6.389 -1.2834 -1.3692 -0.5217
 3857SOL     OW23206   2.082   0.733   3.346 -0.0444  0.1288  0.0819
 3857SOL    HW123207   2.168   0.709   3.381 -0.2527 -1.7235 -0.6629
 3857SOL    HW223208   2.102   0.753   3.254  3.0679 -1.1011  0.4824
 3858SOL     OW23209   2.810   4.288   4.035 -0.1916  0.5923  0.0431
 3858SOL    HW123210   2.821   4.379   4.009 -1.0503  0.6455 -0.1434
 3858SOL    HW223211   2.899   4.274   4.066 -0.3211 -3.1466 -1.3066
 3859SOL     OW23212   1.164   4.642   8.926  0.4020 -0.0694  0.5452
 3859SOL    HW123213   1.122   4.728   8.937  2.3230  0.7261  1.6775
 3859SOL    HW223214   1.164   4.633   8.831  2.8360  1.0433  0.4382
 3860SOL     OW23215   2.370   4.005   6.102 -0.5891 -0.5819  0.1760
 3860SOL    HW123216   2.464   4.000   6.118 -0.3625 -0.2191 -1.0115
 3860SOL    HW223217   2.356   3.947   6.027  0.5344 -2.1620  1.1730
 3861SOL     OW23218   2.146   3.541  14.032  0.1368  0.8427  0.0437
 3861SOL    HW123219   2.129   3.536  14.126 -1.1156  0.5626 -0.1882
 3861SOL    HW223220   2.057   3.553  13.998  0.3998 -0.1689 -1.0069
 3862SOL     OW23221   2.845   3.390  11.490  0.5546  0.0655  0.5508
 3862SOL    HW123222   2.811   3.375  11.578  0.0364 -2.1522 -0.0272
 3862SOL    HW223223   2.888   3.305  11.481 -0.3554 -0.3385 -0.0087
 3863SOL     OW23224   1.895   4.433   2.594  0.6205  0.4172 -0.2016
 3863SOL    HW123225   1.851   4.348   2.588 -2.4900  2.0142  0.1589
 3863SOL    HW223226   1.983   4.396   2.601 -0.9519 -2.8204  2.6753
 3864SOL     OW23227   1.671   2.209   8.449 -0.0907  0.4577 -0.3467
 3864SOL    HW123228   1.639   2.207   8.359 -0.7317 -1.9828 -0.0576
 3864SOL    HW223229   1.614   2.149   8.496  1.5472 -0.6773  0.1807
 3865SOL     OW23230   0.927   1.230   2.831  0.1319 -0.8345 -0.2695
 3865SOL    HW123231   0.858   1.201   2.771 -0.5444  1.0233 -0.3939
 3865SOL    HW223232   0.874   1.244   2.909  2.5187  1.7871  0.8911
 3866SOL     OW23233   3.261   0.050   3.373 -0.2275  0.1387 -0.2630
 3866SOL    HW123234   3.249   0.129   3.321 -2.0759  0.1332  0.1333
 3866SOL    HW223235   3.178   0.025   3.415 -0.0550  0.3647  0.2131
 3867SOL     OW23236   2.258   2.732   8.011 -0.0645 -0.1649 -0.7235
 3867SOL    HW123237   2.264   2.645   7.972  3.0560 -0.3959  0.3241
 3867SOL    HW223238   2.332   2.727   8.071 -1.6226  2.4478  1.4128
 3868SOL     OW23239   2.937   3.000   6.557  0.0461 -0.1062  0.4668
 3868SOL    HW123240   2.919   3.093   6.565  2.1545  0.5739 -2.5250
 3868SOL    HW223241   2.955   2.998   6.463 -0.6512 -1.8174  0.3630
 3869SOL     OW23242   3.381   1.359   6.160 -0.5619  0.4077  0.2723
 3869SOL    HW123243   3.414   1.420   6.094 -3.2204  1.6168  0.0606
 3869SOL    HW223244   3.386   1.418   6.236 -0.8244  0.3638  0.3225
 3870SOL     OW23245   2.236   2.264  13.182 -0.3523 -0.1943  0.2257
 3870SOL    HW123246   2.301   2.308  13.128  1.2196 -1.5958  0.9794
 3870SOL    HW223247   2.256   2.309  13.264  2.4462  1.6833 -1.4929
 3871SOL     OW23248   1.626   4.487  14.407  0.4341  0.1257  0.3088
 3871SOL    HW123249   1.695   4.532  14.456 -0.4102  1.8113 -0.0441
 3871SOL    HW223250   1.638   4.526  14.320  0.0396  0.5977  0.4709
 3872SOL     OW23251   0.248   1.136   2.105  0.4546  0.1126 -0.4022
 3872SOL    HW123252   0.338   1.105   2.114  0.1543 -1.2606 -2.0179
 3872SOL    HW223253   0.255   1.198   2.032 -2.0791 -1.9419 -2.4123
 3873SOL     OW23254   2.454   1.479   7.214 -0.1448 -0.0468 -0.2635
 3873SOL    HW123255   2.432   1.552   7.272  2.9583  1.5543 -1.1128
 3873SOL    HW223256   2.518   1.522   7.157 -2.0188 -0.6689 -2.8337
 3874SOL     OW23257   0.277   4.345  10.264  0.4041 -0.2094 -0.1772
 3874SOL    HW123258   0.253   4.427  10.306  1.4177  0.1289 -0.2434
 3874SOL    HW223259   0.193   4.316  10.229  0.5591  0.4773 -1.1056
 3875SOL     OW23260   3.103   0.388   6.243 -0.3612 -0.2278 -0.7288
 3875SOL    HW123261   3.187   0.411   6.203  0.9086 -1.0573  1.4357
 3875SOL    HW223262   3.121   0.299   6.273  0.2403  0.5454  1.1478
 3876SOL     OW23263   3.851   1.577   5.777  0.1411 -0.3244  0.2481
 3876SOL    HW123264   3.931   1.622   5.751 -0.7190  2.4037  2.2746
 3876SOL    HW223265   3.850   1.590   5.872  0.7507  0.8654  0.0871
 3877SOL     OW23266   2.427   1.674   2.660 -0.6321  0.2495  0.0033
 3877SOL    HW123267   2.337   1.696   2.635 -0.5649  0.7324  0.1973
 3877SOL    HW223268   2.453   1.621   2.584  0.4287  1.5139 -0.5132
 3878SOL     OW23269   4.393   0.405   6.079  0.3338 -0.4110  0.1387
 3878SOL    HW123270   4.461   0.338   6.076  0.8488  0.0891  1.0431
 3878SOL    HW223271   4.424   0.464   6.147  0.0916  2.6239 -2.4216
 3879SOL     OW23272   0.626   0.181   4.733  0.3389 -0.1170  0.2904
 3879SOL    HW123273   0.611   0.115   4.665 -0.3187 -0.3792  0.6922
 3879SOL    HW223274   0.691   0.242   4.698  1.1656  0.3380  2.6134
 3880SOL     OW23275   1.979   0.025   4.739 -0.1978 -0.2134  0.6842
 3880SOL    HW123276   1.945   4.719   4.661 -0.5888  3.4796 -1.2166
 3880SOL    HW223277   1.963   4.711   4.818  1.4076 -2.1527 -0.2564
 3881SOL     OW23278   0.330   3.330  11.843  0.0602 -0.1580 -0.4754
 3881SOL    HW123279   0.331   3.269  11.917  0.5816  0.7323  0.2595
 3881SOL    HW223280   0.268   3.397  11.872 -0.8128 -0.9133 -0.6135
 3882SOL     OW23281   1.765   4.584   4.373 -0.1572 -0.2223  0.5030
 3882SOL    HW123282   1.712   4.586   4.453  2.8968  0.2585  2.5292
 3882SOL    HW223283   1.762   4.672   4.338 -0.8383  0.1619  1.5140
 3883SOL     OW23284   1.841   0.853   6.070  0.6101 -0.2343  0.4538
 3883SOL    HW123285   1.876   0.768   6.043 -1.8967 -0.8885 -0.7045
 3883SOL    HW223286   1.754   0.830   6.102  0.5596  0.0241  0.5027
 3884SOL     OW23287   1.143   4.135   7.264  0.1856  0.0521 -0.0369
 3884SOL    HW123288   1.124   4.042   7.251  2.2109 -0.1899 -1.2063
 3884SOL    HW223289   1.112   4.176   7.183 -2.9433 -0.3144  0.9858
 3885SOL     OW23290   1.672   2.321   8.000  0.3369  0.1454  0.1332
 3885SOL    HW123291   1.730   2.247   8.019  0.7593 -0.0519 -1.9431
 3885SOL    HW223292   1.636   2.289   7.918 -0.2970  0.6381  0.2216
 3886SOL     OW23293   2.024   1.052  17.504 -0.4093  0.3602  0.0179
 3886SOL    HW123294   2.083   1.127  17.496  0.7237 -0.5253  0.1824
 3886SOL    HW223295   1.963   1.052  17.430  0.6967  1.1029 -0.8920
 3887SOL     OW23296   0.237   3.033  10.035  0.3731 -0.1091  0.0508
 3887SOL    HW123297   0.188   3.006  10.113 -2.2903 -2.0944 -2.2959
 3887SOL    HW223298   0.302   2.962  10.028  0.6611  0.4296 -2.7458
 3888SOL     OW23299   2.872   0.699   1.828 -0.2610  0.1297  0.1967
 3888SOL    HW123300   2.962   0.686   1.856 -0.3337  0.3882  0.5548
 3888SOL    HW223301   2.833   0.625   1.875 -0.6297 -0.3234 -0.8166
 3889SOL     OW23302   3.478   3.563   9.171 -0.1054 -0.3296 -0.0763
 3889SOL    HW123303   3.385   3.572   9.152 -0.0041  2.9484  1.0462
 3889SOL    HW223304   3.495   3.502   9.098  0.7830 -1.6849  1.2629
 3890SOL     OW23305   3.652   4.686  17.428 -0.7168  0.2215 -0.1105
 3890SOL    HW123306   3.593   0.009  17.474  1.4615  1.5944  0.8830
 3890SOL    HW223307   3.720   4.681  17.495 -0.6128  1.2970 -0.1250
 3891SOL     OW23308   4.524   4.534   5.492  0.1415 -0.6628  0.0605
 3891SOL    HW123309   4.531   4.527   5.397 -1.7587 -0.0108 -0.1115
 3891SOL    HW223310   4.528   4.444   5.524  0.1932 -1.0124 -0.9293
 3892SOL     OW23311   1.961   1.250   7.976 -0.3008 -0.6690 -0.4113
 3892SOL    HW123312   1.969   1.155   7.980  1.1214 -0.5436 -0.4131
 3892SOL    HW223313   1.954   1.262   7.881 -0.6238  1.2499 -0.1348
 3893SOL     OW23314   1.194   2.443   4.377  0.3294  0.0184 -0.0062
 3893SOL    HW123315   1.115   2.437   4.322  1.1008  0.2617 -1.1252
 3893SOL    HW223316   1.167   2.515   4.435 -1.3767 -1.6544  1.2779
 3894SOL     OW23317   4.428   0.852  13.693  0.0408  0.1765  0.3829
 3894SOL    HW123318   4.340   0.890  13.686  0.6739  1.8577  1.6319
 3894SOL    HW223319   4.420   0.789  13.765 -0.2010 -1.4433 -1.0614
 3895SOL     OW23320   3.661   2.466   9.051 -0.3318  0.0126  0.1087
 3895SOL    HW123321   3.702   2.552   9.061  1.5942 -0.6671 -1.9121
 3895SOL    HW223322   3.735   2.420   9.090 -0.4343 -1.3064 -1.2093
 3896SOL     OW23323   0.489   4.089   6.426  0.1936  0.4622 -0.1316
 3896SOL    HW123324   0.483   3.994   6.436 -1.2398  0.7609  2.0445
 3896SOL    HW223325   0.439   4.095   6.345 -0.2938 -6.0066 -0.3745
 3897SOL     OW23326   1.260   3.481   2.918 -0.2968  0.2827  0.2416
 3897SOL    HW123327   1.325   3.419   2.951  0.1935  2.1120  2.7216
 3897SOL    HW223328   1.197   3.421   2.879  1.3370 -0.6962 -0.8953
 3898SOL     OW23329   1.123   0.868   9.490  0.0406 -0.1995 -0.3104
 3898SOL    HW123330   1.159   0.952   9.460 -1.3979  0.2633 -0.7308
 3898SOL    HW223331   1.068   0.909   9.557 -0.1045  0.4717 -0.8414
 3899SOL     OW23332   0.885   1.745   3.779  0.1941 -0.0672  0.2547
 3899SOL    HW123333   0.851   1.709   3.697 -0.1645  0.4323  0.1825
 3899SOL    HW223334   0.960   1.799   3.753  0.2515 -0.8159 -1.0874
 3900SOL     OW23335   2.360   1.763   4.098 -0.1184  0.8199 -0.1491
 3900SOL    HW123336   2.333   1.849   4.067 -0.4868 -0.3501 -3.0596
 3900SOL    HW223337   2.340   1.706   4.024  0.4243  0.5484 -0.0881
 3901SOL     OW23338   1.978   4.029  16.292  0.1610 -0.1550 -0.2665
 3901SOL    HW123339   1.915   3.959  16.313 -0.5139  0.5220 -0.0300
 3901SOL    HW223340   2.009   4.051  16.380  1.7779  0.3028 -0.9652
 3902SOL     OW23341   1.581   3.853   8.050 -0.1200  0.8655 -0.0636
 3902SOL    HW123342   1.521   3.830   7.979  2.9889 -1.5731 -1.9151
 3902SOL    HW223343   1.629   3.772   8.064 -3.2300 -1.0814 -0.8245
 3903SOL     OW23344   4.565   3.213   2.920 -0.0115 -0.6863  0.2915
 3903SOL    HW123345   4.597   3.145   2.979 -0.7953 -1.2200  0.1044
 3903SOL    HW223346   4.490   3.166   2.883  0.9123 -1.9686  0.0280
 3904SOL     OW23347   1.879   0.466   6.100  0.1325  1.1089  0.0463
 3904SOL    HW123348   1.929   0.388   6.075  0.1853  0.5683  1.8379
 3904SOL    HW223349   1.928   0.504   6.172  2.6590 -1.1877 -0.4568
 3905SOL     OW23350   0.096   0.916   7.460 -0.8138  0.0443 -0.1201
 3905SOL    HW123351   0.125   0.980   7.395 -1.8734  0.5907 -0.0611
 3905SOL    HW223352   0.108   0.835   7.409  1.4426  0.6148 -0.5211
 3906SOL     OW23353   0.117   3.518   6.010  0.0769 -0.4780  0.3205
 3906SOL    HW123354   0.096   3.466   5.932  0.2238 -0.8948  0.5588
 3906SOL    HW223355   0.205   3.480   6.017  0.3835  0.4848  1.6625
 3907SOL     OW23356   3.694   4.090  12.780  0.0555 -0.2581  0.3178
 3907SOL    HW123357   3.744   4.057  12.705 -2.5801 -2.1996 -0.6024
 3907SOL    HW223358   3.760   4.155  12.805  1.7403 -1.9219  0.2242
 3908SOL     OW23359   2.779   3.851  12.928  1.1143 -0.2410 -0.0556
 3908SOL    HW123360   2.825   3.779  12.972  1.3677  0.1142  0.2663
 3908SOL    HW223361   2.820   3.933  12.958 -1.8747  0.9462  0.8490
 3909SOL     OW23362   1.242   1.093   9.375  0.2600  0.1066  0.0753
 3909SOL    HW123363   1.169   1.089   9.313 -0.5154 -1.8171  1.0823
 3909SOL    HW223364   1.233   1.188   9.390  2.9705  0.3841 -0.0911
 3910SOL     OW23365   2.363   3.892  10.759 -0.3034  0.0509  0.4783
 3910SOL    HW123366   2.273   3.861  10.757 -0.5355  0.7719 -0.3244
 3910SOL    HW223367   2.375   3.940  10.677  2.4991 -0.3387  0.6600
 3911SOL     OW23368   2.905   1.099   8.730  0.0119 -0.3456  0.4748
 3911SOL    HW123369   2.933   1.107   8.821 -0.6951  1.3961  0.5457
 3911SOL    HW223370   2.976   1.142   8.683  0.0560 -1.5655 -0.5756
 3912SOL     OW23371   1.971   3.017   3.000  0.1092  0.1759  0.3411
 3912SOL    HW123372   1.953   3.103   2.962  0.4801  1.4167  3.0221
 3912SOL    HW223373   1.925   3.015   3.084 -2.1182 -0.6112 -0.9091
 3913SOL     OW23374   4.219   3.358  13.913 -0.4235  0.0122 -0.4398
 3913SOL    HW123375   4.220   3.368  13.818  0.7668 -0.8565 -0.5221
 3913SOL    HW223376   4.288   3.297  13.937 -0.1286  0.7080  0.4385
 3914SOL     OW23377   4.429   1.699  17.153  0.1206 -0.1482  0.8544
 3914SOL    HW123378   4.417   1.779  17.206 -1.4223  0.3103 -0.2157
 3914SOL    HW223379   4.389   1.722  17.069 -1.8201 -1.2484  1.4806
 3915SOL     OW23380   0.003   2.471   6.364  0.1926 -0.2561  0.2417
 3915SOL    HW123381   4.716   2.379   6.374  2.0865 -0.6350  1.2196
 3915SOL    HW223382   0.077   2.476   6.304  0.9707 -0.7667  1.1746
 3916SOL     OW23383   2.961   3.054   3.805 -0.0016 -0.0967 -0.1592
 3916SOL    HW123384   2.971   2.998   3.728  0.8058  1.4814 -1.1950
 3916SOL    HW223385   2.868   3.076   3.801 -0.5504 -1.9293  2.8682
 3917SOL     OW23386   2.757   4.444   6.397  0.0116  0.2181  0.2926
 3917SOL    HW123387   2.693   4.409   6.459 -0.5000  0.3923 -0.1338
 3917SOL    HW223388   2.730   4.535   6.381 -0.4286 -0.1219 -0.8635
 3918SOL     OW23389   2.797   3.101   1.888 -0.0064 -0.5688 -0.4295
 3918SOL    HW123390   2.859   3.174   1.878 -1.5650  0.6733 -0.8922
 3918SOL    HW223391   2.759   3.128   1.972 -0.7795 -0.3996 -0.8405
 3919SOL     OW23392   0.364   1.626   8.554 -0.0876 -0.5221 -0.1270
 3919SOL    HW123393   0.355   1.671   8.470 -0.5583 -2.6787 -1.2459
 3919SOL    HW223394   0.286   1.648   8.605  0.2567  1.6333 -0.5194
 3920SOL     OW23395   1.201   4.071   5.970  0.0824 -0.2609 -0.0695
 3920SOL    HW123396   1.138   4.084   6.041  1.9461 -0.7908  1.6836
 3920SOL    HW223397   1.243   4.156   5.978 -1.6115  0.6527 -0.7374
 3921SOL     OW23398   0.530   2.776   0.780 -0.6508  1.1748  0.0017
 3921SOL    HW123399   0.557   2.866   0.800 -1.2516  1.3258  0.1347
 3921SOL    HW223400   0.434   2.784   0.776 -0.8389 -1.3821 -0.9465
 3922SOL     OW23401   0.238   2.507   7.549 -0.1128  0.2777 -0.6653
 3922SOL    HW123402   0.146   2.492   7.573 -0.3675  0.5642 -1.4483
 3922SOL    HW223403   0.232   2.585   7.493  0.8098 -0.0307 -1.1844
 3923SOL     OW23404   3.869   2.975   2.638  0.2576 -0.2044 -0.3149
 3923SOL    HW123405   3.920   2.895   2.626  1.7326  0.6821  0.0075
 3923SOL    HW223406   3.787   2.946   2.679 -0.5002  0.4425 -1.3841
 3924SOL     OW23407   2.695   0.586  14.961  0.4419  0.0866  0.0786
 3924SOL    HW123408   2.671   0.665  15.008  0.5650  0.2757 -0.1763
 3924SOL    HW223409   2.693   0.523  15.033 -2.0900  1.1996  0.9860
 3925SOL     OW23410   3.894   2.363  14.542 -0.7374  0.9146 -0.4575
 3925SOL    HW123411   3.860   2.400  14.460 -1.9888 -1.5034 -1.0236
 3925SOL    HW223412   3.977   2.412  14.541 -0.8021  1.0343  0.7000
 3926SOL     OW23413   3.087   1.457   4.482  0.1098  0.3241  0.4063
 3926SOL    HW123414   3.136   1.443   4.401  2.0148  0.5874  1.5250
 3926SOL    HW223415   3.087   1.548   4.511  2.1080  0.6245 -0.5213
 3927SOL     OW23416   3.486   0.078  16.972 -0.1396 -0.3121 -0.7769
 3927SOL    HW123417   3.569   0.086  16.926  0.3277 -1.4903 -0.1169
 3927SOL    HW223418   3.461   0.171  16.975  1.0538  0.0067 -0.8694
 3928SOL     OW23419   3.541   1.559  12.409 -0.5935  0.1673 -0.2933
 3928SOL    HW123420   3.482   1.497  12.451 -0.9442  0.3743 -0.4802
 3928SOL    HW223421   3.587   1.496  12.353  0.0999  1.2399 -0.9356
 3929SOL     OW23422   2.988   2.306   7.341  0.0899 -0.5240 -0.2909
 3929SOL    HW123423   3.070   2.291   7.387  0.0188  0.2494  0.0841
 3929SOL    HW223424   2.997   2.395   7.306  1.4925  0.4319  2.4818
 3930SOL     OW23425   4.609   4.505   7.807  0.4625 -0.4983 -0.2857
 3930SOL    HW123426   4.646   4.590   7.833 -1.4579  0.4329 -0.5680
 3930SOL    HW223427   4.515   4.518   7.816  0.7716  2.5066 -1.4700
 3931SOL     OW23428   3.831   4.004   3.150 -0.6799 -0.0156 -0.3669
 3931SOL    HW123429   3.786   3.937   3.202 -0.5284 -0.0855 -0.3255
 3931SOL    HW223430   3.853   4.075   3.211 -0.8594  0.6922 -1.1269
 3932SOL     OW23431   1.078   2.171   5.508  0.4683 -0.3726  0.3449
 3932SOL    HW123432   1.031   2.248   5.541 -0.0038 -0.0747 -1.0461
 3932SOL    HW223433   1.035   2.153   5.425 -1.6532  1.1489  1.1285
 3933SOL     OW23434   0.518   1.365   5.069  1.2634 -0.3030  0.0312
 3933SOL    HW123435   0.541   1.337   5.158 -0.2086  2.1681  1.2065
 3933SOL    HW223436   0.561   1.298   5.016 -0.5216  0.4916 -2.3955
 3934SOL     OW23437   0.063   3.577   9.927 -0.4450 -1.1512  0.0518
 3934SOL    HW123438   0.123   3.645   9.895  0.8102 -1.9130  0.7625
 3934SOL    HW223439   4.723   3.624   9.956  2.5221  1.4904  3.6395
 3935SOL     OW23440   2.986   2.523   6.438 -0.3227 -0.0845  0.5202
 3935SOL    HW123441   3.054   2.482   6.491  0.1907 -0.3697 -0.3461
 3935SOL    HW223442   2.914   2.461   6.437 -0.2145 -0.2089  0.2832
 3936SOL     OW23443   3.751   3.374   8.247  1.1852  0.5954  0.3300
 3936SOL    HW123444   3.811   3.411   8.182 -0.9797  2.2313 -0.7339
 3936SOL    HW223445   3.776   3.418   8.328  1.1850 -0.5322  0.9414
 3937SOL     OW23446   0.518   3.480   9.496  0.3070 -0.1622 -0.2052
 3937SOL    HW123447   0.577   3.501   9.424  0.1752  0.0170 -0.2579
 3937SOL    HW223448   0.473   3.400   9.469  0.6385 -0.4760  0.1655
 3938SOL     OW23449   3.055   0.186   3.712  0.2359  0.3975 -0.0185
 3938SOL    HW123450   3.078   0.093   3.705  1.4483  0.7620 -0.7528
 3938SOL    HW223451   2.960   0.170   3.715  0.1119  1.1068 -0.2476
 3939SOL     OW23452   4.172   4.620  17.103  0.2611 -0.0067  0.9599
 3939SOL    HW123453   4.108   4.630  17.032  0.9298 -1.9716  0.0657
 3939SOL    HW223454   4.169   4.529  17.133 -2.5732 -0.0191  0.7023
 3940SOL     OW23455   1.792   3.740   9.958  0.4937 -0.1316 -0.6961
 3940SOL    HW123456   1.846   3.819   9.954  0.9361 -0.3886  0.1523
 3940SOL    HW223457   1.776   3.728   9.864  1.4474 -1.1116 -0.7363
 3941SOL     OW23458   3.518   3.708  16.100 -0.0234 -0.0965 -1.1642
 3941SOL    HW123459   3.604   3.719  16.140  0.1029  0.0231 -1.4713
 3941SOL    HW223460   3.475   3.781  16.144 -1.2142 -0.6010 -1.4856
 3942SOL     OW23461   2.797   4.248  11.014 -0.3158  0.2359 -0.1195
 3942SOL    HW123462   2.851   4.171  11.035 -2.7428 -1.4706 -0.1300
 3942SOL    HW223463   2.706   4.217  11.010 -0.4055  0.4536  0.3633
 3943SOL     OW23464   2.299   3.343   6.473 -0.3297 -0.2128  0.5754
 3943SOL    HW123465   2.288   3.354   6.567 -1.0462  1.2332  0.3228
 3943SOL    HW223466   2.293   3.248   6.465  0.1580 -0.1445 -0.7419
 3944SOL     OW23467   4.184   1.674  14.649 -0.1612  0.3878  0.2346
 3944SOL    HW123468   4.113   1.633  14.698  1.0478 -0.3237  1.4179
 3944SOL    HW223469   4.133   1.750  14.621  1.6425  2.3731  2.2804
 3945SOL     OW23470   3.332   0.668   7.842  0.4631  0.1649 -0.0168
 3945SOL    HW123471   3.271   0.741   7.838  0.3773 -0.0424 -2.1522
 3945SOL    HW223472   3.304   0.619   7.765  0.4373  0.1341  0.0126
 3946SOL     OW23473   2.300   3.067   6.518 -0.0890 -0.1244 -0.0356
 3946SOL    HW123474   2.313   2.973   6.505  0.6991 -0.0496  0.2016
 3946SOL    HW223475   2.205   3.070   6.530 -0.2327 -0.4333 -1.1112
 3947SOL     OW23476   3.938   1.700   0.827 -0.2522 -0.1476 -0.6212
 3947SOL    HW123477   3.947   1.749   0.746  0.5469 -1.3325 -1.2463
 3947SOL    HW223478   3.847   1.668   0.826  0.0605 -1.0936  0.3069
 3948SOL     OW23479   0.051   0.457  10.162 -0.8086  0.0618  0.4529
 3948SOL    HW123480   0.117   0.410  10.212 -2.0276 -1.1205  0.9355
 3948SOL    HW223481   4.716   0.396  10.169  0.3360 -1.6115 -2.2516
 3949SOL     OW23482   0.676   1.029   9.251 -0.5254  0.1297  0.1915
 3949SOL    HW123483   0.740   1.099   9.253  0.6953 -1.0913  3.7883
 3949SOL    HW223484   0.704   0.991   9.167 -2.4714  0.0924 -0.4326
 3950SOL     OW23485   2.640   1.041   1.767  0.4386  0.4663  0.3369
 3950SOL    HW123486   2.561   1.043   1.821  1.0031  2.8371  1.0818
 3950SOL    HW223487   2.607   1.074   1.684  2.0806 -0.8384 -0.8418
 3951SOL     OW23488   2.547   2.890   6.262 -0.2880 -0.4179 -0.0172
 3951SOL    HW123489   2.487   2.947   6.214 -0.7707 -0.9674 -0.0578
 3951SOL    HW223490   2.490   2.865   6.335  0.3924  1.3542  1.1420
 3952SOL     OW23491   4.184   3.484   2.498 -0.0984 -0.6213  0.7076
 3952SOL    HW123492   4.145   3.548   2.557 -1.2253 -2.8927  2.4074
 3952SOL    HW223493   4.245   3.439   2.557 -0.4481  0.4228  1.8849
 3953SOL     OW23494   1.330   3.802   4.776 -0.3171  0.3713 -0.0218
 3953SOL    HW123495   1.417   3.821   4.811 -0.9561  0.0167  1.7243
 3953SOL    HW223496   1.338   3.708   4.758 -1.1630  0.4459 -0.7921
 3954SOL     OW23497   3.914   1.647   2.450  0.5561 -0.0770  0.2222
 3954SOL    HW123498   3.857   1.639   2.373 -0.7413  2.7920  0.8981
 3954SOL    HW223499   3.965   1.726   2.430 -1.1126  0.7832 -0.6212
 3955SOL     OW23500   0.940   3.675  14.073 -0.4846  0.4829  0.4169
 3955SOL    HW123501   1.006   3.716  14.129 -1.0315  4.4561 -1.8011
 3955SOL    HW223502   0.938   3.733  13.997  1.0730 -1.2052 -0.9009
 3956SOL     OW23503   2.061   0.171   8.455  0.3693  0.7940  0.0072
 3956SOL    HW123504   2.143   0.121   8.454  0.0482  0.3041 -1.7998
 3956SOL    HW223505   2.050   0.178   8.549  0.0549 -0.1801  0.0408
 3957SOL     OW23506   4.494   0.108   5.801  0.6914 -0.1185  0.9048
 3957SOL    HW123507   4.541   0.087   5.720  1.5740  0.1976  1.3454
 3957SOL    HW223508   4.456   0.191   5.771 -1.0851 -0.8035  1.2253
 3958SOL     OW23509   3.629   1.738  10.638 -0.3754  0.3906  0.4758
 3958SOL    HW123510   3.658   1.809  10.694 -0.7845  1.3496 -0.5356
 3958SOL    HW223511   3.560   1.784  10.590  1.0696  2.1759  0.1149
 3959SOL     OW23512   3.499   4.689  10.961 -0.4315  0.0373 -0.2880
 3959SOL    HW123513   3.565   0.020  10.979 -0.0238 -0.4534  0.0706
 3959SOL    HW223514   3.545   4.613  10.996  0.5547  0.7226 -0.0737
 3960SOL     OW23515   0.749   0.504   7.661  0.5919 -0.4567 -0.8433
 3960SOL    HW123516   0.722   0.455   7.584  2.8367 -1.3225 -1.0808
 3960SOL    HW223517   0.843   0.512   7.643  0.4687  1.7509 -0.5045
 3961SOL     OW23518   1.369   3.268  16.402 -0.1311  0.0067  0.2665
 3961SOL    HW123519   1.336   3.196  16.349 -2.7214  0.3449  1.4407
 3961SOL    HW223520   1.323   3.260  16.486  0.1606  2.3521  0.6484
 3962SOL     OW23521   0.152   1.876  15.876 -0.6726  0.0014 -0.2893
 3962SOL    HW123522   0.242   1.848  15.885  0.2129  3.0886  0.5408
 3962SOL    HW223523   0.155   1.970  15.855  1.1518  0.3946  1.7614
 3963SOL     OW23524   2.614   2.813   4.716 -0.3415 -0.1657 -0.2821
 3963SOL    HW123525   2.582   2.743   4.773 -0.8694 -0.0073 -0.3837
 3963SOL    HW223526   2.695   2.773   4.685 -0.2329 -0.2036  0.0465
 3964SOL     OW23527   3.882   4.735  17.019  0.2730  0.2780 -0.4841
 3964SOL    HW123528   3.817   0.003  16.950 -0.0915  2.2354  0.0003
 3964SOL    HW223529   3.912   0.088  17.024  1.7612 -0.4410  3.5273
 3965SOL     OW23530   3.729   1.639   1.562  0.0621  0.1806 -0.1821
 3965SOL    HW123531   3.712   1.719   1.612  0.1985  0.3179 -0.3570
 3965SOL    HW223532   3.657   1.648   1.499 -0.7666 -0.8488  0.6037
 3966SOL     OW23533   2.471   0.709   5.123 -0.3190 -0.8301 -0.1533
 3966SOL    HW123534   2.440   0.738   5.037 -0.5196  0.1863  0.2547
 3966SOL    HW223535   2.431   0.623   5.130  1.1200 -1.4847 -0.0214
 3967SOL     OW23536   2.768   4.070   8.212 -0.0559 -0.4638  0.1983
 3967SOL    HW123537   2.797   4.126   8.139  0.3181 -0.8201  0.0690
 3967SOL    HW223538   2.703   4.118   8.262 -0.0107 -0.6321  0.4219
 3968SOL     OW23539   0.132   3.197   5.760  0.1328 -0.2577 -0.3600
 3968SOL    HW123540   0.043   3.196   5.726 -0.0973 -0.4670  0.2676
 3968SOL    HW223541   0.152   3.278   5.808  0.7420 -0.9227  0.4986
 3969SOL     OW23542   0.677   2.384   2.241  0.0258  0.1774  0.0944
 3969SOL    HW123543   0.670   2.342   2.155 -0.2037  1.0701 -0.3236
 3969SOL    HW223544   0.601   2.441   2.240  1.0814  1.5868 -0.3712
 3970SOL     OW23545   0.771   1.008   1.671 -0.3939 -0.0164 -0.3030
 3970SOL    HW123546   0.842   0.960   1.712 -0.1359  1.1805  0.6788
 3970SOL    HW223547   0.697   0.951   1.691 -1.2339  1.4529  0.8391
 3971SOL     OW23548   3.396   0.649   2.601 -0.1488  0.1193 -0.0036
 3971SOL    HW123549   3.387   0.567   2.650 -0.1858 -2.2131 -3.9388
 3971SOL    HW223550   3.491   0.660   2.614 -0.3937  0.7086  1.2905
 3972SOL     OW23551   1.590   3.580   6.861 -0.0323  0.0706 -0.3275
 3972SOL    HW123552   1.563   3.527   6.936 -2.1392  1.5161 -0.0750
 3972SOL    HW223553   1.630   3.507   6.814  0.5334  0.4440 -0.4310
 3973SOL     OW23554   2.416   1.608   2.111 -0.0966  0.1687 -0.7944
 3973SOL    HW123555   2.480   1.635   2.177  0.5621 -2.4890 -0.3468
 3973SOL    HW223556   2.348   1.664   2.148  1.9570  1.8543  0.4192
 3974SOL     OW23557   4.069   2.151   7.270  0.4654 -0.4681 -0.8532
 3974SOL    HW123558   3.992   2.131   7.216 -0.1969  1.1078 -0.4860
 3974SOL    HW223559   4.024   2.184   7.348  1.2211 -0.9781 -0.2030
 3975SOL     OW23560   3.000   3.893   2.201  0.0578 -0.1604  0.1583
 3975SOL    HW123561   2.942   3.851   2.137  0.3360  1.3825 -1.1305
 3975SOL    HW223562   2.952   3.891   2.283  1.7186  2.3258  1.2240
 3976SOL     OW23563   0.268   3.235  10.943 -0.3511  0.3659 -0.2759
 3976SOL    HW123564   0.252   3.177  11.017  1.1196  3.1795  2.2638
 3976SOL    HW223565   0.345   3.287  10.967 -1.1625  1.0810  0.7758
 3977SOL     OW23566   4.666   3.387  10.603 -0.0967  0.4685  0.4656
 3977SOL    HW123567   4.666   3.482  10.607  0.5429  0.4737  0.4244
 3977SOL    HW223568   4.625   3.360  10.685  0.0372 -0.5997  0.1883
 3978SOL     OW23569   3.899   0.025   5.775 -0.0667  0.1202  0.1542
 3978SOL    HW123570   3.978   0.072   5.748 -0.5542  0.8181 -0.0569
 3978SOL    HW223571   3.837   0.096   5.793 -0.9123 -0.8561  1.0756
 3979SOL     OW23572   4.528   2.817   6.996  0.2519  0.0537 -0.1954
 3979SOL    HW123573   4.491   2.850   6.914  1.1145  0.1006 -0.5709
 3979SOL    HW223574   4.585   2.886   7.029 -0.0951  0.5063 -0.5422
 3980SOL     OW23575   1.855   0.885   2.555  0.4450 -0.0389 -1.0312
 3980SOL    HW123576   1.860   0.864   2.462  2.2314 -3.7935 -0.1164
 3980SOL    HW223577   1.878   0.977   2.565  2.0046 -0.7497  1.8454
 3981SOL     OW23578   1.614   4.450   4.151  0.1878 -0.0602 -0.0780
 3981SOL    HW123579   1.683   4.385   4.165  1.2784  1.4587  1.6275
 3981SOL    HW223580   1.585   4.458   4.242 -1.7582  1.8294 -0.8634
 3982SOL     OW23581   0.896   0.489  11.813 -0.4046 -0.8032 -0.1335
 3982SOL    HW123582   0.810   0.501  11.772  1.2001  0.1812 -3.2089
 3982SOL    HW223583   0.870   0.425  11.880 -0.4392  0.1317  0.7437
 3983SOL     OW23584   2.534   0.877   7.827  0.2777 -0.1902 -0.0117
 3983SOL    HW123585   2.525   0.813   7.756 -2.0126  0.3345 -0.2069
 3983SOL    HW223586   2.564   0.954   7.780 -0.6533 -0.3316 -0.8596
 3984SOL     OW23587   3.247   0.308   3.239 -0.5528  0.2376 -0.4579
 3984SOL    HW123588   3.232   0.403   3.247 -0.3954  0.1645  0.7509
 3984SOL    HW223589   3.193   0.294   3.161  0.4033 -2.0030 -0.6844
 3985SOL     OW23590   2.266   2.878  11.384 -0.2260  0.2983  0.1984
 3985SOL    HW123591   2.260   2.813  11.314  0.4604 -0.5092  0.8842
 3985SOL    HW223592   2.275   2.960  11.335 -1.9659 -1.3899 -2.9517
 3986SOL     OW23593   1.003   0.996   9.702  0.3518 -0.5157 -0.1273
 3986SOL    HW123594   0.959   1.081   9.697  0.2307 -0.6177 -0.8806
 3986SOL    HW223595   1.085   1.025   9.740  0.5648 -2.3093  0.7902
 3987SOL     OW23596   0.396   0.036   4.032 -0.3514 -0.5139  0.7028
 3987SOL    HW123597   0.483   0.012   4.000 -0.4561 -0.1343  0.1263
 3987SOL    HW223598   0.383   0.125   3.997 -0.5266 -0.9740 -0.4136
 3988SOL     OW23599   2.384   3.731   3.637 -0.5814  0.2194 -0.3552
 3988SOL    HW123600   2.384   3.678   3.557  1.8295 -0.9701  0.4114
 3988SOL    HW223601   2.411   3.669   3.705 -1.7482 -1.1987 -1.1815
 3989SOL     OW23602   0.790   4.376   8.891 -0.1420  0.2661  0.0412
 3989SOL    HW123603   0.844   4.370   8.969  2.0044 -1.1087 -1.5431
 3989SOL    HW223604   0.821   4.304   8.836 -0.8455 -0.3901  0.4980
 3990SOL     OW23605   2.484   2.953  15.306  0.5224 -0.1782 -0.2414
 3990SOL    HW123606   2.575   2.923  15.317  0.7523 -0.1514 -1.9517
 3990SOL    HW223607   2.469   2.913  15.220 -2.5068  1.5373 -0.5024
 3991SOL     OW23608   2.852   0.838  11.387  0.1875 -0.0081  0.2573
 3991SOL    HW123609   2.769   0.834  11.341  0.8099 -0.8658 -0.7823
 3991SOL    HW223610   2.863   0.745  11.408  0.0362 -0.2539 -0.7598
 3992SOL     OW23611   1.967   0.115   4.410  0.1212 -0.2551  0.1963
 3992SOL    HW123612   1.969   0.208   4.431 -0.0631 -0.1913 -0.0766
 3992SOL    HW223613   2.033   0.111   4.341 -0.5271  0.7595 -0.4653
 3993SOL     OW23614   2.953   1.377   7.782  0.4350 -0.3477  0.4342
 3993SOL    HW123615   2.959   1.449   7.844 -1.5488  0.4950 -0.3580
 3993SOL    HW223616   2.955   1.299   7.837  1.3955 -1.2767 -0.8893
 3994SOL     OW23617   1.412   3.139  17.019 -0.3221 -0.3234  0.6585
 3994SOL    HW123618   1.431   3.215  16.964  1.0114 -0.2767  1.1841
 3994SOL    HW223619   1.316   3.131  17.020 -0.4229  0.7753 -1.3189
 3995SOL     OW23620   2.686   2.638  14.971  0.3451 -0.5708 -0.4943
 3995SOL    HW123621   2.648   2.573  14.913  1.9915  0.9853 -3.3076
 3995SOL    HW223622   2.750   2.667  14.906  0.1794  0.1719 -0.3234
 3996SOL     OW23623   3.560   3.724   5.970  0.1638 -0.0047 -0.7377
 3996SOL    HW123624   3.580   3.818   5.976  0.3348 -0.0490 -0.6186
 3996SOL    HW223625   3.471   3.721   5.934  0.4202 -2.9448 -1.0897
 3997SOL     OW23626   0.641   0.112   3.292 -0.0099 -0.3592  0.3381
 3997SOL    HW123627   0.571   0.124   3.227  0.6391 -0.2774 -0.3559
 3997SOL    HW223628   0.609   0.167   3.363 -3.1344  0.4950 -1.6902
 3998SOL     OW23629   2.074   3.179   2.535  0.6396  0.2466 -0.1722
 3998SOL    HW123630   2.085   3.097   2.486 -1.1529  0.8875 -1.6244
 3998SOL    HW223631   2.015   3.150   2.605  0.7941 -0.3636 -0.2881
 3999SOL     OW23632   3.599   2.441   1.827  0.3052  0.0011 -0.2354
 3999SOL    HW123633   3.568   2.484   1.907  0.3725  1.3793 -0.9610
 3999SOL    HW223634   3.523   2.416   1.774  1.0205 -3.8984  0.6023
 4000SOL     OW23635   2.526   2.211  13.715  0.6821 -0.1583  0.3598
 4000SOL    HW123636   2.496   2.129  13.755 -0.0100 -0.8035 -1.4933
 4000SOL    HW223637   2.447   2.231  13.664  1.6636 -0.0774 -1.1209
 4001SOL     OW23638   2.446   2.654  12.271  0.3097  0.1101 -0.2425
 4001SOL    HW123639   2.462   2.561  12.255 -3.1728 -0.2546 -1.4661
 4001SOL    HW223640   2.383   2.641  12.342  2.4263 -2.2304  1.2174
 4002SOL     OW23641   3.989   0.988  16.007  0.2436 -0.1285 -0.4476
 4002SOL    HW123642   3.968   0.905  16.049  0.6679 -1.1780 -2.3001
 4002SOL    HW223643   3.926   0.992  15.935  0.8374 -1.1567 -1.0379
 4003SOL     OW23644   3.019   1.168   3.951 -0.7311  0.2053  0.1387
 4003SOL    HW123645   3.082   1.108   3.990  0.0569  1.3069  0.5586
 4003SOL    HW223646   2.994   1.132   3.866 -0.2667 -1.6195  0.7690
 4004SOL     OW23647   3.147   0.124   4.196  0.1297  0.1349 -0.4896
 4004SOL    HW123648   3.214   0.144   4.262 -0.2852  0.2279 -0.0998
 4004SOL    HW223649   3.180   0.154   4.111  0.6573  1.5216  0.2133
 4005SOL     OW23650   2.871   2.377   1.918  0.0697 -0.0066 -0.0937
 4005SOL    HW123651   2.800   2.313   1.927  0.2348  0.0935  1.9041
 4005SOL    HW223652   2.882   2.401   2.010 -0.0754  0.0795 -0.0981
 4006SOL     OW23653   2.166   2.301   3.796  0.6306  0.2634  0.0860
 4006SOL    HW123654   2.155   2.248   3.718  1.1645 -0.1053  0.2653
 4006SOL    HW223655   2.085   2.353   3.797 -0.5043 -1.5175  1.9188
 4007SOL     OW23656   3.813   1.038  17.667  0.2582 -0.1790  0.0442
 4007SOL    HW123657   3.754   0.993  17.729 -0.2032  1.0944  0.5184
 4007SOL    HW223658   3.834   0.969  17.604  1.3748 -0.5333  0.8071
 4008SOL     OW23659   4.195   1.306   4.292 -0.4006  0.0571 -0.3141
 4008SOL    HW123660   4.108   1.328   4.323 -1.0523  1.1972 -2.9853
 4008SOL    HW223661   4.177   1.300   4.198 -0.1488  0.1932 -0.3712
 4009SOL     OW23662   4.193   2.527   8.340 -0.1056  0.5468 -0.1007
 4009SOL    HW123663   4.242   2.448   8.361  0.4186  0.8084 -0.3172
 4009SOL    HW223664   4.173   2.511   8.247  1.1028 -1.9615  0.0676
 4010SOL     OW23665   2.506   2.751  14.249 -0.2176 -0.2254  0.3298
 4010SOL    HW123666   2.531   2.832  14.207 -1.3709  0.4514  0.9331
 4010SOL    HW223667   2.464   2.701  14.179 -1.5978 -0.3504  1.2408
 4011SOL     OW23668   1.748   2.937  13.058 -0.0844  0.0802  0.3883
 4011SOL    HW123669   1.673   2.912  13.004 -0.6842 -1.3636  1.8921
 4011SOL    HW223670   1.795   3.004  13.008 -2.3294  2.0998  0.9695
 4012SOL     OW23671   1.879   2.513   8.254 -0.2742  0.2517  0.5988
 4012SOL    HW123672   1.947   2.575   8.229 -0.1204 -0.0781  0.2106
 4012SOL    HW223673   1.915   2.495   8.340  1.8793 -0.6881 -0.5084
 4013SOL     OW23674   1.217   2.922   0.573  0.2171 -0.1931 -0.4747
 4013SOL    HW123675   1.240   2.994   0.631 -1.1113 -0.0181 -0.1519
 4013SOL    HW223676   1.294   2.867   0.585 -0.5234 -0.2186  4.2225
 4014SOL     OW23677   0.604   2.663   2.812 -0.0153 -0.2963  0.3949
 4014SOL    HW123678   0.566   2.662   2.900  0.1223  0.2722  0.4608
 4014SOL    HW223679   0.610   2.758   2.802 -0.5754 -0.1920  1.0227
 4015SOL     OW23680   1.254   2.696  11.105 -0.3752  0.5147  0.4531
 4015SOL    HW123681   1.166   2.676  11.074 -0.9844  1.7229  1.3748
 4015SOL    HW223682   1.258   2.782  11.063 -1.8262  0.9370  1.1863
 4016SOL     OW23683   4.330   1.084   1.632 -0.1509  0.4402 -0.4408
 4016SOL    HW123684   4.260   1.025   1.661  0.2525  1.1114  1.9535
 4016SOL    HW223685   4.406   1.030   1.651  0.0734  0.6067 -0.8692
 4017SOL     OW23686   2.372   2.366  14.920  0.5832 -0.4868 -0.7652
 4017SOL    HW123687   2.301   2.423  14.950  1.1493 -0.5481  0.7125
 4017SOL    HW223688   2.426   2.359  14.999 -0.2366 -3.7457 -0.5043
 4018SOL     OW23689   0.261   1.382   2.722 -0.4514  0.2243 -0.0985
 4018SOL    HW123690   0.251   1.461   2.670  2.1036  1.0686  0.6889
 4018SOL    HW223691   0.320   1.338   2.661  0.7871  0.2817  1.0670
 4019SOL     OW23692   3.888   3.459   8.459 -0.4176 -0.2085  0.1748
 4019SOL    HW123693   3.977   3.425   8.468 -0.5688 -0.7587 -0.3712
 4019SOL    HW223694   3.871   3.520   8.530  1.1792  0.4371 -0.0124
 4020SOL     OW23695   2.413   3.675   7.988  0.6050 -0.5950  0.2442
 4020SOL    HW123696   2.468   3.746   8.020  0.0482 -0.5478  1.0996
 4020SOL    HW223697   2.371   3.721   7.915  1.6643  1.6188  1.0464
 4021SOL     OW23698   2.124   3.136   8.256 -0.7035 -0.1530  0.0362
 4021SOL    HW123699   2.182   3.073   8.300 -0.0564 -0.2573 -0.9703
 4021SOL    HW223700   2.146   3.119   8.165 -0.9881  1.5548 -0.3642
 4022SOL     OW23701   0.867   0.338  17.338 -0.4053  0.0907 -0.3143
 4022SOL    HW123702   0.884   0.410  17.277 -1.7041  0.8156  0.1893
 4022SOL    HW223703   0.838   0.268  17.280 -0.1268 -2.2980  2.4220
 4023SOL     OW23704   3.415   3.118   9.675 -0.5929  0.3522  0.1747
 4023SOL    HW123705   3.406   3.050   9.609  2.1380  1.3876 -1.2555
 4023SOL    HW223706   3.325   3.152   9.678 -0.2648  1.2541 -0.0301
 4024SOL     OW23707   2.305   1.887  14.304  0.6770  0.2571 -0.2628
 4024SOL    HW123708   2.220   1.914  14.268 -0.5726  0.4557  2.7327
 4024SOL    HW223709   2.287   1.844  14.388  0.0497 -0.9315 -1.0100
 4025SOL     OW23710   4.131   1.479   2.494 -0.1736  0.3753 -0.7581
 4025SOL    HW123711   4.042   1.499   2.465 -0.5462  0.7807  0.6628
 4025SOL    HW223712   4.173   1.439   2.417  1.3482  1.2823 -0.3958
 4026SOL     OW23713   3.571   2.645   9.297 -0.7902 -0.1270  0.4974
 4026SOL    HW123714   3.595   2.592   9.221  3.0445  0.5712  1.2296
 4026SOL    HW223715   3.609   2.608   9.377 -0.3115 -0.1233  0.2709
 4027SOL     OW23716   4.710   3.665  14.055 -0.3400  0.1741  0.2404
 4027SOL    HW123717   4.676   3.703  14.136  0.1021 -0.0538  0.5323
 4027SOL    HW223718   4.645   3.600  14.028  0.2020  0.2624 -1.2763
 4028SOL     OW23719   1.939   0.198  13.221  0.3556  0.3928 -0.4215
 4028SOL    HW123720   1.910   0.285  13.251  1.1120  0.6880 -0.5448
 4028SOL    HW223721   2.025   0.181  13.258  0.0917  0.9180  0.4434
 4029SOL     OW23722   4.088   0.810   3.109  0.0830  0.0341  0.0750
 4029SOL    HW123723   4.069   0.846   3.022  1.0387 -1.1169 -0.6166
 4029SOL    HW223724   4.003   0.824   3.151  0.8438  0.6465  1.4034
 4030SOL     OW23725   3.525   1.782   5.414 -0.0875 -0.2497  0.2598
 4030SOL    HW123726   3.592   1.823   5.359  0.4464 -1.1854  0.2076
 4030SOL    HW223727   3.581   1.761   5.488  0.5648  1.1809  0.1728
 4031SOL     OW23728   0.007   2.961  13.599  0.2091  0.0159  0.1765
 4031SOL    HW123729   4.701   2.930  13.519  0.7933 -0.6159  0.0976
 4031SOL    HW223730   4.679   2.933  13.662 -0.2218  1.5432  0.3968
 4032SOL     OW23731   2.335   1.441   3.252  0.4544 -0.2999  0.5779
 4032SOL    HW123732   2.289   1.390   3.318 -0.0556 -0.2059  0.2985
 4032SOL    HW223733   2.422   1.445   3.290 -0.0753  0.5878  1.7211
 4033SOL     OW23734   0.771   1.282  17.178  0.2165  0.1125  0.4722
 4033SOL    HW123735   0.747   1.243  17.094  0.2248  1.2576 -0.0659
 4033SOL    HW223736   0.836   1.221  17.212 -0.8222 -0.7931  0.8028
 4034SOL     OW23737   1.531   3.757   7.479 -0.1680 -0.0027 -0.2879
 4034SOL    HW123738   1.579   3.839   7.484  2.0573 -1.3432  0.5210
 4034SOL    HW223739   1.572   3.726   7.398  2.7361  1.2730  0.6905
 4035SOL     OW23740   2.542   1.426   6.057 -0.9855 -0.5702  0.1001
 4035SOL    HW123741   2.487   1.359   6.019  1.1625 -0.8973 -2.3931
 4035SOL    HW223742   2.507   1.510   6.027 -0.3416  0.1608  1.3771
 4036SOL     OW23743   2.795   2.285   8.028 -0.0477 -0.0117 -0.3841
 4036SOL    HW123744   2.827   2.200   7.999  0.6655 -0.7421  2.5306
 4036SOL    HW223745   2.758   2.315   7.945 -1.2074 -0.2624  0.0464
 4037SOL     OW23746   4.579   1.767   6.065 -0.6670 -0.0923 -0.1767
 4037SOL    HW123747   4.521   1.695   6.039 -0.4226 -0.4599  0.2946
 4037SOL    HW223748   4.583   1.813   5.981 -0.6518  0.4056  0.0962
 4038SOL     OW23749   0.456   0.035  13.348  0.2153  0.2031  0.0079
 4038SOL    HW123750   0.481   0.019  13.257 -2.3461 -0.6056 -0.5426
 4038SOL    HW223751   0.486   0.123  13.369  0.5507 -0.3431  1.8211
 4039SOL     OW23752   4.219   2.720   2.980 -0.2632  0.4648 -0.6202
 4039SOL    HW123753   4.220   2.781   3.054  0.4272  0.0578 -0.3024
 4039SOL    HW223754   4.164   2.759   2.911  0.7548  0.9100 -1.1760
 4040SOL     OW23755   2.438   3.002   0.908  0.3933 -0.0221  0.2428
 4040SOL    HW123756   2.480   3.017   0.992  1.0104  0.0933 -0.0886
 4040SOL    HW223757   2.492   3.061   0.855 -0.0133  1.2402  1.2435
 4041SOL     OW23758   4.220   1.266   9.203  0.6673  0.3961  0.6456
 4041SOL    HW123759   4.239   1.181   9.164 -2.9324 -1.0123  1.8803
 4041SOL    HW223760   4.248   1.255   9.294 -1.0629 -2.0599  0.9022
 4042SOL     OW23761   0.996   4.643   3.559 -0.4128  0.0387  0.5156
 4042SOL    HW123762   0.943   4.589   3.500 -0.1435 -0.9038  1.1434
 4042SOL    HW223763   0.932   4.707   3.590  1.7834  0.6198  3.8547
 4043SOL     OW23764   2.582   1.392   7.760 -0.3199  0.3985 -0.6409
 4043SOL    HW123765   2.578   1.479   7.799 -0.6474  0.6553 -1.2379
 4043SOL    HW223766   2.575   1.428   7.672 -0.6824  0.2084 -0.6907
 4044SOL     OW23767   2.111   0.421   3.219 -0.4792  0.1448  0.1484
 4044SOL    HW123768   2.080   0.461   3.138 -0.8896 -0.6659 -0.1005
 4044SOL    HW223769   2.044   0.451   3.280 -2.2989 -1.7647 -0.8868
 4045SOL     OW23770   0.448   2.775   9.030 -0.5795  0.5706  0.1872
 4045SOL    HW123771   0.441   2.682   9.007  1.0060  0.7603 -1.0131
 4045SOL    HW223772   0.415   2.786   9.119  0.1117  0.6697  0.4309
 4046SOL     OW23773   1.076   0.255   0.807  0.0339  0.4833 -0.2227
 4046SOL    HW123774   1.068   0.318   0.735  1.9166 -1.1036 -1.8213
 4046SOL    HW223775   1.147   0.196   0.781  0.3604  0.3464  0.9938
 4047SOL     OW23776   0.154   4.708   6.783 -0.1260 -0.1345 -0.2172
 4047SOL    HW123777   0.074   4.666   6.752 -0.8453  0.3591  0.9802
 4047SOL    HW223778   0.124   0.008   6.866 -2.2398 -0.7393 -0.6983
 4048SOL     OW23779   2.980   3.838   9.102 -0.0569 -0.1398  0.1640
 4048SOL    HW123780   2.892   3.877   9.108 -1.6032 -3.5994 -0.1824
 4048SOL    HW223781   2.971   3.768   9.037  3.0407 -0.9087  0.5813
 4049SOL     OW23782   2.880   1.398   7.314 -0.3580  0.2838 -0.3087
 4049SOL    HW123783   2.941   1.424   7.383  1.0822  0.0024 -1.4638
 4049SOL    HW223784   2.807   1.369   7.369  0.6657  0.6772  1.2752
 4050SOL     OW23785   0.738   1.249   4.490  0.2238  0.3713  0.3500
 4050SOL    HW123786   0.781   1.165   4.477  1.9477  1.3267 -0.1499
 4050SOL    HW223787   0.796   1.312   4.447  1.1563 -1.9021 -1.7189
 4051SOL     OW23788   2.949   1.813   4.941 -0.0210  0.0555  0.0778
 4051SOL    HW123789   2.962   1.825   5.035  1.3478  2.1227 -0.3771
 4051SOL    HW223790   3.043   1.810   4.923 -0.0579  0.1982 -0.1434
 4052SOL     OW23791   3.141   0.936   3.756 -0.2639 -0.5636  0.1719
 4052SOL    HW123792   3.064   0.990   3.738 -0.3586 -0.8223 -0.1903
 4052SOL    HW223793   3.117   0.857   3.708  1.3845 -0.5032 -0.7387
 4053SOL     OW23794   3.207   2.370   6.558  0.0315  0.7770 -0.2354
 4053SOL    HW123795   3.155   2.307   6.608  0.6520  0.0303 -0.5271
 4053SOL    HW223796   3.236   2.319   6.483 -1.4214  1.4549 -1.2531
 4054SOL     OW23797   2.921   0.884   5.677  0.3709  0.4282 -0.5515
 4054SOL    HW123798   2.826   0.880   5.681  0.3390  1.3319 -0.1389
 4054SOL    HW223799   2.944   0.887   5.770  1.0568 -3.5258 -0.6257
 4055SOL     OW23800   4.731   0.496   4.540  1.0334 -0.2735  0.6342
 4055SOL    HW123801   0.062   0.453   4.592  0.5151  0.3667  1.8227
 4055SOL    HW223802   4.690   0.547   4.609 -0.5350 -0.3232 -0.2578
 4056SOL     OW23803   4.522   0.319  12.857 -0.6064  0.2705 -0.2280
 4056SOL    HW123804   4.531   0.236  12.902  0.0428  1.2581  1.4623
 4056SOL    HW223805   4.535   0.278  12.771  0.1997 -0.1328  0.0847
 4057SOL     OW23806   0.220   3.653   8.931 -0.3792 -0.1832 -0.0263
 4057SOL    HW123807   0.144   3.615   8.973 -1.5918  0.5847 -1.5265
 4057SOL    HW223808   0.282   3.659   9.004  1.5016  0.3595 -1.6650
 4058SOL     OW23809   1.094   2.862   9.955  0.5595 -0.2512 -0.1003
 4058SOL    HW123810   1.002   2.850   9.934  0.5214 -1.5735  0.8255
 4058SOL    HW223811   1.139   2.850   9.871  0.7017  0.1801 -0.0872
 4059SOL     OW23812   1.543   0.045  14.263 -0.4343  0.0738 -0.7809
 4059SOL    HW123813   1.632   0.009  14.260 -1.0239 -1.5448  1.3030
 4059SOL    HW223814   1.540   0.101  14.340  0.1905  1.6177 -1.8769
 4060SOL     OW23815   0.885   1.984   5.527 -0.1615 -0.1625  0.1496
 4060SOL    HW123816   0.952   2.051   5.518  0.4305 -0.5149  1.9631
 4060SOL    HW223817   0.837   1.988   5.444  2.0871  3.6923 -0.9352
 4061SOL     OW23818   0.915   4.389   3.725  0.0269 -0.2805  0.0845
 4061SOL    HW123819   0.886   4.480   3.731  2.0135  0.2509  1.5536
 4061SOL    HW223820   0.868   4.361   3.647 -2.5643  1.5399  0.9781
 4062SOL     OW23821   0.608   0.546   9.417  0.0996  0.2806 -0.0481
 4062SOL    HW123822   0.678   0.610   9.431 -0.6020  1.1552 -0.5507
 4062SOL    HW223823   0.596   0.558   9.323  0.4811  1.5248  0.0553
 4063SOL     OW23824   4.477   2.353   7.607  0.2187 -0.0556 -0.1976
 4063SOL    HW123825   4.416   2.405   7.554  0.7339  0.6097 -0.1403
 4063SOL    HW223826   4.440   2.266   7.596 -0.0419  0.1440 -0.9320
 4064SOL     OW23827   2.700   4.173   0.914  0.1229  0.3686  0.1558
 4064SOL    HW123828   2.654   4.111   0.858 -0.1621  1.1289 -0.4551
 4064SOL    HW223829   2.719   4.239   0.847  0.7345  0.1456  0.1175
 4065SOL     OW23830   4.290   3.341   9.328  0.7370 -0.0458  0.2269
 4065SOL    HW123831   4.223   3.374   9.267 -0.4466  0.0117  1.5429
 4065SOL    HW223832   4.370   3.386   9.302 -1.1098  3.0713 -0.1240
 4066SOL     OW23833   4.620   2.738   9.292 -0.0520 -0.2736 -0.0730
 4066SOL    HW123834   4.704   2.713   9.252  0.0515  0.7563 -0.4882
 4066SOL    HW223835   4.653   2.805   9.351 -0.1168 -0.1378 -0.1904
 4067SOL     OW23836   0.233   2.797   6.918 -0.4452  0.2811 -0.3679
 4067SOL    HW123837   0.151   2.770   6.875 -0.2184 -0.3092 -0.4268
 4067SOL    HW223838   0.302   2.761   6.863  1.2033  0.3549  1.6498
 4068SOL     OW23839   1.321   3.732   9.584 -0.0582 -0.8491 -0.1552
 4068SOL    HW123840   1.286   3.819   9.599  2.0562 -0.1396  0.6185
 4068SOL    HW223841   1.236   3.692   9.561  0.2780 -0.9637 -1.1916
 4069SOL     OW23842   1.052   3.539  13.153 -0.0086  0.5630 -0.6575
 4069SOL    HW123843   1.001   3.458  13.152 -1.0520  1.2131  0.0681
 4069SOL    HW223844   0.995   3.606  13.191  0.4676  0.3667  0.4050
 4070SOL     OW23845   0.208   0.102   4.496 -0.1329  0.2816  0.1781
 4070SOL    HW123846   0.275   0.079   4.431 -1.5003 -0.9197 -0.8140
 4070SOL    HW223847   0.231   0.036   4.561 -0.3033  1.6750  1.6648
 4071SOL     OW23848   2.268   0.125   1.136 -0.5019 -0.0076  0.5549
 4071SOL    HW123849   2.332   0.171   1.191  0.3676 -1.0570  0.4180
 4071SOL    HW223850   2.306   0.038   1.147 -0.9533 -0.4748 -1.7299
 4072SOL     OW23851   0.183   0.779   6.441 -0.6390 -0.5055 -0.1058
 4072SOL    HW123852   0.148   0.709   6.386  1.2849 -2.2151  0.8169
 4072SOL    HW223853   0.277   0.761   6.441 -0.6846 -0.7687  0.8694
 4073SOL     OW23854   1.669   2.098  14.179 -1.1228 -0.0043  0.3198
 4073SOL    HW123855   1.606   2.047  14.230  2.1663 -2.4863  1.8947
 4073SOL    HW223856   1.725   2.138  14.246 -0.7173 -1.3133  0.7565
 4074SOL     OW23857   0.175   0.931   2.506 -0.9005  0.3318  0.3363
 4074SOL    HW123858   0.122   0.928   2.585 -0.5336 -0.4715  0.5506
 4074SOL    HW223859   0.203   0.840   2.501  1.6280  1.1110  0.3986
 4075SOL     OW23860   0.644   4.641   4.259 -0.2686 -0.4475 -0.3805
 4075SOL    HW123861   0.684   4.570   4.209 -0.9514 -1.4015  0.4374
 4075SOL    HW223862   0.550   4.627   4.268 -0.0404  0.9987  4.0305
 4076SOL     OW23863   2.848   4.639   8.482 -0.2316 -0.5406  0.0491
 4076SOL    HW123864   2.831   4.695   8.558  0.5418  1.0526 -0.9452
 4076SOL    HW223865   2.879   4.566   8.536 -0.6803 -0.6940  0.1007
 4077SOL     OW23866   2.714   4.031   4.082 -0.0050  0.1420  0.1039
 4077SOL    HW123867   2.644   3.993   4.030  2.2342 -2.2574 -1.1506
 4077SOL    HW223868   2.716   4.124   4.060  0.2835  0.2480  0.5907
 4078SOL     OW23869   1.839   3.767  17.384  0.1810  0.3464  0.0280
 4078SOL    HW123870   1.841   3.723  17.469  2.5427 -0.0963 -0.2512
 4078SOL    HW223871   1.776   3.835  17.410  0.0478  0.0001  0.6197
 4079SOL     OW23872   2.195   3.039  10.358 -0.0849 -0.2490  0.2793
 4079SOL    HW123873   2.183   3.083  10.274  1.4572 -0.9514 -0.3050
 4079SOL    HW223874   2.259   3.092  10.406  2.3257 -2.3188 -0.6810
 4080SOL     OW23875   0.086   2.009   8.568  0.3512 -0.3116  0.1344
 4080SOL    HW123876   0.049   1.967   8.491  2.9275  0.4872 -1.5491
 4080SOL    HW223877   0.040   1.954   8.631  1.3902  0.0261  1.1745
 4081SOL     OW23878   4.024   2.886  12.696  0.3846 -0.2170 -0.5878
 4081SOL    HW123879   4.054   2.881  12.787 -2.4115  1.2841  0.4259
 4081SOL    HW223880   4.108   2.887  12.650  1.4063 -0.3530  1.2737
 4082SOL     OW23881   0.437   0.086   7.890 -0.1217  0.1920 -0.1469
 4082SOL    HW123882   0.371   0.153   7.910  0.4301  1.5322 -2.6840
 4082SOL    HW223883   0.512   0.134   7.855 -0.6353 -0.2060 -1.8014
 4083SOL     OW23884   2.951   4.429   8.135  0.1059 -0.4590 -1.5709
 4083SOL    HW123885   3.015   4.490   8.171  0.7380 -2.3445  0.5027
 4083SOL    HW223886   2.871   4.445   8.184  1.4241 -0.2777  0.5061
 4084SOL     OW23887   2.215   2.460   9.219  0.7662 -0.5713 -0.1408
 4084SOL    HW123888   2.247   2.537   9.265 -0.1685 -0.1824 -0.1416
 4084SOL    HW223889   2.120   2.469   9.230  1.0688  0.7336  1.3747
 4085SOL     OW23890   0.642   2.303  16.593  0.1744  0.3024 -0.1186
 4085SOL    HW123891   0.639   2.320  16.688 -0.7400 -2.5522  0.3499
 4085SOL    HW223892   0.554   2.329  16.566 -0.5025 -4.3381 -2.2563
 4086SOL     OW23893   1.466   3.684   1.543  0.1017 -0.5679  0.3579
 4086SOL    HW123894   1.405   3.648   1.478  1.2132 -0.9255 -0.4773
 4086SOL    HW223895   1.445   3.617   1.608 -0.0720 -0.3814  0.4944
 4087SOL     OW23896   1.021   2.109   3.328 -0.6858  0.5052 -0.2774
 4087SOL    HW123897   1.070   2.164   3.266 -0.2400  0.9972  0.5024
 4087SOL    HW223898   0.933   2.138   3.307 -0.9634  1.2507  1.8976
 4088SOL     OW23899   3.217   2.594   7.951  0.2949 -0.1853 -0.0443
 4088SOL    HW123900   3.166   2.513   7.957 -0.2001  0.1546  0.3035
 4088SOL    HW223901   3.224   2.616   8.044  1.8909  0.0140 -0.2043
 4089SOL     OW23902   1.753   4.027   1.201 -0.1723  0.3313 -0.1476
 4089SOL    HW123903   1.683   3.966   1.226  2.3186 -2.2267  0.4921
 4089SOL    HW223904   1.757   3.996   1.110  0.1504  0.4640 -0.1766
 4090SOL     OW23905   3.044   0.635  10.092 -0.2825  0.9851  0.2126
 4090SOL    HW123906   3.058   0.670  10.004 -0.5568  1.1754  0.2433
 4090SOL    HW223907   2.985   0.563  10.069  2.7833 -1.9877  1.6235
 4091SOL     OW23908   2.063   1.586   4.761  0.4655  0.3094 -0.2029
 4091SOL    HW123909   2.055   1.496   4.792 -0.1294 -0.1345 -1.6146
 4091SOL    HW223910   2.002   1.578   4.688 -0.4440 -0.2169  0.6203
 4092SOL     OW23911   1.962   0.590   7.754  0.0192  0.0513 -0.0659
 4092SOL    HW123912   1.948   0.675   7.712 -0.5802 -0.3727 -0.7110
 4092SOL    HW223913   2.028   0.615   7.819 -0.3635  3.3532 -0.9668
 4093SOL     OW23914   1.126   2.720  14.598 -0.3022  0.3793 -0.0042
 4093SOL    HW123915   1.110   2.660  14.526  2.3841  3.3848 -3.1194
 4093SOL    HW223916   1.163   2.785  14.538  1.0023 -0.4777 -0.1184
 4094SOL     OW23917   1.941   3.875   5.329  0.4593 -0.1171  0.0934
 4094SOL    HW123918   1.997   3.914   5.262 -0.5630 -0.6817 -1.1016
 4094SOL    HW223919   1.984   3.907   5.408 -0.2298  1.4233 -0.1441
 4095SOL     OW23920   4.140   4.260   7.497  0.1534  0.1232 -0.4128
 4095SOL    HW123921   4.058   4.305   7.475  1.2976  1.1996 -2.5653
 4095SOL    HW223922   4.112   4.168   7.493 -0.3121  0.2561 -0.2047
 4096SOL     OW23923   0.758   1.995  12.860 -0.1260  0.0151  0.2610
 4096SOL    HW123924   0.677   2.013  12.909 -1.2785 -1.5127 -1.0989
 4096SOL    HW223925   0.810   2.066  12.899  1.2807 -1.2345  0.6760
 4097SOL     OW23926   3.214   1.623  13.027 -0.3038  0.3764 -0.0761
 4097SOL    HW123927   3.210   1.709  13.067 -1.9266  1.0868 -1.7658
 4097SOL    HW223928   3.292   1.613  12.971  0.6691 -2.4100  1.7949
 4098SOL     OW23929   2.946   3.800   3.127  0.8237  0.0114 -0.3877
 4098SOL    HW123930   3.003   3.819   3.052 -2.5142 -0.1646 -2.9591
 4098SOL    HW223931   2.871   3.811   3.069  0.7418 -1.5207 -0.5723
 4099SOL     OW23932   1.013   2.326   3.722  0.4644 -0.3191 -0.1478
 4099SOL    HW123933   0.949   2.260   3.750  0.5391 -0.4014 -0.1710
 4099SOL    HW223934   1.074   2.278   3.666  0.7300 -1.5043  1.1561
 4100SOL     OW23935   1.731   4.141  11.049 -0.3754  0.0310 -0.3360
 4100SOL    HW123936   1.678   4.145  10.969  0.6315  2.2958 -0.8982
 4100SOL    HW223937   1.801   4.202  11.023 -0.9088  1.3474  1.3271
 4101SOL     OW23938   3.521   2.197   8.652 -0.1682  0.0972  0.0045
 4101SOL    HW123939   3.468   2.135   8.702  1.9971 -0.6776  1.3656
 4101SOL    HW223940   3.601   2.149   8.631 -1.1998 -0.6700 -2.1224
 4102SOL     OW23941   3.550   3.230   9.982 -0.2864 -0.3061  0.2366
 4102SOL    HW123942   3.470   3.239  10.033 -0.0387  1.8989  0.2065
 4102SOL    HW223943   3.522   3.249   9.892 -1.7434 -0.5732  0.6323
 4103SOL     OW23944   0.302   1.930   4.110  0.0610 -0.6992 -0.3835
 4103SOL    HW123945   0.247   1.979   4.171 -1.0443 -2.3241 -0.0850
 4103SOL    HW223946   0.246   1.915   4.035  0.8748 -1.1382 -0.9089
 4104SOL     OW23947   0.936   2.721  14.801 -0.3379  0.6036  0.6807
 4104SOL    HW123948   1.000   2.719  14.729 -0.0261  2.0513  0.9272
 4104SOL    HW223949   1.001   2.713  14.871 -0.7659  0.4975  1.0654
 4105SOL     OW23950   3.069   0.226  14.091  0.4549  0.2742 -0.0647
 4105SOL    HW123951   3.044   0.147  14.140  2.0833 -1.0265 -1.3434
 4105SOL    HW223952   2.983   0.261  14.068  0.5235  0.3600 -0.1913
 4106SOL     OW23953   4.527   0.488   4.952  0.2024 -0.5838  0.5041
 4106SOL    HW123954   4.612   0.529   4.935 -0.2922  0.6214  0.9183
 4106SOL    HW223955   4.478   0.518   4.876 -0.9903 -2.1617  0.6460
 4107SOL     OW23956   1.791   3.543   7.772  0.0036 -0.0038 -0.0340
 4107SOL    HW123957   1.779   3.452   7.748  2.0229 -0.3150  0.1223
 4107SOL    HW223958   1.700   3.571   7.784  0.5082  0.6460  2.3160
 4108SOL     OW23959   4.159   4.486   9.009  0.5381  0.5453 -0.0599
 4108SOL    HW123960   4.194   4.565   9.050 -0.7219  0.3568  1.3750
 4108SOL    HW223961   4.204   4.421   9.064 -2.0378  1.5220  3.2211
 4109SOL     OW23962   4.012   3.553  16.402  0.1596  0.5005  0.2571
 4109SOL    HW123963   4.035   3.639  16.440 -0.1482  1.8844 -2.6921
 4109SOL    HW223964   3.950   3.518  16.465  1.9964 -0.1685  1.7018
 4110SOL     OW23965   1.867   2.310   0.571 -0.0868 -0.0400 -0.3055
 4110SOL    HW123966   1.911   2.384   0.611 -1.8614 -0.2897  2.1547
 4110SOL    HW223967   1.804   2.356   0.515 -0.5749 -0.9508 -0.5210
 4111SOL     OW23968   1.766   2.727   3.166 -0.0353  0.4697 -0.2668
 4111SOL    HW123969   1.717   2.697   3.242  0.2989  1.1059  0.2068
 4111SOL    HW223970   1.854   2.693   3.181  0.9307  1.5028 -3.4936
 4112SOL     OW23971   1.123   0.314  14.870 -0.3943 -0.2280  0.0254
 4112SOL    HW123972   1.034   0.280  14.868  0.1202 -1.6834  1.2884
 4112SOL    HW223973   1.149   0.296  14.780 -0.6817 -0.9808  0.0977
 4113SOL     OW23974   1.000   0.636   6.057 -0.2851 -0.5299  0.3222
 4113SOL    HW123975   1.017   0.579   6.132  0.8135 -0.0083  0.4714
 4113SOL    HW223976   1.064   0.706   6.074 -1.1595 -0.1190  1.9520
 4114SOL     OW23977   1.361   3.906   8.666 -0.2030  0.5450 -0.2331
 4114SOL    HW123978   1.372   3.893   8.760  0.8853  0.8595 -0.3211
 4114SOL    HW223979   1.454   3.911   8.646 -0.5193  1.6817 -1.4493
 4115SOL     OW23980   4.656   1.874   8.758 -0.7071 -0.8147  0.5662
 4115SOL    HW123981   4.597   1.823   8.812  0.3954  1.2368  3.7267
 4115SOL    HW223982   4.691   1.946   8.811 -1.5198  1.0472 -1.4013
 4116SOL     OW23983   3.904   0.538   3.464 -0.0704 -0.2254  0.0838
 4116SOL    HW123984   3.870   0.487   3.390 -3.6152  0.6990  1.0878
 4116SOL    HW223985   3.854   0.619   3.462  1.8689  0.9758  0.6541
 4117SOL     OW23986   0.666   3.839  14.115 -0.2141  0.6735  0.1198
 4117SOL    HW123987   0.711   3.923  14.106  0.9135  0.2027  1.4988
 4117SOL    HW223988   0.576   3.873  14.118 -0.7814 -0.5175 -2.9529
 4118SOL     OW23989   2.672   0.880  14.806 -0.0249  0.2740  0.3111
 4118SOL    HW123990   2.765   0.857  14.807 -0.6077 -1.9674  2.0159
 4118SOL    HW223991   2.676   0.945  14.735 -1.3570  1.7020  1.5546
 4119SOL     OW23992   0.226   3.374  17.135  0.4436 -0.2353 -0.1588
 4119SOL    HW123993   0.168   3.334  17.070  0.3941  1.2411 -1.0103
 4119SOL    HW223994   0.215   3.467  17.117 -3.0183 -0.0382  2.9574
 4120SOL     OW23995   2.040   3.347   5.801 -0.1633 -0.3752 -0.2066
 4120SOL    HW123996   1.953   3.319   5.773  0.1039 -1.0133 -0.4058
 4120SOL    HW223997   2.077   3.270   5.844  1.0345 -0.5491 -1.5609
 4121SOL     OW23998   0.674   0.435  17.092 -0.3156 -0.1353 -0.1177
 4121SOL    HW123999   0.711   0.436  17.003  0.3268  1.6260  0.1663
 4121SOL    HW224000   0.633   0.349  17.083 -0.1649 -0.2536  0.3379
 4122SOL     OW24001   2.002   0.250   2.874 -0.1344  0.0264 -0.4146
 4122SOL    HW124002   2.070   0.205   2.924 -0.3079  2.6880  2.2231
 4122SOL    HW224003   2.049   0.264   2.791 -1.5595  1.5973 -0.9506
 4123SOL     OW24004   2.927   4.174  15.608  0.0745 -0.1630 -0.1073
 4123SOL    HW124005   2.932   4.267  15.587 -2.0505  0.6835  3.2031
 4123SOL    HW224006   2.962   4.148  15.523 -2.2035 -2.0523 -0.4873
 4124SOL     OW24007   0.600   4.233   7.184  0.5117  0.0158 -0.1477
 4124SOL    HW124008   0.624   4.301   7.247  1.7148 -0.7449  0.2058
 4124SOL    HW224009   0.680   4.180   7.189  1.3027  1.0490 -2.0466
 4125SOL     OW24010   2.116   4.284   3.027 -0.3484  0.0561 -0.2144
 4125SOL    HW124011   2.172   4.360   3.042 -1.4854  0.4842  1.9323
 4125SOL    HW224012   2.053   4.303   3.097  0.2294  2.1966 -0.2611
 4126SOL     OW24013   0.835   4.488   4.584  0.5330  0.5010 -0.1553
 4126SOL    HW124014   0.898   4.416   4.592  0.3838  0.3444 -0.3706
 4126SOL    HW224015   0.868   4.568   4.624 -0.9736  1.1489 -0.2280
 4127SOL     OW24016   0.819   3.409   8.110  0.0802  0.3095  0.4501
 4127SOL    HW124017   0.816   3.429   8.204 -1.8356 -1.0819  0.6793
 4127SOL    HW224018   0.735   3.367   8.093 -0.5593  2.1602 -0.9005
 4128SOL     OW24019   1.964   0.983   6.326 -0.5285 -0.4953  0.2222
 4128SOL    HW124020   1.916   0.943   6.253  0.4781 -0.0884 -0.6764
 4128SOL    HW224021   1.890   1.027   6.367  1.1756  1.6982  0.9376
 4129SOL     OW24022   3.188   3.479   2.937  0.8622 -0.1802  0.3081
 4129SOL    HW124023   3.187   3.444   3.026  0.9795 -1.8831 -0.3539
 4129SOL    HW224024   3.272   3.449   2.901  0.1735 -1.8545  0.1012
 4130SOL     OW24025   2.552   1.117   2.188 -0.3079  0.2175 -0.4201
 4130SOL    HW124026   2.538   1.196   2.136  3.4044  1.3040  0.2304
 4130SOL    HW224027   2.463   1.083   2.193  0.1608 -0.6815  1.7885
 4131SOL     OW24028   3.343   4.059   5.774  0.2189 -0.5095  0.7148
 4131SOL    HW124029   3.269   4.029   5.721 -2.1728  2.4762  2.3681
 4131SOL    HW224030   3.416   4.001   5.748  0.9398  0.2578  1.0183
 4132SOL     OW24031   0.109   1.596   8.184 -0.8319  0.7660 -0.8926
 4132SOL    HW124032   0.142   1.648   8.111 -1.1312  2.0290 -0.1228
 4132SOL    HW224033   0.155   1.640   8.256 -0.3338  0.3634 -0.9617
 4133SOL     OW24034   1.133   1.533   4.113  0.4238  0.4590 -0.2211
 4133SOL    HW124035   1.049   1.558   4.074 -0.5172 -2.1739  0.1225
 4133SOL    HW224036   1.130   1.575   4.199 -0.0972  0.2052 -0.1144
 4134SOL     OW24037   0.327   0.900  12.934 -0.2546  0.4543 -0.5302
 4134SOL    HW124038   0.299   0.939  12.851 -1.7610 -2.1861 -1.2650
 4134SOL    HW224039   0.275   0.821  12.942 -2.4911  2.1101  1.2147
 4135SOL     OW24040   0.351   3.982  10.842 -0.3936 -0.1702  0.1296
 4135SOL    HW124041   0.288   3.931  10.892 -1.2572  0.2798 -0.4960
 4135SOL    HW224042   0.422   3.918  10.835  0.4968  0.8032  0.2342
 4136SOL     OW24043   2.863   2.170   4.772  0.3511  0.2061  0.0871
 4136SOL    HW124044   2.860   2.192   4.865  0.2590 -3.8045  1.0380
 4136SOL    HW224045   2.805   2.094   4.769 -0.5504  0.8549  0.9947
 4137SOL     OW24046   0.369   0.932   1.295  0.1994  0.0936 -0.1471
 4137SOL    HW124047   0.372   0.951   1.389 -0.8070 -0.4368 -0.0024
 4137SOL    HW224048   0.464   0.926   1.289  0.1985 -2.2352  1.9704
 4138SOL     OW24049   3.359   0.694   5.353  0.1691  0.5747  0.4906
 4138SOL    HW124050   3.268   0.722   5.337 -0.9461 -4.2431 -1.5502
 4138SOL    HW224051   3.407   0.763   5.307 -2.6824  3.1253  1.3106
 4139SOL     OW24052   1.591   4.384   8.040 -0.2877  0.3355  0.1207
 4139SOL    HW124053   1.571   4.456   8.099 -1.3661  0.0787  0.0835
 4139SOL    HW224054   1.538   4.308   8.065 -1.0446  0.9664  0.4084
 4140SOL     OW24055   2.526   4.593   5.179 -0.8542 -0.9723 -0.4528
 4140SOL    HW124056   2.538   4.687   5.168 -1.3897 -0.6068  2.0222
 4140SOL    HW224057   2.574   4.556   5.104 -1.3358 -2.1671 -0.1801
 4141SOL     OW24058   0.511   4.323   6.828  0.4709 -0.0503  0.5235
 4141SOL    HW124059   0.481   4.246   6.781  3.1269 -0.5408 -0.3805
 4141SOL    HW224060   0.463   4.385   6.773  0.6141 -1.9027 -1.6580
 4142SOL     OW24061   3.117   3.064  12.441 -0.0420 -0.2317 -0.3446
 4142SOL    HW124062   3.157   3.057  12.355 -1.0608 -0.7208 -0.7858
 4142SOL    HW224063   3.118   2.973  12.472 -2.8694  0.5132  1.9587
 4143SOL     OW24064   3.457   2.328   7.526 -0.0156  0.6327 -0.5841
 4143SOL    HW124065   3.439   2.353   7.617 -1.7265  0.0698 -0.7609
 4143SOL    HW224066   3.510   2.401   7.496 -0.7151  1.0128 -0.9080
 4144SOL     OW24067   3.650   3.731   2.393 -0.0388  0.2973  0.0704
 4144SOL    HW124068   3.636   3.637   2.401  0.0061  0.3298  0.5423
 4144SOL    HW224069   3.744   3.737   2.413 -0.0306  2.6117 -0.6007
 4145SOL     OW24070   2.896   2.145   7.637  0.4265  0.1299 -0.5927
 4145SOL    HW124071   2.897   2.239   7.619  1.3431 -0.0924 -1.6793
 4145SOL    HW224072   2.833   2.115   7.572  1.8438 -1.4795 -1.2076
 4146SOL     OW24073   2.290   0.415  13.156  0.3410 -0.0269  0.0720
 4146SOL    HW124074   2.249   0.329  13.154 -0.0921  0.1318  2.2194
 4146SOL    HW224075   2.315   0.427  13.064 -0.6996 -0.4944 -0.2701
 4147SOL     OW24076   4.388   0.979   8.903  0.0663 -0.0141  0.7711
 4147SOL    HW124077   4.444   0.903   8.885  2.1578  2.3886 -2.7497
 4147SOL    HW224078   4.329   0.969   8.829  0.4319  1.6871  0.2590
 4148SOL     OW24079   0.069   3.798   5.699  0.3030  0.2209 -0.2224
 4148SOL    HW124080   0.163   3.785   5.713  0.3003 -1.0524 -1.4096
 4148SOL    HW224081   0.051   3.889   5.722 -2.3387 -0.5098  0.5911
 4149SOL     OW24082   0.018   0.825   3.082 -0.1090 -0.2934  0.0455
 4149SOL    HW124083   4.729   0.911   3.048  2.1464  0.4316  0.1121
 4149SOL    HW224084   4.675   0.807   3.131 -0.0499  0.1498  0.3084
 4150SOL     OW24085   0.460   0.867  16.692 -0.6845 -0.2365 -0.1133
 4150SOL    HW124086   0.458   0.871  16.787 -3.3046 -2.4177 -0.0554
 4150SOL    HW224087   0.553   0.867  16.671 -0.0635  2.1473  2.7031
 4151SOL     OW24088   3.162   3.956   1.952 -0.1561  0.4102  0.2848
 4151SOL    HW124089   3.246   3.964   1.997  0.1919 -0.9096 -0.1103
 4151SOL    HW224090   3.095   3.980   2.015 -1.1827 -2.3805  0.2636
 4152SOL     OW24091   4.300   1.724   7.134  0.4327 -0.3856 -0.0993
 4152SOL    HW124092   4.286   1.811   7.097  0.0012 -0.9022 -1.1664
 4152SOL    HW224093   4.395   1.719   7.135  0.4239 -0.0891  1.3477
 4153SOL     OW24094   4.625   2.826  15.863 -0.0039  0.1733  0.2751
 4153SOL    HW124095   4.606   2.806  15.771  1.9688 -0.1880 -0.0595
 4153SOL    HW224096   4.606   2.754  15.922  0.5194  0.4004  0.7227
 4154SOL     OW24097   0.651   3.608   2.678 -0.5261  0.3873  0.1836
 4154SOL    HW124098   0.610   3.691   2.654 -1.8102  0.0177  1.1357
 4154SOL    HW224099   0.697   3.630   2.758  1.7614 -0.0128 -1.0098
 4155SOL     OW24100   4.362   0.560  12.256 -0.4758  0.1566 -0.2338
 4155SOL    HW124101   4.408   0.620  12.197  0.9298  1.2186  1.8959
 4155SOL    HW224102   4.421   0.547  12.330 -1.0513  0.7391  0.3377
 4156SOL     OW24103   0.872   3.479   0.401 -0.4780  0.2500  0.1234
 4156SOL    HW124104   0.798   3.502   0.345  1.0080  2.1796 -1.0309
 4156SOL    HW224105   0.942   3.464   0.338 -0.3220 -0.4635  0.4645
 4157SOL     OW24106   2.892   0.421  10.028 -0.1502 -0.0476  0.6898
 4157SOL    HW124107   2.860   0.448  10.114 -3.1850  0.8305 -0.7104
 4157SOL    HW224108   2.823   0.362   9.999  0.2343 -0.4756  0.6624
 4158SOL     OW24109   3.419   4.701   3.576 -0.2153 -0.1125 -0.2312
 4158SOL    HW124110   3.359   4.669   3.643 -0.1528  0.2752  0.0079
 4158SOL    HW224111   3.356   0.008   3.519 -1.3188 -2.7275 -1.0669
 4159SOL     OW24112   3.358   2.585  10.118  0.0325  0.4753  0.4001
 4159SOL    HW124113   3.382   2.662  10.067 -0.6637  1.6458  1.8156
 4159SOL    HW224114   3.418   2.584  10.193  3.0007  1.9417 -1.9816
 4160SOL     OW24115   2.820   4.525   0.923 -0.2516 -0.1260  0.0400
 4160SOL    HW124116   2.780   4.565   0.845 -0.2545  1.9817  1.1344
 4160SOL    HW224117   2.913   4.542   0.909 -0.7580  2.1281 -0.6364
 4161SOL     OW24118   2.638   2.603   4.133  0.4675 -0.2055  0.3542
 4161SOL    HW124119   2.621   2.515   4.098 -1.7201 -0.0465  1.0063
 4161SOL    HW224120   2.646   2.571   4.223  0.3562 -1.6516 -0.1516
 4162SOL     OW24121   4.425   4.455   6.978 -0.4538  0.0748  0.6237
 4162SOL    HW124122   4.391   4.478   6.892 -1.9009 -3.9839  0.1074
 4162SOL    HW224123   4.517   4.446   6.955 -1.1894 -1.5639 -1.7236
 4163SOL     OW24124   1.827   2.171   3.685  0.5164  0.1833 -0.2318
 4163SOL    HW124125   1.879   2.239   3.729  1.5424 -1.7774  1.5863
 4163SOL    HW224126   1.783   2.134   3.761 -3.0829 -0.0745 -2.4737
 4164SOL     OW24127   2.564   4.602   4.869 -0.3390 -0.0007 -0.2663
 4164SOL    HW124128   2.646   4.591   4.820  0.3937 -0.2134  0.9912
 4164SOL    HW224129   2.549   4.510   4.890 -1.1797  0.5845  1.6762
 4165SOL     OW24130   2.520   4.681  10.352  0.2087 -0.5725 -0.1115
 4165SOL    HW124131   2.435   4.661  10.312 -0.6853 -0.2508  1.6290
 4165SOL    HW224132   2.539   4.596  10.392 -0.9761  0.1699  2.0024
 4166SOL     OW24133   1.422   2.321   2.617  0.7814  0.2503  0.2201
 4166SOL    HW124134   1.341   2.369   2.602  1.3080  2.1958  3.5298
 4166SOL    HW224135   1.449   2.353   2.703 -0.0255 -3.1640  1.7458
 4167SOL     OW24136   2.177   1.082   2.431  0.2082 -0.1154 -0.3344
 4167SOL    HW124137   2.206   1.056   2.343 -1.2023  0.4499 -0.9725
 4167SOL    HW224138   2.256   1.130   2.456  0.6698  0.1284 -2.2166
 4168SOL     OW24139   0.322   1.185   3.353 -0.1754 -0.1699 -0.5547
 4168SOL    HW124140   0.249   1.246   3.351 -0.1154 -0.0799  0.0952
 4168SOL    HW224141   0.297   1.114   3.294 -0.2153 -2.4382  2.1734
 4169SOL     OW24142   3.938   4.319  16.317 -0.1262  0.3979 -0.0279
 4169SOL    HW124143   3.900   4.390  16.369 -0.7356  0.1605 -0.1468
 4169SOL    HW224144   3.966   4.369  16.240  1.6399  0.1075  0.4217
 4170SOL     OW24145   0.370   2.366   5.529 -0.3589  0.2156 -0.1686
 4170SOL    HW124146   0.362   2.344   5.622  1.3222  2.4386  0.4915
 4170SOL    HW224147   0.449   2.316   5.509 -0.5076  0.4522 -1.3434
 4171SOL     OW24148   3.659   1.962   2.013  0.2375 -0.0241 -0.0844
 4171SOL    HW124149   3.583   1.920   1.972  2.1295 -0.9331 -2.6075
 4171SOL    HW224150   3.635   2.055   2.003  0.0571 -0.1528 -0.8885
 4172SOL     OW24151   0.465   0.403   2.511 -0.1841  0.5060 -0.5625
 4172SOL    HW124152   0.498   0.431   2.597 -2.3608 -3.2222  1.4787
 4172SOL    HW224153   0.453   0.309   2.522 -0.8815  0.7242  0.6003
 4173SOL     OW24154   2.106   2.087  15.293  0.0855  0.4138 -0.4113
 4173SOL    HW124155   2.014   2.114  15.294  0.7972  2.7785  0.8108
 4173SOL    HW224156   2.114   2.058  15.383 -1.5704  1.5845  0.1104
 4174SOL     OW24157   1.158   2.650   4.556  0.2765 -0.3845  0.4765
 4174SOL    HW124158   1.064   2.667   4.559  0.0649 -1.6718  0.9722
 4174SOL    HW224159   1.184   2.728   4.606 -0.5845 -0.4298  0.9991
 4175SOL     OW24160   4.472   0.905   5.100  0.2122  0.7051 -0.0127
 4175SOL    HW124161   4.404   0.933   5.040  0.6015 -0.9691 -1.2361
 4175SOL    HW224162   4.476   0.984   5.153 -1.8577 -0.4442  1.8345
 4176SOL     OW24163   2.688   1.667   7.776 -0.1480  0.6112  0.1491
 4176SOL    HW124164   2.781   1.684   7.788  0.4272 -1.8942 -0.6706
 4176SOL    HW224165   2.656   1.668   7.866  1.6873  1.1661  0.7936
 4177SOL     OW24166   3.619   3.852   1.185 -0.0586  0.5600 -0.3118
 4177SOL    HW124167   3.585   3.940   1.168 -0.7958  0.3528  0.0632
 4177SOL    HW224168   3.690   3.856   1.121  0.4965  2.6117  0.4575
 4178SOL     OW24169   4.078   2.602  14.207 -0.1497 -0.4133 -0.2045
 4178SOL    HW124170   3.988   2.633  14.206  0.0795  0.2758  0.4471
 4178SOL    HW224171   4.102   2.594  14.300  0.2435 -1.7161 -0.4161
 4179SOL     OW24172   3.967   1.402   2.225 -0.1463 -0.2019 -0.3092
 4179SOL    HW124173   3.919   1.472   2.180  0.4520 -0.5297 -1.4640
 4179SOL    HW224174   4.056   1.410   2.192  0.2249  0.0951  0.7808
 4180SOL     OW24175   2.678   3.624   6.469  0.5416 -0.1339 -0.1237
 4180SOL    HW124176   2.753   3.574   6.500 -0.1663 -0.3604  1.2549
 4180SOL    HW224177   2.719   3.663   6.392  1.3726  0.1242  0.4457
 4181SOL     OW24178   0.398   2.306   3.008  0.0515 -0.3209  0.0699
 4181SOL    HW124179   0.415   2.269   2.921 -1.2157  1.2550 -0.8488
 4181SOL    HW224180   0.468   2.256   3.049  1.1558  0.7121 -0.5766
 4182SOL     OW24181   3.600   4.629   0.738 -0.8535 -0.0916 -0.2596
 4182SOL    HW124182   3.560   4.610   0.654  1.0232 -0.4159 -1.0860
 4182SOL    HW224183   3.689   4.608   0.710 -0.3758  1.3916  0.1296
 4183SOL     OW24184   1.263   3.984   5.052 -0.2159  0.0558  0.2225
 4183SOL    HW124185   1.175   3.957   5.078 -1.2279  2.7255 -0.5561
 4183SOL    HW224186   1.279   4.054   5.115  1.6788 -1.2347  1.1782
 4184SOL     OW24187   2.883   4.047   5.705  0.3369 -0.4088  1.0733
 4184SOL    HW124188   2.816   4.037   5.638  1.2055  0.0372  0.1467
 4184SOL    HW224189   2.834   4.058   5.787  0.3494  3.1232  0.5998
 4185SOL     OW24190   1.621   4.370   7.650  0.3955  0.0230  0.2557
 4185SOL    HW124191   1.573   4.293   7.681 -0.1187  0.7713  1.3284
 4185SOL    HW224192   1.633   4.339   7.560  0.0460  1.7054 -0.3792
 4186SOL     OW24193   1.628   2.331   5.673  0.1958 -0.4461  0.3707
 4186SOL    HW124194   1.642   2.424   5.688  1.1632 -0.7936  1.6679
 4186SOL    HW224195   1.567   2.305   5.742 -0.1949  2.1014  0.9800
 4187SOL     OW24196   4.673   2.653   7.903  0.2534  0.3105  0.6831
 4187SOL    HW124197   4.736   2.589   7.936  0.0823  0.5133  1.3942
 4187SOL    HW224198   4.700   2.738   7.938  0.9124 -0.2294  1.4958
 4188SOL     OW24199   3.108   2.092   4.289  0.3862  1.0000 -0.2702
 4188SOL    HW124200   3.079   2.111   4.200  0.7277  1.6564 -0.2400
 4188SOL    HW224201   3.076   2.160   4.348  1.3407  0.9917  0.2491
 4189SOL     OW24202   4.594   2.503   5.935 -0.7178  0.1430 -0.0331
 4189SOL    HW124203   4.593   2.569   5.866 -0.9945  0.5034  0.3176
 4189SOL    HW224204   4.685   2.489   5.961 -0.4650  0.4226 -0.7770
 4190SOL     OW24205   0.520   2.345  10.382 -0.4475  0.1009  0.0314
 4190SOL    HW124206   0.507   2.270  10.440 -3.0763  0.0465 -0.6332
 4190SOL    HW224207   0.461   2.320  10.312  0.9702 -1.5940 -0.5578
 4191SOL     OW24208   0.175   2.681  11.844  0.3314 -0.0074 -0.7223
 4191SOL    HW124209   0.185   2.611  11.908  1.3963  3.1886  2.6234
 4191SOL    HW224210   0.252   2.738  11.852 -0.2629  0.5801  0.7575
 4192SOL     OW24211   0.101   1.179  17.184 -0.2951  0.5372  0.3803
 4192SOL    HW124212   0.030   1.114  17.185 -0.0883  0.3296  1.2049
 4192SOL    HW224213   0.110   1.195  17.090 -2.6811 -1.2060 -0.1306
 4193SOL     OW24214   2.356   2.242  15.432 -0.4107 -0.6721 -0.4345
 4193SOL    HW124215   2.297   2.312  15.403  1.3182  0.2438 -1.7329
 4193SOL    HW224216   2.302   2.167  15.409  0.2480 -0.2980 -3.2417
 4194SOL     OW24217   4.177   3.781  15.092  0.4474 -0.0095  0.4522
 4194SOL    HW124218   4.091   3.774  15.134 -0.5436 -0.9138 -1.7364
 4194SOL    HW224219   4.229   3.747  15.164 -1.0946 -2.8722  0.2157
 4195SOL     OW24220   2.024   4.638   5.796 -0.2853  0.8039  0.0139
 4195SOL    HW124221   2.095   4.596   5.747 -0.2500  0.6852  0.1698
 4195SOL    HW224222   2.076   4.679   5.865 -1.0635 -0.6789  1.4645
 4196SOL     OW24223   2.856   2.405   7.591 -0.5614 -0.1986  0.4495
 4196SOL    HW124224   2.943   2.443   7.583  0.3179 -2.2900  0.0219
 4196SOL    HW224225   2.805   2.451   7.524  0.7953  0.3986 -0.1752
 4197SOL     OW24226   3.336   4.171   4.566  0.0230  0.0500 -0.1615
 4197SOL    HW124227   3.389   4.195   4.490  0.0416 -1.5093 -0.6390
 4197SOL    HW224228   3.277   4.119   4.512 -2.4378  0.6386  1.9437
 4198SOL     OW24229   1.593   1.476   1.434 -0.4208  0.5791  0.6044
 4198SOL    HW124230   1.668   1.472   1.494 -0.7413  0.4456  0.9992
 4198SOL    HW224231   1.638   1.513   1.358  0.5172 -2.7915 -0.4824
 4199SOL     OW24232   4.549   1.108   7.621  0.2934  0.1019 -0.0350
 4199SOL    HW124233   4.484   1.114   7.691 -0.2485  1.2436 -0.6262
 4199SOL    HW224234   4.519   1.193   7.587  0.3056  0.0161 -0.2628
 4200SOL     OW24235   3.268   0.152   6.247  0.2683 -0.4907  0.0526
 4200SOL    HW124236   3.352   0.158   6.293 -1.0631  1.1096  2.2773
 4200SOL    HW224237   3.306   0.146   6.159 -1.7756 -1.6116 -0.7561
 4201SOL     OW24238   2.054   2.137   0.643  0.2985 -1.0515  0.3811
 4201SOL    HW124239   2.017   2.069   0.587  0.3791 -0.8098  0.0315
 4201SOL    HW224240   1.981   2.199   0.633 -0.6397 -2.1115  0.6342
 4202SOL     OW24241   2.098   2.952  10.681  0.5710 -0.2061  0.2170
 4202SOL    HW124242   2.091   3.016  10.610  0.9163  0.2120  0.5644
 4202SOL    HW224243   2.193   2.938  10.682  0.3510 -1.6848  0.8229
 4203SOL     OW24244   2.603   1.092  16.453 -0.2939  0.0789  0.0345
 4203SOL    HW124245   2.658   1.168  16.435 -0.8704  0.4865  0.0201
 4203SOL    HW224246   2.614   1.091  16.549 -2.2096 -1.1401  0.2329
 4204SOL     OW24247   3.251   4.487   5.608  0.7340 -0.2493  0.4940
 4204SOL    HW124248   3.236   4.486   5.702 -0.9655 -1.0589  0.2171
 4204SOL    HW224249   3.309   4.411   5.604 -0.4687 -1.1364 -0.0825
 4205SOL     OW24250   2.210   1.536  11.565 -0.4168 -0.2652 -0.0441
 4205SOL    HW124251   2.231   1.521  11.657  0.6573 -1.4198 -0.4603
 4205SOL    HW224252   2.288   1.571  11.522 -0.3470 -0.5604 -0.1623
 4206SOL     OW24253   0.457   0.078   3.604  0.2400 -0.0573 -0.8423
 4206SOL    HW124254   0.471   0.022   3.680 -2.4865  2.3256  1.3780
 4206SOL    HW224255   0.362   0.070   3.593 -0.0719  1.7338  0.6853
 4207SOL     OW24256   0.020   3.446   6.572 -0.0128  0.0539  0.1698
 4207SOL    HW124257   0.015   3.442   6.476  1.7784  0.3473  0.0524
 4207SOL    HW224258   4.668   3.464   6.600 -0.2346 -0.6054 -0.1012
 4208SOL     OW24259   0.488   1.094   4.064  0.2272 -0.1103 -0.4509
 4208SOL    HW124260   0.403   1.064   4.097 -1.2450  2.2428 -2.0562
 4208SOL    HW224261   0.473   1.176   4.016 -0.7634  0.9482  1.6468
 4209SOL     OW24262   2.352   2.395   8.341 -0.3606  0.1618  0.3116
 4209SOL    HW124263   2.382   2.344   8.416 -0.8877  1.5168  1.4496
 4209SOL    HW224264   2.439   2.410   8.306  0.5212  0.0949  2.4644
 4210SOL     OW24265   0.112   2.102   3.253 -0.3962 -0.3350  0.2616
 4210SOL    HW124266   0.026   2.073   3.222 -0.1465 -0.2355 -0.5340
 4210SOL    HW224267   0.113   2.092   3.348  0.6616 -0.0830  0.2795
 4211SOL     OW24268   4.548   3.644   1.311  0.2955  0.8914 -0.0363
 4211SOL    HW124269   4.582   3.555   1.305 -1.0343  0.2769  1.8500
 4211SOL    HW224270   4.606   3.683   1.245 -0.9806  1.8379 -0.5955
 4212SOL     OW24271   1.733   1.663   8.100  0.7682 -0.1733  0.3420
 4212SOL    HW124272   1.690   1.578   8.114 -0.5176  0.4591  0.2263
 4212SOL    HW224273   1.698   1.713   8.173  2.0283 -1.1571  1.6189
 4213SOL     OW24274   4.181   2.548  15.494 -0.1764  0.1711  0.5595
 4213SOL    HW124275   4.244   2.575  15.428  1.2840  1.0662  2.3050
 4213SOL    HW224276   4.100   2.528  15.447  0.1523 -2.2828  1.0459
 4214SOL     OW24277   3.212   4.562   0.498  0.1325 -0.0093  0.1389
 4214SOL    HW124278   3.260   4.483   0.472  1.0469  0.9464 -1.0564
 4214SOL    HW224279   3.277   4.616   0.543  1.1473 -1.3958  0.3333
 4215SOL     OW24280   3.503   4.306   0.125 -0.4207 -0.2026 -0.1900
 4215SOL    HW124281   3.468   4.350   0.047  0.7568  0.4223 -0.3656
 4215SOL    HW224282   3.590   4.344   0.135 -0.9179  0.9960 -0.4465
 4216SOL     OW24283   4.561   0.927   6.361  0.4618  0.2256  0.0163
 4216SOL    HW124284   4.474   0.905   6.326  0.6449  0.9876 -0.8714
 4216SOL    HW224285   4.566   0.859   6.429 -0.7754  0.2075  0.0931
 4217SOL     OW24286   1.455   1.384   4.686 -0.5568  0.2591 -0.0832
 4217SOL    HW124287   1.487   1.473   4.673  0.2593 -0.5038 -3.1017
 4217SOL    HW224288   1.528   1.349   4.738 -0.2681  2.4151  0.9916
 4218SOL     OW24289   1.495   1.175  14.233  0.3620  0.1027  0.0097
 4218SOL    HW124290   1.436   1.101  14.222  3.9775 -2.7038 -0.3359
 4218SOL    HW224291   1.546   1.157  14.312 -1.5613  1.2781  1.5323
 4219SOL     OW24292   2.063   1.850   0.779 -0.1573  0.3142  0.1624
 4219SOL    HW124293   2.120   1.800   0.721  2.7374  3.2683  0.5062
 4219SOL    HW224294   2.057   1.929   0.725  0.8724  0.2340 -0.0728
 4220SOL     OW24295   0.405   1.256  17.134  0.8980  0.0268  0.0951
 4220SOL    HW124296   0.413   1.350  17.152  0.3904 -0.1102  1.0584
 4220SOL    HW224297   0.386   1.267  17.041  0.4827  0.7580  0.2623
 4221SOL     OW24298   3.858   2.975   0.077 -0.2427  0.2397  0.0532
 4221SOL    HW124299   3.809   3.027   0.141  0.1061 -0.8272  1.1707
 4221SOL    HW224300   3.797   2.967   0.003 -2.2298 -0.0700  1.7184
 4222SOL     OW24301   2.830   2.230   2.506  0.0189  0.3302  0.4891
 4222SOL    HW124302   2.904   2.172   2.521  2.2683  2.4121 -2.4095
 4222SOL    HW224303   2.762   2.196   2.564  1.6758 -2.4244  0.7825
 4223SOL     OW24304   0.865   0.180  15.856  0.3541 -0.0865 -0.3800
 4223SOL    HW124305   0.871   0.275  15.861 -1.5933  0.1102 -1.6658
 4223SOL    HW224306   0.931   0.169  15.788 -0.8543 -0.9110 -1.4389
 4224SOL     OW24307   2.570   2.206   1.402 -0.1606  0.1332 -0.1392
 4224SOL    HW124308   2.627   2.206   1.325  0.1513  3.5521  0.0944
 4224SOL    HW224309   2.587   2.293   1.438  1.2394  0.7174 -2.1808
 4225SOL     OW24310   2.386   2.966  10.757  0.0055  0.0148  0.2762
 4225SOL    HW124311   2.469   2.918  10.757  1.3428  2.3399 -0.7205
 4225SOL    HW224312   2.340   2.917  10.826 -1.5487  1.1024  0.0034
 4226SOL     OW24313   2.542   3.542   7.693  1.2333 -0.1782 -0.6589
 4226SOL    HW124314   2.544   3.512   7.784  2.6618 -0.7188 -0.8624
 4226SOL    HW224315   2.495   3.624   7.706  0.8656 -0.6660  1.0199
 4227SOL     OW24316   3.782   1.263   3.069  0.4032 -0.2709  0.4783
 4227SOL    HW124317   3.853   1.325   3.088  0.1734  0.7788 -2.0769
 4227SOL    HW224318   3.788   1.263   2.974 -0.6343  0.4591  0.4100
 4228SOL     OW24319   1.161   4.182   6.671 -0.6428 -0.8273  0.2121
 4228SOL    HW124320   1.091   4.214   6.614 -0.9884 -2.2845 -0.1808
 4228SOL    HW224321   1.237   4.197   6.615 -0.0664  0.2875  1.2812
 4229SOL     OW24322   0.329   0.669   3.466 -0.0630  0.1617 -0.6450
 4229SOL    HW124323   0.237   0.666   3.441 -1.2183 -1.9838  3.7524
 4229SOL    HW224324   0.340   0.760   3.491  1.3399 -0.0123 -0.6082
 4230SOL     OW24325   4.126   0.952  13.081  0.3524  0.5313 -0.5388
 4230SOL    HW124326   4.170   0.895  13.017 -1.5247 -0.6229 -0.8159
 4230SOL    HW224327   4.059   0.997  13.030 -0.8498 -1.4692 -0.7507
 4231SOL     OW24328   0.147   2.612  14.376 -0.4487 -0.1016 -0.2388
 4231SOL    HW124329   0.217   2.646  14.321 -0.2666  0.3760  0.2792
 4231SOL    HW224330   0.075   2.666  14.342  1.4864  0.8751 -2.7356
 4232SOL     OW24331   0.475   0.988   5.125 -0.3530  0.1321  0.1286
 4232SOL    HW124332   0.550   0.993   5.185  0.2830  0.0769 -0.6692
 4232SOL    HW224333   0.434   0.906   5.154  0.6302 -1.0899 -1.8993
 4233SOL     OW24334   4.181   0.326  14.081  0.4844 -0.3973 -0.4148
 4233SOL    HW124335   4.176   0.344  13.987 -0.3627  1.0208 -0.0885
 4233SOL    HW224336   4.089   0.304  14.095  0.6949  0.4469  2.2139
 4234SOL     OW24337   0.651   2.834   5.778  0.0956 -0.0610 -0.2447
 4234SOL    HW124338   0.676   2.904   5.718 -0.1181  1.5215  1.5033
 4234SOL    HW224339   0.622   2.765   5.718  1.1094  1.1643 -2.1491
 4235SOL     OW24340   2.841   3.403   7.783 -0.3395  0.3117 -0.1499
 4235SOL    HW124341   2.839   3.478   7.724 -0.7534  1.6026  1.5333
 4235SOL    HW224342   2.790   3.436   7.857 -1.0360 -0.5853 -0.2345
 4236SOL     OW24343   0.213   3.473   2.942 -0.0277  0.2706  0.6538
 4236SOL    HW124344   0.269   3.551   2.931  0.8195 -0.6641 -1.5305
 4236SOL    HW224345   0.191   3.480   3.035  0.1098  2.1066  0.5505
 4237SOL     OW24346   2.361   4.213   6.688  0.2906 -0.1302  0.0162
 4237SOL    HW124347   2.396   4.280   6.747  0.8386  0.2433 -0.7217
 4237SOL    HW224348   2.266   4.227   6.684  0.0163 -1.0603  3.8775
 4238SOL     OW24349   0.278   3.462   5.660 -0.0805 -0.0486  1.0816
 4238SOL    HW124350   0.276   3.543   5.609  0.7397 -0.1588  0.8800
 4238SOL    HW224351   0.195   3.471   5.708  0.8851 -1.5746  3.0211
 4239SOL     OW24352   1.689   2.642   6.641  0.5892  0.2051  0.3110
 4239SOL    HW124353   1.620   2.709   6.646 -0.9503 -1.2458 -1.4505
 4239SOL    HW224354   1.702   2.625   6.734 -0.3615 -0.1351  0.3853
 4240SOL     OW24355   0.225   1.028  12.703  0.6690  0.1849  0.1193
 4240SOL    HW124356   0.254   1.103  12.651  2.3212  0.4403  1.4321
 4240SOL    HW224357   0.271   0.966  12.646  2.0318  0.4092  0.9888
 4241SOL     OW24358   0.287   3.366   1.139  0.2933  0.1249  0.3722
 4241SOL    HW124359   0.224   3.434   1.162  0.1310  0.0921  0.0261
 4241SOL    HW224360   0.235   3.289   1.115 -2.1981  1.3671  1.7648
 4242SOL     OW24361   1.199   2.709  15.545 -0.2456  0.3030  0.0064
 4242SOL    HW124362   1.243   2.791  15.525 -0.6123  0.6385  0.5821
 4242SOL    HW224363   1.258   2.678  15.615  1.0960  0.9886 -0.8147
 4243SOL     OW24364   4.518   0.504   1.431 -0.5240 -0.2077  0.0136
 4243SOL    HW124365   4.425   0.522   1.414 -0.1867  3.6426  2.1353
 4243SOL    HW224366   4.560   0.552   1.359  0.3181 -2.0940 -0.7516
 4244SOL     OW24367   2.043   0.541   5.201  0.3310  0.0233  0.0842
 4244SOL    HW124368   2.010   0.602   5.267  0.7010 -0.8504  1.0754
 4244SOL    HW224369   2.012   0.572   5.116 -0.3106 -0.6743  0.0688
 4245SOL     OW24370   3.784   2.020  13.272 -0.6320 -0.2584 -0.6410
 4245SOL    HW124371   3.750   1.946  13.324 -1.2303  1.2852  1.1573
 4245SOL    HW224372   3.870   1.985  13.247 -1.0319 -1.7216  0.0023
 4246SOL     OW24373   2.284   3.788   3.914 -0.1394 -0.6290 -0.1147
 4246SOL    HW124374   2.245   3.701   3.921  1.9112 -1.3426  2.3519
 4246SOL    HW224375   2.310   3.777   3.823 -1.5913  0.2933 -0.6286
 4247SOL     OW24376   0.842   1.989   6.083 -0.3911  0.6002  0.5613
 4247SOL    HW124377   0.883   1.953   6.161 -1.0052  1.2498  1.1779
 4247SOL    HW224378   0.802   1.904   6.067  1.1382  0.3716 -2.0964
 4248SOL     OW24379   4.371   1.588   3.109 -0.0197  0.5177 -0.2082
 4248SOL    HW124380   4.377   1.502   3.150 -0.1870 -0.4716 -2.2645
 4248SOL    HW224381   4.343   1.564   3.020  1.3472 -3.5187  0.4585
 4249SOL     OW24382   0.862   4.265   3.969  0.2245 -0.2333  0.1098
 4249SOL    HW124383   0.898   4.297   3.886  3.3445 -0.5303  1.3510
 4249SOL    HW224384   0.781   4.221   3.942 -0.9533  1.8006  0.3598
 4250SOL     OW24385   2.542   1.070   6.157  0.6926  0.2400 -0.1600
 4250SOL    HW124386   2.527   1.020   6.237  1.5244  0.7610  0.3175
 4250SOL    HW224387   2.609   1.011   6.124  0.2858  0.1555 -0.8441
 4251SOL     OW24388   3.114   4.521   3.395  0.6121  0.1647  0.2160
 4251SOL    HW124389   3.102   4.426   3.406 -2.5348  0.7110  1.3255
 4251SOL    HW224390   3.097   4.539   3.303  0.9633 -0.5579  0.0108
 4252SOL     OW24391   1.215   2.252   7.182 -0.7428  0.4626  0.0876
 4252SOL    HW124392   1.134   2.203   7.165  0.3710 -1.2729 -0.2001
 4252SOL    HW224393   1.268   2.213   7.113 -0.6746  0.0412  0.3830
 4253SOL     OW24394   2.702   3.432   9.383 -0.0244  0.6968 -0.1479
 4253SOL    HW124395   2.797   3.424   9.393 -0.0220  0.1804 -0.6413
 4253SOL    HW224396   2.680   3.438   9.476 -0.8774 -0.3223 -0.2863
 4254SOL     OW24397   2.518   1.116   1.516  0.1378  0.4269 -0.0045
 4254SOL    HW124398   2.440   1.107   1.571  2.2884 -1.0265  2.7994
 4254SOL    HW224399   2.507   1.201   1.474  0.8153  0.5704  0.1134
 4255SOL     OW24400   1.302   0.825  10.720 -0.2651 -0.3880 -0.1860
 4255SOL    HW124401   1.250   0.819  10.640 -1.3790  1.0009  0.4236
 4255SOL    HW224402   1.373   0.776  10.678 -1.5024 -2.1994 -0.1536
 4256SOL     OW24403   3.828   0.406   3.244  0.2001  0.2222 -0.4089
 4256SOL    HW124404   3.824   0.467   3.171  1.1788  0.4196 -0.3029
 4256SOL    HW224405   3.762   0.346   3.210  2.0158 -2.6763  1.1547
 4257SOL     OW24406   0.942   0.312   6.485  0.2717 -0.2112 -0.5435
 4257SOL    HW124407   1.024   0.356   6.508  0.2614 -1.2967  1.5344
 4257SOL    HW224408   0.932   0.259   6.564 -1.8688 -1.1590 -1.4609
 4258SOL     OW24409   2.086   0.938   7.350  0.7599 -0.2966  0.3728
 4258SOL    HW124410   2.167   0.891   7.333  1.5140  1.4270 -0.7330
 4258SOL    HW224411   2.077   1.003   7.280 -1.2160 -1.0998 -0.1379
 4259SOL     OW24412   1.487   1.194   6.670 -0.4182 -0.6408  0.1524
 4259SOL    HW124413   1.421   1.248   6.626 -0.0499 -0.2879  0.0251
 4259SOL    HW224414   1.471   1.110   6.627 -0.1360  0.1518 -1.5062
 4260SOL     OW24415   4.175   4.057   5.519 -0.8247 -0.3814  0.2402
 4260SOL    HW124416   4.171   3.966   5.488  0.0604 -0.7091  1.1005
 4260SOL    HW224417   4.186   4.053   5.614 -1.4439 -1.8361  0.2568
 4261SOL     OW24418   1.948   0.560  13.601  0.3168 -0.1945 -0.2646
 4261SOL    HW124419   1.915   0.581  13.514  1.7258  0.7424 -0.5830
 4261SOL    HW224420   1.938   0.650  13.634  1.0108 -0.6206  1.1111
 4262SOL     OW24421   3.371   2.675  15.914 -0.1618  0.4491  0.4540
 4262SOL    HW124422   3.437   2.713  15.971  2.2101 -0.8037 -1.4873
 4262SOL    HW224423   3.368   2.581  15.935  2.3319  0.8467  2.4788
 4263SOL     OW24424   2.375   3.363  17.119 -0.1756 -0.0883  0.0682
 4263SOL    HW124425   2.299   3.355  17.061  0.3459  2.8077 -0.9817
 4263SOL    HW224426   2.423   3.280  17.110  1.5851  1.0624 -1.1678
 4264SOL     OW24427   0.484   0.251   7.151  0.1803 -0.4882 -0.4742
 4264SOL    HW124428   0.542   0.323   7.177  0.4763 -0.8160 -0.2404
 4264SOL    HW224429   0.482   0.198   7.230 -3.0266  0.6805  0.2313
 4265SOL     OW24430   4.440   0.334   8.267  0.4078 -0.2343  0.1816
 4265SOL    HW124431   4.482   0.390   8.202  0.0640 -2.0479 -1.6182
 4265SOL    HW224432   4.517   0.311   8.318  1.1382  1.7145 -0.0702
 4266SOL     OW24433   0.462   2.853  11.921 -0.1001 -0.1222  0.4220
 4266SOL    HW124434   0.511   2.879  11.843 -0.1650 -1.7601 -0.1617
 4266SOL    HW224435   0.405   2.925  11.949 -0.3044 -0.4505  0.8473
 4267SOL     OW24436   2.646   1.044   0.775  0.2141  0.1364  0.2740
 4267SOL    HW124437   2.730   1.047   0.729  0.2229  1.3990  0.3565
 4267SOL    HW224438   2.669   0.984   0.845  2.2713  0.2143 -0.3415
 4268SOL     OW24439   3.486   4.227  16.866 -0.3346  0.3463  0.2251
 4268SOL    HW124440   3.577   4.211  16.841 -0.4374  2.0240 -1.2407
 4268SOL    HW224441   3.492   4.273  16.949 -2.3769  0.3674  0.3760
 4269SOL     OW24442   4.332   3.775  11.197 -0.6519  0.2602 -0.1887
 4269SOL    HW124443   4.346   3.708  11.264 -1.9771  0.6259  0.4471
 4269SOL    HW224444   4.309   3.846  11.256 -0.4888 -0.7146  1.0477
 4270SOL     OW24445   4.100   2.226   3.977  0.2079 -0.3539 -0.6958
 4270SOL    HW124446   4.039   2.249   4.047  1.5235  1.9903 -0.3356
 4270SOL    HW224447   4.085   2.134   3.956 -0.4395 -0.0853 -1.3819
 4271SOL     OW24448   3.252   3.377   6.616 -0.3319 -1.3292  0.5232
 4271SOL    HW124449   3.291   3.464   6.604 -0.8600 -1.0177  1.0715
 4271SOL    HW224450   3.328   3.326   6.588 -0.4963 -0.0132 -2.3447
 4272SOL     OW24451   1.861   1.144   9.184 -0.7430  0.3056  0.2715
 4272SOL    HW124452   1.940   1.091   9.198 -1.2254  0.2749  2.8469
 4272SOL    HW224453   1.824   1.107   9.103 -3.1333  1.8205  0.6772
 4273SOL     OW24454   3.298   2.943   8.616  0.2206  0.2718  0.3598
 4273SOL    HW124455   3.338   2.857   8.604 -3.1683 -1.6248  2.5006
 4273SOL    HW224456   3.370   3.002   8.638  1.4076 -0.6636 -1.0621
 4274SOL     OW24457   2.044   0.404   5.794 -0.0895  0.2612 -0.2381
 4274SOL    HW124458   2.023   0.347   5.868 -0.7445  0.9093  0.0801
 4274SOL    HW224459   2.107   0.462   5.837 -1.0687  0.6352  0.7082
 4275SOL     OW24460   4.272   2.269   1.554  0.0752  0.1445  0.1377
 4275SOL    HW124461   4.223   2.294   1.475 -0.1945  0.5892  0.4473
 4275SOL    HW224462   4.352   2.321   1.548  1.4865 -1.9756  0.3040
 4276SOL     OW24463   0.394   0.124   6.696  0.2162 -0.4068  0.7046
 4276SOL    HW124464   0.362   0.097   6.610  0.3377 -1.4442  0.9918
 4276SOL    HW224465   0.305   0.121   6.733  0.3484  0.2630  1.0688
 4277SOL     OW24466   4.316   2.127  15.476 -0.5104 -0.4702 -0.3503
 4277SOL    HW124467   4.278   2.048  15.438 -1.2473  0.1736 -0.9471
 4277SOL    HW224468   4.379   2.079  15.530 -1.8844 -0.1281  1.5517
 4278SOL     OW24469   3.646   0.501  17.671 -0.6519 -0.2366  0.3805
 4278SOL    HW124470   3.727   0.450  17.670  0.0449  0.8414  2.5359
 4278SOL    HW224471   3.683   0.584  17.699 -0.9002 -0.9321  2.7126
 4279SOL     OW24472   3.075   2.444   4.162 -0.3093  0.1253  1.0116
 4279SOL    HW124473   3.108   2.529   4.132 -0.7280 -0.4450 -1.0584
 4279SOL    HW224474   3.154   2.391   4.148 -0.7076  0.0931 -1.0094
 4280SOL     OW24475   2.780   0.499   5.269  0.5624  0.1701  0.6111
 4280SOL    HW124476   2.708   0.537   5.320  0.1227 -0.3919  0.4049
 4280SOL    HW224477   2.849   0.503   5.336 -0.3556  0.0472  1.5747
 4281SOL     OW24478   3.007   2.129   1.114  0.9171 -0.4696 -0.2963
 4281SOL    HW124479   2.930   2.136   1.057 -0.5973 -3.1759  1.4013
 4281SOL    HW224480   3.071   2.194   1.087  0.2982  0.5541  0.7314
 4282SOL     OW24481   1.694   2.647   6.379  0.0431  0.3423  0.3390
 4282SOL    HW124482   1.606   2.619   6.354  0.5320 -1.2742  0.4573
 4282SOL    HW224483   1.691   2.634   6.474  0.0859  1.4551  0.4914
 4283SOL     OW24484   1.315   0.545   5.430 -0.2752 -0.2597  0.2834
 4283SOL    HW124485   1.234   0.591   5.452 -0.2219 -0.8658  1.7535
 4283SOL    HW224486   1.290   0.495   5.352 -1.6063  0.2854  0.3585
 4284SOL     OW24487   4.202   0.765   2.695 -0.4100 -0.1565  0.4257
 4284SOL    HW124488   4.214   0.738   2.604 -1.2293  0.3588  0.1704
 4284SOL    HW224489   4.258   0.700   2.737  0.4042  0.0154 -0.3780
 4285SOL     OW24490   3.678   2.002   7.254  0.1128  0.6845  0.1693
 4285SOL    HW124491   3.634   2.012   7.169  0.0787 -1.2941 -0.0365
 4285SOL    HW224492   3.711   2.091   7.270 -0.6951  1.5825 -3.0747
 4286SOL     OW24493   3.198   4.438   4.594  0.6322  0.3500 -0.2986
 4286SOL    HW124494   3.167   4.437   4.503 -2.6209  2.1113  0.8056
 4286SOL    HW224495   3.255   4.361   4.592 -0.7781 -0.7393  1.8844
 4287SOL     OW24496   0.391   1.987   8.266  0.5789 -0.3097 -0.7825
 4287SOL    HW124497   0.424   2.035   8.343 -3.2010  1.6670 -0.3962
 4287SOL    HW224498   0.466   1.997   8.209  1.6613 -1.8355  0.3776
 4288SOL     OW24499   4.128   3.401   9.138 -0.0019 -0.1507  0.1386
 4288SOL    HW124500   4.058   3.385   9.074 -1.0666  0.1975  1.2036
 4288SOL    HW224501   4.186   3.453   9.082  1.0322 -0.8663  0.5558
 4289SOL     OW24502   3.130   0.317  10.529 -0.1656 -0.8176  0.5376
 4289SOL    HW124503   3.207   0.280  10.572 -2.2283 -0.2503  4.6645
 4289SOL    HW224504   3.137   0.405  10.566 -1.5393 -0.5108  0.0778
 4290SOL     OW24505   1.160   0.495  11.887  0.0365  0.4051 -0.1657
 4290SOL    HW124506   1.075   0.524  11.855 -0.5456 -0.3776  0.6994
 4290SOL    HW224507   1.203   0.451  11.814  0.1375 -0.1159  0.2037
 4291SOL     OW24508   4.432   3.895   1.835 -0.5916 -1.1878 -0.2918
 4291SOL    HW124509   4.470   3.817   1.875  1.8311  0.3040  0.2715
 4291SOL    HW224510   4.409   3.940   1.916 -3.4155 -0.5451 -1.4309
 4292SOL     OW24511   0.584   3.913   5.307 -0.0208  0.2646 -0.3950
 4292SOL    HW124512   0.548   3.825   5.324  1.6858 -0.2690  0.4152
 4292SOL    HW224513   0.644   3.920   5.380  0.9657 -1.0617 -1.0735
 4293SOL     OW24514   4.725   4.716  11.060  0.0741 -0.5686 -0.6396
 4293SOL    HW124515   0.057   0.045  11.061  0.4044 -0.9019 -2.2383
 4293SOL    HW224516   4.691   4.707  10.971 -0.1932 -0.5304 -0.5443
 4294SOL     OW24517   3.189   4.530   8.254 -0.4365 -0.3821  0.2081
 4294SOL    HW124518   3.216   4.544   8.163  0.7034 -0.5551  0.5204
 4294SOL    HW224519   3.205   4.613   8.299  1.4540 -1.1006  0.8708
 4295SOL     OW24520   4.468   1.528   9.921 -0.3579 -0.4622 -0.7195
 4295SOL    HW124521   4.521   1.529  10.000  0.8452 -0.5029 -1.5308
 4295SOL    HW224522   4.538   1.513   9.858 -0.0888  1.8439 -0.9818
 4296SOL     OW24523   1.487   3.268   7.666  0.1221  0.1055 -0.7962
 4296SOL    HW124524   1.544   3.243   7.593 -1.5330 -1.3157 -1.6124
 4296SOL    HW224525   1.505   3.361   7.678 -0.7951  0.3325 -1.2207
 4297SOL     OW24526   4.634   2.422   4.349  0.8269  0.4214 -0.0155
 4297SOL    HW124527   4.605   2.446   4.261 -0.1030 -3.9795 -0.8973
 4297SOL    HW224528   4.614   2.505   4.394  0.1308  0.6260 -0.7019
 4298SOL     OW24529   2.405   3.284   1.329 -0.2883 -0.1509 -0.3817
 4298SOL    HW124530   2.349   3.304   1.404 -0.1452  0.0508 -0.3274
 4298SOL    HW224531   2.462   3.360   1.315  1.0376 -1.3453 -1.4031
 4299SOL     OW24532   4.464   0.806   5.574 -0.2062 -0.2411  0.2106
 4299SOL    HW124533   4.476   0.721   5.618  0.6025 -0.8835 -1.2664
 4299SOL    HW224534   4.516   0.802   5.494 -2.4178  1.1613 -1.2832
 4300SOL     OW24535   3.816   2.184   8.823  0.2033  0.0812  0.2405
 4300SOL    HW124536   3.817   2.158   8.731 -0.5371  0.2697  0.1807
 4300SOL    HW224537   3.753   2.120   8.856  2.0065 -1.1124  1.3205
 4301SOL     OW24538   4.521   3.753   6.142  0.0566 -0.0185  0.5106
 4301SOL    HW124539   4.541   3.846   6.154 -1.1064  0.0456  1.8158
 4301SOL    HW224540   4.556   3.704   6.216 -0.9459 -1.7187 -0.1492
 4302SOL     OW24541   3.584   1.872   0.666 -0.6466  0.3249 -0.1163
 4302SOL    HW124542   3.497   1.885   0.703 -0.7043 -0.1278 -0.1008
 4302SOL    HW224543   3.623   1.806   0.723 -1.3015  1.7963  2.0220
 4303SOL     OW24544   1.168   4.112   3.887  0.3963 -0.6372  0.2280
 4303SOL    HW124545   1.168   4.172   3.961 -1.0658  1.2299 -1.2757
 4303SOL    HW224546   1.258   4.081   3.880 -0.2447 -2.6982  0.8602
 4304SOL     OW24547   1.956   0.259  16.688 -0.2588 -0.4430  0.2327
 4304SOL    HW124548   1.882   0.318  16.708 -0.2818 -0.3374 -0.1684
 4304SOL    HW224549   2.003   0.309  16.622  0.6813 -4.4055 -2.0646
 4305SOL     OW24550   3.914   2.683   6.653 -0.5915 -0.3038  0.4950
 4305SOL    HW124551   3.842   2.635   6.611 -1.4232 -0.1431  1.7504
 4305SOL    HW224552   3.936   2.617   6.719  1.1681  0.5386  0.7649
 4306SOL     OW24553   0.498   2.041  17.249  0.4150 -0.1056 -0.0032
 4306SOL    HW124554   0.521   2.102  17.319 -0.7058  0.3745 -0.0624
 4306SOL    HW224555   0.405   2.044  17.229  0.6770  3.0395 -0.7042
 4307SOL     OW24556   3.905   4.303   5.014 -0.0741  0.2305  0.3418
 4307SOL    HW124557   3.969   4.253   5.066  1.9285  2.9724  0.5271
 4307SOL    HW224558   3.864   4.355   5.083 -0.0931 -0.6717  0.9997
 4308SOL     OW24559   4.636   0.217   3.227 -0.3515  0.5111 -0.3485
 4308SOL    HW124560   4.570   0.211   3.159 -1.6390  0.0027  0.9358
 4308SOL    HW224561   4.605   0.285   3.288 -3.6437  0.3291 -1.8062
 4309SOL     OW24562   3.659   0.632   6.554 -0.4018  0.1377  0.1905
 4309SOL    HW124563   3.752   0.638   6.573 -0.8979  0.6745  2.4715
 4309SOL    HW224564   3.627   0.706   6.605  0.5398 -1.1052  2.5349
 4310SOL     OW24565   1.388   4.259   5.997 -0.0560  0.5200  0.3337
 4310SOL    HW124566   1.462   4.267   6.056 -0.9479  0.2431  1.4791
 4310SOL    HW224567   1.432   4.256   5.912  0.2647  0.7197  0.4917
 4311SOL     OW24568   2.504   2.727   0.005 -0.3918  0.6499 -0.5909
 4311SOL    HW124569   2.457   2.791   0.058 -0.2528  0.3614 -0.1125
 4311SOL    HW224570   2.451   2.726  17.673 -0.3814  1.2139 -0.6012
 4312SOL     OW24571   4.471   2.990   6.344  0.3273  0.1288 -0.5163
 4312SOL    HW124572   4.508   2.902   6.347  0.4102  0.1915  0.2029
 4312SOL    HW224573   4.381   2.978   6.314 -0.0874 -2.6065  1.8170
 4313SOL     OW24574   0.921   2.489   2.610 -0.2865  0.5616 -0.0272
 4313SOL    HW124575   0.837   2.480   2.565 -0.9992 -0.3750  1.5335
 4313SOL    HW224576   0.889   2.548   2.679 -2.1224 -0.0595 -0.3343
 4314SOL     OW24577   0.718   0.275   5.887  0.1728  0.1287 -0.9628
 4314SOL    HW124578   0.806   0.267   5.849  0.7582 -0.3567  0.5011
 4314SOL    HW224579   0.730   0.364   5.921 -2.3242  0.2932 -0.5379
 4315SOL     OW24580   1.190   3.729   8.477 -0.1079  0.0772 -0.3766
 4315SOL    HW124581   1.135   3.807   8.478  0.8980  0.7678  0.3619
 4315SOL    HW224582   1.260   3.758   8.536  0.6665 -0.1101 -1.2118
 4316SOL     OW24583   2.955   0.514   6.651  0.0297 -0.8954 -0.0056
 4316SOL    HW124584   2.967   0.420   6.660 -0.3555 -1.0493 -1.0486
 4316SOL    HW224585   2.927   0.539   6.739  2.0244 -3.4051  1.3317
 4317SOL     OW24586   2.188   1.885   3.414  0.2699  0.1257 -0.1565
 4317SOL    HW124587   2.272   1.869   3.458  1.1469  1.6060 -1.2702
 4317SOL    HW224588   2.218   1.932   3.336  0.0789 -0.6364 -0.6959
 4318SOL     OW24589   2.673   0.173  11.691  0.4527  0.1548 -0.0906
 4318SOL    HW124590   2.766   0.182  11.708 -0.0153  1.6087  1.8367
 4318SOL    HW224591   2.638   0.239  11.751  0.1386  0.9922 -1.1854
 4319SOL     OW24592   3.908   1.018   7.602  0.1428 -0.4455 -0.2825
 4319SOL    HW124593   3.979   1.082   7.597 -1.8027  1.5315 -2.0511
 4319SOL    HW224594   3.831   1.071   7.622  0.8655 -0.0255  1.3944
 4320SOL     OW24595   0.327   2.954   7.382  0.2164  0.4456  0.6869
 4320SOL    HW124596   0.417   2.973   7.356  0.1054 -1.2156 -0.9256
 4320SOL    HW224597   0.288   3.032   7.343 -3.4098 -2.5446 -1.7675
 4321SOL     OW24598   4.031   0.528   1.612  0.6450 -0.3298 -0.8458
 4321SOL    HW124599   3.971   0.486   1.550 -2.5634 -0.1612  2.1917
 4321SOL    HW224600   3.996   0.617   1.618  0.6797 -0.5205  1.7744
 4322SOL     OW24601   0.255   4.396  15.984 -0.2352  0.1077 -0.6166
 4322SOL    HW124602   0.342   4.372  16.017 -0.9523  1.3216  2.1255
 4322SOL    HW224603   0.260   4.491  15.988  2.1305  0.0504 -2.1509
 4323SOL     OW24604   0.346   1.805   8.837  0.2173  0.0890 -0.1219
 4323SOL    HW124605   0.334   1.834   8.927  1.1276  1.6256 -0.4993
 4323SOL    HW224606   0.437   1.826   8.816  0.0952  1.6787  0.9244
 4324SOL     OW24607   0.830   0.046   3.719  0.2610 -0.1819  0.1479
 4324SOL    HW124608   0.800   0.133   3.694 -2.6993 -1.5734 -1.1387
 4324SOL    HW224609   0.888   0.056   3.794 -0.4148 -1.3056  0.8307
 4325SOL     OW24610   1.893   2.234  11.310  0.5543 -0.1469  0.2348
 4325SOL    HW124611   1.832   2.162  11.297 -3.0667  3.2128 -1.5137
 4325SOL    HW224612   1.833   2.297  11.270  0.5254 -0.0892  0.3686
 4326SOL     OW24613   4.700   4.594   2.913  0.3041 -0.2127  0.0477
 4326SOL    HW124614   4.709   4.628   2.824  1.4312  1.5012  0.8090
 4326SOL    HW224615   4.609   4.564   2.916  0.1309  0.2228 -0.8693
 4327SOL     OW24616   0.040   4.496   5.919  0.3349  0.4647  0.4026
 4327SOL    HW124617   4.697   4.489   5.970  1.3306 -2.7611  1.4877
 4327SOL    HW224618   0.058   4.589   5.937 -1.4701  1.2542 -1.7889
 4328SOL     OW24619   0.526   2.461   6.477 -0.1417 -0.6004 -0.0150
 4328SOL    HW124620   0.525   2.397   6.406  0.8589 -1.2716  0.5649
 4328SOL    HW224621   0.460   2.423   6.536 -0.0253  0.5940  0.8738
 4329SOL     OW24622   3.405   2.294  13.335  0.3193  0.4940 -0.2628
 4329SOL    HW124623   3.419   2.250  13.419 -2.0207 -0.9669 -0.6157
 4329SOL    HW224624   3.340   2.240  13.288  2.1109  0.0849 -2.2615
 4330SOL     OW24625   2.769   0.692   2.688  0.2176 -0.3006  0.1694
 4330SOL    HW124626   2.690   0.725   2.730  0.4378 -1.2242  1.2910
 4330SOL    HW224627   2.826   0.740   2.748 -2.0889  0.7515  1.5091
 4331SOL     OW24628   1.892   1.344   2.858 -0.2041 -0.2907 -0.2167
 4331SOL    HW124629   1.830   1.272   2.866 -0.4378 -0.3252 -2.4159
 4331SOL    HW224630   1.867   1.390   2.779  0.6530 -1.8645 -1.4097
 4332SOL     OW24631   4.237   0.102   3.515  0.1652 -0.3970  0.3452
 4332SOL    HW124632   4.218   0.117   3.423 -0.6255 -1.3383  0.3552
 4332SOL    HW224633   4.269   0.012   3.514  0.7063 -0.2029  0.2436
 4333SOL     OW24634   0.482   2.917   8.304 -0.2349  0.5289 -0.1367
 4333SOL    HW124635   0.418   2.892   8.370  0.7445  0.7389  0.9027
 4333SOL    HW224636   0.425   2.962   8.241  1.3936  2.3152 -0.3543
 4334SOL     OW24637   0.611   1.309   9.436 -0.0043  0.1012  0.1992
 4334SOL    HW124638   0.616   1.402   9.456  0.7182 -0.0279  0.5909
 4334SOL    HW224639   0.683   1.289   9.377 -1.2934  0.5994 -1.5339
 4335SOL     OW24640   1.850   3.997  13.455 -0.2653 -0.1610  0.2342
 4335SOL    HW124641   1.759   4.014  13.477  0.1955  0.4371  1.6547
 4335SOL    HW224642   1.859   3.903  13.471 -0.0516 -0.0413  0.8173
 4336SOL     OW24643   1.422   1.922  13.028 -0.1473 -0.1863 -0.1090
 4336SOL    HW124644   1.422   1.826  13.024  0.0243 -0.1873 -0.0516
 4336SOL    HW224645   1.502   1.950  12.984 -0.4277  2.0758  0.8308
 4337SOL     OW24646   2.606   1.972   5.684 -0.1445  0.2782 -0.1926
 4337SOL    HW124647   2.678   1.913   5.660 -1.0634 -1.4506  1.2602
 4337SOL    HW224648   2.642   1.986   5.772 -1.2442  1.3801  0.0835
 4338SOL     OW24649   0.672   2.406   3.875 -0.5840 -0.4049 -0.6759
 4338SOL    HW124650   0.719   2.329   3.843 -0.7574 -1.1105  0.8067
 4338SOL    HW224651   0.581   2.379   3.867 -1.0095  1.2992 -1.8057
 4339SOL     OW24652   3.548   1.257   4.769  0.2707 -0.1545 -0.7411
 4339SOL    HW124653   3.547   1.286   4.678 -1.1990  1.0574 -0.3384
 4339SOL    HW224654   3.456   1.266   4.794  0.9450 -1.1201  2.0858
 4340SOL     OW24655   1.458   1.906   3.246  0.2825 -0.6914 -0.1454
 4340SOL    HW124656   1.452   1.835   3.310 -0.8039  0.5389  1.0999
 4340SOL    HW224657   1.552   1.924   3.238 -0.0070  1.2819  0.9461
 4341SOL     OW24658   1.958   2.717  14.826 -0.2589 -0.6319 -0.4284
 4341SOL    HW124659   1.865   2.733  14.812 -0.3726 -1.2152 -0.3445
 4341SOL    HW224660   2.010   2.760  14.758  0.4403 -0.8204 -0.0146
 4342SOL     OW24661   0.464   3.697   5.990 -0.2222  0.1349 -0.1208
 4342SOL    HW124662   0.535   3.640   5.959 -0.4976 -1.3663  2.0721
 4342SOL    HW224663   0.520   3.772   6.010 -1.1762  0.5146  1.0644
 4343SOL     OW24664   1.971   2.060   7.468  0.1511  0.5985 -0.0922
 4343SOL    HW124665   1.994   2.035   7.558 -1.0039 -0.9369 -0.2220
 4343SOL    HW224666   2.007   2.148   7.457  1.3206  0.3444  1.6745
 4344SOL     OW24667   3.742   4.062   9.074 -0.6352  0.0574  0.2862
 4344SOL    HW124668   3.692   4.024   9.002  1.5101  0.0737 -1.2269
 4344SOL    HW224669   3.696   4.144   9.091 -0.1113  1.2244 -3.8296
 4345SOL     OW24670   3.439   0.342  17.032  0.2870  0.7747 -0.4174
 4345SOL    HW124671   3.422   0.435  17.046  2.9171  1.3873 -1.2205
 4345SOL    HW224672   3.414   0.305  17.117  1.7475 -2.4225 -1.3403
 4346SOL     OW24673   4.077   2.706  12.024 -0.4765  0.2906 -0.0562
 4346SOL    HW124674   4.021   2.784  12.017 -2.0791 -0.7915  0.7486
 4346SOL    HW224675   4.104   2.701  12.116  0.6313  0.1047 -0.3864
 4347SOL     OW24676   0.295   4.383   3.378  0.2310 -0.2941  0.4542
 4347SOL    HW124677   0.231   4.410   3.445  0.5148 -0.0974  0.6493
 4347SOL    HW224678   0.352   4.460   3.385 -1.6731  1.0440  1.1656
 4348SOL     OW24679   0.313   3.220  16.236  0.0670  0.4087  0.4676
 4348SOL    HW124680   0.241   3.214  16.174  0.7596  0.4676 -0.3317
 4348SOL    HW224681   0.389   3.221  16.177  1.0463 -1.8617  1.6643
 4349SOL     OW24682   2.984   2.088  12.943  0.3391  0.4944  0.2051
 4349SOL    HW124683   2.914   2.053  12.888  0.2074 -0.1041  0.7656
 4349SOL    HW224684   3.060   2.082  12.886 -0.4975  0.6854 -0.9435
 4350SOL     OW24685   3.808   0.435   4.490 -0.3450 -0.2028 -0.3310
 4350SOL    HW124686   3.757   0.408   4.413 -2.3307  0.1182  0.8776
 4350SOL    HW224687   3.896   0.431   4.453 -0.2345 -2.3297  0.1524
 4351SOL     OW24688   0.688   0.617   1.345 -0.1214  0.6368 -0.1259
 4351SOL    HW124689   0.748   0.589   1.276  1.3955  0.0598  1.4501
 4351SOL    HW224690   0.603   0.585   1.312 -0.5607  0.1295  1.5307
 4352SOL     OW24691   0.994   3.915   4.229 -0.3899 -0.1014 -0.0775
 4352SOL    HW124692   1.068   3.934   4.173 -0.3609 -2.5449 -0.8668
 4352SOL    HW224693   0.954   4.002   4.239  0.4021  0.4613 -1.9388
 4353SOL     OW24694   4.471   3.580  10.779 -0.2614 -0.0559  0.1013
 4353SOL    HW124695   4.410   3.614  10.844  0.4493 -0.5645  1.0348
 4353SOL    HW224696   4.485   3.486  10.794 -0.5325 -0.1316 -0.1173
 4354SOL     OW24697   4.575   3.674   0.667  0.2457  0.1663  0.2344
 4354SOL    HW124698   4.550   3.605   0.604  0.9192  0.0973  0.0387
 4354SOL    HW224699   4.648   3.720   0.625  1.2808 -1.8710 -0.2216
 4355SOL     OW24700   3.908   4.077   4.273 -0.2657  0.5554  0.2641
 4355SOL    HW124701   3.954   4.153   4.237  0.9079 -0.0643  0.4534
 4355SOL    HW224702   3.925   4.086   4.367  0.5293  2.1460 -0.0283
 4356SOL     OW24703   3.822   4.152   8.341 -0.0273 -0.2190 -0.3080
 4356SOL    HW124704   3.747   4.161   8.400 -0.0638 -0.1032 -0.3727
 4356SOL    HW224705   3.855   4.063   8.351 -0.1232 -0.2623 -0.3758
 4357SOL     OW24706   3.562   4.346  17.459 -0.1757 -0.0849 -0.2895
 4357SOL    HW124707   3.584   4.439  17.452 -0.2465 -0.0525 -0.0945
 4357SOL    HW224708   3.466   4.346  17.469  0.0142 -2.6813  1.5800
 4358SOL     OW24709   2.127   2.898  15.445  0.1877  0.0637 -0.0499
 4358SOL    HW124710   2.092   2.893  15.356  1.4618  1.7136 -0.6614
 4358SOL    HW224711   2.057   2.930  15.502  2.5793  0.3923  2.7214
 4359SOL     OW24712   3.184   2.739  14.943  0.0704 -0.3289  0.0285
 4359SOL    HW124713   3.113   2.677  14.956  0.7976 -1.5228 -1.7176
 4359SOL    HW224714   3.222   2.738  15.031 -1.3934 -0.0309  0.6587
 4360SOL     OW24715   0.198   3.547   0.577  0.1135  0.1371 -0.2055
 4360SOL    HW124716   0.149   3.626   0.556 -0.7780 -0.3094  0.1577
 4360SOL    HW224717   0.215   3.559   0.671  0.0889  0.3098 -0.2239
 4361SOL     OW24718   0.202   4.353   7.408  0.3650  0.2715 -0.6408
 4361SOL    HW124719   0.288   4.353   7.451  0.4357  4.1074 -0.7806
 4361SOL    HW224720   0.153   4.386   7.484  1.5750 -1.1445  0.7674
 4362SOL     OW24721   1.003   2.171  17.037 -0.2081  0.0610 -0.0869
 4362SOL    HW124722   0.908   2.165  17.033 -0.2370 -0.4843  1.5232
 4362SOL    HW224723   1.028   2.225  17.113 -0.4826 -1.1770  0.8869
 4363SOL     OW24724   3.929   3.753   3.464  0.3203  0.0532  0.0946
 4363SOL    HW124725   3.969   3.691   3.403  0.7183  0.0398  0.3669
 4363SOL    HW224726   3.957   3.709   3.544 -1.0372 -1.7631 -0.4340
 4364SOL     OW24727   0.193   1.665   7.316  0.7558 -0.1095 -0.0468
 4364SOL    HW124728   0.193   1.587   7.260 -0.1926 -0.5802  0.6094
 4364SOL    HW224729   0.269   1.717   7.291  0.3786  1.1145  1.3175
 4365SOL     OW24730   1.542   1.244   5.814 -0.4841 -0.2248  0.0675
 4365SOL    HW124731   1.456   1.223   5.850 -0.6299 -1.5159 -1.0228
 4365SOL    HW224732   1.598   1.167   5.825  0.8980  0.6749 -0.6353
 4366SOL     OW24733   2.151   0.695   4.721 -0.2561  0.7345  0.0517
 4366SOL    HW124734   2.067   0.738   4.704 -1.2447 -0.7347  1.3091
 4366SOL    HW224735   2.162   0.622   4.660  2.1101 -0.1102  1.4962
 4367SOL     OW24736   1.114   3.505   9.536 -0.0254  0.2515 -0.2848
 4367SOL    HW124737   1.053   3.506   9.611  2.6534 -0.9860  1.9113
 4367SOL    HW224738   1.147   3.417   9.553  0.6164  0.5132 -0.1803
 4368SOL     OW24739   3.777   4.195   0.964  0.2218  0.1668  0.0099
 4368SOL    HW124740   3.722   4.271   0.981  1.2803  0.7588  0.7659
 4368SOL    HW224741   3.861   4.240   0.963 -0.0161  0.5235 -2.3251
 4369SOL     OW24742   2.162   4.622  12.599 -0.5281 -0.1633  0.5037
 4369SOL    HW124743   2.199   4.695  12.550  1.7378 -0.9232  1.0902
 4369SOL    HW224744   2.085   4.667  12.632 -0.5459  0.7184 -0.7443
 4370SOL     OW24745   2.439   0.093  10.751  0.1338  0.2115 -0.4624
 4370SOL    HW124746   2.425   0.081  10.845  0.4321  1.5876 -0.2447
 4370SOL    HW224747   2.530   0.125  10.750  0.4086 -0.6231 -2.9025
 4371SOL     OW24748   0.440   0.929   1.777 -0.2875 -0.2077 -0.3874
 4371SOL    HW124749   0.380   0.898   1.709 -1.8889 -0.5084  1.1515
 4371SOL    HW224750   0.459   1.019   1.749  0.9104 -0.5038 -0.5204
 4372SOL     OW24751   0.522   3.440   7.015  0.1709  0.0234 -0.7213
 4372SOL    HW124752   0.483   3.513   6.966 -2.4818  0.5028  2.0955
 4372SOL    HW224753   0.484   3.457   7.101  3.2707  0.6568  0.5140
 4373SOL     OW24754   4.698   1.601   2.437 -0.3078 -0.1241  0.1009
 4373SOL    HW124755   4.655   1.542   2.499  0.8423 -0.8780  0.1821
 4373SOL    HW224756   4.622   1.628   2.386 -0.1070  1.9359  0.9081
 4374SOL     OW24757   3.789   4.305   8.116  0.3624  0.2111 -0.8412
 4374SOL    HW124758   3.820   4.237   8.175  0.1121  1.4187  0.6878
 4374SOL    HW224759   3.720   4.358   8.157 -0.0374  0.3977 -1.7365
 4375SOL     OW24760   2.132   4.097   0.654  0.1561 -0.0637 -0.0213
 4375SOL    HW124761   2.109   4.144   0.574 -1.7616  0.1051  0.5996
 4375SOL    HW224762   2.123   4.010   0.617  0.7180  0.1675 -0.6831
 4376SOL     OW24763   2.253   2.380  11.676 -0.6614 -0.4205  0.2768
 4376SOL    HW124764   2.301   2.439  11.618  0.5311 -1.8785 -0.1898
 4376SOL    HW224765   2.189   2.343  11.615  1.0971  2.0793 -3.0459
 4377SOL     OW24766   2.832   4.213   3.615  0.0387 -0.3740  0.1872
 4377SOL    HW124767   2.883   4.154   3.670  0.1442  0.7909  1.3612
 4377SOL    HW224768   2.762   4.152   3.593 -0.9757  0.3880  1.2663
 4378SOL     OW24769   3.422   0.556  13.498 -0.0692  0.1063 -0.7740
 4378SOL    HW124770   3.458   0.593  13.417 -0.8518  2.0743 -0.2382
 4378SOL    HW224771   3.433   0.464  13.475 -0.8520 -0.3149  0.5774
 4379SOL     OW24772   3.417   4.624   4.444 -0.4258  0.2561  0.2012
 4379SOL    HW124773   3.435   4.556   4.509  0.8075 -0.7140 -1.1610
 4379SOL    HW224774   3.463   4.697   4.485 -0.1304  0.4972 -0.5682
 4380SOL     OW24775   3.481   3.543   0.120  0.3161 -0.3210  0.2437
 4380SOL    HW124776   3.418   3.609   0.148  0.8591  0.6409 -0.7968
 4380SOL    HW224777   3.429   3.501   0.052 -1.6340  4.0963 -0.9939
 4381SOL     OW24778   4.641   4.440   2.428  0.7526  0.0030  0.2870
 4381SOL    HW124779   4.567   4.392   2.391 -1.2390  1.2994  2.6166
 4381SOL    HW224780   4.650   4.395   2.512 -0.0900 -0.8050 -0.0520
 4382SOL     OW24781   2.113   0.011   3.055 -0.2883 -0.0679 -0.2923
 4382SOL    HW124782   2.081   4.681   3.115 -2.5040  1.8082  0.6699
 4382SOL    HW224783   2.071   4.722   2.973  1.4252 -1.5324 -0.6984
 4383SOL     OW24784   4.565   0.643  11.889  0.6133 -0.3354 -0.1953
 4383SOL    HW124785   4.572   0.601  11.974 -0.3594 -2.8108 -1.3308
 4383SOL    HW224786   4.593   0.567  11.837 -0.1379 -0.7807  0.0523
 4384SOL     OW24787   1.306   1.493   5.754 -0.3203 -0.1911 -0.2832
 4384SOL    HW124788   1.312   1.398   5.766 -2.0377 -0.4821 -1.7251
 4384SOL    HW224789   1.297   1.528   5.842 -0.7564  1.4750 -0.9892
 4385SOL     OW24790   0.321   3.137   4.757  0.2017  0.0563 -0.3184
 4385SOL    HW124791   0.349   3.046   4.750  4.2197  1.4069 -1.3799
 4385SOL    HW224792   0.383   3.184   4.701 -0.8926  0.6671 -1.0235
 4386SOL     OW24793   4.514   3.621  12.984  0.2494  0.6495 -0.3115
 4386SOL    HW124794   4.565   3.686  13.033 -3.4769  2.2328  1.5039
 4386SOL    HW224795   4.439   3.671  12.953 -0.5313 -0.3590 -0.0276
 4387SOL     OW24796   4.463   2.711   1.799 -0.4007 -0.4953 -0.2447
 4387SOL    HW124797   4.546   2.758   1.789 -1.0203  1.0061  1.7310
 4387SOL    HW224798   4.420   2.749   1.875  0.7508 -2.2814  1.2824
 4388SOL     OW24799   0.104   4.149   8.203 -0.4001  0.5047  0.4675
 4388SOL    HW124800   0.033   4.087   8.185  1.2194 -1.2884  0.2867
 4388SOL    HW224801   0.087   4.173   8.294  1.3438 -1.7547  1.3921
 4389SOL     OW24802   1.351   0.997  16.133  0.2949  0.0730  0.7291
 4389SOL    HW124803   1.321   0.913  16.167  2.0960 -0.4778  0.9313
 4389SOL    HW224804   1.421   0.965  16.076 -0.7746  2.3046 -1.8690
 4390SOL     OW24805   2.802   3.463   2.404  0.4750  0.0432  0.0681
 4390SOL    HW124806   2.713   3.463   2.441 -0.2543 -0.6260 -1.6825
 4390SOL    HW224807   2.774   3.480   2.314 -0.0752 -1.9496 -0.1557
 4391SOL     OW24808   3.654   2.698   1.547 -0.6977  0.0558  0.4203
 4391SOL    HW124809   3.693   2.613   1.565 -0.6789 -0.5832 -2.6698
 4391SOL    HW224810   3.626   2.691   1.456 -0.9091  0.9206  0.4149
 4392SOL     OW24811   1.129   2.010   8.141  0.0685  0.1184  0.3260
 4392SOL    HW124812   1.220   2.032   8.122  0.6004 -1.3595  1.1729
 4392SOL    HW224813   1.091   2.025   8.054  2.0082  0.0201 -0.5400
 4393SOL     OW24814   0.647   4.376   3.553  0.3505  0.3243 -0.3627
 4393SOL    HW124815   0.591   4.322   3.608  2.0118 -3.2680 -2.1937
 4393SOL    HW224816   0.588   4.438   3.510  0.7028  0.1293 -1.1354
 4394SOL     OW24817   1.258   2.249   6.469 -0.1237  0.4353 -0.3253
 4394SOL    HW124818   1.264   2.246   6.374  0.0962 -1.2884 -0.2660
 4394SOL    HW224819   1.176   2.200   6.472  0.1715 -0.0935 -0.9869
 4395SOL     OW24820   3.592   4.549   3.436  0.2100  0.2864  0.2825
 4395SOL    HW124821   3.559   4.462   3.457 -0.0893  1.3427  4.1145
 4395SOL    HW224822   3.533   4.611   3.478  1.5019  1.2149  0.7185
 4396SOL     OW24823   0.075   3.931  10.457  0.0842  0.3523 -0.2531
 4396SOL    HW124824   0.132   3.974  10.521  2.1925 -2.5974 -0.1962
 4396SOL    HW224825   0.042   3.854  10.502  1.7676 -0.1836  0.0480
 4397SOL     OW24826   0.988   0.929   8.378 -0.1813  0.3476 -0.1458
 4397SOL    HW124827   1.012   0.837   8.380 -0.3830  0.3069  0.5705
 4397SOL    HW224828   0.981   0.946   8.472 -0.4093  1.2708 -0.3295
 4398SOL     OW24829   2.723   0.537  10.242  0.5198 -0.1097  0.1505
 4398SOL    HW124830   2.627   0.528  10.239  0.5627 -0.6195  0.2765
 4398SOL    HW224831   2.733   0.631  10.260  0.1474 -0.1442  0.5594
 4399SOL     OW24832   4.274   0.739   6.640 -0.6771 -0.0469  0.1463
 4399SOL    HW124833   4.236   0.697   6.562 -2.3730  1.4390  0.1737
 4399SOL    HW224834   4.209   0.809   6.642 -1.9477 -1.1749 -1.4078
 4400SOL     OW24835   4.266   4.702   9.124 -0.0835 -0.5207  0.6317
 4400SOL    HW124836   4.229   0.048   9.096  0.3584 -0.4230  0.3393
 4400SOL    HW224837   4.361   4.713   9.117 -0.0277 -0.9699  0.7170
 4401SOL     OW24838   3.816   0.824   3.355  0.4735 -0.7990 -0.0937
 4401SOL    HW124839   3.734   0.776   3.363  0.1577 -0.0683  0.9987
 4401SOL    HW224840   3.817   0.843   3.261 -0.0361  2.5913  0.5903
 4402SOL     OW24841   2.931   3.138  16.104 -0.1533  0.4374  0.5891
 4402SOL    HW124842   2.939   3.052  16.062 -0.2121  0.5479  0.3507
 4402SOL    HW224843   2.853   3.119  16.156 -1.7730  1.8762 -1.3331
 4403SOL     OW24844   0.539   1.145   4.893  0.3815 -0.0651  0.8164
 4403SOL    HW124845   0.536   1.078   4.825  1.1924  0.7181  0.0166
 4403SOL    HW224846   0.525   1.091   4.971  0.7408 -0.4445  0.6151
 4404SOL     OW24847   2.229   3.856   5.904 -0.3401 -0.5468 -0.1528
 4404SOL    HW124848   2.309   3.814   5.874 -0.6413 -0.2567 -1.3834
 4404SOL    HW224849   2.161   3.790   5.893  0.6186 -1.4777 -0.4375
 4405SOL     OW24850   2.961   4.627   4.303 -0.4848 -0.1775 -0.9147
 4405SOL    HW124851   3.017   4.550   4.294 -1.4530 -0.6856 -2.4622
 4405SOL    HW224852   3.029   4.693   4.287  1.3502 -1.4939  1.4602
 4406SOL     OW24853   0.378   3.492  16.304  0.0739 -0.2565  0.5202
 4406SOL    HW124854   0.298   3.518  16.350  0.3688  1.9839 -0.2105
 4406SOL    HW224855   0.344   3.412  16.265  3.4561 -1.8723  0.9210
 4407SOL     OW24856   4.276   3.721  16.940 -0.1029 -0.0739  0.0757
 4407SOL    HW124857   4.302   3.693  16.852  0.5798  1.7793 -0.3295
 4407SOL    HW224858   4.182   3.735  16.935  0.0355  0.4134 -1.2333
 4408SOL     OW24859   1.819   1.835   1.458  0.4410 -0.0731  0.2899
 4408SOL    HW124860   1.773   1.899   1.403 -0.0170 -0.7291 -0.1010
 4408SOL    HW224861   1.863   1.891   1.522 -0.7797  1.4520 -0.1934
 4409SOL     OW24862   4.689   0.678   1.972 -0.0512  0.4046 -0.1743
 4409SOL    HW124863   4.599   0.696   1.999 -0.6669 -0.2614 -1.8038
 4409SOL    HW224864   4.671   0.601   1.919  1.2699  0.9584 -1.4470
 4410SOL     OW24865   0.808   4.537   6.731  0.3165  0.5223 -0.1692
 4410SOL    HW124866   0.867   4.597   6.684 -0.0220  0.7954 -0.2411
 4410SOL    HW224867   0.723   4.570   6.703 -0.2504 -1.3359 -0.6559
 4411SOL     OW24868   0.238   2.889   4.525  0.0894 -0.2505 -0.0049
 4411SOL    HW124869   0.240   2.984   4.537 -0.1234 -0.3649  0.8606
 4411SOL    HW224870   0.147   2.860   4.526  0.0953 -0.2441  0.3883
 4412SOL     OW24871   3.238   3.359   3.174 -0.3059  0.0748 -0.1769
 4412SOL    HW124872   3.252   3.401   3.258  2.0863 -0.5152 -0.2991
 4412SOL    HW224873   3.218   3.270   3.203 -1.0584 -0.2064 -1.5364
 4413SOL     OW24874   2.575   4.653   4.154  0.4530  0.3522  0.2134
 4413SOL    HW124875   2.597   4.640   4.246 -2.8764  2.3101  1.2832
 4413SOL    HW224876   2.520   4.575   4.143  2.8033 -1.2096 -0.4726
 4414SOL     OW24877   4.243   3.237   3.099  0.5755 -0.1583  0.2198
 4414SOL    HW124878   4.188   3.219   3.024  0.5357 -2.8905  0.9009
 4414SOL    HW224879   4.192   3.299   3.151 -1.0633 -0.8328 -0.6022
 4415SOL     OW24880   3.225   4.397   7.318  0.0784  0.1860  0.3482
 4415SOL    HW124881   3.273   4.443   7.386  0.3982  1.7448 -0.9409
 4415SOL    HW224882   3.288   4.351   7.263  1.1076  1.2570  0.6271
 4416SOL     OW24883   2.961   0.378   3.438 -0.3175 -0.1116  0.6158
 4416SOL    HW124884   2.911   0.304   3.473 -1.4187  0.8749  1.1227
 4416SOL    HW224885   2.916   0.398   3.356  0.4730  0.0297  0.2205
 4417SOL     OW24886   0.849   0.162   7.934  0.1716  0.0547  0.1252
 4417SOL    HW124887   0.904   0.086   7.951  1.2544  0.6998 -0.5209
 4417SOL    HW224888   0.847   0.197   8.023  0.4265  2.8156 -0.9548
 4418SOL     OW24889   3.938   1.945   4.074 -0.0158 -0.7153 -0.4914
 4418SOL    HW124890   3.914   1.970   3.985 -0.4379 -1.2673 -0.5298
 4418SOL    HW224891   3.875   1.876   4.090 -1.0330  0.2205 -0.4425
 4419SOL     OW24892   3.200   3.000   3.616  0.4554 -0.1702 -0.3089
 4419SOL    HW124893   3.285   3.015   3.576 -0.6428  1.8726 -1.8519
 4419SOL    HW224894   3.155   3.078   3.583 -0.2195  0.2331  1.5450
 4420SOL     OW24895   0.439   2.547   8.868  0.1747  0.8279 -0.8718
 4420SOL    HW124896   0.505   2.576   8.805  0.3082 -0.9665 -1.5607
 4420SOL    HW224897   0.498   2.498   8.925 -1.0729  1.0615  0.6207
 4421SOL     OW24898   4.232   0.913   3.316  0.4843  0.1465  0.5884
 4421SOL    HW124899   4.152   0.954   3.349  0.2921 -1.0064  1.5395
 4421SOL    HW224900   4.205   0.827   3.284 -1.3609 -0.0489  2.6645
 4422SOL     OW24901   2.159   1.104  10.661 -0.1700 -0.0578  0.1736
 4422SOL    HW124902   2.245   1.067  10.683 -1.3482 -0.6967  3.7630
 4422SOL    HW224903   2.110   1.090  10.742 -0.4899  0.1512  0.0138
 4423SOL     OW24904   2.456   0.528  15.539 -0.5303  0.5648 -0.5122
 4423SOL    HW124905   2.532   0.515  15.594 -1.0158 -1.9282 -0.4196
 4423SOL    HW224906   2.433   0.439  15.512  3.5061 -1.2122  1.9390
 4424SOL     OW24907   4.274   1.867   9.410  0.3457 -0.0961 -0.3508
 4424SOL    HW124908   4.196   1.915   9.384 -0.4624 -0.1452  2.0038
 4424SOL    HW224909   4.264   1.895   9.501 -2.8467  0.4988 -0.8984
 4425SOL     OW24910   4.246   1.357   0.038  0.2276  0.2762  0.1097
 4425SOL    HW124911   4.311   1.316  17.729  0.9426 -0.3223  1.3753
 4425SOL    HW224912   4.257   1.325   0.128 -1.4758  0.5236  0.4170
 4426SOL     OW24913   1.623   3.969   6.492  0.0352  0.1859 -0.1439
 4426SOL    HW124914   1.654   3.932   6.410  1.1862  0.7246  0.0428
 4426SOL    HW224915   1.597   3.894   6.546  0.8600  0.6320  0.8742
 4427SOL     OW24916   3.344   3.891   7.723  0.6868  0.8486 -0.6652
 4427SOL    HW124917   3.340   3.855   7.811 -0.6092 -0.0520 -1.0801
 4427SOL    HW224918   3.433   3.867   7.696  1.0410  0.3585  0.9717
 4428SOL     OW24919   1.395   3.508   4.805  0.3986  0.3120 -0.1404
 4428SOL    HW124920   1.389   3.414   4.825 -0.2029  0.2505 -0.6238
 4428SOL    HW224921   1.475   3.531   4.852  0.2061  1.1959 -0.2490
 4429SOL     OW24922   4.050   4.480   5.958  0.1429  0.5838  0.1880
 4429SOL    HW124923   4.107   4.443   5.890  0.0596  1.4975 -0.3699
 4429SOL    HW224924   3.966   4.491   5.914  0.5805 -1.4938 -1.1934
 4430SOL     OW24925   0.831   1.275   9.275 -0.4741 -0.9508  0.0803
 4430SOL    HW124926   0.899   1.341   9.267 -1.6235  0.4581  1.9873
 4430SOL    HW224927   0.760   1.318   9.227 -0.9071  0.3801  1.9153
 4431SOL     OW24928   0.435   2.858   3.650  0.2592  0.3375 -0.3270
 4431SOL    HW124929   0.391   2.779   3.618 -0.1008  0.1893  0.5560
 4431SOL    HW224930   0.498   2.867   3.578  0.0838 -0.5255 -0.5870
 4432SOL     OW24931   0.473   0.416   6.773  0.0585 -0.2215  0.1128
 4432SOL    HW124932   0.455   0.451   6.861 -1.6180 -0.5007 -0.1361
 4432SOL    HW224933   0.407   0.348   6.761  0.2686 -0.3954 -0.0734
 4433SOL     OW24934   1.802   0.611   7.034  0.1766  0.3288  0.4237
 4433SOL    HW124935   1.883   0.603   6.983 -0.2929 -1.7054 -0.0023
 4433SOL    HW224936   1.835   0.627   7.122 -0.4023  0.0693  0.6844
 4434SOL     OW24937   1.422   2.650   8.180  0.0113  0.2383  0.0530
 4434SOL    HW124938   1.467   2.608   8.107  1.8193  1.7225  0.3347
 4434SOL    HW224939   1.474   2.621   8.255  0.1800  1.3267  0.3581
 4435SOL     OW24940   2.394   2.860   8.603 -0.3980 -0.1796 -0.2509
 4435SOL    HW124941   2.362   2.870   8.692  0.4067 -2.9181  0.3303
 4435SOL    HW224942   2.327   2.902   8.548  0.7973  1.4930 -0.4050
 4436SOL     OW24943   4.733   2.501   7.658 -0.4191 -0.1537  0.5271
 4436SOL    HW124944   4.719   2.530   7.748  0.5627  1.4634  0.1600
 4436SOL    HW224945   4.647   2.461   7.644  0.0984 -0.2297 -2.4594
 4437SOL     OW24946   2.128   0.710   8.582 -0.1125 -0.2175 -0.2939
 4437SOL    HW124947   2.133   0.802   8.607 -0.1949 -0.8170  1.9566
 4437SOL    HW224948   2.210   0.703   8.533  0.5175 -0.8742  0.8755
 4438SOL     OW24949   1.694   3.128  12.810  0.0346  0.0802  0.2765
 4438SOL    HW124950   1.625   3.172  12.760 -1.1460 -1.4138  0.5639
 4438SOL    HW224951   1.682   3.152  12.902 -0.3944  2.1249 -0.3226
 4439SOL     OW24952   3.480   0.169   0.019  0.2067 -0.1890 -0.4641
 4439SOL    HW124953   3.557   0.112   0.010 -1.6335 -2.7002 -0.1990
 4439SOL    HW224954   3.412   0.106   0.041  0.6194 -0.6362 -0.4610
 4440SOL     OW24955   2.116   3.847   8.009  0.6157 -0.1801 -0.0724
 4440SOL    HW124956   2.097   3.864   7.917  0.3374 -0.5700 -0.0868
 4440SOL    HW224957   2.108   3.752   8.015 -0.0818 -0.2442 -2.1334
 4441SOL     OW24958   3.879   4.663  17.585 -0.0911 -0.0798  0.1989
 4441SOL    HW124959   3.931   4.597  17.632  0.2930  0.0733 -0.0109
 4441SOL    HW224960   3.942   4.710  17.531  2.0700 -3.2938 -0.0988
 4442SOL     OW24961   0.068   3.220   1.032 -0.4842 -0.2478 -0.1876
 4442SOL    HW124962   0.002   3.152   1.019 -1.7580  0.4510  2.7124
 4442SOL    HW224963   0.035   3.278   0.963  2.1612  0.7984 -0.5710
 4443SOL     OW24964   2.973   3.817   9.631 -0.4554  0.2058  0.4862
 4443SOL    HW124965   2.919   3.739   9.645  0.6913 -0.9695 -1.7455
 4443SOL    HW224966   3.046   3.794   9.689  0.6173 -0.1939 -1.0371
 4444SOL     OW24967   1.248   3.925   4.116 -0.1909  0.2615  0.7153
 4444SOL    HW124968   1.233   3.875   4.036  2.4036 -0.2736  0.5835
 4444SOL    HW224969   1.338   3.900   4.135  0.1165  0.2268 -0.8263
 4445SOL     OW24970   3.902   2.670   3.110  0.2316  0.3492 -0.6709
 4445SOL    HW124971   3.861   2.583   3.116  0.8581  0.1667  0.9918
 4445SOL    HW224972   3.957   2.667   3.188 -1.1954  1.6201  0.3913
 4446SOL     OW24973   4.229   4.349   5.031 -0.0368 -0.2281 -0.2465
 4446SOL    HW124974   4.163   4.417   5.019 -0.1135  0.0695  1.9956
 4446SOL    HW224975   4.201   4.303   5.110  0.7071 -1.7035 -0.8325
 4447SOL     OW24976   4.241   2.958   6.174 -0.1176  0.2672  0.2323
 4447SOL    HW124977   4.270   2.900   6.104 -1.6568  0.5610 -0.6611
 4447SOL    HW224978   4.148   2.938   6.163 -0.0936  0.2235  0.1145
 4448SOL     OW24979   3.697   3.091   4.587  0.0734 -0.0705 -0.6172
 4448SOL    HW124980   3.625   3.110   4.647 -2.2732 -1.9273 -2.8654
 4448SOL    HW224981   3.656   3.119   4.505  1.7097 -1.9022 -2.0400
 4449SOL     OW24982   2.149   0.820   3.817 -0.4751 -0.0644  0.0370
 4449SOL    HW124983   2.110   0.825   3.730  2.7831  0.1258 -1.3903
 4449SOL    HW224984   2.118   0.731   3.835 -1.4589 -0.0543 -1.5696
 4450SOL     OW24985   0.305   3.145   5.037 -0.0967  0.3005 -0.3257
 4450SOL    HW124986   0.262   3.060   5.050  0.6983 -0.0371  0.1180
 4450SOL    HW224987   0.320   3.150   4.942  0.6324 -0.5626 -0.2554
 4451SOL     OW24988   1.846   3.456   2.232 -0.4580  0.0139 -0.5910
 4451SOL    HW124989   1.862   3.446   2.326 -1.0094  0.9646 -0.3932
 4451SOL    HW224990   1.762   3.412   2.231 -1.4435  1.9054 -1.2845
 4452SOL     OW24991   4.460   3.376   5.856  0.1512 -0.3305  0.4638
 4452SOL    HW124992   4.456   3.342   5.766 -0.7077 -0.4063  0.5313
 4452SOL    HW224993   4.429   3.302   5.908  0.2104  1.2616  2.7453
 4453SOL     OW24994   1.819   2.039   6.330  0.0339  0.0759  0.3964
 4453SOL    HW124995   1.840   1.948   6.353 -3.4297 -0.8716 -0.1552
 4453SOL    HW224996   1.806   2.036   6.235 -1.4340  1.2425  0.5684
 4454SOL     OW24997   3.948   0.814  13.213  0.5106  0.0724 -0.4399
 4454SOL    HW124998   4.027   0.793  13.263 -0.0652 -1.3926 -0.1239
 4454SOL    HW224999   3.991   0.871  13.150  1.9590  0.9986  1.3820
 4455SOL     OW25000   3.315   3.214  11.448 -0.8073  0.5024 -0.3453
 4455SOL    HW125001   3.329   3.121  11.465  1.7315  0.2553 -3.8684
 4455SOL    HW225002   3.225   3.215  11.414 -0.8900 -1.7708 -0.2207
 4456SOL     OW25003   0.732   3.462   4.247 -0.0197  0.2535  0.7284
 4456SOL    HW125004   0.748   3.476   4.340  3.2720  0.0571  0.2014
 4456SOL    HW225005   0.637   3.473   4.245 -0.1354 -0.6217  1.8079
 4457SOL     OW25006   2.261   2.904   1.870  0.4785  0.3160  0.2105
 4457SOL    HW125007   2.191   2.920   1.807  0.4058 -0.9590 -0.0326
 4457SOL    HW225008   2.215   2.857   1.939 -0.0798  1.1519  0.3956
 4458SOL     OW25009   4.624   1.827  11.631 -0.1155  0.5834  0.6059
 4458SOL    HW125010   4.697   1.795  11.684  0.3908 -1.0488 -1.0723
 4458SOL    HW225011   4.645   1.787  11.547 -1.0568  1.1615  0.0953
 4459SOL     OW25012   2.456   2.645  10.529  0.2997 -0.1894  0.0433
 4459SOL    HW125013   2.427   2.565  10.574 -3.1340  1.6099  1.0066
 4459SOL    HW225014   2.372   2.668  10.488  0.5544 -0.7194 -0.7926
 4460SOL     OW25015   3.865   1.933  17.541 -0.5243  0.1042 -0.0147
 4460SOL    HW125016   3.871   1.991  17.465 -0.7595  1.7059  1.1736
 4460SOL    HW225017   3.924   1.863  17.513  0.4968 -0.1659  2.7338
 4461SOL     OW25018   2.290   4.611   8.815  0.2034  0.1942 -0.0754
 4461SOL    HW125019   2.337   4.586   8.895  0.2337  0.7404  0.0748
 4461SOL    HW225020   2.228   4.540   8.797  1.5048 -1.0873  0.4709
 4462SOL     OW25021   4.520   2.981   7.612 -0.1412 -0.4966  0.0790
 4462SOL    HW125022   4.568   3.063   7.601  0.2019 -0.5137  1.4679
 4462SOL    HW225023   4.441   2.993   7.560 -0.9584  2.7825  2.1607
 4463SOL     OW25024   0.281   4.356  11.062  0.4553 -0.1929  0.3010
 4463SOL    HW125025   0.230   4.276  11.078  0.7758 -0.4186  0.1881
 4463SOL    HW225026   0.337   4.323  10.992  0.7717  1.1289 -0.0608
 4464SOL     OW25027   2.746   0.158   3.318 -0.1425  0.4344 -0.4433
 4464SOL    HW125028   2.800   0.093   3.274  2.6331  2.2492  0.2708
 4464SOL    HW225029   2.753   0.116   3.404 -0.3818  0.1576 -0.5571
 4465SOL     OW25030   0.369   4.513   6.657 -0.0269  0.1490 -0.4372
 4465SOL    HW125031   0.301   4.571   6.689  1.0143  0.6898  0.7889
 4465SOL    HW225032   0.310   4.463   6.601 -0.2772  0.4641 -0.4526
 4466SOL     OW25033   0.838   3.075  16.265 -0.2625 -0.1012 -0.4771
 4466SOL    HW125034   0.847   3.158  16.312 -1.1598  0.4997 -1.3729
 4466SOL    HW225035   0.904   3.032  16.320 -1.6186  0.8022  1.8873
 4467SOL     OW25036   0.741   1.847   2.699 -0.4229 -0.2170  0.6874
 4467SOL    HW125037   0.732   1.872   2.791  2.3773  0.1716  0.8534
 4467SOL    HW225038   0.835   1.836   2.688 -0.5078  0.6698 -0.8929
 4468SOL     OW25039   2.203   4.157   8.419  0.2774 -0.6326 -0.1533
 4468SOL    HW125040   2.188   4.227   8.357 -0.5398  0.3323  1.1305
 4468SOL    HW225041   2.168   4.095   8.355  2.8577 -2.0277 -0.2252
 4469SOL     OW25042   2.382   1.529   4.269  0.5225 -0.1283 -0.0143
 4469SOL    HW125043   2.426   1.463   4.215  0.5545 -0.0271 -0.1120
 4469SOL    HW225044   2.423   1.608   4.235  0.7018  0.5067  1.6890
 4470SOL     OW25045   3.533   4.438   3.783  0.1308  0.6590 -0.3150
 4470SOL    HW125046   3.539   4.424   3.878  1.4824 -2.7652 -0.9123
 4470SOL    HW225047   3.626   4.421   3.767  0.1621  1.6260 -1.1559
 4471SOL     OW25048   1.132   1.422   1.872 -0.3917  0.4110 -0.0070
 4471SOL    HW125049   1.082   1.503   1.882 -1.6997 -0.4970  0.9406
 4471SOL    HW225050   1.074   1.364   1.824 -1.1889  0.8081  0.4653
 4472SOL     OW25051   0.400   4.358  14.111 -0.1752  0.9137 -0.7708
 4472SOL    HW125052   0.465   4.340  14.179 -3.4107 -0.7098  1.9495
 4472SOL    HW225053   0.362   4.439  14.147 -2.5627 -0.8762  0.7126
 4473SOL     OW25054   3.745   0.124  10.725  0.1268 -0.2433  0.2700
 4473SOL    HW125055   3.658   0.162  10.716  0.6096  0.6395 -0.6449
 4473SOL    HW225056   3.781   0.157  10.807  1.7060  1.5700 -1.1544
 4474SOL     OW25057   2.947   2.988   6.287 -0.3342 -1.2048  0.0999
 4474SOL    HW125058   2.879   3.001   6.221 -0.3620 -0.1673  0.3270
 4474SOL    HW225059   2.941   2.893   6.276 -1.6309 -1.2569  1.2920
 4475SOL     OW25060   3.293   1.074   2.605 -0.5091  0.2775 -0.5314
 4475SOL    HW125061   3.298   1.014   2.531 -0.0556 -2.0093  1.3698
 4475SOL    HW225062   3.350   1.140   2.567  0.3179 -0.2509 -0.2078
 4476SOL     OW25063   3.398   2.851   4.727 -0.1125 -0.4560  0.2537
 4476SOL    HW125064   3.415   2.943   4.749 -0.8189 -0.1839 -0.3765
 4476SOL    HW225065   3.393   2.806   4.812 -1.1359  3.1789  2.1352
 4477SOL     OW25066   1.201   3.103   5.574 -0.1515 -1.1871  0.2224
 4477SOL    HW125067   1.240   3.081   5.490 -0.5389  1.0579 -0.5298
 4477SOL    HW225068   1.119   3.145   5.548  0.0370 -0.5322  0.6770
 4478SOL     OW25069   1.345   0.292  16.247  0.1504 -0.9651  0.1163
 4478SOL    HW125070   1.311   0.205  16.265 -0.8937 -0.8541 -1.2846
 4478SOL    HW225071   1.438   0.274  16.255  0.3878  0.0581 -0.2921
 4479SOL     OW25072   4.199   4.283   8.081  0.0075 -0.6536  0.1660
 4479SOL    HW125073   4.236   4.197   8.101 -1.5779 -0.5176  3.6923
 4479SOL    HW225074   4.153   4.273   7.998 -0.2868  0.2621  0.2123
 4480SOL     OW25075   1.117   2.263   3.096  0.5117 -0.5194  0.1198
 4480SOL    HW125076   1.183   2.273   3.027  0.1005  1.5689  0.0159
 4480SOL    HW225077   1.152   2.323   3.161 -1.3306 -0.1583  0.7585
 4481SOL     OW25078   0.638   0.921   6.918 -0.5321 -0.0177  0.1076
 4481SOL    HW125079   0.715   0.896   6.969 -0.6588 -1.4849 -0.4111
 4481SOL    HW225080   0.565   0.877   6.963 -0.3963  2.1469  2.4283
 4482SOL     OW25081   3.529   4.383  13.412 -0.0910  0.8583  0.2984
 4482SOL    HW125082   3.605   4.400  13.356 -1.6038  0.1781 -1.9517
 4482SOL    HW225083   3.563   4.326  13.482 -1.8673  0.6946  1.0485
 4483SOL     OW25084   0.606   1.853   5.353 -0.4254  0.1056 -0.0929
 4483SOL    HW125085   0.684   1.892   5.315  0.6177 -1.7111  0.1717
 4483SOL    HW225086   0.544   1.852   5.280  0.4042 -0.6219 -0.7882
 4484SOL     OW25087   1.093   3.387   5.694 -0.0817 -0.0900 -0.0349
 4484SOL    HW125088   1.006   3.398   5.656  0.9906  0.0807 -2.4585
 4484SOL    HW225089   1.108   3.300   5.657 -0.1480  0.3059 -0.9823
 4485SOL     OW25090   2.329   2.941   3.366  0.0924  0.3111  0.1793
 4485SOL    HW125091   2.235   2.926   3.363  0.3964 -1.5955  0.1969
 4485SOL    HW225092   2.354   2.887   3.441 -0.3649 -0.8571 -0.5111
 4486SOL     OW25093   3.974   3.495   6.149  0.7598  0.3862  0.3068
 4486SOL    HW125094   3.963   3.450   6.233  0.2801 -0.0311  0.0202
 4486SOL    HW225095   3.968   3.428   6.081 -0.9405 -0.7386  1.5801
 4487SOL     OW25096   4.638   4.627  16.578 -0.1972  0.6634  0.5735
 4487SOL    HW125097   4.605   4.623  16.488  0.5405  2.2271  0.2339
 4487SOL    HW225098   4.700   4.554  16.576 -0.6296  0.2972  0.6058
 4488SOL     OW25099   3.106   4.048   1.195  0.1785 -0.2259  0.2519
 4488SOL    HW125100   3.032   4.101   1.165 -1.2909 -2.1477  0.4743
 4488SOL    HW225101   3.164   4.123   1.184  0.1890 -0.2777 -0.0465
 4489SOL     OW25102   3.313   1.448   5.032  0.0496  0.3512 -0.2116
 4489SOL    HW125103   3.227   1.476   5.064  0.5321  0.1760  1.2503
 4489SOL    HW225104   3.289   1.370   4.983 -0.4532  0.6180 -0.3850
 4490SOL     OW25105   4.713   0.486   8.212  0.3371  0.4807 -0.1202
 4490SOL    HW125106   4.696   0.581   8.208  0.6344  0.4391 -2.3184
 4490SOL    HW225107   0.054   0.475   8.158  1.3878  1.4724  1.1826
 4491SOL     OW25108   1.147   3.604   4.883  0.7380 -0.0222 -0.0112
 4491SOL    HW125109   1.226   3.558   4.855 -1.0794 -2.2113 -1.6027
 4491SOL    HW225110   1.181   3.693   4.894  0.0160  0.4131 -1.2925
 4492SOL     OW25111   2.658   3.357   4.408 -0.0759  0.8013 -0.0086
 4492SOL    HW125112   2.715   3.310   4.468  0.7611  0.3491 -1.1675
 4492SOL    HW225113   2.608   3.399   4.478 -1.9862  0.4440 -1.1533
 4493SOL     OW25114   2.559   4.262   7.903  0.0260 -0.1869 -0.1416
 4493SOL    HW125115   2.622   4.218   7.960  0.3017  0.9240  0.4089
 4493SOL    HW225116   2.584   4.352   7.925  0.2153 -1.5614  5.2848
 4494SOL     OW25117   3.670   1.399  11.724  0.5969  0.4506 -0.5228
 4494SOL    HW125118   3.647   1.337  11.793 -0.9484  0.4184 -1.0628
 4494SOL    HW225119   3.586   1.438  11.699 -0.5080 -2.0751 -0.7747
 4495SOL     OW25120   3.946   4.399   6.593  0.0016 -0.2741 -0.5422
 4495SOL    HW125121   3.949   4.334   6.523 -1.5136  0.7209 -1.5207
 4495SOL    HW225122   3.860   4.436   6.571 -0.0227 -1.5359 -2.5447
 4496SOL     OW25123   0.992   3.276   2.577  0.0003  0.1322  0.3198
 4496SOL    HW125124   0.930   3.343   2.549  1.3453  1.1936 -0.1759
 4496SOL    HW225125   1.078   3.305   2.545  0.2926 -0.4834  0.5397
 4497SOL     OW25126   0.884   0.897   8.122 -0.0244  0.0412  0.0475
 4497SOL    HW125127   0.917   0.909   8.211 -1.6600  0.5783  0.5863
 4497SOL    HW225128   0.808   0.843   8.144  0.3189 -1.0412 -1.4253
 4498SOL     OW25129   3.291   1.212   1.398 -0.3266  0.2547 -0.3571
 4498SOL    HW125130   3.307   1.176   1.311  0.2922 -0.0502 -0.1222
 4498SOL    HW225131   3.258   1.131   1.438 -3.4293  2.4597  1.5522
 4499SOL     OW25132   1.008   2.455   4.794 -0.1750  0.1029  0.2849
 4499SOL    HW125133   1.047   2.450   4.881 -0.9933  2.4847  0.8004
 4499SOL    HW225134   1.017   2.551   4.792  1.5198 -0.0195  2.0959
 4500SOL     OW25135   2.130   4.700   3.756  0.0622 -0.0965  0.0040
 4500SOL    HW125136   2.081   4.657   3.825 -0.0197  0.1894  0.1243
 4500SOL    HW225137   2.221   4.676   3.776  0.4885  0.7411 -0.9482
 4501SOL     OW25138   4.028   0.105   1.928 -0.2030  0.3548  0.0387
 4501SOL    HW125139   4.014   0.193   1.894  0.5354  0.5336  0.1944
 4501SOL    HW225140   4.104   0.124   1.983 -1.0796  0.1729  1.3135
 4502SOL     OW25141   4.295   3.958   4.816 -0.1292 -0.0478 -0.0629
 4502SOL    HW125142   4.390   3.948   4.820 -0.4297 -2.3303  1.1052
 4502SOL    HW225143   4.298   4.046   4.852 -0.2502 -0.1373  0.1628
 4503SOL     OW25144   2.920   4.266   1.102 -0.0357  0.4316  0.1088
 4503SOL    HW125145   3.001   4.281   1.053 -0.4688  0.7771 -0.5095
 4503SOL    HW225146   2.855   4.309   1.046  0.0440 -0.2804 -0.5442
 4504SOL     OW25147   0.783   4.260   2.955 -0.0004 -0.4275  1.1587
 4504SOL    HW125148   0.734   4.267   3.037  0.0667  0.7893  1.0973
 4504SOL    HW225149   0.836   4.182   2.974  0.0383 -1.2255 -2.2846
 4505SOL     OW25150   4.116   3.493   3.007  0.3441 -0.9533  0.7851
 4505SOL    HW125151   4.187   3.552   2.983 -0.6492  0.2058  0.7042
 4505SOL    HW225152   4.101   3.447   2.925  0.8105  0.4437 -0.0854
 4506SOL     OW25153   0.677   0.428   8.331 -0.6117  0.0660 -0.1034
 4506SOL    HW125154   0.670   0.338   8.363  1.3165 -0.8277 -2.1390
 4506SOL    HW225155   0.588   0.454   8.308 -2.0190 -0.7830  4.6001
 4507SOL     OW25156   2.901   2.385   5.553  0.9763  0.3511 -0.1755
 4507SOL    HW125157   2.971   2.322   5.537  0.4124 -0.6745  1.3836
 4507SOL    HW225158   2.852   2.358   5.631  0.1876  0.0086 -0.7876
 4508SOL     OW25159   0.938   1.301   8.129  0.0076 -0.1261 -0.1376
 4508SOL    HW125160   1.020   1.308   8.178  0.0238  3.0493 -0.6076
 4508SOL    HW225161   0.967   1.242   8.059 -1.7586 -0.7322 -0.3471
 4509SOL     OW25162   3.066   1.600  14.587  0.1316 -0.6681  0.5043
 4509SOL    HW125163   2.979   1.562  14.599 -0.8061  1.3462 -0.0026
 4509SOL    HW225164   3.098   1.607  14.677 -2.0479 -0.6298  1.2669
 4510SOL     OW25165   0.682   1.201   8.526  0.3028  0.6612 -0.2323
 4510SOL    HW125166   0.655   1.286   8.563  1.8730  1.4885 -0.9995
 4510SOL    HW225167   0.616   1.188   8.458  0.1424  0.4739 -0.0425
 4511SOL     OW25168   0.879   2.229   8.077  0.4152 -0.3614 -0.0632
 4511SOL    HW125169   0.897   2.313   8.119  1.9052 -0.6144 -0.1957
 4511SOL    HW225170   0.930   2.217   7.996 -1.9656  3.7568 -2.2039
 4512SOL     OW25171   2.505   1.701   8.603 -0.7121  0.3887 -0.4437
 4512SOL    HW125172   2.482   1.776   8.658 -0.2114 -0.0675  0.3960
 4512SOL    HW225173   2.538   1.646   8.674  0.8980  0.4180 -1.1820
 4513SOL     OW25174   2.184   1.293   8.138 -0.0930  0.7659  0.7829
 4513SOL    HW125175   2.124   1.254   8.074 -0.8764  0.7153  1.5636
 4513SOL    HW225176   2.124   1.340   8.196 -1.1871  0.2314  0.0837
 4514SOL     OW25177   3.238   0.015   2.192  0.2709  0.2862 -0.4040
 4514SOL    HW125178   3.154   4.720   2.225  0.3672  1.2126  0.7317
 4514SOL    HW225179   3.217   0.061   2.111  0.1874 -2.7395 -2.1311
 4515SOL     OW25180   4.399   0.390   3.502  0.0354  0.1130  0.1687
 4515SOL    HW125181   4.311   0.425   3.490  0.0376  0.1740  0.3291
 4515SOL    HW225182   4.445   0.444   3.439 -1.6619  0.7146 -0.5572
 4516SOL     OW25183   3.177   1.080   3.249  0.2747  0.2984 -0.0992
 4516SOL    HW125184   3.261   1.115   3.279  0.3629  0.4373 -0.5112
 4516SOL    HW225185   3.193   0.996   3.205  1.9273  1.5590 -1.9003
 4517SOL     OW25186   2.067   1.089   0.698 -0.1242 -0.4762 -0.2050
 4517SOL    HW125187   2.007   1.023   0.663 -0.2708  0.5267 -1.8477
 4517SOL    HW225188   2.118   1.110   0.620 -0.4220 -0.2638 -0.3449
 4518SOL     OW25189   3.815   2.457  14.299 -0.1758 -0.2593 -0.5242
 4518SOL    HW125190   3.852   2.451  14.211 -0.4824  1.9510 -0.8099
 4518SOL    HW225191   3.722   2.442  14.282 -0.2274 -0.0680 -0.4146
 4519SOL     OW25192   1.663   3.287   4.177 -0.1424 -0.7129  0.1990
 4519SOL    HW125193   1.672   3.231   4.100  1.2592  0.0708 -0.2028
 4519SOL    HW225194   1.700   3.364   4.133 -0.3411 -0.6450  0.1505
 4520SOL     OW25195   2.574   3.340   6.975  0.7702  0.3735 -0.3030
 4520SOL    HW125196   2.644   3.275   6.966  1.8712  1.2912  1.7164
 4520SOL    HW225197   2.499   3.284   6.995 -0.6182  1.9547 -1.1360
 4521SOL     OW25198   0.147   3.078   0.389  0.3113 -0.4909 -0.5681
 4521SOL    HW125199   0.176   3.011   0.327  0.2186  0.1295 -1.2817
 4521SOL    HW225200   0.222   3.069   0.448 -0.7997  1.8920  1.2193
 4522SOL     OW25201   0.933   1.384   4.354 -0.8810  0.7210  0.3239
 4522SOL    HW125202   0.984   1.465   4.356 -1.2650  0.9966 -1.0770
 4522SOL    HW225203   0.887   1.405   4.273  1.1849  0.7124 -0.8514
 4523SOL     OW25204   1.539   3.680   9.759 -0.5666 -0.6325  0.2565
 4523SOL    HW125205   1.610   3.685   9.696 -2.6591  0.4776 -2.0185
 4523SOL    HW225206   1.466   3.685   9.698 -1.0261  1.3112  0.9597
 4524SOL     OW25207   2.801   4.179   4.822 -0.4470  0.4779 -0.2232
 4524SOL    HW125208   2.854   4.256   4.802  0.6201  0.6503  3.2130
 4524SOL    HW225209   2.839   4.103   4.778  0.7096 -0.0471  1.6970
 4525SOL     OW25210   3.441   0.474   5.923 -0.5348 -0.3378 -0.1643
 4525SOL    HW125211   3.405   0.390   5.897 -1.9272  0.6176 -1.3315
 4525SOL    HW225212   3.381   0.534   5.878 -0.7972 -1.6009 -1.4891
 4526SOL     OW25213   4.393   2.295  13.042 -0.2048 -0.4377 -0.7189
 4526SOL    HW125214   4.368   2.275  12.952  2.2627 -1.8514 -1.0746
 4526SOL    HW225215   4.444   2.375  13.032 -1.8479  0.6196 -0.6192
 4527SOL     OW25216   3.646   0.711   2.654 -0.6552  0.1135  0.3156
 4527SOL    HW125217   3.668   0.754   2.571  0.1977  1.0692  1.0415
 4527SOL    HW225218   3.714   0.747   2.711  0.9738 -0.4856 -1.2249
 4528SOL     OW25219   3.881   0.238   7.519  0.1090 -0.0921  0.4422
 4528SOL    HW125220   3.888   0.150   7.483  0.6240  0.3502 -0.5237
 4528SOL    HW225221   3.952   0.239   7.584 -0.3647 -1.0012  0.9787
 4529SOL     OW25222   2.041   0.537   7.476 -0.0835  0.3401  0.2266
 4529SOL    HW125223   2.050   0.549   7.571  1.6116  1.9642 -0.1262
 4529SOL    HW225224   2.021   0.444   7.486 -1.2211  0.5678  0.0562
 4530SOL     OW25225   4.505   2.217  13.542 -0.1233 -0.3638  0.2309
 4530SOL    HW125226   4.451   2.239  13.466  2.4613  1.4706 -1.1091
 4530SOL    HW225227   4.582   2.256  13.499 -0.8507  0.6353 -0.1817
 4531SOL     OW25228   3.429   0.572   3.846 -0.2466  0.0186 -0.6572
 4531SOL    HW125229   3.445   0.590   3.754  1.8225  0.7043 -0.1645
 4531SOL    HW225230   3.506   0.615   3.882 -0.2237 -1.2271  0.7940
 4532SOL     OW25231   2.586   0.276   6.329  0.0959  0.3658  0.0373
 4532SOL    HW125232   2.595   0.368   6.304 -0.0071  0.1728 -0.6878
 4532SOL    HW225233   2.661   0.235   6.287  0.8581  1.7611  0.0306
 4533SOL     OW25234   1.279   0.416   7.497  0.8823 -0.2321 -0.6171
 4533SOL    HW125235   1.295   0.379   7.584 -0.7353  0.2421 -0.1174
 4533SOL    HW225236   1.340   0.370   7.439  0.4150 -1.0191 -0.4854
 4534SOL     OW25237   3.209   3.049   9.452 -0.0831  0.8050  0.0947
 4534SOL    HW125238   3.114   3.055   9.461 -0.0864  0.5247  0.2451
 4534SOL    HW225239   3.224   3.039   9.358 -0.2617  0.5572  0.0935
 4535SOL     OW25240   3.470   0.641  17.426 -0.0362 -0.2659 -0.7806
 4535SOL    HW125241   3.531   0.713  17.442 -1.0034 -0.2481  2.9118
 4535SOL    HW225242   3.516   0.577  17.480 -2.0270 -1.7562 -0.8414
 4536SOL     OW25243   0.984   3.757   6.161  0.3605 -0.6211  0.2182
 4536SOL    HW125244   0.890   3.752   6.145  0.5354  2.2604 -1.7189
 4536SOL    HW225245   1.017   3.730   6.075  0.0031 -0.3334 -0.0109
 4537SOL     OW25246   0.800   1.650  13.860 -0.1722  0.1667  0.1204
 4537SOL    HW125247   0.868   1.596  13.900  2.7619  2.5863 -1.5370
 4537SOL    HW225248   0.745   1.679  13.932  0.5719  0.6056  0.5060
 4538SOL     OW25249   0.752   4.048   5.124  0.3145  0.4269 -0.3951
 4538SOL    HW125250   0.725   3.958   5.144  0.9238 -0.6065 -4.2206
 4538SOL    HW225251   0.751   4.102   5.203 -0.1719 -1.1729  0.6914
 4539SOL     OW25252   4.202   0.977  13.545  0.3822  0.3996  0.1542
 4539SOL    HW125253   4.169   0.887  13.539 -0.7683  0.7990  0.5120
 4539SOL    HW225254   4.207   1.010  13.455  1.3182  0.2448  0.1557
 4540SOL     OW25255   0.304   2.292  17.262  0.4004 -0.5317  0.0314
 4540SOL    HW125256   0.380   2.301  17.321  0.1071  0.0571  0.3182
 4540SOL    HW225257   0.231   2.275  17.322 -1.3712  0.2412 -1.9491
 4541SOL     OW25258   3.965   3.559   1.864  0.2742 -0.2990 -0.2872
 4541SOL    HW125259   3.940   3.487   1.807 -0.6742  0.5976 -0.9936
 4541SOL    HW225260   3.904   3.543   1.936 -0.7112  0.6387 -0.9117
 4542SOL     OW25261   1.807   0.483   8.143  0.3606  0.0740 -0.1358
 4542SOL    HW125262   1.776   0.420   8.078 -1.6591 -1.4647  2.3297
 4542SOL    HW225263   1.887   0.436   8.167  1.3451  1.0040 -1.6485
 4543SOL     OW25264   1.859   3.313   3.528 -0.0176 -0.1653 -0.1977
 4543SOL    HW125265   1.915   3.265   3.588  1.3427 -0.4002 -1.6754
 4543SOL    HW225266   1.892   3.286   3.442 -1.5428  4.3669 -2.2254
 4544SOL     OW25267   4.615   2.214  16.463 -0.4069  0.2660 -0.6894
 4544SOL    HW125268   4.565   2.296  16.459  2.0576  1.6960 -1.8829
 4544SOL    HW225269   4.551   2.150  16.493  0.5270 -0.2236  0.2384
 4545SOL     OW25270   1.254   1.997  11.604 -0.1924 -0.1136 -0.0808
 4545SOL    HW125271   1.278   2.044  11.685 -0.5810 -3.0221  1.7116
 4545SOL    HW225272   1.297   2.051  11.538 -0.8215 -0.3534 -0.6757
 4546SOL     OW25273   4.721   0.188   1.861 -0.1385  0.1336  0.1144
 4546SOL    HW125274   4.689   0.143   1.939  0.2718  1.9782  1.3625
 4546SOL    HW225275   4.731   0.119   1.796  0.9502  0.4453 -0.0451
 4547SOL     OW25276   0.658   0.350   7.454  0.3215  0.0071  0.3864
 4547SOL    HW125277   0.733   0.291   7.451  0.1701 -0.1636 -0.0603
 4547SOL    HW225278   0.585   0.293   7.480 -1.4749  1.9030 -0.4959
 4548SOL     OW25279   2.919   1.965   6.569  0.0920  0.3980 -0.6207
 4548SOL    HW125280   2.928   1.870   6.559  0.3766  0.2419  1.1303
 4548SOL    HW225281   2.936   1.979   6.662  0.6367 -1.2905 -0.4544
 4549SOL     OW25282   4.201   3.347  14.763 -0.0213  0.1792 -0.3550
 4549SOL    HW125283   4.280   3.317  14.719  0.3646  1.3756 -0.4883
 4549SOL    HW225284   4.199   3.437  14.728 -0.0318  0.2382 -0.2035
 4550SOL     OW25285   4.466   2.239  14.922 -0.1058  0.0980  0.3619
 4550SOL    HW125286   4.477   2.222  15.016  0.9488 -0.7821  0.0738
 4550SOL    HW225287   4.551   2.244  14.880 -0.6611  0.2799 -0.7382
 4551SOL     OW25288   0.379   0.729   6.058  0.2530 -0.5350 -0.0719
 4551SOL    HW125289   0.419   0.737   6.144  2.0835 -0.1879 -0.9437
 4551SOL    HW225290   0.323   0.806   6.055 -0.8019 -1.2521  1.7789
 4552SOL     OW25291   2.471   0.213   6.014 -0.4489 -0.0198  0.9176
 4552SOL    HW125292   2.433   0.168   6.090  1.0766 -0.5121  1.3927
 4552SOL    HW225293   2.411   0.287   6.011  1.8102  1.6819 -2.0810
 4553SOL     OW25294   4.175   0.340   3.984  0.0515 -0.9155  0.1931
 4553SOL    HW125295   4.185   0.255   4.026 -0.8783 -0.3182  1.6382
 4553SOL    HW225296   4.148   0.311   3.896 -0.7234  1.7736 -0.4534
 4554SOL     OW25297   4.515   4.534   5.204  0.0461 -0.9262 -0.3477
 4554SOL    HW125298   4.487   4.443   5.196  0.9022 -1.3485  1.4135
 4554SOL    HW225299   4.607   4.525   5.229  0.0845  1.8984  0.4901
 4555SOL     OW25300   0.133   4.137   9.144 -0.1924 -0.2741 -0.0148
 4555SOL    HW125301   0.153   4.207   9.207  2.3462 -0.8701 -0.1624
 4555SOL    HW225302   0.210   4.153   9.091  0.4925 -0.6404  0.8742
 4556SOL     OW25303   2.370   3.040   5.710  0.8080  0.4940 -0.0351
 4556SOL    HW125304   2.412   3.103   5.651 -1.4124 -0.2891 -2.4391
 4556SOL    HW225305   2.291   3.022   5.660  1.0787  1.3564 -0.7798
 4557SOL     OW25306   0.404   1.710   6.788 -0.3303 -0.0434  0.4944
 4557SOL    HW125307   0.432   1.678   6.702  0.7938 -3.2986  2.0968
 4557SOL    HW225308   0.319   1.667   6.794 -0.9254  1.1594  0.6477
 4558SOL     OW25309   4.489   3.653   4.844 -0.9868  0.2999 -0.3173
 4558SOL    HW125310   4.482   3.745   4.820  1.5397  0.2169 -1.3000
 4558SOL    HW225311   4.497   3.619   4.755 -0.4512  0.7651 -0.4463
 4559SOL     OW25312   2.589   0.123   1.487  0.1482  0.1788  0.6777
 4559SOL    HW125313   2.530   0.164   1.424  0.1170 -0.7382  0.1160
 4559SOL    HW225314   2.674   0.152   1.455  0.1943  0.7106  1.2713
 4560SOL     OW25315   2.762   4.280   9.413  0.2810  0.1262 -0.2788
 4560SOL    HW125316   2.735   4.202   9.364  0.5941 -0.2463  0.1464
 4560SOL    HW225317   2.858   4.272   9.412  0.2981  0.2819  0.2072
 4561SOL     OW25318   3.760   0.987   5.114 -0.2804 -0.0023 -0.4847
 4561SOL    HW125319   3.675   0.984   5.070 -0.8409  2.9564  0.3930
 4561SOL    HW225320   3.810   0.939   5.047  1.5386  1.2470 -0.0415
 4562SOL     OW25321   2.148   3.957   4.465  0.0433 -0.2194 -0.4984
 4562SOL    HW125322   2.134   3.988   4.376  2.5070 -1.1688 -1.2282
 4562SOL    HW225323   2.131   4.033   4.519 -3.1418 -1.3329  0.0590
 4563SOL     OW25324   4.568   1.764   4.596  0.1252 -0.5149 -0.1612
 4563SOL    HW125325   4.608   1.682   4.568 -0.6978 -0.9767 -0.0134
 4563SOL    HW225326   4.632   1.816   4.643 -1.1995  0.3269  0.7337
 4564SOL     OW25327   4.273   4.008  11.328  0.0477  0.2111  0.7516
 4564SOL    HW125328   4.183   4.020  11.298  0.4797 -1.8384 -1.3516
 4564SOL    HW225329   4.273   4.011  11.424 -1.1167  2.1740  0.7020
 4565SOL     OW25330   4.373   1.189   1.174  0.0367  0.1403 -0.2050
 4565SOL    HW125331   4.289   1.159   1.139 -0.1928  0.2956  0.2139
 4565SOL    HW225332   4.407   1.100   1.184 -1.1198 -0.1726  0.9804
 4566SOL     OW25333   2.801   0.181   2.098 -0.2713  0.5417  0.0628
 4566SOL    HW125334   2.805   0.100   2.049  1.8751 -0.2841  1.5980
 4566SOL    HW225335   2.742   0.145   2.164 -2.1482 -0.6395 -2.2922
 4567SOL     OW25336   3.463   1.252   2.476  0.2668 -0.6678 -0.3571
 4567SOL    HW125337   3.410   1.326   2.447 -0.9086 -0.6138  1.9857
 4567SOL    HW225338   3.488   1.223   2.388  1.9279 -0.9057  0.1797
 4568SOL     OW25339   0.135   2.132  15.777  0.6586 -0.5515 -0.5063
 4568SOL    HW125340   0.211   2.124  15.719 -0.2980  0.1887 -1.8791
 4568SOL    HW225341   0.092   2.205  15.732 -0.4343 -2.1872 -2.1205
 4569SOL     OW25342   1.642   2.281  12.141 -0.3068 -0.2934 -0.3488
 4569SOL    HW125343   1.693   2.338  12.084 -2.0780  1.2810 -0.3626
 4569SOL    HW225344   1.590   2.338  12.197 -1.7939  0.1212 -2.1580
 4570SOL     OW25345   1.725   0.248   7.978 -0.6600  0.3205  0.0039
 4570SOL    HW125346   1.649   0.191   7.994  0.3373 -0.9209  0.3171
 4570SOL    HW225347   1.732   0.239   7.883 -3.3941 -2.4600  0.0427
 4571SOL     OW25348   2.798   3.448   4.946 -0.0043 -0.0243  0.3300
 4571SOL    HW125349   2.720   3.402   4.978  0.4554 -2.4569 -1.9937
 4571SOL    HW225350   2.868   3.395   4.985 -0.0090  1.8187  2.8404
 4572SOL     OW25351   1.834   1.486   5.043 -0.1067  0.1897  0.7984
 4572SOL    HW125352   1.761   1.520   4.992 -0.9802  0.2803  2.1128
 4572SOL    HW225353   1.780   1.460   5.118 -0.9649 -1.1551 -0.3085
 4573SOL     OW25354   2.867   0.697  15.260 -0.3430  0.1734  0.1585
 4573SOL    HW125355   2.780   0.688  15.223 -0.4903 -1.2424  0.8525
 4573SOL    HW225356   2.884   0.790  15.246  0.3936 -0.0606 -0.5430
 4574SOL     OW25357   3.067   0.803   7.656  0.4752  0.1979 -0.5651
 4574SOL    HW125358   2.974   0.827   7.653  0.8163  1.5200 -0.8597
 4574SOL    HW225359   3.059   0.710   7.675 -1.7949 -0.0261 -2.5674
 4575SOL     OW25360   3.754   2.121   8.570 -0.0025  0.0315  0.4331
 4575SOL    HW125361   3.818   2.057   8.539  1.2373  0.9844  1.0122
 4575SOL    HW225362   3.748   2.183   8.497  0.5753  0.8183  1.0550
 4576SOL     OW25363   4.520   2.221  10.256 -0.4054  0.0047 -0.4018
 4576SOL    HW125364   4.465   2.174  10.193 -0.1617  0.0168 -0.6209
 4576SOL    HW225365   4.448   2.268  10.299 -0.2826 -1.4497  1.4083
 4577SOL     OW25366   2.923   4.445   5.335 -0.2919  0.5051 -0.4038
 4577SOL    HW125367   2.885   4.533   5.335 -1.6527 -0.0835 -1.4016
 4577SOL    HW225368   2.872   4.399   5.269  1.8247 -1.9841 -0.2917
 4578SOL     OW25369   2.376   0.712   8.434 -0.2597  0.0354  0.3966
 4578SOL    HW125370   2.459   0.737   8.475  0.1389 -0.0325 -0.3538
 4578SOL    HW225371   2.393   0.739   8.344  0.4116 -2.2143 -0.1605
 4579SOL     OW25372   0.008   4.264   6.106  0.2011 -0.0334 -0.0820
 4579SOL    HW125373   4.729   4.292   6.196  1.5395  0.9237 -0.1480
 4579SOL    HW225374   0.034   4.347   6.066  3.0966 -1.7952 -1.8030
 4580SOL     OW25375   0.689   4.054   0.608  0.2761 -0.0441  1.0626
 4580SOL    HW125376   0.714   4.146   0.602 -2.2755  0.5439 -0.3771
 4580SOL    HW225377   0.707   4.032   0.516  0.6676  2.6331  0.5166
 4581SOL     OW25378   1.113   0.702   1.293 -0.1499 -0.8037  0.3074
 4581SOL    HW125379   1.044   0.700   1.359 -0.4533 -0.4463  0.0006
 4581SOL    HW225380   1.064   0.712   1.212 -0.8341  1.0047  0.9428
 4582SOL     OW25381   1.985   0.512  17.095  0.2372 -0.2653 -0.0615
 4582SOL    HW125382   2.027   0.516  17.009  0.0701 -0.9632 -0.1713
 4582SOL    HW225383   2.064   0.520  17.149  0.1866  1.2232 -0.1886
 4583SOL     OW25384   2.314   2.499   6.370  0.3882  0.8703 -0.5309
 4583SOL    HW125385   2.220   2.502   6.352  0.3816 -0.5125 -0.7250
 4583SOL    HW225386   2.305   2.437   6.443 -0.7771 -1.2964 -2.4872
 4584SOL     OW25387   3.670   0.610  15.132  0.5233 -0.6690  0.2684
 4584SOL    HW125388   3.691   0.617  15.038 -0.6072 -0.9583 -0.0076
 4584SOL    HW225389   3.637   0.697  15.153  2.2988  0.0886 -0.0455
 4585SOL     OW25390   4.233   4.177   3.345 -0.7667  0.2591 -0.4145
 4585SOL    HW125391   4.167   4.180   3.415  0.8941  1.0598  1.1252
 4585SOL    HW225392   4.307   4.141   3.395  0.7485 -1.6821 -4.1211
 4586SOL     OW25393   1.863   3.450   3.172  0.0979 -0.4188  0.1224
 4586SOL    HW125394   1.944   3.498   3.189 -0.6890  1.0651 -0.3275
 4586SOL    HW225395   1.878   3.371   3.223 -1.6002 -0.5240  0.4758
 4587SOL     OW25396   4.244   0.744   0.943  0.7793  0.2985 -0.2361
 4587SOL    HW125397   4.283   0.749   0.855  0.7678  2.4331 -0.1095
 4587SOL    HW225398   4.306   0.802   0.987  1.5263 -1.8512  1.5289
 4588SOL     OW25399   0.437   1.869   1.628 -0.2960 -0.3791  0.2579
 4588SOL    HW125400   0.464   1.915   1.707  1.1330 -0.4390 -0.1811
 4588SOL    HW225401   0.394   1.791   1.663  1.4835 -0.7361  1.6745
 4589SOL     OW25402   1.452   0.430  11.450 -0.2683  0.1306  0.3075
 4589SOL    HW125403   1.447   0.495  11.379  0.2656 -1.3675 -1.0891
 4589SOL    HW225404   1.540   0.399  11.432 -0.0821  0.6058  0.3831
 4590SOL     OW25405   3.484   0.130   8.095  0.3884 -0.6553 -0.7077
 4590SOL    HW125406   3.498   0.205   8.152 -0.0203 -0.9988 -0.1597
 4590SOL    HW225407   3.568   0.085   8.086  1.0002 -0.0799  2.2989
 4591SOL     OW25408   0.647   4.135   8.140  0.0157  0.5041 -0.3004
 4591SOL    HW125409   0.681   4.141   8.229  0.9099  0.7040 -0.6604
 4591SOL    HW225410   0.580   4.204   8.141 -1.8982 -1.3774  0.2991
 4592SOL     OW25411   3.439   1.539   2.423  0.0312 -0.7289  0.1503
 4592SOL    HW125412   3.396   1.597   2.486 -2.3636 -2.2750 -0.0619
 4592SOL    HW225413   3.365   1.496   2.380  0.2671  0.8495 -1.8748
 4593SOL     OW25414   1.118   2.083   3.993  0.1520 -0.7239  0.4695
 4593SOL    HW125415   1.200   2.049   4.029  1.0192  1.1259  0.2335
 4593SOL    HW225416   1.067   2.007   3.964  0.0670 -0.1520 -0.8754
 4594SOL     OW25417   1.910   2.733   5.795  0.4415 -0.3298  0.0201
 4594SOL    HW125418   1.887   2.779   5.876  0.5810  0.9824 -0.6995
 4594SOL    HW225419   1.879   2.645   5.816 -1.3627  0.2704 -0.1590
 4595SOL     OW25420   2.541   3.052   5.921  0.3630 -0.1837  0.6111
 4595SOL    HW125421   2.518   3.138   5.954 -2.0509  0.0977 -1.7839
 4595SOL    HW225422   2.474   3.040   5.853  0.1232 -0.0151  0.8220
 4596SOL     OW25423   4.530   3.580  13.714  0.1556  0.2120  0.2250
 4596SOL    HW125424   4.577   3.661  13.734 -1.7675  1.7893 -1.7992
 4596SOL    HW225425   4.562   3.552  13.628  1.5471 -3.0302  1.7801
 4597SOL     OW25426   1.181   1.157  15.939 -0.4423  0.0010  0.2390
 4597SOL    HW125427   1.138   1.241  15.956 -0.1593  0.1293  0.3291
 4597SOL    HW225428   1.202   1.130  16.028 -0.0354  0.9239  0.4345
 4598SOL     OW25429   0.513   2.968   7.933 -0.5137 -0.1322  0.0184
 4598SOL    HW125430   0.576   2.914   7.885  1.1236  0.7106  1.2614
 4598SOL    HW225431   0.492   3.038   7.871  0.0475  2.1626  2.4564
 4599SOL     OW25432   4.362   1.045  15.549  0.6357 -0.4962 -0.2538
 4599SOL    HW125433   4.442   1.081  15.510  0.4798  0.2884  0.1654
 4599SOL    HW225434   4.335   0.994  15.472 -0.3275 -1.1390  0.5045
 4600SOL     OW25435   0.162   3.112   8.699  0.2045  0.5092  0.0423
 4600SOL    HW125436   0.109   3.123   8.620 -1.1374 -0.8401  0.7509
 4600SOL    HW225437   0.172   3.017   8.705 -1.1695  0.3753  0.3047
 4601SOL     OW25438   4.560   1.261   4.387  0.0548 -0.0572 -0.3240
 4601SOL    HW125439   4.573   1.267   4.292  0.3113 -3.3545 -0.4965
 4601SOL    HW225440   4.492   1.194   4.384 -2.7285  2.7719 -0.3848
 4602SOL     OW25441   1.560   3.956  16.114  0.0194  0.8095 -0.2796
 4602SOL    HW125442   1.522   3.978  16.029 -1.3277 -2.6552 -0.5795
 4602SOL    HW225443   1.513   4.010  16.177  1.0058  2.0210 -0.5920
 4603SOL     OW25444   2.064   4.535  14.839 -0.3560  0.2012  1.2009
 4603SOL    HW125445   2.144   4.490  14.867  0.2874 -0.1436 -1.2055
 4603SOL    HW225446   2.093   4.567  14.754  2.5822 -0.6403  1.8519
 4604SOL     OW25447   4.211   4.330  16.878 -0.2974 -0.0767  0.1412
 4604SOL    HW125448   4.191   4.301  16.789  1.6789  0.8773 -0.6077
 4604SOL    HW225449   4.293   4.366  16.843 -0.7959  1.2383  0.3125
 4605SOL     OW25450   2.632   0.390  13.040  0.1974 -0.0741  0.3952
 4605SOL    HW125451   2.617   0.384  13.135 -2.3186  0.8829  0.0554
 4605SOL    HW225452   2.557   0.440  13.007  2.4514  2.4618 -0.8868
 4606SOL     OW25453   2.687   2.957  14.488 -0.4118  0.1164  0.6673
 4606SOL    HW125454   2.691   3.001  14.403  0.0143 -1.7653 -0.2809
 4606SOL    HW225455   2.604   2.986  14.526  1.3946  0.3633  4.4378
 4607SOL     OW25456   3.199   0.445   1.587  0.1064 -0.3035  0.1149
 4607SOL    HW125457   3.106   0.468   1.581  0.1171 -0.2254  0.2311
 4607SOL    HW225458   3.196   0.351   1.570  2.9003  0.0910 -2.5791
 4608SOL     OW25459   3.054   1.121  11.914  0.1814 -0.1045  0.9089
 4608SOL    HW125460   2.980   1.142  11.971 -0.2868  0.1301  0.2151
 4608SOL    HW225461   3.017   1.133  11.827  1.4309 -0.7257  0.2975
 4609SOL     OW25462   3.273   4.680   3.026 -0.6203  0.0818  0.1131
 4609SOL    HW125463   3.313   4.722   2.950 -1.1499  0.3011 -0.0460
 4609SOL    HW225464   3.333   4.711   3.094  0.0223  0.6526 -0.7309
 4610SOL     OW25465   1.268   2.796   9.732 -0.2757  1.2727 -0.1736
 4610SOL    HW125466   1.362   2.782   9.742 -0.6638 -2.1576 -1.3913
 4610SOL    HW225467   1.237   2.707   9.714 -0.8961  1.4841 -0.1756
 4611SOL     OW25468   2.267   3.390   8.300  0.0061  0.0317 -0.3034
 4611SOL    HW125469   2.197   3.329   8.276  1.1256 -0.7052 -1.6769
 4611SOL    HW225470   2.310   3.332   8.362 -1.0669  0.5259  0.9218
 4612SOL     OW25471   0.743   2.426  17.224  0.1433  0.0666 -0.1709
 4612SOL    HW125472   0.778   2.359  17.283 -2.2793 -0.9662  0.1005
 4612SOL    HW225473   0.664   2.387  17.187 -1.8396  3.2606  0.7016
 4613SOL     OW25474   3.548   1.634   3.935  0.0479 -0.2197  0.0261
 4613SOL    HW125475   3.485   1.563   3.942 -1.3107  1.0074  0.1946
 4613SOL    HW225476   3.499   1.715   3.944  0.8642 -0.1449  3.9871
 4614SOL     OW25477   2.627   0.647  17.270 -0.1878 -0.2654 -0.0562
 4614SOL    HW125478   2.633   0.554  17.252  2.3854 -0.0417 -0.4181
 4614SOL    HW225479   2.611   0.652  17.364 -1.6735  0.3050 -0.3455
 4615SOL     OW25480   3.774   0.369  12.650 -0.0891  0.1403 -0.4007
 4615SOL    HW125481   3.782   0.362  12.554  0.5192 -0.4842 -0.3075
 4615SOL    HW225482   3.698   0.312  12.661 -0.4237 -0.1222 -3.8356
 4616SOL     OW25483   4.210   1.163   5.033  0.1440  0.6852 -0.3251
 4616SOL    HW125484   4.168   1.202   4.957  1.9581  1.8230 -0.7397
 4616SOL    HW225485   4.296   1.205   5.030  1.0033 -0.9436  1.5366
 4617SOL     OW25486   3.023   2.826   2.915  0.1695 -0.8145  0.1794
 4617SOL    HW125487   3.112   2.823   2.950  0.1491 -0.4919  0.2527
 4617SOL    HW225488   2.978   2.760   2.968 -1.2788 -0.0780 -0.1119
 4618SOL     OW25489   4.076   1.407   8.757 -0.5907  0.6713  0.4912
 4618SOL    HW125490   4.168   1.394   8.734 -0.5382 -2.3129  2.4021
 4618SOL    HW225491   4.035   1.346   8.697  2.7682  0.3127 -1.4154
 4619SOL     OW25492   0.245   2.722   0.764  0.4164 -0.4109  0.0596
 4619SOL    HW125493   0.153   2.741   0.782  1.1616  1.9070  1.2805
 4619SOL    HW225494   0.235   2.715   0.669  0.9363 -0.2581 -0.0036
 4620SOL     OW25495   0.549   2.105   4.152  0.2464 -0.4407  0.2701
 4620SOL    HW125496   0.530   2.033   4.212  2.0121 -1.4194 -0.3656
 4620SOL    HW225497   0.517   2.176   4.208  1.7208  0.2286  0.2588
 4621SOL     OW25498   0.897   2.098   4.944 -0.5057  0.2443 -0.0345
 4621SOL    HW125499   0.856   2.139   4.868  0.7528  1.4550 -0.0554
 4621SOL    HW225500   0.853   2.153   5.008 -1.0635  0.8522 -0.9305
 4622SOL     OW25501   3.488   3.990  10.604 -0.1109 -0.0794 -0.1216
 4622SOL    HW125502   3.505   3.922  10.538  1.3047  0.4750 -0.3264
 4622SOL    HW225503   3.530   4.070  10.572  0.1822 -0.4463 -0.6551
 4623SOL     OW25504   4.724   1.889   8.309 -0.3838 -0.4030  0.0575
 4623SOL    HW125505   4.648   1.942   8.286  0.4409 -0.6755 -3.3339
 4623SOL    HW225506   4.717   1.816   8.248 -2.2369  0.5221 -0.8292
 4624SOL     OW25507   4.645   0.433   7.797  0.2302 -0.0166  0.1138
 4624SOL    HW125508   4.683   0.346   7.787 -0.7621 -0.4683  0.2080
 4624SOL    HW225509   4.632   0.451   7.704  1.2031  0.1920  0.0213
 4625SOL     OW25510   4.135   0.372   1.837 -0.3077  0.1091  0.0709
 4625SOL    HW125511   4.230   0.369   1.851 -0.6132 -0.0854  2.1800
 4625SOL    HW225512   4.132   0.398   1.745  0.7724  0.9651  0.2831
 4626SOL     OW25513   0.582   4.468  17.363  0.1770  0.0309  0.1578
 4626SOL    HW125514   0.565   4.426  17.447 -0.6613  2.0644  1.0064
 4626SOL    HW225515   0.633   4.547  17.382 -0.2461  0.0623  1.1678
 4627SOL     OW25516   4.026   2.629   1.786 -0.0099 -0.6196 -0.5234
 4627SOL    HW125517   4.119   2.627   1.763  0.3630 -0.0885  0.9434
 4627SOL    HW225518   4.007   2.704   1.729  1.9450 -0.2363 -0.6852
 4628SOL     OW25519   4.109   0.002  11.120 -0.2173 -0.0312  0.6921
 4628SOL    HW125520   4.108   4.715  11.027  1.2432  1.5525  0.2661
 4628SOL    HW225521   4.016   4.733  11.143  0.4085 -2.7295  2.6096
 4629SOL     OW25522   0.220   4.611  11.182 -0.4520 -0.3133 -0.7635
 4629SOL    HW125523   0.233   4.549  11.110 -1.0688 -0.2291 -0.9547
 4629SOL    HW225524   0.124   4.614  11.188 -0.5900  1.1183 -3.2642
 4630SOL     OW25525   2.367   0.322   8.500  0.1303  0.1127  0.2712
 4630SOL    HW125526   2.340   0.233   8.521 -1.1614  0.6592  0.9522
 4630SOL    HW225527   2.339   0.362   8.582  0.0510  1.2684 -0.3214
 4631SOL     OW25528   4.560   3.920   4.772  0.6013 -0.0746  0.9083
 4631SOL    HW125529   4.641   3.939   4.818  1.8916 -2.0387 -0.5351
 4631SOL    HW225530   4.574   3.959   4.686  1.5465 -1.5054  0.4259
 4632SOL     OW25531   3.880   4.674   7.682 -0.2176 -0.0920 -0.0528
 4632SOL    HW125532   3.829   4.595   7.700  0.0679 -0.6666 -1.8277
 4632SOL    HW225533   3.962   4.643   7.644  1.1619  0.6516  2.2930
 4633SOL     OW25534   1.780   1.974   7.061  0.0929  0.3268  0.7035
 4633SOL    HW125535   1.760   1.883   7.042  1.2449 -0.5005  3.3580
 4633SOL    HW225536   1.749   2.022   6.984  1.1324  1.0668  0.7470
 4634SOL     OW25537   4.205   2.746   5.341  0.1905  0.1305  0.0554
 4634SOL    HW125538   4.203   2.671   5.400  1.4629  0.5157  0.6053
 4634SOL    HW225539   4.251   2.704   5.268  2.2422  1.2287  0.6935
 4635SOL     OW25540   4.430   0.238  17.224 -0.0258  0.6625  0.7991
 4635SOL    HW125541   4.437   0.161  17.280 -2.4048  1.1019  1.6864
 4635SOL    HW225542   4.418   0.188  17.144  0.1428 -0.3208  1.3941
 4636SOL     OW25543   2.492   2.776   5.147  1.0636 -0.1610 -0.3115
 4636SOL    HW125544   2.466   2.814   5.063  0.3584 -1.2069 -0.5620
 4636SOL    HW225545   2.402   2.758   5.174  0.8073 -0.2064 -1.1954
 4637SOL     OW25546   4.322   2.552  15.254 -0.5578 -0.0828  0.4251
 4637SOL    HW125547   4.416   2.555  15.236 -0.4267 -1.5450  0.9270
 4637SOL    HW225548   4.300   2.460  15.267 -2.4076  0.7241  2.9429
 4638SOL     OW25549   1.303   2.684   9.407  0.2042  0.7305 -0.0322
 4638SOL    HW125550   1.210   2.677   9.431  0.8025  0.8719  2.3321
 4638SOL    HW225551   1.290   2.773   9.374 -1.7932  0.6954  0.6096
 4639SOL     OW25552   3.640   1.875   6.627  0.7619 -0.1119  0.1686
 4639SOL    HW125553   3.577   1.936   6.588  0.9764 -0.3547 -0.5526
 4639SOL    HW225554   3.688   1.836   6.554  0.1768  0.1820 -0.3710
 4640SOL     OW25555   4.616   1.623   8.431 -0.0168  0.4581 -0.0584
 4640SOL    HW125556   4.591   1.567   8.357  0.3774  0.1545  0.0378
 4640SOL    HW225557   4.666   1.698   8.398 -0.3957 -0.2282 -2.2254
 4641SOL     OW25558   2.894   3.452   3.125 -0.3381  0.1018 -0.4635
 4641SOL    HW125559   2.894   3.438   3.030 -0.4419 -0.2677 -0.4072
 4641SOL    HW225560   2.923   3.543   3.123 -1.6819  0.5262 -0.3429
 4642SOL     OW25561   3.206   3.673  11.270  0.1879  0.3657 -0.0445
 4642SOL    HW125562   3.169   3.623  11.342 -0.2169 -2.2820 -2.1174
 4642SOL    HW225563   3.221   3.606  11.203 -2.4349 -0.5195  0.2893
 4643SOL     OW25564   3.572   0.391   7.671  0.5371 -0.3504 -0.3357
 4643SOL    HW125565   3.487   0.347   7.665  0.3264 -0.1337  1.0474
 4643SOL    HW225566   3.636   0.321   7.681  0.6969 -0.1607 -0.0392
 4644SOL     OW25567   1.239   4.135   8.856  0.0181  0.2602  0.0977
 4644SOL    HW125568   1.271   4.221   8.883 -0.7411  1.1741 -1.8894
 4644SOL    HW225569   1.258   4.082   8.933  0.2240 -0.4646 -0.4481
 4645SOL     OW25570   2.719   3.654   0.153 -0.1929 -0.4028 -0.1391
 4645SOL    HW125571   2.636   3.684   0.191 -1.0542  0.9882 -3.1774
 4645SOL    HW225572   2.745   3.598   0.226  0.3659 -0.8849 -0.7043
 4646SOL     OW25573   3.344   1.060   5.443  0.2759 -0.0562  0.1979
 4646SOL    HW125574   3.357   1.003   5.367 -2.9682 -1.4773  0.7232
 4646SOL    HW225575   3.291   1.135   5.415 -1.5520 -2.2104 -2.1075
 4647SOL     OW25576   4.127   3.339   8.464  0.5327  0.7701 -0.0505
 4647SOL    HW125577   4.107   3.260   8.414  1.5635  1.1716 -1.0779
 4647SOL    HW225578   4.183   3.382   8.400 -0.6971  0.3857 -1.3892
 4648SOL     OW25579   4.438   2.747   9.609  0.2596  0.3016  0.3179
 4648SOL    HW125580   4.372   2.816   9.603 -0.8772 -0.5750  3.0339
 4648SOL    HW225581   4.453   2.728   9.516  0.3161 -0.4157  0.4789
 4649SOL     OW25582   4.063   1.265   7.503 -0.4046  0.0569  0.0471
 4649SOL    HW125583   4.119   1.279   7.426 -1.6672  3.1921 -0.2810
 4649SOL    HW225584   4.135   1.278   7.563  0.8545 -0.9918 -1.2389
 4650SOL     OW25585   1.416   1.251   9.083 -0.1992  0.7011  0.3367
 4650SOL    HW125586   1.341   1.194   9.098  0.1062  0.6367  1.6107
 4650SOL    HW225587   1.447   1.226   8.996  1.5434 -1.4445  1.5721
 4651SOL     OW25588   0.378   2.398  14.970  0.0855  0.4733 -0.4748
 4651SOL    HW125589   0.467   2.431  14.954 -0.8098  2.2338 -1.7385
 4651SOL    HW225590   0.378   2.385  15.065 -2.0986 -0.1125 -0.5751
 4652SOL     OW25591   3.398   3.340   3.665 -0.1587 -0.7097 -0.0049
 4652SOL    HW125592   3.459   3.390   3.719  0.8185  0.0362 -1.7902
 4652SOL    HW225593   3.310   3.358   3.699  0.9949  1.7749  1.6953
 4653SOL     OW25594   4.182   0.233  14.334  0.0448  0.4470  0.3191
 4653SOL    HW125595   4.205   0.273  14.250  2.5980 -1.4432  0.1132
 4653SOL    HW225596   4.171   0.318  14.375  0.0930 -0.2514  1.7574
 4654SOL     OW25597   2.031   4.248   2.206 -0.0451  0.5048  0.0548
 4654SOL    HW125598   2.124   4.255   2.224  0.0304  0.2519 -0.2269
 4654SOL    HW225599   1.994   4.314   2.265  1.8150  0.0019  1.7847
 4655SOL     OW25600   1.533   2.715   1.092 -0.5151  0.1724  0.6373
 4655SOL    HW125601   1.460   2.683   1.039  0.4721  0.3330 -0.8290
 4655SOL    HW225602   1.606   2.673   1.046 -0.4473  3.7318 -2.4461
 4656SOL     OW25603   2.287   3.231   8.515 -0.6561  0.3688 -0.3438
 4656SOL    HW125604   2.245   3.158   8.559  2.8627 -1.5598 -0.1500
 4656SOL    HW225605   2.377   3.214   8.544 -0.6526  1.7555  0.4643
 4657SOL     OW25606   0.622   0.042   4.970 -0.1352  0.2715  0.3656
 4657SOL    HW125607   0.632   0.076   4.882  0.5985  2.7794  1.4217
 4657SOL    HW225608   0.546   4.722   4.973  0.3945 -0.3373  2.3622
 4658SOL     OW25609   4.005   3.904   8.718  0.0648 -0.4378  0.9794
 4658SOL    HW125610   3.922   3.922   8.674 -0.2388 -1.9369  0.9321
 4658SOL    HW225611   4.033   3.821   8.678 -1.2328 -0.2959 -0.2237
 4659SOL     OW25612   0.579   0.027   4.531 -0.2788  0.1320 -0.1424
 4659SOL    HW125613   0.512   0.044   4.465  1.9703  0.0407 -2.4491
 4659SOL    HW225614   0.598   4.671   4.515 -0.5729  0.5052 -2.6944
 4660SOL     OW25615   2.768   3.244   5.224 -0.4468  0.3451 -0.8916
 4660SOL    HW125616   2.743   3.151   5.221  0.9134 -0.1387  2.2037
 4660SOL    HW225617   2.694   3.284   5.271  1.1593  2.0396  0.1672
 4661SOL     OW25618   0.221   1.507   3.733  0.0242 -0.5242 -0.7568
 4661SOL    HW125619   0.264   1.513   3.647  2.2789  0.9261  0.4762
 4661SOL    HW225620   0.131   1.492   3.704  0.0879 -0.5807 -0.9245
 4662SOL     OW25621   0.984   0.901   1.819 -0.2424 -0.3494 -0.4340
 4662SOL    HW125622   0.974   0.833   1.885 -0.1726 -0.5638 -0.6441
 4662SOL    HW225623   1.066   0.869   1.781  1.0873 -0.4532  2.5901
 4663SOL     OW25624   1.084   0.183  10.786 -0.3157  0.5441 -0.0992
 4663SOL    HW125625   1.088   0.257  10.847  2.4250 -1.0525  1.6775
 4663SOL    HW225626   1.153   0.207  10.724  1.9097 -1.4139  1.6194
 4664SOL     OW25627   4.036   2.970   9.755  0.5671  0.2155  0.7342
 4664SOL    HW125628   4.117   2.997   9.799  0.9244 -0.8848  0.7492
 4664SOL    HW225629   4.014   3.047   9.703  2.6654  0.4042  0.1004
 4665SOL     OW25630   2.696   4.436   3.496 -0.0747 -0.2643  0.2040
 4665SOL    HW125631   2.703   4.399   3.408 -2.4042 -1.4900  0.5326
 4665SOL    HW225632   2.695   4.362   3.556 -1.5099  0.1384  0.7038
 4666SOL     OW25633   3.630   4.472   7.025 -0.1852 -0.4743  0.0418
 4666SOL    HW125634   3.637   4.446   6.933 -1.6001  1.3214 -0.5737
 4666SOL    HW225635   3.619   4.567   7.022 -0.7629 -0.5076  1.0096
 4667SOL     OW25636   1.001   1.037   0.526  0.2824  0.1671 -0.2971
 4667SOL    HW125637   0.996   0.951   0.568  0.4174 -0.5521 -1.7525
 4667SOL    HW225638   1.095   1.051   0.510 -0.1538  1.3787 -1.7998
 4668SOL     OW25639   2.553   0.572   5.679  0.9521 -0.6653  0.4545
 4668SOL    HW125640   2.600   0.502   5.724 -0.9702 -1.8814  0.5350
 4668SOL    HW225641   2.528   0.638   5.744 -1.6280 -0.8368 -0.3950
 4669SOL     OW25642   2.851   4.219   8.005  0.0992  0.2612 -0.0554
 4669SOL    HW125643   2.841   4.261   7.920  0.4864  0.1768 -0.1434
 4669SOL    HW225644   2.892   4.291   8.053  0.1521  0.7458 -0.8371
 4670SOL     OW25645   2.032   3.254   7.434 -0.0646  0.3692 -0.3408
 4670SOL    HW125646   1.962   3.316   7.412  1.5050  2.6243  0.9824
 4670SOL    HW225647   2.024   3.186   7.367 -0.2398 -0.4658  0.5406
 4671SOL     OW25648   1.170   1.030  14.070 -0.5520  0.0294 -0.1283
 4671SOL    HW125649   1.168   1.090  13.995 -1.9850  0.3385  0.1471
 4671SOL    HW225650   1.141   0.948  14.030  0.6020 -1.0180  1.2033
 4672SOL     OW25651   0.080   1.308   7.351 -0.5703  0.2780 -0.1633
 4672SOL    HW125652   0.109   1.220   7.327 -0.2786  1.4062 -4.1047
 4672SOL    HW225653   0.113   1.356   7.274  1.1020  0.1362  0.4598
 4673SOL     OW25654   1.167   1.510  16.744 -0.2199  0.2717  0.2412
 4673SOL    HW125655   1.151   1.604  16.741 -1.2153  0.1006  0.1822
 4673SOL    HW225656   1.115   1.480  16.818  2.8671 -1.3249  1.7728
 4674SOL     OW25657   2.200   4.650   6.723  0.1904 -0.1599  0.1828
 4674SOL    HW125658   2.113   4.675   6.753 -0.6024  0.2711 -2.4297
 4674SOL    HW225659   2.210   4.565   6.766 -0.1236 -0.7250 -0.8668
 4675SOL     OW25660   2.576   0.402   8.740  0.0846 -0.5245  0.0057
 4675SOL    HW125661   2.578   0.348   8.662  0.4082 -0.3515 -0.1077
 4675SOL    HW225662   2.601   0.485   8.700  0.4374 -0.9637 -0.6721
 4676SOL     OW25663   0.041   0.355  17.323  0.2993  0.2290  0.9103
 4676SOL    HW125664   4.720   0.419  17.283 -0.7523  0.0707  2.1731
 4676SOL    HW225665   4.709   0.307  17.369  1.1320 -2.4996 -0.7032
 4677SOL     OW25666   3.688   1.921   8.239  0.1514 -0.5877  0.0333
 4677SOL    HW125667   3.717   1.918   8.148  0.5266 -2.5142  0.2078
 4677SOL    HW225668   3.731   2.003   8.263 -1.8205  0.6568 -0.6893
 4678SOL     OW25669   2.499   2.758   2.262  0.0094 -0.3411  0.2802
 4678SOL    HW125670   2.542   2.712   2.334 -0.3466 -1.9946 -0.5542
 4678SOL    HW225671   2.549   2.718   2.191 -0.5586 -0.4245 -0.0707
 4679SOL     OW25672   2.413   2.425   2.537 -0.3901 -0.2176 -0.3689
 4679SOL    HW125673   2.417   2.391   2.448  0.1623  1.3278 -0.9287
 4679SOL    HW225674   2.319   2.436   2.553 -0.4415  2.0310 -2.2684
 4680SOL     OW25675   4.212   0.534   8.055 -0.2488 -0.1490 -0.0769
 4680SOL    HW125676   4.153   0.491   8.118 -0.7329 -0.2867 -0.6288
 4680SOL    HW225677   4.285   0.473   8.049 -0.3590 -0.2839 -0.0431
 4681SOL     OW25678   1.779   4.403   6.878 -0.4355 -0.4707 -0.0086
 4681SOL    HW125679   1.800   4.327   6.931 -0.7436 -0.1593  0.5543
 4681SOL    HW225680   1.864   4.413   6.836 -0.6937  1.1256 -0.1368
 4682SOL     OW25681   3.317   2.409   2.514 -0.7487 -0.5507 -0.5841
 4682SOL    HW125682   3.271   2.366   2.442 -2.5372 -2.1579  1.5119
 4682SOL    HW225683   3.268   2.491   2.512  1.7372  0.9891  1.3200
 4683SOL     OW25684   4.286   2.622   9.792  0.1603  0.4895 -0.2043
 4683SOL    HW125685   4.207   2.656   9.750 -0.0039 -0.2294 -0.4850
 4683SOL    HW225686   4.337   2.655   9.719 -0.1241  2.8675  0.6837
 4684SOL     OW25687   0.216   4.068  10.621  0.1664  0.0396 -0.5461
 4684SOL    HW125688   0.229   4.163  10.618  0.7965 -0.0683 -1.1694
 4684SOL    HW225689   0.260   4.029  10.696  1.4511  1.8045 -0.3808
 4685SOL     OW25690   3.026   1.181   8.006  0.1636  0.1450 -0.1209
 4685SOL    HW125691   2.962   1.180   8.076  1.0260 -0.4501  0.6484
 4685SOL    HW225692   3.090   1.238   8.050 -0.3711 -0.4543  1.4140
 4686SOL     OW25693   0.440   3.488   0.230  0.5248 -0.4932 -0.0555
 4686SOL    HW125694   0.446   3.504   0.324  1.4230 -0.1178 -0.1741
 4686SOL    HW225695   0.533   3.483   0.205  0.3627  0.5239 -0.8914
 4687SOL     OW25696   2.980   0.253   7.294  0.2445 -0.1007  0.1859
 4687SOL    HW125697   2.913   0.221   7.234  0.7131 -0.7678  0.0184
 4687SOL    HW225698   2.944   0.340   7.307  2.2738  0.8735 -0.7717
 4688SOL     OW25699   1.426   0.585  11.223  0.1150 -0.1388  0.0050
 4688SOL    HW125700   1.375   0.622  11.151  0.9574  2.2193  0.6231
 4688SOL    HW225701   1.515   0.576  11.188  0.3827  0.2708  0.5795
 4689SOL     OW25702   1.571   2.385   6.034 -0.0845 -0.1017 -0.0564
 4689SOL    HW125703   1.523   2.318   5.985 -1.0345  0.6053 -0.0772
 4689SOL    HW225704   1.506   2.450   6.059  1.1393 -0.1027  3.1535
 4690SOL     OW25705   4.731   4.670   8.754  0.1322 -0.2529 -0.0599
 4690SOL    HW125706   0.062   4.640   8.814 -1.3516 -1.4390  1.0242
 4690SOL    HW225707   4.699   0.023   8.764 -0.9742 -0.5491 -0.9222
 4691SOL     OW25708   0.490   3.173   8.723  0.0846 -0.4033 -0.3181
 4691SOL    HW125709   0.461   3.086   8.750 -0.2690 -0.1274  0.2015
 4691SOL    HW225710   0.421   3.190   8.659 -1.0258  2.2726  1.5577
 4692SOL     OW25711   2.817   0.536  11.983  0.3918  0.1466  0.1056
 4692SOL    HW125712   2.883   0.473  11.954  1.7395  0.9954  1.3469
 4692SOL    HW225713   2.780   0.574  11.904  1.3383 -0.3035 -0.5593
 4693SOL     OW25714   1.943   3.217   8.886 -0.3539 -0.0726  0.2169
 4693SOL    HW125715   1.992   3.138   8.907 -1.1223 -0.1543  1.6851
 4693SOL    HW225716   1.856   3.177   8.880 -0.7931  1.0639 -1.1741
 4694SOL     OW25717   1.561   2.735   7.836 -0.5668  0.0911  0.0691
 4694SOL    HW125718   1.580   2.668   7.902 -1.1726 -1.7419 -1.6195
 4694SOL    HW225719   1.615   2.810   7.858 -0.1712 -0.5104  1.1437
 4695SOL     OW25720   0.395   0.899   0.043  0.6493 -0.2712  0.0749
 4695SOL    HW125721   0.429   0.980   0.006  0.8419  0.3152  1.5156
 4695SOL    HW225722   0.357   0.856  17.714 -0.9212 -0.2413  0.8345
 4696SOL     OW25723   2.529   3.862   5.240 -0.3709 -0.1698  0.4173
 4696SOL    HW125724   2.533   3.840   5.147 -1.1793 -2.5482  0.9489
 4696SOL    HW225725   2.564   3.952   5.236  2.8180 -1.3129  1.9237
 4697SOL     OW25726   4.175   1.680   1.816  0.3086 -0.2391 -0.0581
 4697SOL    HW125727   4.240   1.700   1.748  0.9503  2.6413  1.4006
 4697SOL    HW225728   4.108   1.744   1.792  0.8374  0.0543 -0.7775
 4698SOL     OW25729   2.666   0.079  17.395 -0.3243  0.0562 -0.3406
 4698SOL    HW125730   2.667   0.109  17.305  0.1281 -0.5342 -0.5353
 4698SOL    HW225731   2.632   4.726  17.398 -0.1855 -0.0499 -2.1321
 4699SOL     OW25732   0.431   2.441  16.188 -0.0831 -0.2012  0.0442
 4699SOL    HW125733   0.394   2.421  16.103 -0.8121 -0.4391  0.4208
 4699SOL    HW225734   0.454   2.531  16.164  1.1704 -0.1795  1.2774
 4700SOL     OW25735   1.807   2.047  12.707 -0.1451 -0.1960 -0.0812
 4700SOL    HW125736   1.753   2.057  12.628 -1.3459 -0.2074  0.7448
 4700SOL    HW225737   1.888   2.041  12.656  0.3850 -2.0587  0.9783
 4701SOL     OW25738   1.752   1.636   8.384 -0.3082  0.6783  0.6808
 4701SOL    HW125739   1.685   1.587   8.432 -0.2581 -1.1140 -1.1024
 4701SOL    HW225740   1.826   1.578   8.400  1.4154  2.5692 -0.3569
 4702SOL     OW25741   1.208   1.436   8.566  0.7404 -0.0659  0.0045
 4702SOL    HW125742   1.196   1.501   8.496 -0.1967  0.3215  0.5349
 4702SOL    HW225743   1.119   1.403   8.569  1.0233 -1.0024 -1.6377
 4703SOL     OW25744   3.279   3.007   4.244  0.4089 -0.4515  0.6795
 4703SOL    HW125745   3.200   2.955   4.256 -0.1383  0.0619 -0.5945
 4703SOL    HW225746   3.267   3.033   4.152  3.2803 -1.1186  0.1104
 4704SOL     OW25747   3.326   3.896   0.554  0.2652 -0.5409 -0.4292
 4704SOL    HW125748   3.246   3.850   0.581  1.4716 -1.5662  1.4124
 4704SOL    HW225749   3.367   3.915   0.639 -0.1990  0.3564 -0.4085
 4705SOL     OW25750   0.181   3.598  10.827  0.2289 -0.1539  0.4460
 4705SOL    HW125751   0.146   3.660  10.891 -2.3877 -0.1925 -0.9248
 4705SOL    HW225752   0.274   3.619  10.832  0.2882 -0.0638 -0.8871
 4706SOL     OW25753   4.250   2.263   8.994 -0.5285  0.5188 -0.7722
 4706SOL    HW125754   4.272   2.356   8.991  0.3464  0.3121 -0.7675
 4706SOL    HW225755   4.154   2.272   8.997 -0.8890 -3.7134  0.1110
 4707SOL     OW25756   1.048   1.118  16.284 -0.0526  0.2874  0.2701
 4707SOL    HW125757   1.072   1.173  16.359  0.1357 -0.7229  0.9573
 4707SOL    HW225758   1.123   1.124  16.226 -1.6666  0.2299 -1.8170
 4708SOL     OW25759   0.857   1.595   5.102 -0.9571 -0.0215  0.1619
 4708SOL    HW125760   0.887   1.554   5.021 -1.2891  0.7450 -0.3475
 4708SOL    HW225761   0.831   1.518   5.153 -0.1021 -1.9392 -2.3080
 4709SOL     OW25762   3.477   1.637  11.159  0.2164  0.0406  0.6166
 4709SOL    HW125763   3.547   1.627  11.223  1.8194  0.3671 -1.0901
 4709SOL    HW225764   3.426   1.710  11.193  0.7241  0.8727 -0.3844
 4710SOL     OW25765   3.201   0.232   3.957  0.0802 -0.5364  0.1704
 4710SOL    HW125766   3.203   0.322   3.926 -0.0687 -0.5168  0.2166
 4710SOL    HW225767   3.132   0.200   3.899  0.2364  0.3057 -0.4735
 4711SOL     OW25768   2.804   2.711  14.712 -0.4012  0.0951  0.3242
 4711SOL    HW125769   2.812   2.616  14.726  0.4565  0.0063 -0.8381
 4711SOL    HW225770   2.748   2.710  14.634 -0.2565 -1.7240  0.2330
 4712SOL     OW25771   1.829   3.966   8.017 -0.6383 -0.0948  0.0358
 4712SOL    HW125772   1.846   3.928   7.931 -0.2252 -0.3439  0.2290
 4712SOL    HW225773   1.734   3.954   8.015 -0.5630 -0.5147 -0.8042
 4713SOL     OW25774   1.227   1.575  16.437  0.0106  0.8976  0.3549
 4713SOL    HW125775   1.307   1.599  16.483  0.3619  1.8509 -0.7611
 4713SOL    HW225776   1.266   1.527  16.365  0.9186  3.3756 -0.7926
 4714SOL     OW25777   4.032   3.753  16.551 -0.3404 -0.0548  0.3666
 4714SOL    HW125778   3.970   3.733  16.621 -1.3043  1.9396  0.0811
 4714SOL    HW225779   4.122   3.752  16.584 -1.6982  0.0661  4.0990
 4715SOL     OW25780   3.885   4.044  17.499 -0.2128  0.5347 -0.6059
 4715SOL    HW125781   3.949   3.974  17.497 -1.6038 -0.6922 -2.7541
 4715SOL    HW225782   3.890   4.081  17.587 -0.2253  1.1305 -0.8521
 4716SOL     OW25783   3.646   1.066   3.192  0.4836 -0.1801 -0.0069
 4716SOL    HW125784   3.646   1.072   3.288 -0.4391 -1.9164  0.1120
 4716SOL    HW225785   3.691   1.145   3.162 -2.6236  1.0096 -1.4537
 4717SOL     OW25786   0.057   0.978   2.258 -0.6538 -0.0084  0.2124
 4717SOL    HW125787   0.075   0.944   2.346 -0.6151 -0.1035  0.1676
 4717SOL    HW225788   0.142   1.001   2.221 -0.7250 -0.4358 -0.2100
 4718SOL     OW25789   3.576   4.491  10.765  0.6893  0.2704 -0.6270
 4718SOL    HW125790   3.557   4.548  10.840  2.1387  0.1147 -0.1479
 4718SOL    HW225791   3.671   4.498  10.770  0.6555  0.8836 -0.7994
 4719SOL     OW25792   3.590   2.194  14.568  0.8029  0.3272 -0.2056
 4719SOL    HW125793   3.683   2.201  14.592  1.3069  0.2768 -2.0775
 4719SOL    HW225794   3.547   2.244  14.637 -0.1634  0.7563 -1.1244
 4720SOL     OW25795   1.872   2.198   4.384 -0.1209 -0.2437 -0.1341
 4720SOL    HW125796   1.882   2.153   4.468  0.4272 -0.3098 -0.2342
 4720SOL    HW225797   1.961   2.175   4.359 -0.6835 -1.5536 -0.9016
 4721SOL     OW25798   4.184   4.654   3.878 -0.7203  0.2286 -0.0497
 4721SOL    HW125799   4.144   4.718   3.819 -1.5731 -0.7835 -0.5722
 4721SOL    HW225800   4.276   4.675   3.866 -0.8583  0.2692 -1.0913
 4722SOL     OW25801   2.385   1.847   3.146 -0.1162 -0.8639  0.2592
 4722SOL    HW125802   2.347   1.867   3.060  1.7310 -0.8449 -0.5475
 4722SOL    HW225803   2.441   1.775   3.118 -0.5613 -1.3581  0.6498
 4723SOL     OW25804   1.475   3.018   8.796 -0.0847 -0.2120  0.4383
 4723SOL    HW125805   1.479   2.975   8.711  1.1674  2.9154 -1.0719
 4723SOL    HW225806   1.381   3.006   8.813 -0.2066 -2.9307 -2.2029
 4724SOL     OW25807   4.473   0.694   8.358 -0.3870 -0.8148 -0.3239
 4724SOL    HW125808   4.503   0.712   8.269 -0.6878 -1.2058 -0.5076
 4724SOL    HW225809   4.421   0.773   8.367  0.5859 -0.0411 -1.4876
 4725SOL     OW25810   1.761   3.941  15.379  0.3955  0.1714 -0.0394
 4725SOL    HW125811   1.751   3.879  15.452 -0.8470  0.6287  0.1896
 4725SOL    HW225812   1.855   3.951  15.388  0.6254  0.0384 -2.5616
 4726SOL     OW25813   3.644   0.926   6.703  0.1665 -0.7165 -0.3088
 4726SOL    HW125814   3.650   0.936   6.798 -2.6640 -3.3483  0.1428
 4726SOL    HW225815   3.707   0.990   6.670 -0.3131  0.7119  1.4962
 4727SOL     OW25816   2.787   2.987   4.414  0.0727  0.4452 -0.8944
 4727SOL    HW125817   2.834   3.038   4.480 -0.0476 -1.3513  0.5819
 4727SOL    HW225818   2.769   3.052   4.347 -3.3004  1.4916  1.0264
 4728SOL     OW25819   2.604   1.055   8.385  0.2200  0.2906 -0.1110
 4728SOL    HW125820   2.602   1.058   8.289 -0.6770 -1.3694 -0.1467
 4728SOL    HW225821   2.636   1.142   8.406 -0.5498  0.7434 -0.7836
 4729SOL     OW25822   2.478   1.075   7.449 -0.3025  0.3763 -0.0841
 4729SOL    HW125823   2.401   1.112   7.406 -1.7973 -0.4972  1.8423
 4729SOL    HW225824   2.458   1.089   7.542 -1.2206  0.1042 -0.2379
 4730SOL     OW25825   3.659   0.143  14.150 -0.2521  0.3897 -0.0773
 4730SOL    HW125826   3.576   0.110  14.184 -0.7215  0.4038 -1.1975
 4730SOL    HW225827   3.636   0.147  14.057 -0.8608  0.3796  0.0723
 4731SOL     OW25828   2.803   2.501  16.914 -0.0673 -0.0952 -0.5692
 4731SOL    HW125829   2.802   2.587  16.873  0.1467  0.3514  0.3901
 4731SOL    HW225830   2.869   2.509  16.982  1.9428 -0.3769 -2.4975
 4732SOL     OW25831   3.827   4.586  10.764  0.8823  0.1807  0.2566
 4732SOL    HW125832   3.919   4.564  10.746  0.7359 -1.6355  1.7068
 4732SOL    HW225833   3.831   4.681  10.752 -1.8084  0.0264 -1.7391
 4733SOL     OW25834   0.654   4.143  13.284  0.1850  0.3886  0.2371
 4733SOL    HW125835   0.614   4.062  13.253  0.8891  0.5179 -1.0086
 4733SOL    HW225836   0.590   4.210  13.263 -0.3867 -0.1941  0.1380
 4734SOL     OW25837   0.273   4.639  16.919 -0.1023  0.1052  0.8418
 4734SOL    HW125838   0.216   4.576  16.875  1.5857 -0.8054 -0.0046
 4734SOL    HW225839   0.227   4.616  17.000  0.1640 -2.2192  0.3347
 4735SOL     OW25840   4.092   3.946   2.499  0.0593  0.3223  0.4048
 4735SOL    HW125841   4.063   3.914   2.414  1.3313 -0.2594  0.1888
 4735SOL    HW225842   4.005   3.947   2.540 -0.1788  0.2710 -0.1080
 4736SOL     OW25843   1.697   1.392   3.087  0.0408  0.0959 -0.1502
 4736SOL    HW125844   1.621   1.397   3.029  0.0046 -0.1250 -0.1217
 4736SOL    HW225845   1.763   1.443   3.040 -0.0853 -2.0421 -2.6241
 4737SOL     OW25846   2.055   0.162  14.603 -0.0258 -0.0453  0.3356
 4737SOL    HW125847   2.064   0.184  14.696 -1.5782  3.3190 -0.3334
 4737SOL    HW225848   2.063   0.248  14.563 -2.7215 -0.0461 -0.1560
 4738SOL     OW25849   4.498   1.246   4.126 -0.0967  0.2632  0.0652
 4738SOL    HW125850   4.413   1.243   4.083 -0.2584  0.8614  0.3528
 4738SOL    HW225851   4.523   1.157   4.098  2.6980 -0.1950  4.0236
 4739SOL     OW25852   4.466   4.241   5.187  0.0274 -0.2231  0.0063
 4739SOL    HW125853   4.399   4.176   5.163  1.5315 -0.4678 -3.4754
 4739SOL    HW225854   4.544   4.185   5.195  0.6269  0.8666  1.7305
 4740SOL     OW25855   4.487   0.197   4.003 -0.0481  0.0538 -0.3708
 4740SOL    HW125856   4.405   0.174   4.048 -0.1799  2.1758  0.4770
 4740SOL    HW225857   4.458   0.215   3.913  0.7031  1.4309 -0.3376
 4741SOL     OW25858   3.869   3.386   9.882  0.1700  0.2705 -0.1888
 4741SOL    HW125859   3.828   3.303   9.859  0.7685  0.5842 -2.4102
 4741SOL    HW225860   3.913   3.417   9.803 -0.4705  2.7480  0.4169
 4742SOL     OW25861   0.046   1.102   5.321 -0.8286  0.8301  0.5552
 4742SOL    HW125862   0.006   1.166   5.262 -0.9510 -1.6948 -2.1443
 4742SOL    HW225863   0.137   1.114   5.293 -0.2997 -2.8383  0.7545
 4743SOL     OW25864   0.470   1.086   3.033 -0.5201 -0.0400 -0.5116
 4743SOL    HW125865   0.413   1.161   3.051  1.3631  0.9408  1.3862
 4743SOL    HW225866   0.424   1.049   2.958 -0.7147  0.2958 -0.5594
 4744SOL     OW25867   4.185   0.778   7.956 -0.6344  0.0226 -0.1072
 4744SOL    HW125868   4.196   0.687   7.983 -2.1713 -0.0234  0.3664
 4744SOL    HW225869   4.174   0.749   7.866 -2.6204  0.6348 -0.0622
 4745SOL     OW25870   1.955   1.627  15.849  0.1212  0.4308 -0.1616
 4745SOL    HW125871   1.902   1.668  15.781  1.0560  0.2099 -1.0150
 4745SOL    HW225872   1.941   1.534  15.831 -0.1949  0.1030  1.7411
 4746SOL     OW25873   0.704   2.232   6.922  0.3854 -0.3573 -0.2370
 4746SOL    HW125874   0.730   2.229   7.014 -0.3204  0.8919 -0.0019
 4746SOL    HW225875   0.722   2.324   6.900  2.9010 -0.8504 -0.2670
 4747SOL     OW25876   4.008   0.205  16.179  0.6868  0.4099  0.0863
 4747SOL    HW125877   3.986   0.298  16.183  2.6051  0.8514  0.1645
 4747SOL    HW225878   3.926   0.165  16.208  1.0784 -0.5693 -0.1603
 4748SOL     OW25879   0.805   3.689   3.776 -0.4817 -0.1202  0.1741
 4748SOL    HW125880   0.722   3.734   3.793  0.5177  0.9405  2.2990
 4748SOL    HW225881   0.855   3.759   3.819 -1.3719  1.2647 -1.0742
 4749SOL     OW25882   4.413   0.164   2.793  0.4246 -0.0517  0.3680
 4749SOL    HW125883   4.378   0.253   2.799 -0.3143 -0.3057 -0.0860
 4749SOL    HW225884   4.498   0.174   2.751  1.0892 -1.5894  1.3649
 4750SOL     OW25885   4.149   4.630   7.585  0.3600 -0.3468 -0.2850
 4750SOL    HW125886   4.203   4.571   7.531  0.9116 -1.3125  1.3244
 4750SOL    HW225887   4.150   4.703   7.523 -1.3600 -2.6094 -3.0112
 4751SOL     OW25888   0.364   1.156   2.571 -0.3649  0.4145  0.1478
 4751SOL    HW125889   0.394   1.192   2.488  0.2684  0.2744  0.3139
 4751SOL    HW225890   0.279   1.119   2.547 -0.7873  0.5696  1.3854
 4752SOL     OW25891   4.204   3.136   0.229  0.5113 -0.0913  0.5666
 4752SOL    HW125892   4.281   3.187   0.252  0.3373  1.2655 -1.8600
 4752SOL    HW225893   4.248   3.054   0.205  0.9590  1.0048 -2.4061
 4753SOL     OW25894   4.311   0.540  13.674 -0.0563 -0.2773 -0.1350
 4753SOL    HW125895   4.329   0.526  13.581 -0.1857 -1.0685 -0.0416
 4753SOL    HW225896   4.394   0.575  13.708  1.0073 -2.0981 -0.8355
 4754SOL     OW25897   2.470   1.630   5.828  0.5404 -0.0118 -0.1542
 4754SOL    HW125898   2.377   1.606   5.819  0.8230 -0.4667 -1.8971
 4754SOL    HW225899   2.496   1.626   5.736  1.3213 -0.4938  0.0843
 4755SOL     OW25900   0.038   3.320  17.317 -0.1142  0.2428 -0.0400
 4755SOL    HW125901   0.125   3.332  17.279 -1.1888  0.6159 -2.3788
 4755SOL    HW225902   0.011   3.233  17.287 -0.4401 -0.1250  1.2914
 4756SOL     OW25903   1.462   1.241   0.545  0.0802 -0.0147 -0.0912
 4756SOL    HW125904   1.398   1.200   0.488  2.5646 -1.5826 -1.7152
 4756SOL    HW225905   1.446   1.330   0.512  2.0480  0.7255  0.9379
 4757SOL     OW25906   4.472   1.125  11.724  0.4776  0.4081 -0.0661
 4757SOL    HW125907   4.537   1.182  11.767  1.9383 -1.3741  0.0701
 4757SOL    HW225908   4.524   1.097  11.649  0.4254 -0.5934  0.2737
 4758SOL     OW25909   2.986   0.941  14.988  0.5563 -0.6090 -0.0258
 4758SOL    HW125910   3.064   0.892  15.013  1.9818  1.1324 -1.0182
 4758SOL    HW225911   2.972   0.916  14.896 -2.3681 -0.7524  0.4379
 4759SOL     OW25912   2.181   2.231  16.728  0.5542 -0.2584 -0.0694
 4759SOL    HW125913   2.095   2.218  16.769  0.5232  0.0480 -0.0423
 4759SOL    HW225914   2.251   2.257  16.788  1.7716 -0.3945 -1.4336
 4760SOL     OW25915   0.169   2.349   3.885 -0.3125  0.2320  0.9336
 4760SOL    HW125916   0.166   2.361   3.790 -1.4868 -0.5239  0.8692
 4760SOL    HW225917   0.128   2.263   3.894  1.7786 -0.7544  0.9061
 4761SOL     OW25918   4.432   0.730  13.223  0.2017 -0.3500  0.1412
 4761SOL    HW125919   4.497   0.673  13.183  1.6515  1.6550 -0.3822
 4761SOL    HW225920   4.475   0.745  13.307 -1.3531 -0.3115  0.9320
 4762SOL     OW25921   4.367   0.208   7.144 -0.2910  0.1132 -0.0405
 4762SOL    HW125922   4.317   0.150   7.086  1.7662  1.7851 -3.4636
 4762SOL    HW225923   4.305   0.239   7.210 -1.3707 -0.3541 -0.8404
 4763SOL     OW25924   0.143   2.902  16.504  0.3467 -0.4370 -0.8052
 4763SOL    HW125925   0.187   2.893  16.420  2.0252 -1.7590  0.1840
 4763SOL    HW225926   0.219   2.933  16.554 -0.5399  0.7998 -0.2417
 4764SOL     OW25927   3.612   4.124   4.661 -0.5029  0.5283  0.1332
 4764SOL    HW125928   3.603   4.216   4.634  1.7265  0.2634 -1.5019
 4764SOL    HW225929   3.529   4.081   4.640  0.3062 -0.6493 -0.6677
 4765SOL     OW25930   1.249   0.819   7.937 -0.0975  0.6427 -0.1588
 4765SOL    HW125931   1.336   0.778   7.939 -0.0454  0.7196 -0.7826
 4765SOL    HW225932   1.260   0.873   8.015  2.0357 -0.3078  0.2176
 4766SOL     OW25933   2.201   0.229   3.849 -0.2929  0.5268  0.0145
 4766SOL    HW125934   2.116   0.262   3.819  0.3750 -0.7051 -3.1498
 4766SOL    HW225935   2.180   0.138   3.868 -0.0678 -0.0229 -2.4092
 4767SOL     OW25936   1.841   4.170  16.906  0.7184 -0.4937 -0.6107
 4767SOL    HW125937   1.771   4.115  16.871 -0.0885  0.7699 -1.0078
 4767SOL    HW225938   1.779   4.225  16.953  0.2399 -0.9498 -0.7092
 4768SOL     OW25939   1.139   0.330   6.102 -0.2299  0.0447 -0.6162
 4768SOL    HW125940   1.221   0.378   6.089 -0.6208  0.5748 -1.1039
 4768SOL    HW225941   1.090   0.378   6.168  0.1430 -0.1658 -0.1891
 4769SOL     OW25942   3.247   2.031  14.015 -0.1666 -0.0220  0.8679
 4769SOL    HW125943   3.261   1.954  14.070  1.2862  0.3379  1.0106
 4769SOL    HW225944   3.186   1.994  13.952 -0.2605 -0.3671  1.1623
 4770SOL     OW25945   3.934   3.126  16.560  0.4431 -0.1233  0.1812
 4770SOL    HW125946   3.991   3.144  16.635 -1.4535 -2.2853  2.1442
 4770SOL    HW225947   3.918   3.215  16.527  0.4528 -0.7312 -1.4719
 4771SOL     OW25948   3.450   1.179   9.261  0.0967  0.4392 -0.2169
 4771SOL    HW125949   3.436   1.262   9.214 -0.6846  1.2086  1.3426
 4771SOL    HW225950   3.532   1.144   9.228  0.1113  0.5203 -0.2671
 4772SOL     OW25951   4.348   1.226   8.258  0.4078  0.0128  0.4647
 4772SOL    HW125952   4.415   1.294   8.259  0.7116 -0.2902  0.7250
 4772SOL    HW225953   4.340   1.213   8.353 -0.8197  1.0941  0.5069
 4773SOL     OW25954   2.385   0.468  16.995  0.3506 -0.0020 -0.0322
 4773SOL    HW125955   2.464   0.462  17.050 -0.8344  0.8001  1.7414
 4773SOL    HW225956   2.397   0.386  16.947 -3.1267  0.0168 -0.8847
 4774SOL     OW25957   1.657   4.426   5.793 -0.5264 -0.1099 -0.0737
 4774SOL    HW125958   1.610   4.506   5.768  0.4809  1.0245  1.6479
 4774SOL    HW225959   1.729   4.469   5.839 -0.5232  1.2530 -1.3464
 4775SOL     OW25960   1.862   4.631   6.292  0.2599  0.2488  0.1705
 4775SOL    HW125961   1.956   4.614   6.294  0.3838  1.0464  1.0957
 4775SOL    HW225962   1.845   4.625   6.386 -1.2620  1.7976 -0.0156
 4776SOL     OW25963   2.917   0.672  14.014  0.2751  0.3436  0.0386
 4776SOL    HW125964   3.002   0.667  13.970  0.3904 -1.0200  0.4055
 4776SOL    HW225965   2.937   0.613  14.087  0.2713 -1.1500 -1.1504
 4777SOL     OW25966   4.604   3.471  15.943 -0.3336 -0.9034  0.3224
 4777SOL    HW125967   4.626   3.494  15.853 -3.3940 -1.4659 -0.5815
 4777SOL    HW225968   4.529   3.414  15.925 -1.5658  0.7223  0.3314
 4778SOL     OW25969   4.172   3.381   3.930 -0.0484  0.3544 -0.2012
 4778SOL    HW125970   4.183   3.470   3.897 -0.0399  0.5173  0.2497
 4778SOL    HW225971   4.086   3.391   3.972  0.8107  0.4897  1.5118
 4779SOL     OW25972   2.712   3.863  12.162  0.0270  0.1576  0.0005
 4779SOL    HW125973   2.753   3.777  12.152 -0.1589  0.1408 -0.6630
 4779SOL    HW225974   2.681   3.857  12.252  0.7845 -0.9672  0.1923
 4780SOL     OW25975   1.001   3.007   2.270  0.0396  0.2138  0.2027
 4780SOL    HW125976   0.944   2.986   2.196  1.0897 -2.3050  0.1078
 4780SOL    HW225977   0.993   2.936   2.333 -0.4999 -0.2274 -0.3678
 4781SOL     OW25978   3.285   1.575   6.591  0.7974  0.0846  0.5131
 4781SOL    HW125979   3.229   1.564   6.514  1.9176 -3.5501  0.2401
 4781SOL    HW225980   3.245   1.516   6.655  2.2917  0.8044  2.1136
 4782SOL     OW25981   1.634   1.854   7.633 -0.4670  0.2315  0.8813
 4782SOL    HW125982   1.650   1.871   7.540  3.4347 -0.4879  1.4118
 4782SOL    HW225983   1.563   1.791   7.630 -1.5152  1.4407  0.3964
 4783SOL     OW25984   2.738   1.042   2.590  0.1881 -0.3787 -0.1658
 4783SOL    HW125985   2.753   1.076   2.502 -0.3547 -0.1410 -0.1726
 4783SOL    HW225986   2.829   1.030   2.615 -0.7770 -1.4594  2.8542
 4784SOL     OW25987   0.892   4.734   3.047  0.0712 -0.0064  0.3328
 4784SOL    HW125988   0.836   0.074   3.052 -1.2340 -0.8138 -1.5905
 4784SOL    HW225989   0.946   0.002   2.968 -1.3555  0.7678 -0.6007
 4785SOL     OW25990   0.518   3.590   7.426  0.7259 -0.2357  0.1565
 4785SOL    HW125991   0.445   3.619   7.481  2.0093  1.6475  0.8500
 4785SOL    HW225992   0.546   3.673   7.388  1.3122 -0.3165  0.4045
 4786SOL     OW25993   1.008   2.142   7.044 -0.4035 -0.4168 -0.3529
 4786SOL    HW125994   0.916   2.159   7.063  0.5960  3.0785  1.3667
 4786SOL    HW225995   1.020   2.053   7.078 -0.7901  0.0998  1.1275
 4787SOL     OW25996   1.351   2.492   6.558  0.1498  0.0668  0.4587
 4787SOL    HW125997   1.430   2.452   6.595  0.9379 -1.8067 -3.2447
 4787SOL    HW225998   1.314   2.406   6.538 -0.1098  0.1747  0.4715
 4788SOL     OW25999   1.169   1.943   5.843 -0.3202 -0.1487 -0.8288
 4788SOL    HW126000   1.076   1.928   5.860 -0.0060 -2.9515 -1.4953
 4788SOL    HW226001   1.186   1.925   5.751 -1.7821  0.0781 -1.1332
 4789SOL     OW26002   1.931   3.627   6.021 -0.0240 -0.5013 -0.2782
 4789SOL    HW126003   2.007   3.618   5.964 -1.4182 -0.3963 -2.1373
 4789SOL    HW226004   1.973   3.623   6.107 -0.3648  2.5714  0.0215
 4790SOL     OW26005   3.214   4.578   6.576  0.7132 -0.0706  0.5774
 4790SOL    HW126006   3.217   4.546   6.666 -0.2330 -1.6412  0.0487
 4790SOL    HW226007   3.122   4.572   6.551  0.9284  1.0503 -0.5048
 4791SOL     OW26008   3.430   3.497   3.382 -0.0233  0.2129  0.0947
 4791SOL    HW126009   3.510   3.453   3.354 -0.1474  0.4225 -0.5774
 4791SOL    HW226010   3.464   3.576   3.423 -4.3342  1.3748  1.4670
 4792SOL     OW26011   1.787   0.500  16.783 -0.3257 -0.5254 -0.2512
 4792SOL    HW126012   1.721   0.531  16.844 -0.0370  1.1829 -0.7989
 4792SOL    HW226013   1.871   0.531  16.819  0.5594 -1.5162 -1.4668
 4793SOL     OW26014   0.811   0.326   4.207  0.2093 -0.7857  0.5596
 4793SOL    HW126015   0.790   0.251   4.263 -1.7515  0.3658  1.3824
 4793SOL    HW226016   0.734   0.382   4.212  0.0184 -0.7975 -2.2130
 4794SOL     OW26017   1.634   3.275  14.270  0.2336  0.1906  0.2825
 4794SOL    HW126018   1.707   3.264  14.208 -0.1507  0.1504 -0.1614
 4794SOL    HW226019   1.566   3.327  14.227  0.5021  1.3167  1.1856
 4795SOL     OW26020   4.620   4.572   9.444  0.4120 -0.2072 -0.2853
 4795SOL    HW126021   4.535   4.607   9.418  0.0843 -0.5391  0.3349
 4795SOL    HW226022   4.669   4.642   9.487  2.5868 -2.0630  0.2668
 4796SOL     OW26023   4.593   0.839   9.155  0.2858  1.1496  0.0535
 4796SOL    HW126024   4.595   0.815   9.062  5.3283  0.3962  0.3734
 4796SOL    HW226025   4.512   0.800   9.189  1.5355 -1.4244  0.0515
 4797SOL     OW26026   3.361   0.316   2.132  0.2855  0.2065 -0.4139
 4797SOL    HW126027   3.356   0.222   2.115 -0.1626  0.6132 -2.6247
 4797SOL    HW226028   3.393   0.352   2.048  0.8721 -1.2972 -0.8362
 4798SOL     OW26029   2.461   2.985   7.190  0.2005  0.2938  0.1428
 4798SOL    HW126030   2.417   3.039   7.125 -0.8903 -0.6867  0.0692
 4798SOL    HW226031   2.533   2.951   7.137  0.2556  3.2981 -1.7084
 4799SOL     OW26032   1.681   3.959   5.287  0.5265 -0.3439 -0.6250
 4799SOL    HW126033   1.765   3.933   5.326  0.1916 -2.3102 -1.2653
 4799SOL    HW226034   1.713   3.959   5.197 -2.1927 -1.1974 -1.5642
 4800SOL     OW26035   1.506   2.545   0.741  0.1432 -0.1443 -0.0691
 4800SOL    HW126036   1.414   2.563   0.722 -0.4143 -3.3040 -0.3622
 4800SOL    HW226037   1.504   2.450   0.730 -1.6931 -0.1870  0.6038
 4801SOL     OW26038   4.440   0.775  17.665 -0.2113  0.1130 -0.0268
 4801SOL    HW126039   4.424   0.705  17.729 -0.1033  0.5513  0.4849
 4801SOL    HW226040   4.359   0.825  17.677 -2.5175 -3.3323 -1.4553
 4802SOL     OW26041   3.635   4.365   6.766 -0.2792 -0.1924  0.4677
 4802SOL    HW126042   3.541   4.371   6.784 -0.6497 -0.8894 -1.2463
 4802SOL    HW226043   3.646   4.291   6.707 -0.4281  0.7197 -0.7214
 4803SOL     OW26044   3.830   1.605   4.191 -0.0190 -0.4030  0.0403
 4803SOL    HW126045   3.908   1.595   4.246  0.5194 -1.1890 -0.8816
 4803SOL    HW226046   3.766   1.543   4.226 -0.9188 -0.0206 -0.9382
 4804SOL     OW26047   2.583   0.142  16.917  0.4229 -0.1108  0.1461
 4804SOL    HW126048   2.563   0.049  16.907  0.4371 -0.0666 -0.2914
 4804SOL    HW226049   2.666   0.140  16.964 -0.6729 -0.4955  2.0780
 4805SOL     OW26050   4.501   3.709   8.428 -0.4291  0.0386  0.5836
 4805SOL    HW126051   4.581   3.674   8.388 -1.7602  0.4411 -2.4660
 4805SOL    HW226052   4.529   3.787   8.475 -0.3271 -0.7396  1.8019
 4806SOL     OW26053   3.406   4.242   4.290  0.1111 -0.6723 -0.4929
 4806SOL    HW126054   3.329   4.196   4.256  2.6020 -2.4535 -3.7293
 4806SOL    HW226055   3.479   4.199   4.246 -0.4599 -2.1353  0.0094
 4807SOL     OW26056   1.192   3.211   6.904 -0.5121 -0.5834 -0.0590
 4807SOL    HW126057   1.262   3.271   6.929 -0.2853 -1.2881  0.9766
 4807SOL    HW226058   1.118   3.271   6.916 -0.1278  0.0973 -1.0835
 4808SOL     OW26059   4.625   4.667  13.348 -0.0541  0.0984 -0.3055
 4808SOL    HW126060   4.677   4.591  13.321  1.6610  1.1320  0.1193
 4808SOL    HW226061   4.696   4.730  13.339  1.0990 -1.2060 -0.4518
 4809SOL     OW26062   1.984   3.275   6.091 -0.0497  0.2043 -0.5223
 4809SOL    HW126063   2.026   3.190   6.080  2.6546  1.3844  0.6825
 4809SOL    HW226064   2.065   3.323   6.106  0.8032 -1.5116  0.3220
 4810SOL     OW26065   1.416   3.486   1.701 -0.3494 -0.1681  0.2286
 4810SOL    HW126066   1.401   3.417   1.637 -2.0947 -0.3184  0.7985
 4810SOL    HW226067   1.498   3.452   1.737  0.2489  2.1120  1.0428
 4811SOL     OW26068   1.971   2.969   6.149  0.2068  0.4436  0.1895
 4811SOL    HW126069   1.897   3.000   6.201 -0.7580 -0.7814 -0.4551
 4811SOL    HW226070   1.933   2.886   6.123  1.5894 -0.6599  1.7163
 4812SOL     OW26071   4.124   3.082   7.796  0.1650 -0.0800 -0.9078
 4812SOL    HW126072   4.090   3.025   7.865  2.9821 -1.6174 -0.7646
 4812SOL    HW226073   4.111   3.032   7.715 -2.1824 -0.9131 -0.0253
 4813SOL     OW26074   3.464   3.962  10.231 -0.1518  0.5575  0.1708
 4813SOL    HW126075   3.410   3.914  10.168 -0.2663  0.6701  0.1825
 4813SOL    HW226076   3.480   3.895  10.298  0.0503  1.3231  0.8843
 4814SOL     OW26077   1.762   0.025   6.036 -0.4559  0.1035  0.7025
 4814SOL    HW126078   1.791   4.673   6.019  1.7302  0.6071  1.7959
 4814SOL    HW226079   1.777   0.027   6.130 -0.4581 -1.0747  0.7232
 4815SOL     OW26080   2.449   0.108   7.696  0.6074 -0.5283  0.1506
 4815SOL    HW126081   2.489   0.194   7.691  1.8384 -1.1700 -1.0596
 4815SOL    HW226082   2.500   0.055   7.635  0.7634 -0.8285  0.5384
 4816SOL     OW26083   2.666   4.344   0.275  0.9061 -0.1408 -0.1293
 4816SOL    HW126084   2.619   4.335   0.358  2.1897  0.4545  0.6677
 4816SOL    HW226085   2.760   4.350   0.292  0.9955  1.8354 -1.3157
 4817SOL     OW26086   1.286   3.851   0.673 -0.3594  0.2080 -0.3201
 4817SOL    HW126087   1.324   3.860   0.760  2.0822  0.9691 -1.4791
 4817SOL    HW226088   1.365   3.850   0.619 -0.7674  2.5368 -0.9498
 4818SOL     OW26089   2.875   0.522   6.307 -0.4341 -0.4433 -0.1824
 4818SOL    HW126090   2.919   0.601   6.338 -0.4296 -1.2401  1.8737
 4818SOL    HW226091   2.950   0.464   6.301  0.6060  0.9097 -0.2941
 4819SOL     OW26092   4.715   2.194   6.514  0.5512  0.1189  0.2763
 4819SOL    HW126093   4.627   2.183   6.477  0.5609 -1.9999  0.8990
 4819SOL    HW226094   4.722   2.131   6.585 -1.9447  0.4937  0.8647
 4820SOL     OW26095   2.186   1.444   2.962  0.2211  0.1752 -0.0990
 4820SOL    HW126096   2.121   1.415   3.026  0.4749  0.8510  0.4602
 4820SOL    HW226097   2.259   1.425   3.020  0.8867  2.6888 -0.1348
 4821SOL     OW26098   3.078   1.418   9.236  0.8472  0.6182 -0.2542
 4821SOL    HW126099   3.025   1.492   9.267 -0.9829 -1.1394  0.8054
 4821SOL    HW226100   3.126   1.400   9.316  0.9804 -2.1683 -0.9665
 4822SOL     OW26101   4.711   3.330  17.006 -0.8025 -0.5689 -0.8536
 4822SOL    HW126102   4.658   3.409  17.004  0.6692  0.4678  2.2747
 4822SOL    HW226103   4.643   3.264  17.026 -1.9711  0.1197 -2.5508
 4823SOL     OW26104   2.791   1.451   2.052 -0.0212 -0.1470  0.1175
 4823SOL    HW126105   2.837   1.377   2.091  0.0768  0.4454  1.1327
 4823SOL    HW226106   2.824   1.523   2.106  2.0533 -0.7994 -0.2924
 4824SOL     OW26107   4.096   1.210   6.632 -0.1878 -0.8969 -0.2518
 4824SOL    HW126108   4.178   1.249   6.663 -1.2705  0.5790  0.7348
 4824SOL    HW226109   4.059   1.197   6.719  0.9135  1.7447  0.6112
 4825SOL     OW26110   3.287   3.611   6.332  0.2168  0.4961 -0.1607
 4825SOL    HW126111   3.344   3.547   6.374 -2.8258 -1.3074  1.2343
 4825SOL    HW226112   3.351   3.677   6.306  1.1269 -0.5415 -0.5742
 4826SOL     OW26113   2.653   1.704   7.488 -0.5887 -0.5733 -0.3376
 4826SOL    HW126114   2.723   1.686   7.426 -0.0062  0.4933  0.0090
 4826SOL    HW226115   2.698   1.707   7.572  1.3658  2.3510 -1.5170
 4827SOL     OW26116   2.270   2.587  14.110  0.3757  0.7527  0.3950
 4827SOL    HW126117   2.211   2.522  14.149  0.8809 -0.8497 -1.5335
 4827SOL    HW226118   2.260   2.551  14.022  1.1209  1.6661 -0.0593
 4828SOL     OW26119   4.445   3.403  14.286 -0.5550  0.4806 -0.3686
 4828SOL    HW126120   4.364   3.446  14.312  0.6178  2.6220 -0.2944
 4828SOL    HW226121   4.484   3.402  14.373 -3.8915  2.2720  1.0978
 4829SOL     OW26122   4.260   4.320  13.365  0.5130 -0.4757  0.2746
 4829SOL    HW126123   4.169   4.349  13.372  0.3295 -0.8015 -0.7927
 4829SOL    HW226124   4.258   4.264  13.443 -0.3445 -0.0555  0.5572
 4830SOL     OW26125   0.745   2.924   0.893  0.0350 -0.0842 -0.3166
 4830SOL    HW126126   0.827   2.962   0.926 -0.1527  2.0206 -2.2537
 4830SOL    HW226127   0.760   2.916   0.799 -0.9177 -0.6477 -0.4206
 4831SOL     OW26128   2.331   1.492   1.675 -0.4664  0.3487 -0.7584
 4831SOL    HW126129   2.404   1.443   1.712  0.6710  1.9569 -0.9173
 4831SOL    HW226130   2.358   1.583   1.688 -2.6099  0.7801  0.7469
 4832SOL     OW26131   1.013   3.375   7.019  0.1906  0.1572 -0.4722
 4832SOL    HW126132   1.006   3.335   7.105 -0.3201  0.3257 -0.4328
 4832SOL    HW226133   0.921   3.369   6.994 -0.4196 -0.8900  2.0185
 4833SOL     OW26134   4.495   0.065  13.002 -0.5269 -0.5214 -0.0104
 4833SOL    HW126135   4.480   4.712  12.976 -0.8140 -0.4070 -0.2407
 4833SOL    HW226136   4.586   0.045  13.023 -0.3738  1.3470  1.1345
 4834SOL     OW26137   3.546   2.553   6.312 -0.0842 -0.2284 -0.0563
 4834SOL    HW126138   3.516   2.525   6.226  1.6334 -0.0675 -0.7237
 4834SOL    HW226139   3.458   2.583   6.335  0.0748 -0.1892  0.4952
 4835SOL     OW26140   2.846   2.021   0.764  0.3294  0.2610 -0.8528
 4835SOL    HW126141   2.920   2.062   0.720  0.8495  0.8765  0.5724
 4835SOL    HW226142   2.839   2.062   0.851  1.5501 -0.8921 -0.2123
 4836SOL     OW26143   3.355   0.419   5.136  0.0440  0.1728  0.0820
 4836SOL    HW126144   3.400   0.503   5.133  1.8377 -0.7338  1.6966
 4836SOL    HW226145   3.261   0.439   5.132 -0.0359  0.2377  1.9770
 4837SOL     OW26146   2.799   2.271   9.283 -0.4472 -0.1190 -0.4006
 4837SOL    HW126147   2.734   2.274   9.212  1.1506 -1.2104 -1.9125
 4837SOL    HW226148   2.880   2.293   9.238  0.3288 -1.2675  0.4554
 4838SOL     OW26149   1.523   1.949  14.336  0.5241 -0.2901  0.3283
 4838SOL    HW126150   1.478   1.936  14.420 -0.0385  0.8559  0.2021
 4838SOL    HW226151   1.515   1.861  14.300  0.6183 -0.2220  0.1430
 4839SOL     OW26152   1.834   1.327   6.847 -0.1071 -0.3360 -1.3772
 4839SOL    HW126153   1.785   1.398   6.806 -0.7857 -0.0212 -0.0187
 4839SOL    HW226154   1.852   1.273   6.770  0.9996 -0.4853 -0.9986
 4840SOL     OW26155   1.448   1.740   8.241 -0.0065  0.3606 -0.0466
 4840SOL    HW126156   1.411   1.713   8.157 -0.2733  1.2319 -0.2048
 4840SOL    HW226157   1.375   1.720   8.299 -0.1114 -0.3179 -0.4105
 4841SOL     OW26158   2.252   1.954   2.436  0.4454 -0.4150 -0.3000
 4841SOL    HW126159   2.252   1.872   2.485 -2.4577 -0.7207 -0.8255
 4841SOL    HW226160   2.157   1.961   2.429  0.5328 -0.4681 -1.6200
 4842SOL     OW26161   3.657   1.911   3.139  0.0628 -0.4416  0.4433
 4842SOL    HW126162   3.749   1.894   3.160  0.3099  0.3118 -0.0641
 4842SOL    HW226163   3.620   1.845   3.199  0.7896 -2.1102 -0.9397
 4843SOL     OW26164   3.370   4.190   3.965 -0.3222  0.6270  0.5359
 4843SOL    HW126165   3.443   4.250   3.980  1.1631 -0.2131 -3.2524
 4843SOL    HW226166   3.414   4.122   3.912  1.1237  0.5642  1.8218
 4844SOL     OW26167   2.517   0.496   6.722 -0.4243 -0.4554  0.1200
 4844SOL    HW126168   2.556   0.474   6.637  0.0061  2.6382 -0.4801
 4844SOL    HW226169   2.578   0.565   6.747  0.7739 -2.0414  1.5543
 4845SOL     OW26170   2.553   0.280  16.066  0.5983 -0.1898 -0.0129
 4845SOL    HW126171   2.601   0.312  15.989  0.6637 -2.2791 -0.8439
 4845SOL    HW226172   2.468   0.324  16.065  1.7071  1.9399 -0.1105
 4846SOL     OW26173   0.863   1.542   6.850  0.3996  0.5046 -0.0977
 4846SOL    HW126174   0.831   1.591   6.775 -1.1892  0.7542  0.7468
 4846SOL    HW226175   0.951   1.579   6.857  0.8985 -0.7418  0.3124
 4847SOL     OW26176   3.070   2.931  16.648 -0.4180 -0.1390 -0.1415
 4847SOL    HW126177   3.018   2.870  16.699 -0.2363  0.0054  0.2149
 4847SOL    HW226178   3.159   2.896  16.650 -0.8730 -1.1482  1.8123
 4848SOL     OW26179   2.766   4.109   5.934 -0.3404 -0.1008 -0.4179
 4848SOL    HW126180   2.778   4.201   5.961 -1.4663  0.8481 -3.1406
 4848SOL    HW226181   2.673   4.105   5.915 -0.4192  0.5274 -0.1840
 4849SOL     OW26182   1.469   2.091   4.839 -0.4834  0.0943 -0.1291
 4849SOL    HW126183   1.451   2.151   4.767 -0.6249  0.4225  0.1814
 4849SOL    HW226184   1.510   2.148   4.903 -2.0664  0.1633  0.8224
 4850SOL     OW26185   1.450   4.229   4.683  0.2139 -0.9391  0.9111
 4850SOL    HW126186   1.411   4.295   4.626  0.7985 -2.3284 -1.1009
 4850SOL    HW226187   1.404   4.153   4.650 -2.3903  1.2802 -0.5549
 4851SOL     OW26188   2.676   3.201   8.967 -0.6445 -0.4481  0.4188
 4851SOL    HW126189   2.664   3.181   9.059  0.3825 -0.0180  0.6448
 4851SOL    HW226190   2.689   3.296   8.974  2.1288 -0.7845 -0.2217
 4852SOL     OW26191   1.257   0.518   3.406 -0.0405  0.1988 -0.3610
 4852SOL    HW126192   1.347   0.541   3.428 -0.1776  1.2870 -0.9584
 4852SOL    HW226193   1.263   0.423   3.422  2.0626  0.2029 -1.1503
 4853SOL     OW26194   0.097   3.837   8.773  0.7321 -0.6562 -0.1949
 4853SOL    HW126195   0.160   3.908   8.780 -0.7814  0.7722 -1.2161
 4853SOL    HW226196   0.151   3.762   8.799  0.2588 -0.8530  0.2288
 4854SOL     OW26197   1.887   2.775  13.237 -0.6863 -0.2150  0.8421
 4854SOL    HW126198   1.949   2.738  13.174 -0.6738  0.4077  0.4967
 4854SOL    HW226199   1.814   2.790  13.176  0.8476  0.2056 -0.8760
 4855SOL     OW26200   0.794   3.759   9.219 -0.1950 -0.0059 -0.0819
 4855SOL    HW126201   0.884   3.739   9.193 -0.2638  0.0292 -0.3425
 4855SOL    HW226202   0.786   3.854   9.226 -0.2107  0.0558 -0.9917
 4856SOL     OW26203   1.550   2.230   1.958  0.7752 -0.2553 -0.0821
 4856SOL    HW126204   1.615   2.171   1.997  1.2945 -0.6814 -1.5863
 4856SOL    HW226205   1.584   2.317   1.979  1.6728 -0.9215  1.1841
 4857SOL     OW26206   1.852   2.112  13.246  0.4037  0.0626  0.1075
 4857SOL    HW126207   1.918   2.126  13.179  0.7227 -0.8464  0.2302
 4857SOL    HW226208   1.903   2.128  13.326  0.0854 -0.7773  0.4858
 4858SOL     OW26209   2.829   3.189   7.523 -0.0248  0.1018 -0.6490
 4858SOL    HW126210   2.846   3.284   7.521  1.3578 -0.1522 -1.3681
 4858SOL    HW226211   2.862   3.168   7.610 -3.2138  0.1551  0.5715
 4859SOL     OW26212   1.942   1.422  15.111  0.2840 -0.2667 -0.4133
 4859SOL    HW126213   1.905   1.427  15.199  1.2672 -2.7350  0.1381
 4859SOL    HW226214   1.947   1.517  15.098  1.7616 -0.0540  1.7785
 4860SOL     OW26215   1.430   3.834   0.227 -0.6175 -0.0425  0.2872
 4860SOL    HW126216   1.463   3.826   0.137  0.2996 -0.0458  0.6228
 4860SOL    HW226217   1.364   3.765   0.226 -0.2113 -0.4365  1.3801
 4861SOL     OW26218   1.676   4.663  10.328  0.4291  0.1128  0.0371
 4861SOL    HW126219   1.653   4.576  10.294 -1.4330  0.7432 -0.3317
 4861SOL    HW226220   1.635   4.655  10.414  0.0297 -0.5348 -0.2097
 4862SOL     OW26221   3.765   2.516  13.135 -0.2680  0.0365  0.2074
 4862SOL    HW126222   3.856   2.487  13.125 -1.2877 -2.3342 -2.1357
 4862SOL    HW226223   3.722   2.431  13.144  1.2658 -0.6595  0.9953
 4863SOL     OW26224   4.409   2.275   6.833  0.1317  0.0817 -0.2174
 4863SOL    HW126225   4.428   2.296   6.925  1.6190 -2.3735  0.0359
 4863SOL    HW226226   4.426   2.182   6.846  0.1905 -0.0336 -1.1485
 4864SOL     OW26227   1.079   2.585   2.960  0.2646 -0.3589  0.6307
 4864SOL    HW126228   1.023   2.520   3.003  2.0926 -1.2213  1.7223
 4864SOL    HW226229   1.020   2.617   2.892  0.1498 -3.9532 -0.9697
 4865SOL     OW26230   1.285   3.107  11.260 -0.1967 -0.1786  0.4345
 4865SOL    HW126231   1.244   3.181  11.304 -0.8241 -0.0272 -0.4000
 4865SOL    HW226232   1.246   3.029  11.300 -1.9886  1.7899  2.5226
 4866SOL     OW26233   3.169   1.730   9.058  0.2031  0.4563  0.4094
 4866SOL    HW126234   3.183   1.721   9.152 -0.9140  0.2498  0.5503
 4866SOL    HW226235   3.148   1.824   9.056  0.5693  0.5814  2.3925
 4867SOL     OW26236   2.350   3.247   9.284  0.7920  0.0060  0.4686
 4867SOL    HW126237   2.324   3.299   9.360  2.1034 -0.3237  1.1553
 4867SOL    HW226238   2.266   3.231   9.242  0.5920  0.8085  0.5505
 4868SOL     OW26239   3.557   3.071   7.410  0.1057  0.5911  0.6347
 4868SOL    HW126240   3.630   3.033   7.360 -0.3779 -2.3188  2.1000
 4868SOL    HW226241   3.521   2.994   7.454 -1.8529  1.0771 -0.1044
 4869SOL     OW26242   0.933   0.520   5.794 -0.0074 -0.2484  0.6204
 4869SOL    HW126243   1.021   0.528   5.757  0.6563 -1.3069  1.9522
 4869SOL    HW226244   0.955   0.564   5.877 -0.3006 -1.5902  1.4085
 4870SOL     OW26245   0.999   0.354  12.196  0.1252 -0.1520  0.2276
 4870SOL    HW126246   0.987   0.449  12.186 -1.2519 -0.2897  0.5746
 4870SOL    HW226247   0.952   0.319  12.120 -0.3885  0.3399  0.3148
 4871SOL     OW26248   3.402   1.469   8.537  0.4306  0.0102  0.1182
 4871SOL    HW126249   3.418   1.429   8.622 -0.3839 -0.2900  0.1279
 4871SOL    HW226250   3.401   1.389   8.483 -1.4284 -0.8089  1.3596
 4872SOL     OW26251   2.257   3.141  15.252  0.0201  0.4421 -0.1431
 4872SOL    HW126252   2.247   3.198  15.329 -1.2423 -1.5744  1.2065
 4872SOL    HW226253   2.334   3.091  15.279  0.9049  1.6606 -0.3935
 4873SOL     OW26254   0.344   4.419  17.186  0.8367  0.3464  0.1582
 4873SOL    HW126255   0.271   4.477  17.163  0.0455 -0.9694 -0.6789
 4873SOL    HW226256   0.357   4.457  17.273  1.1597  1.2487 -0.2915
 4874SOL     OW26257   4.543   0.123   4.401  0.2025  0.1820  0.3165
 4874SOL    HW126258   4.585   0.088   4.479  1.5786  1.4571  0.1451
 4874SOL    HW226259   4.453   0.092   4.414 -0.3387  0.1620 -3.4569
 4875SOL     OW26260   4.610   0.161   8.822  0.8876  0.1701 -0.5979
 4875SOL    HW126261   4.531   0.193   8.780  0.4706  1.0901  0.8680
 4875SOL    HW226262   4.601   0.220   8.897  0.5558 -0.4038 -0.1878
 4876SOL     OW26263   1.954   1.912  12.959  0.2888 -0.3895 -0.3172
 4876SOL    HW126264   1.984   1.994  12.998  1.7600 -0.9935 -0.1915
 4876SOL    HW226265   1.975   1.914  12.865  0.1707 -0.3265 -0.3429
 4877SOL     OW26266   2.891   0.320  12.371 -0.4159 -0.3745 -0.6453
 4877SOL    HW126267   2.957   0.388  12.361 -0.5707  0.2792  2.7977
 4877SOL    HW226268   2.860   0.330  12.461 -1.0740  0.7762 -0.9923
 4878SOL     OW26269   3.055   4.386  10.004  0.3951  0.0012 -0.2832
 4878SOL    HW126270   3.127   4.432   9.961 -1.2783  2.9242  0.0322
 4878SOL    HW226271   2.983   4.449   9.999  0.2762  0.2129  4.0795
 4879SOL     OW26272   3.558   0.937   8.535 -0.2731  0.4982 -0.6051
 4879SOL    HW126273   3.626   0.900   8.478 -1.0512 -1.1329 -0.4702
 4879SOL    HW226274   3.528   0.856   8.575 -0.1126  0.7838  0.0962
 4880SOL     OW26275   1.189   1.045   3.109 -0.7016 -0.2552  0.0706
 4880SOL    HW126276   1.227   1.108   3.170  0.6044  0.4107 -1.4442
 4880SOL    HW226277   1.269   1.017   3.064 -0.9080  1.0401 -1.1190
 4881SOL     OW26278   1.650   4.529   5.084 -0.3400 -0.4320 -0.0067
 4881SOL    HW126279   1.688   4.617   5.081  1.8945 -1.4665 -1.8148
 4881SOL    HW226280   1.563   4.559   5.113 -0.5482 -1.0810  0.0367
 4882SOL     OW26281   2.645   1.084   3.271  0.2416  0.2781 -0.1888
 4882SOL    HW126282   2.678   1.090   3.181  0.4645 -0.9983 -0.1842
 4882SOL    HW226283   2.717   1.034   3.308 -0.6248 -0.9100 -0.1403
 4883SOL     OW26284   0.675   3.759  10.030 -0.0130  0.7441  0.2737
 4883SOL    HW126285   0.626   3.745  10.110 -2.2806  1.9463 -0.8939
 4883SOL    HW226286   0.765   3.768  10.061 -0.0576  0.1741  0.5613
 4884SOL     OW26287   0.691   1.154   2.705 -0.1572  0.6393  0.1936
 4884SOL    HW126288   0.616   1.104   2.737  0.0391  2.6569  3.8423
 4884SOL    HW226289   0.653   1.230   2.661 -0.5297  1.2405  1.5347
 4885SOL     OW26290   0.904   2.316  16.567  0.2730  0.2120  0.0632
 4885SOL    HW126291   0.945   2.358  16.642  2.9332  0.9679 -1.8245
 4885SOL    HW226292   0.811   2.317  16.591  0.0919 -0.9217 -0.5700
 4886SOL     OW26293   3.834   0.916   4.436 -0.3345  0.0222  0.3527
 4886SOL    HW126294   3.794   0.865   4.506  0.2289 -2.2474 -0.9861
 4886SOL    HW226295   3.917   0.934   4.480 -0.0518  0.5225 -0.3824
 4887SOL     OW26296   2.804   3.486   3.602 -0.7032  0.5583  0.1931
 4887SOL    HW126297   2.763   3.404   3.628 -2.4824  1.2241 -0.5337
 4887SOL    HW226298   2.814   3.480   3.507 -0.9153 -1.9941  0.3289
 4888SOL     OW26299   0.481   2.290   6.274  0.4026 -0.5458 -0.2424
 4888SOL    HW126300   0.484   2.282   6.179 -1.4620 -0.0378 -0.3475
 4888SOL    HW226301   0.386   2.281   6.274  0.3599 -0.1304  0.6199
 4889SOL     OW26302   0.223   0.442   4.114 -0.4833  0.0500 -0.0693
 4889SOL    HW126303   0.251   0.502   4.045 -0.4105  1.5698  1.2916
 4889SOL    HW226304   0.160   0.503   4.152  0.4779  1.0069 -0.0215
 4890SOL     OW26305   3.832   0.817  10.566 -1.0608  0.5447 -0.8295
 4890SOL    HW126306   3.889   0.887  10.535  0.1944  0.7535  1.9576
 4890SOL    HW226307   3.753   0.824  10.513 -0.7790 -1.9586 -1.6249
 4891SOL     OW26308   4.090   0.688   0.009 -0.0140  0.1208  0.0947
 4891SOL    HW126309   4.109   0.781   0.020  0.5442  0.0578 -0.3002
 4891SOL    HW226310   4.170   0.651   0.048  0.4995 -0.1424 -1.2226
 4892SOL     OW26311   3.453   2.857   4.421 -0.6029  0.1100  0.2459
 4892SOL    HW126312   3.404   2.932   4.387  0.6700 -0.4774 -2.8190
 4892SOL    HW226313   3.417   2.845   4.509 -1.7242 -0.6732 -0.3147
 4893SOL     OW26314   0.650   3.756   1.722  0.5233  0.5581 -0.1519
 4893SOL    HW126315   0.595   3.797   1.656 -0.5082  1.1178  1.0598
 4893SOL    HW226316   0.736   3.758   1.680 -0.4005 -3.7486 -2.2674
 4894SOL     OW26317   4.356   3.378   0.132 -0.2673  0.4166  0.0183
 4894SOL    HW126318   4.271   3.412   0.159 -0.8516 -0.5956 -0.5559
 4894SOL    HW226319   4.368   3.448   0.068 -0.2500  0.5914  0.2118
 4895SOL     OW26320   3.681   0.212   7.193 -0.1444 -0.2718 -0.2966
 4895SOL    HW126321   3.648   0.280   7.134  2.0546  0.7652 -0.3313
 4895SOL    HW226322   3.692   0.268   7.270  0.5022 -0.4471 -0.2627
 4896SOL     OW26323   3.705   2.285   5.598  0.0357 -0.3271 -0.0948
 4896SOL    HW126324   3.731   2.375   5.578  1.3430 -0.4921  0.8530
 4896SOL    HW226325   3.783   2.236   5.574  1.7317  0.2963  4.0842
 4897SOL     OW26326   1.520   2.223   5.400  0.2028 -0.0734  0.5168
 4897SOL    HW126327   1.513   2.269   5.484 -0.1001  2.5937 -0.9718
 4897SOL    HW226328   1.609   2.189   5.412  0.8653  1.7929  0.9336
 4898SOL     OW26329   0.481   0.145  17.255  0.5171  0.4677 -0.1887
 4898SOL    HW126330   0.556   0.110  17.304  0.8744  2.5197  0.6896
 4898SOL    HW226331   0.491   0.233  17.290 -3.0194  0.7861 -0.0150
 4899SOL     OW26332   3.940   1.542  15.606  0.1227 -0.2789 -0.4260
 4899SOL    HW126333   4.028   1.515  15.579  0.2987 -0.5743  0.4232
 4899SOL    HW226334   3.955   1.568  15.697 -0.7597  0.6971 -0.5647
 4900SOL     OW26335   1.111   2.308   9.836 -0.2263 -0.1292 -0.8084
 4900SOL    HW126336   1.150   2.301   9.923 -0.7733  0.3756 -0.5269
 4900SOL    HW226337   1.023   2.338   9.855 -0.0162  0.8162 -1.3015
 4901SOL     OW26338   0.951   1.967   4.302 -0.3944 -0.0870 -0.7682
 4901SOL    HW126339   0.876   1.915   4.273  0.9953 -1.5371 -1.7655
 4901SOL    HW226340   0.946   2.041   4.241 -1.8615  0.9910  0.6701
 4902SOL     OW26341   2.666   3.363   5.711  0.5630  0.4544  0.4331
 4902SOL    HW126342   2.663   3.277   5.669  3.7702  0.4352  0.3104
 4902SOL    HW226343   2.625   3.418   5.644 -2.0746 -2.5795 -0.4714
 4903SOL     OW26344   3.590   2.574   7.434  0.1834  0.3427  0.3190
 4903SOL    HW126345   3.651   2.616   7.373 -1.0013 -0.6255 -1.5373
 4903SOL    HW226346   3.641   2.577   7.514  0.9239 -1.2647 -0.0986
 4904SOL     OW26347   1.771   0.769   1.600  0.0150  0.0090  0.0675
 4904SOL    HW126348   1.704   0.718   1.645 -0.2161 -0.3404 -0.6705
 4904SOL    HW226349   1.745   0.758   1.508  0.0045  2.3811 -0.2154
 4905SOL     OW26350   4.111   0.945   6.525 -0.0171 -0.4871 -0.0468
 4905SOL    HW126351   4.098   1.038   6.542  0.6641 -0.4077  0.0209
 4905SOL    HW226352   4.164   0.944   6.445  1.7471 -0.7015  1.1261
 4906SOL     OW26353   3.593   2.932   5.413  0.3542  0.7240 -0.0261
 4906SOL    HW126354   3.651   3.003   5.440  1.2662 -0.9286  2.4261
 4906SOL    HW226355   3.549   2.969   5.337 -0.5862 -0.2431  0.0464
 4907SOL     OW26356   1.649   3.462   5.790 -0.0798 -0.1892  0.1931
 4907SOL    HW126357   1.685   3.445   5.877 -0.3789  0.4430  0.4424
 4907SOL    HW226358   1.558   3.472   5.817 -0.6262 -1.7778 -1.0275
 4908SOL     OW26359   2.332   1.088   9.156  0.3567  0.8156 -0.5088
 4908SOL    HW126360   2.343   1.163   9.214 -0.3893  0.2408  0.3603
 4908SOL    HW226361   2.255   1.119   9.107 -0.1044  0.0896 -0.2387
 4909SOL     OW26362   4.308   4.032   5.159 -0.1451 -0.4574 -0.7399
 4909SOL    HW126363   4.390   3.994   5.192  1.1827 -0.0005 -3.5226
 4909SOL    HW226364   4.260   3.950   5.163 -0.0596 -0.3228  2.6586
 4910SOL     OW26365   3.167   2.280   4.858 -0.0378 -0.5944  0.2007
 4910SOL    HW126366   3.148   2.214   4.791 -4.7539  1.2669 -0.2504
 4910SOL    HW226367   3.187   2.218   4.928 -1.6254  0.6277  1.7316
 4911SOL     OW26368   3.554   2.723  16.094  0.2935  0.4967 -0.0002
 4911SOL    HW126369   3.529   2.688  16.180  0.5664 -0.5302 -0.3418
 4911SOL    HW226370   3.626   2.782  16.115  0.1980  0.1807  1.1908
 4912SOL     OW26371   3.782   0.357  16.367 -0.1940 -0.6543 -0.1995
 4912SOL    HW126372   3.733   0.428  16.410 -1.9167 -0.2986 -2.7652
 4912SOL    HW226373   3.849   0.405  16.318 -1.4840  0.0329 -1.3057
 4913SOL     OW26374   3.875   3.891  14.986  0.5334  0.0709 -0.3563
 4913SOL    HW126375   3.924   3.957  15.034 -0.4778  1.8795 -1.8221
 4913SOL    HW226376   3.865   3.936  14.902  0.2315 -0.9094 -0.8562
 4914SOL     OW26377   2.211   4.420   4.704  0.1659 -0.2952  0.2979
 4914SOL    HW126378   2.232   4.462   4.787  1.2333  0.2236 -0.2383
 4914SOL    HW226379   2.148   4.481   4.665 -0.0254 -1.1133 -0.6859
 4915SOL     OW26380   1.235   1.989  13.258  0.2632 -0.0815  0.7914
 4915SOL    HW126381   1.277   1.904  13.252 -1.4312 -0.7594 -1.4869
 4915SOL    HW226382   1.257   2.018  13.170  1.0592  0.8933  1.3127
 4916SOL     OW26383   4.465   2.001   8.317  0.3349 -0.0793 -0.0157
 4916SOL    HW126384   4.397   2.033   8.258  1.2952 -0.0978 -1.1122
 4916SOL    HW226385   4.442   1.908   8.321 -1.6704  0.4118 -0.2587
 4917SOL     OW26386   1.110   3.978   0.327 -0.1302 -0.0033  0.4023
 4917SOL    HW126387   1.184   4.018   0.281 -0.4438  0.2113  0.0964
 4917SOL    HW226388   1.045   4.015   0.268  0.3059 -2.8001 -1.8306
 4918SOL     OW26389   3.936   1.833   5.097 -0.0143  0.8634 -0.0343
 4918SOL    HW126390   3.896   1.753   5.063 -3.2125  2.4738 -0.0460
 4918SOL    HW226391   3.906   1.898   5.033 -1.5093  0.6020  0.4112
 4919SOL     OW26392   3.979   2.773   5.074 -0.3763  0.0274 -1.0083
 4919SOL    HW126393   4.051   2.718   5.044  0.2897 -0.7202  1.9647
 4919SOL    HW226394   3.963   2.744   5.164  0.3647 -0.8688 -1.1640
 4920SOL     OW26395   1.427   4.267  16.836  0.0263  0.2979 -0.6371
 4920SOL    HW126396   1.498   4.254  16.899 -0.3117  0.2879 -0.2628
 4920SOL    HW226397   1.338   4.248  16.864  0.6587 -0.7571  0.6346
 4921SOL     OW26398   1.931   0.659  12.401 -0.4835 -0.1287 -0.0156
 4921SOL    HW126399   1.947   0.603  12.477  0.4953  1.0765  0.6530
 4921SOL    HW226400   1.883   0.608  12.335  0.8272 -0.9412 -0.3700
 4922SOL     OW26401   4.250   2.444   2.457  0.1887  0.0083 -0.0603
 4922SOL    HW126402   4.298   2.508   2.509 -0.5732  0.1006  0.5146
 4922SOL    HW226403   4.301   2.439   2.376 -0.3154 -3.8369 -0.1542
 4923SOL     OW26404   1.218   3.662   6.593  0.5867 -0.7506  0.5699
 4923SOL    HW126405   1.164   3.653   6.514 -0.4545  1.6099  1.0271
 4923SOL    HW226406   1.180   3.744   6.624  1.2101  0.3860 -1.6325
 4924SOL     OW26407   0.054   0.804  17.283 -0.1905  0.7192  0.8280
 4924SOL    HW126408   4.709   0.795  17.330 -0.1503 -0.8862  0.6052
 4924SOL    HW226409   0.042   0.730  17.223 -0.3763  0.6066  1.0078
 4925SOL     OW26410   1.851   0.509   5.596  0.2760 -0.4237  0.1529
 4925SOL    HW126411   1.926   0.455   5.621  1.2949  0.7053 -0.4976
 4925SOL    HW226412   1.846   0.558   5.677  1.1300  2.4942 -1.5651
 4926SOL     OW26413   4.362   4.507   0.747  0.1034  0.2968  0.6531
 4926SOL    HW126414   4.323   4.426   0.715  0.9473  0.1557 -0.0320
 4926SOL    HW226415   4.347   4.491   0.840 -0.2046 -0.4487  0.4714
 4927SOL     OW26416   1.298   3.479   5.288  0.2643 -0.3283 -0.7001
 4927SOL    HW126417   1.354   3.408   5.318 -0.0117 -1.0235 -1.8543
 4927SOL    HW226418   1.258   3.499   5.373 -0.7716 -0.8200 -1.0774
 4928SOL     OW26419   1.214   3.727   7.028 -0.8116 -0.4750  0.5611
 4928SOL    HW126420   1.282   3.772   6.977 -0.2384  0.4440  2.1555
 4928SOL    HW226421   1.258   3.643   7.041  0.3727  0.3427  1.7640
 4929SOL     OW26422   1.956   4.490   3.167  0.5727 -0.2461 -0.8208
 4929SOL    HW126423   1.865   4.470   3.146 -0.6661  1.3400  2.9742
 4929SOL    HW226424   1.954   4.502   3.262 -2.5883  1.9926 -1.1647
 4930SOL     OW26425   1.017   1.432   5.884  0.3687 -0.6234 -0.0865
 4930SOL    HW126426   1.016   1.459   5.793 -1.6534 -0.1048  0.0867
 4930SOL    HW226427   1.073   1.499   5.924 -0.5583  0.1376 -0.0633
 4931SOL     OW26428   0.698   3.682   6.190 -0.3400 -0.0619 -0.0818
 4931SOL    HW126429   0.693   3.589   6.168  1.0926 -0.1829  0.1272
 4931SOL    HW226430   0.715   3.685   6.284 -2.3696 -1.3359  0.3137
 4932SOL     OW26431   3.312   3.475  16.988 -0.5995  0.1705 -0.0538
 4932SOL    HW126432   3.279   3.391  17.020 -0.2027 -0.0193 -0.1547
 4932SOL    HW226433   3.299   3.459  16.895  0.5192  0.7779 -0.3101
 4933SOL     OW26434   3.569   3.056   7.990 -0.4349  0.1759 -0.5913
 4933SOL    HW126435   3.548   3.114   7.917  0.4836  1.3815  0.0981
 4933SOL    HW226436   3.508   2.985   7.973 -0.7038  0.7294 -1.9802
 4934SOL     OW26437   0.628   3.336   6.468 -0.3101 -0.1442  0.4222
 4934SOL    HW126438   0.536   3.364   6.467 -0.1670  0.3134  0.0666
 4934SOL    HW226439   0.619   3.246   6.436 -1.5705 -0.0947  0.6331
 4935SOL     OW26440   2.304   0.325   4.088  0.2279 -0.0480  0.2213
 4935SOL    HW126441   2.269   0.287   4.007  1.7778  0.4209 -0.6615
 4935SOL    HW226442   2.340   0.411   4.068  1.4174 -0.4051  0.8278
 4936SOL     OW26443   0.885   4.353   2.316  0.0141 -0.0486 -0.2236
 4936SOL    HW126444   0.976   4.345   2.286 -0.2696 -5.3296  0.3287
 4936SOL    HW226445   0.877   4.448   2.316  1.2671  0.0620  0.3480
 4937SOL     OW26446   1.748   2.254   2.757 -0.0785  0.9088  0.2081
 4937SOL    HW126447   1.670   2.294   2.797  0.2323  1.2431  0.4755
 4937SOL    HW226448   1.738   2.292   2.669  1.1884  0.7533  0.0070
 4938SOL     OW26449   1.244   3.927   5.756  0.0758 -0.3463 -0.2734
 4938SOL    HW126450   1.220   3.985   5.828 -1.0509  0.9370 -1.6818
 4938SOL    HW226451   1.340   3.933   5.760  0.0510  0.7765 -1.5665
 4939SOL     OW26452   0.966   4.400  16.740 -0.2873  0.1560 -0.6700
 4939SOL    HW126453   1.054   4.385  16.706 -0.5541 -0.8405 -0.9177
 4939SOL    HW226454   0.911   4.328  16.709  1.2080 -2.5574  2.9643
 4940SOL     OW26455   3.655   0.512   8.139  0.0293 -0.4920 -0.2710
 4940SOL    HW126456   3.735   0.521   8.087  1.0800  1.0891  1.6417
 4940SOL    HW226457   3.580   0.501   8.080  0.5072  0.3650 -1.0343
 4941SOL     OW26458   4.720   0.470  16.609 -0.0543 -0.1901 -0.1486
 4941SOL    HW126459   4.657   0.528  16.652  1.1714  1.0146  0.0190
 4941SOL    HW226460   4.690   0.458  16.519  0.2760  1.1319 -0.4251
 4942SOL     OW26461   1.052   1.755   0.837 -0.0947 -0.6731  0.6165
 4942SOL    HW126462   1.111   1.796   0.775  0.5543 -2.4699  0.0379
 4942SOL    HW226463   1.076   1.812   0.910  0.8928  1.3240 -1.2777
 4943SOL     OW26464   1.640   2.590   2.391  0.0290  0.1047 -0.8546
 4943SOL    HW126465   1.586   2.512   2.399  1.7986 -1.0840 -0.4023
 4943SOL    HW226466   1.685   2.566   2.310  0.5485 -0.8394 -0.2969
 4944SOL     OW26467   2.680   0.353   4.033  0.6084  0.6268 -0.1580
 4944SOL    HW126468   2.655   0.433   3.987 -0.8408 -0.5868 -1.4928
 4944SOL    HW226469   2.621   0.361   4.108 -1.4849  3.6767 -2.1121
 4945SOL     OW26470   2.538   1.116   7.708  0.3384  0.4538  0.2952
 4945SOL    HW126471   2.569   1.205   7.723  0.8427  0.0952  1.3812
 4945SOL    HW226472   2.445   1.130   7.723  0.1708 -0.3447  0.0011
 4946SOL     OW26473   0.123   0.124   5.897 -0.1652  0.1178 -0.1041
 4946SOL    HW126474   0.132   0.101   5.805  1.3468 -1.0613  0.3415
 4946SOL    HW226475   0.194   0.187   5.908 -1.4339  1.3703  1.0234
 4947SOL     OW26476   0.164   0.434   5.304 -0.6770  0.1938 -0.3502
 4947SOL    HW126477   0.256   0.413   5.321 -0.9268  0.2844  1.0815
 4947SOL    HW226478   0.141   0.502   5.368 -1.5866 -1.1865  0.7928
 4948SOL     OW26479   0.499   2.429  11.354 -0.4777 -0.6209 -0.5117
 4948SOL    HW126480   0.454   2.512  11.371 -0.1368 -0.4705 -0.3444
 4948SOL    HW226481   0.449   2.404  11.277 -0.4891 -0.7440 -0.4642
 4949SOL     OW26482   1.640   1.352   4.125 -0.0437 -0.1104  0.1052
 4949SOL    HW126483   1.604   1.389   4.044 -1.8442 -1.0886  0.4787
 4949SOL    HW226484   1.664   1.264   4.096 -0.7373 -0.1730 -0.2767
 4950SOL     OW26485   2.128   3.676   9.687  0.1121  0.0689  0.0134
 4950SOL    HW126486   2.055   3.736   9.699 -0.4956 -0.8566  0.8838
 4950SOL    HW226487   2.081   3.601   9.651 -1.6845  0.9530  0.5317
 4951SOL     OW26488   3.528   3.394   5.493 -0.4267  0.8020 -0.2413
 4951SOL    HW126489   3.486   3.353   5.569  0.4954 -0.6569 -0.5168
 4951SOL    HW226490   3.466   3.396   5.420 -1.1351  0.1419  0.3484
 4952SOL     OW26491   2.811   2.985  14.233  0.5895 -0.3611 -0.2902
 4952SOL    HW126492   2.798   3.025  14.146  0.9685  0.5549  0.0697
 4952SOL    HW226493   2.854   2.902  14.214  0.1060 -0.6623 -0.0584
 4953SOL     OW26494   0.071   2.416  16.201  0.0752  0.3651  0.1598
 4953SOL    HW126495   0.136   2.471  16.157 -0.2193 -0.4629 -1.3202
 4953SOL    HW226496   0.089   2.455  16.287 -3.4819  0.0196  1.0628
 4954SOL     OW26497   0.259   4.637   3.260  0.2063 -0.3436  0.2820
 4954SOL    HW126498   0.190   4.580   3.225  1.0037 -0.5207 -0.9845
 4954SOL    HW226499   0.219   4.723   3.256 -1.1436 -1.0428 -1.3655
 4955SOL     OW26500   0.300   0.605   7.077 -0.8055  0.3055  0.4240
 4955SOL    HW126501   0.226   0.662   7.098 -1.5675 -0.2814 -0.6498
 4955SOL    HW226502   0.260   0.528   7.115 -2.5685  0.6777 -0.6804
 4956SOL     OW26503   0.078   3.027   7.757  0.0328  0.2184  0.0537
 4956SOL    HW126504   0.083   2.967   7.683  0.6600  2.1084 -1.4405
 4956SOL    HW226505   0.014   3.093   7.729  1.8148  2.3098  0.8935
 4957SOL     OW26506   1.163   1.205  15.559  0.8124  0.2311 -0.3834
 4957SOL    HW126507   1.129   1.276  15.614 -0.8315  1.1501 -2.6142
 4957SOL    HW226508   1.123   1.225  15.475  1.7494  1.9723 -0.4318
 4958SOL     OW26509   0.275   1.302   2.999  0.7319  0.0765  0.2784
 4958SOL    HW126510   0.194   1.257   2.976 -0.7423  2.2207  1.4336
 4958SOL    HW226511   0.286   1.359   2.923 -0.2880  3.1104  2.4680
 4959SOL     OW26512   1.803   1.163   2.213  0.3636  0.5251  0.1713
 4959SOL    HW126513   1.740   1.139   2.282  0.6147  0.1522  0.2738
 4959SOL    HW226514   1.757   1.222   2.154 -1.3562 -2.5500 -1.5775
 4960SOL     OW26515   2.101   1.219   8.984  0.3275  0.2852  0.5140
 4960SOL    HW126516   2.041   1.267   8.928  0.7733 -2.4068 -2.2841
 4960SOL    HW226517   2.175   1.228   8.925  0.1756 -0.3682  0.2154
 4961SOL     OW26518   4.392   0.305   5.075  0.6602  0.1719  0.5424
 4961SOL    HW126519   4.383   0.237   5.008  0.9745  2.6066 -1.9691
 4961SOL    HW226520   4.439   0.366   5.019  0.0602  1.6430  1.6467
 4962SOL     OW26521   0.903   4.594   2.625  0.0593 -0.3404  0.7409
 4962SOL    HW126522   0.919   4.688   2.622  1.6946 -0.6246  0.5571
 4962SOL    HW226523   0.810   4.585   2.603 -0.4106  0.0519  2.5866
 4963SOL     OW26524   2.550   4.701   6.961  0.0557  0.3454  0.4417
 4963SOL    HW126525   2.640   4.716   6.989 -0.1480  2.8082 -0.2602
 4963SOL    HW226526   2.545   0.026   6.889  0.6795  0.7992  0.7853
 4964SOL     OW26527   4.717   4.733   6.976  0.4052 -0.0071  0.7517
 4964SOL    HW126528   4.701   4.638   6.972  1.3257 -0.1202 -0.3753
 4964SOL    HW226529   4.630   0.035   6.977  0.0716 -0.7325  0.3108
 4965SOL     OW26530   3.253   1.664   7.384  0.1682 -0.7794  0.3179
 4965SOL    HW126531   3.213   1.664   7.471 -0.5451  0.7113 -0.0048
 4965SOL    HW226532   3.342   1.634   7.403  1.1047 -0.0314 -2.7893
 4966SOL     OW26533   0.067   2.891  11.545 -0.1524  0.7383 -0.0787
 4966SOL    HW126534   0.143   2.838  11.570 -1.2561  0.7472  3.3115
 4966SOL    HW226535   0.113   2.965  11.507 -1.6986  1.8347  0.1698
 4967SOL     OW26536   0.053   2.137   1.728  0.4041 -0.5473 -0.2265
 4967SOL    HW126537   0.032   2.063   1.672 -1.1615 -1.3934  1.4541
 4967SOL    HW226538   4.707   2.181   1.746  0.3510 -0.6388 -0.2491
 4968SOL     OW26539   1.133   3.561   8.899 -0.1514 -0.2912  0.5365
 4968SOL    HW126540   1.223   3.579   8.871  0.0539  1.8388  2.5528
 4968SOL    HW226541   1.125   3.465   8.897 -0.2040 -0.2807  0.2889
 4969SOL     OW26542   4.145   3.924  13.985  0.8204 -0.0642 -0.2005
 4969SOL    HW126543   4.215   3.908  14.047 -0.4417 -1.1148  0.9554
 4969SOL    HW226544   4.087   3.850  14.002 -0.5581  0.7062 -1.5494
 4970SOL     OW26545   0.032   4.294  10.145 -0.2726 -0.1187  0.1008
 4970SOL    HW126546   4.694   4.333  10.100  1.5300  1.9472 -1.0947
 4970SOL    HW226547   4.728   4.223  10.194  1.8275 -0.8858  0.7192
 4971SOL     OW26548   4.446   3.787  13.928 -0.1812 -0.0985  0.3770
 4971SOL    HW126549   4.427   3.792  14.022 -0.3124 -0.5515  0.3754
 4971SOL    HW226550   4.538   3.760  13.920 -0.1542  0.8036 -2.1526
 4972SOL     OW26551   4.362   0.370   1.689 -0.6772 -0.1675  0.4502
 4972SOL    HW126552   4.454   0.372   1.663 -0.9585  0.4975 -0.5110
 4972SOL    HW226553   4.340   0.288   1.645 -0.4724  0.8324 -1.5204
 4973SOL     OW26554   3.777   4.359   4.765  0.5372  0.1142  0.0487
 4973SOL    HW126555   3.803   4.350   4.857 -0.2250  0.4329  0.2915
 4973SOL    HW226556   3.857   4.391   4.724 -1.9640  2.0070 -3.3187
 4974SOL     OW26557   0.549   3.784   3.711  0.4719 -0.0364 -0.6967
 4974SOL    HW126558   0.544   3.855   3.647 -0.6837 -0.6053 -1.2514
 4974SOL    HW226559   0.497   3.721   3.661 -1.0168  0.8718 -0.2910
 4975SOL     OW26560   1.779   4.172   2.138  0.1264  0.8116  1.2265
 4975SOL    HW126561   1.796   4.131   2.054  5.2044 -0.3275  2.7818
 4975SOL    HW226562   1.871   4.172   2.166  0.3800 -3.0926  0.2783
 4976SOL     OW26563   2.650   3.275  12.946  0.1690 -0.0291  0.5800
 4976SOL    HW126564   2.688   3.193  12.975  1.7512  0.0834 -1.1167
 4976SOL    HW226565   2.561   3.245  12.929  0.4717 -0.1589 -0.7856
 4977SOL     OW26566   0.167   0.630   7.619  0.4045  0.0140 -0.3623
 4977SOL    HW126567   0.138   0.715   7.586  0.5952  0.7399  1.3423
 4977SOL    HW226568   0.259   0.653   7.631 -0.2858  3.2790 -1.2722
 4978SOL     OW26569   2.547   1.224   4.500  0.5085  0.2844 -0.2619
 4978SOL    HW126570   2.583   1.236   4.587 -0.3557 -1.8891  0.4011
 4978SOL    HW226571   2.556   1.129   4.489 -1.1446  0.4966 -3.6185
 4979SOL     OW26572   2.879   3.484   5.405  0.0134 -0.4294 -0.0880
 4979SOL    HW126573   2.835   3.407   5.368  1.0142 -1.4485  0.8346
 4979SOL    HW226574   2.953   3.448   5.455 -0.1939 -0.5416  0.1362
 4980SOL     OW26575   0.035   0.337   8.695  0.1225  0.6048 -0.2371
 4980SOL    HW126576   0.005   0.246   8.696 -0.1634  0.7294  1.8413
 4980SOL    HW226577   0.009   0.373   8.610 -0.9955  0.8115  0.1913
 4981SOL     OW26578   4.681   0.213   5.325  0.1624 -0.1345 -0.1366
 4981SOL    HW126579   4.661   0.236   5.415 -2.9693 -0.9612 -0.6043
 4981SOL    HW226580   0.001   0.289   5.316  2.3614 -1.7741  0.2127
 4982SOL     OW26581   3.370   2.304   2.108  0.0552 -0.0703 -0.7198
 4982SOL    HW126582   3.461   2.285   2.131  0.1477  0.5512 -0.5652
 4982SOL    HW226583   3.330   2.332   2.190  1.6563 -0.1992  0.1068
 4983SOL     OW26584   2.819   2.461  13.310  0.3638 -0.6681 -0.6558
 4983SOL    HW126585   2.901   2.511  13.318  0.9344 -1.7078 -0.1084
 4983SOL    HW226586   2.858   2.374  13.311  3.0526  0.5428 -0.7630
 4984SOL     OW26587   3.866   0.106   6.124  0.4697 -0.9510 -0.0888
 4984SOL    HW126588   3.894   0.196   6.142  1.1603 -1.2617  0.3841
 4984SOL    HW226589   3.771   0.115   6.127  0.8414  2.3250  1.9709
 4985SOL     OW26590   1.556   0.948   4.038 -0.1104  0.2249 -0.5168
 4985SOL    HW126591   1.496   1.006   3.991  1.0146  1.9984  0.2119
 4985SOL    HW226592   1.500   0.870   4.042  0.6493 -0.3729 -1.6571
 4986SOL     OW26593   0.029   2.541   2.316  0.2035  0.1478 -0.5494
 4986SOL    HW126594   0.052   2.628   2.284 -1.7620  1.1081  0.6772
 4986SOL    HW226595   0.030   2.498   2.231 -0.8880 -1.9464  0.4809
 4987SOL     OW26596   4.126   1.089   1.056  0.2350  0.3476  0.0529
 4987SOL    HW126597   4.116   1.184   1.068  0.2954  0.1869  1.4304
 4987SOL    HW226598   4.118   1.055   1.145  1.0611  0.7354  0.2744
 4988SOL     OW26599   4.258   0.947   8.648 -0.1813  0.0689 -0.0060
 4988SOL    HW126600   4.261   1.028   8.596  0.2300 -0.2504 -0.4897
 4988SOL    HW226601   4.255   0.881   8.579  0.9768  0.4654 -0.4427
 4989SOL     OW26602   4.203   1.197   8.019 -0.0866 -1.0638 -0.3345
 4989SOL    HW126603   4.257   1.213   8.096 -0.5219  0.1966 -0.3061
 4989SOL    HW226604   4.171   1.109   8.043 -0.1745 -0.5375  1.4556
 4990SOL     OW26605   3.815   2.739  12.958  0.3132 -0.6420  0.0531
 4990SOL    HW126606   3.909   2.759  12.962 -0.0132  0.8411  0.2205
 4990SOL    HW226607   3.812   2.651  12.997  1.1685 -0.4323  0.6099
 4991SOL     OW26608   4.097   0.754   4.019  0.2756 -0.0439 -0.0212
 4991SOL    HW126609   4.147   0.683   4.060  1.0372 -0.7895 -2.2535
 4991SOL    HW226610   4.164   0.823   4.021 -2.0071  2.1356  0.5690
 4992SOL     OW26611   3.231   2.183   7.441 -0.3930 -0.1572 -0.3286
 4992SOL    HW126612   3.241   2.213   7.351 -0.4981 -2.2800 -1.0429
 4992SOL    HW226613   3.309   2.231   7.469 -0.3355 -1.2783  1.4853
 4993SOL     OW26614   1.099   2.714   5.746 -0.1924 -0.8408  0.3543
 4993SOL    HW126615   1.121   2.791   5.797 -1.6765 -1.1504  1.4819
 4993SOL    HW226616   1.188   2.697   5.717  0.3278 -0.7009  1.8987
 4994SOL     OW26617   0.163   3.630   8.115  0.2525  0.7698 -0.7276
 4994SOL    HW126618   0.220   3.582   8.176 -0.2456  1.1645  0.0401
 4994SOL    HW226619   0.133   3.698   8.175 -0.9876  0.7620 -1.3474
 4995SOL     OW26620   2.627   0.085   3.941 -0.3497 -0.2842 -0.0847
 4995SOL    HW126621   2.648   0.174   3.969  0.8099 -0.5860 -0.0171
 4995SOL    HW226622   2.623   0.034   4.022 -1.9516 -1.7837 -1.0751
 4996SOL     OW26623   2.510   1.263   4.219 -0.1318  0.0878 -0.6839
 4996SOL    HW126624   2.538   1.266   4.311 -2.2807 -2.1524  0.0362
 4996SOL    HW226625   2.568   1.196   4.182  0.5725  1.1857 -1.5579
 4997SOL     OW26626   1.566   2.774   9.397  0.0180 -0.4006 -0.2435
 4997SOL    HW126627   1.564   2.847   9.459 -1.8634  1.3397 -2.3474
 4997SOL    HW226628   1.484   2.726   9.414 -1.1270  1.6439 -0.0172
 4998SOL     OW26629   4.643   4.000   2.721  0.3918  0.2694  0.4514
 4998SOL    HW126630   4.693   3.923   2.749 -2.7484 -1.7239  0.5169
 4998SOL    HW226631   4.585   3.958   2.658 -0.4708  2.5237 -0.2551
 4999SOL     OW26632   2.097   3.582   3.880  0.0363 -0.3638 -0.2585
 4999SOL    HW126633   2.066   3.501   3.838  1.4304 -1.0959  0.1100
 4999SOL    HW226634   2.029   3.596   3.945 -1.1619 -0.1743 -1.5456
 5000SOL     OW26635   0.096   0.047  14.270 -0.3149  0.4187  0.8693
 5000SOL    HW126636   0.090   4.713  14.205 -0.8916  1.3900 -0.1448
 5000SOL    HW226637   0.004   0.071  14.283 -0.3915  1.0870 -0.9051
 5001SOL     OW26638   1.343   4.063   9.344  0.1999  0.0780  0.0339
 5001SOL    HW126639   1.345   4.028   9.433  1.2908  0.1247  0.0257
 5001SOL    HW226640   1.437   4.064   9.325 -0.1394 -0.8081 -1.7184
 5002SOL     OW26641   0.167   2.511  14.746  0.4749  0.1610  1.0245
 5002SOL    HW126642   0.103   2.442  14.729 -2.0433  2.7447 -0.1338
 5002SOL    HW226643   0.248   2.474  14.711  0.8284 -0.7482  2.7870
 5003SOL     OW26644   3.041   1.974   5.218  0.6707 -0.0417 -0.2005
 5003SOL    HW126645   3.020   2.017   5.301  0.2867  0.3953 -0.5243
 5003SOL    HW226646   2.981   1.900   5.221  0.2496  0.3523  1.0154
 5004SOL     OW26647   3.167   0.079   7.014 -0.1253 -0.4609 -0.3012
 5004SOL    HW126648   3.206   0.078   7.102 -1.9236 -2.9426  0.4894
 5004SOL    HW226649   3.078   0.102   7.042  0.0541  1.2185 -1.1443
 5005SOL     OW26650   0.290   3.184   5.490 -0.4159  0.2256  0.5193
 5005SOL    HW126651   0.287   3.234   5.571  2.2370 -1.3893  1.6099
 5005SOL    HW226652   0.200   3.195   5.459 -0.4188  2.7169  1.4169
 5006SOL     OW26653   3.929   3.596   4.878  0.3539  0.1023  0.2091
 5006SOL    HW126654   3.952   3.614   4.969 -0.9120  1.0959  0.3263
 5006SOL    HW226655   3.999   3.647   4.837 -0.5282  1.3180  0.2254
 5007SOL     OW26656   1.597   1.938   3.576 -0.5377  0.6061 -1.0654
 5007SOL    HW126657   1.643   1.956   3.659  2.6339  0.9202 -2.8765
 5007SOL    HW226658   1.538   2.013   3.568 -1.0324  0.4898  1.3411
 5008SOL     OW26659   1.469   0.227   5.052 -0.0535  0.2602 -0.3720
 5008SOL    HW126660   1.533   0.205   5.119  0.7793  1.0820 -0.8872
 5008SOL    HW226661   1.395   0.251   5.107 -0.6014  0.2574 -1.1003
 5009SOL     OW26662   1.640   3.526   2.603  0.3918 -0.3858  0.3731
 5009SOL    HW126663   1.576   3.455   2.610  0.3849 -0.2903  1.3354
 5009SOL    HW226664   1.708   3.485   2.550  1.5845  0.6589  1.0798
 5010SOL     OW26665   0.507   2.048  13.010 -0.3794  0.0229  0.3347
 5010SOL    HW126666   0.442   1.993  12.966  0.4612  0.6285 -1.7038
 5010SOL    HW226667   0.459   2.126  13.038  1.2478  1.2348 -0.2888
 5011SOL     OW26668   0.189   0.472  16.128  0.1154 -0.2698 -0.0766
 5011SOL    HW126669   0.200   0.458  16.222 -1.4586  0.5344  0.2248
 5011SOL    HW226670   0.108   0.523  16.124  1.3791  1.9395  2.7068
 5012SOL     OW26671   2.631   1.705  15.059 -0.3764 -0.6070  0.3956
 5012SOL    HW126672   2.648   1.640  14.991  2.6608 -0.0220  0.6108
 5012SOL    HW226673   2.638   1.650  15.137 -1.4645 -0.9943  0.2295
 5013SOL     OW26674   3.314   3.355   2.122 -0.1349  0.0547 -0.0425
 5013SOL    HW126675   3.292   3.447   2.105 -0.6453  0.2705  1.7420
 5013SOL    HW226676   3.396   3.365   2.170  0.4505 -1.0639 -0.8308
 5014SOL     OW26677   3.819   1.735  13.420  0.0559  0.4416  0.3501
 5014SOL    HW126678   3.861   1.654  13.448  0.6293  0.2696 -1.0044
 5014SOL    HW226679   3.875   1.806  13.450 -1.0812  2.4161 -2.2281
 5015SOL     OW26680   4.119   1.550  17.057  0.0583  0.1792  0.5973
 5015SOL    HW126681   4.043   1.511  17.014 -0.3480  1.3038  0.2994
 5015SOL    HW226682   4.074   1.603  17.122  1.4618  0.3832  1.4081
 5016SOL     OW26683   3.938   0.970   3.989  0.0874  0.0887  0.1998
 5016SOL    HW126684   3.986   0.891   3.961  0.2503  0.8571 -1.7101
 5016SOL    HW226685   3.915   0.939   4.077 -1.4298  1.0527  0.1263
 5017SOL     OW26686   1.917   2.930   8.052  0.1531 -0.6274  0.3128
 5017SOL    HW126687   1.940   3.023   8.050  2.3025 -1.1674  0.0682
 5017SOL    HW226688   2.000   2.892   8.081  2.2612  3.1485 -0.8496
 5018SOL     OW26689   2.927   0.563   7.297  0.5147 -0.2393  0.3280
 5018SOL    HW126690   2.860   0.609   7.246  1.7299  1.0521 -0.1120
 5018SOL    HW226691   3.008   0.608   7.273  0.0404 -0.6857 -2.0812
 5019SOL     OW26692   3.560   2.723  11.223  0.1961 -0.5098 -0.1105
 5019SOL    HW126693   3.646   2.765  11.222  1.0369 -2.3537 -3.7661
 5019SOL    HW226694   3.499   2.786  11.263  0.3581 -1.8658  2.2902
 5020SOL     OW26695   3.756   4.316  13.272 -0.0256  0.4058  0.1618
 5020SOL    HW126696   3.733   4.224  13.258  0.4720  0.3854 -0.4773
 5020SOL    HW226697   3.824   4.316  13.339 -0.0951  1.3948  0.2383
 5021SOL     OW26698   1.964   3.648   0.224  0.3707 -0.1788  0.1926
 5021SOL    HW126699   1.907   3.694   0.164  2.4438  1.0106 -0.8522
 5021SOL    HW226700   2.008   3.592   0.161  0.8980 -0.8564  1.1502
 5022SOL     OW26701   3.845   3.900   2.620 -0.5796 -0.6207 -0.2190
 5022SOL    HW126702   3.865   3.808   2.601  1.8634  0.0293 -0.8281
 5022SOL    HW226703   3.840   3.904   2.715  2.4856 -0.5257 -0.0516
 5023SOL     OW26704   2.861   0.024  12.287  0.1785  0.5322 -0.1513
 5023SOL    HW126705   2.854   4.670  12.316 -1.5366  0.2257 -1.5312
 5023SOL    HW226706   2.933   0.054  12.342 -0.2297  0.6321  0.3413
 5024SOL     OW26707   1.477   4.692   4.866  0.1984  0.6911 -0.3328
 5024SOL    HW126708   1.463   0.040   4.906  0.1797  1.2967 -1.6306
 5024SOL    HW226709   1.426   4.636   4.925  0.1736 -0.3018 -1.2837
 5025SOL     OW26710   0.159   4.469   3.608 -0.0504  0.3648 -0.7888
 5025SOL    HW126711   0.091   4.514   3.658 -0.5938 -1.5645  0.2067
 5025SOL    HW226712   0.241   4.465   3.657  0.0242  1.0413 -0.8649
 5026SOL     OW26713   1.151   4.089  16.424  1.0051 -0.0121  0.1913
 5026SOL    HW126714   1.142   4.010  16.478  1.1848  0.7300  1.3172
 5026SOL    HW226715   1.188   4.141  16.496  1.1703 -1.1272  0.9002
 5027SOL     OW26716   2.474   1.565   8.359  0.0920 -0.1340 -0.4236
 5027SOL    HW126717   2.446   1.623   8.289  0.1483 -0.0729 -0.3958
 5027SOL    HW226718   2.499   1.624   8.430 -1.4739 -0.3483  0.3125
 5028SOL     OW26719   2.959   0.312   2.749 -0.3406 -0.1885  0.0967
 5028SOL    HW126720   2.990   0.385   2.695 -1.9297 -0.0050 -0.5619
 5028SOL    HW226721   2.972   0.229   2.703 -2.0507 -0.6792  0.5320
 5029SOL     OW26722   2.957   1.223   2.814  0.0325  0.3102 -0.1390
 5029SOL    HW126723   3.002   1.159   2.758 -0.2038  0.5662 -0.6188
 5029SOL    HW226724   2.975   1.307   2.773  0.6554  0.1842 -0.1299
 5030SOL     OW26725   4.602   2.352  12.464 -0.1490  0.2766 -0.0642
 5030SOL    HW126726   4.546   2.279  12.490  0.7713 -0.5705 -0.4407
 5030SOL    HW226727   4.662   2.348  12.539  3.0269  1.3351 -2.5270
 5031SOL     OW26728   2.825   0.465  13.697 -0.0918 -0.2147  0.0276
 5031SOL    HW126729   2.860   0.377  13.682 -1.0488 -0.2818 -1.8519
 5031SOL    HW226730   2.807   0.496  13.608 -0.8360 -0.0797  0.2306
 5032SOL     OW26731   1.741   3.631   9.074  0.1685 -0.1484  0.6263
 5032SOL    HW126732   1.697   3.696   9.130 -0.8242 -0.4986  0.2476
 5032SOL    HW226733   1.765   3.684   8.998 -1.4357  0.7169  0.7038
 5033SOL     OW26734   4.364   1.016   4.743 -0.4256  0.4522  1.1582
 5033SOL    HW126735   4.318   0.977   4.817  0.2338 -2.1251  0.2281
 5033SOL    HW226736   4.382   1.099   4.787 -1.3185 -0.2770  2.8937
 5034SOL     OW26737   0.436   4.330   9.393  0.4580 -0.0174 -0.2218
 5034SOL    HW126738   0.497   4.402   9.381  1.8288 -1.3090 -1.0918
 5034SOL    HW226739   0.451   4.289   9.478 -0.1602 -0.5523 -0.3640
 5035SOL     OW26740   1.183   0.839   5.646  0.1074  0.6817 -0.0599
 5035SOL    HW126741   1.234   0.760   5.666 -1.3175  0.0182  0.9416
 5035SOL    HW226742   1.241   0.892   5.593  1.0430  3.0068  3.2786
 5036SOL     OW26743   2.652   3.819   5.592  0.5911 -0.1599  0.1410
 5036SOL    HW126744   2.713   3.789   5.660  0.6772  0.6002  0.4000
 5036SOL    HW226745   2.678   3.766   5.516  0.9764 -0.7366  0.6795
 5037SOL     OW26746   1.719   1.836  11.918  0.1491  0.1895  0.2896
 5037SOL    HW126747   1.657   1.848  11.990 -0.7598 -2.0303 -0.1211
 5037SOL    HW226748   1.795   1.794  11.959 -0.5747  0.2785  1.6960
 5038SOL     OW26749   4.645   0.485   2.922  0.2568  1.0117  0.6676
 5038SOL    HW126750   4.734   0.491   2.957  0.6476  1.0181 -0.3394
 5038SOL    HW226751   4.654   0.406   2.870 -1.6639  1.1942  0.0744
 5039SOL     OW26752   4.262   4.324   1.808  0.0867 -0.1017  0.0474
 5039SOL    HW126753   4.240   4.231   1.796 -0.8391  0.3434 -1.6771
 5039SOL    HW226754   4.173   4.355   1.823  0.0145 -0.4200  0.2704
 5040SOL     OW26755   0.268   3.278   2.364 -0.1514 -0.1376  0.3741
 5040SOL    HW126756   0.259   3.373   2.358 -2.2451 -0.4841 -1.9983
 5040SOL    HW226757   0.362   3.276   2.347 -0.7995 -2.0783 -3.0714
 5041SOL     OW26758   3.117   0.687  14.899 -0.1391 -0.2763  0.3063
 5041SOL    HW126759   3.052   0.720  14.836  1.3077 -0.9736 -1.5645
 5041SOL    HW226760   3.078   0.624  14.959  1.0320 -0.3802  0.9571
 5042SOL     OW26761   4.390   3.645   5.754 -0.1089 -0.1886  0.3895
 5042SOL    HW126762   4.426   3.575   5.808 -0.9392 -0.1534  0.9909
 5042SOL    HW226763   4.297   3.626   5.763 -0.1479 -0.4438 -0.5221
 5043SOL     OW26764   3.370   3.559   7.892  0.1076 -0.1293  0.0039
 5043SOL    HW126765   3.321   3.484   7.859  0.2429  0.7162 -2.0989
 5043SOL    HW226766   3.444   3.551   7.833 -0.7967 -2.2348 -0.8285
 5044SOL     OW26767   3.624   2.264   2.211 -0.4591 -0.0344  0.4093
 5044SOL    HW126768   3.627   2.356   2.187 -0.0549 -0.5192 -1.3807
 5044SOL    HW226769   3.717   2.249   2.196 -0.5631  0.3986 -0.6430
 5045SOL     OW26770   3.038   1.951   1.330  0.4225  0.2037 -0.6863
 5045SOL    HW126771   3.016   2.016   1.264 -0.5145 -0.0061 -0.5709
 5045SOL    HW226772   3.110   1.902   1.290  1.1619  2.0162 -1.5510
 5046SOL     OW26773   4.575   4.585  16.969 -0.2750  0.3448 -0.1943
 5046SOL    HW126774   4.658   4.562  16.927 -1.3057 -1.1488 -1.4316
 5046SOL    HW226775   4.561   4.677  16.945  2.6531  0.6566 -0.7780
 5047SOL     OW26776   2.281   0.958  14.989 -0.0158  0.3328 -0.3525
 5047SOL    HW126777   2.261   0.975  15.081 -0.4763  2.9158 -0.9166
 5047SOL    HW226778   2.214   0.894  14.969  0.1537  0.0529 -0.0156
 5048SOL     OW26779   0.622   2.786   3.864  0.0399 -0.3866  0.2656
 5048SOL    HW126780   0.574   2.794   3.782  0.5420 -3.4245 -0.3028
 5048SOL    HW226781   0.664   2.871   3.878  1.1854 -0.7421 -0.9755
 5049SOL     OW26782   1.066   2.614   7.719 -0.0272  0.0022  0.3548
 5049SOL    HW126783   1.151   2.633   7.679 -1.3469  0.2348 -2.3015
 5049SOL    HW226784   1.054   2.528   7.680 -1.7221  0.9096 -1.1242
 5050SOL     OW26785   1.020   1.016   7.720 -0.1240 -0.2167  0.3676
 5050SOL    HW126786   1.110   1.021   7.689 -1.0502  0.9604 -2.1207
 5050SOL    HW226787   0.983   1.091   7.673  1.1569  0.6213  0.6896
 5051SOL     OW26788   0.384   2.582   0.970 -0.1662  0.3504  0.2255
 5051SOL    HW126789   0.345   2.615   0.889  0.9618 -1.2383 -0.9786
 5051SOL    HW226790   0.344   2.645   1.030 -0.8472  1.8716 -1.8212
 5052SOL     OW26791   0.145   4.282  12.529 -0.2399 -0.2633 -0.1628
 5052SOL    HW126792   0.205   4.238  12.589 -0.6882 -3.8935 -2.3822
 5052SOL    HW226793   0.185   4.282  12.442  0.4739  4.4171  0.1185
 5053SOL     OW26794   3.718   2.713   5.012 -0.1143  0.1457  0.2593
 5053SOL    HW126795   3.639   2.766   5.003  0.8477  1.4059 -0.8125
 5053SOL    HW226796   3.789   2.776   5.027  0.1896 -0.1340  0.0001
 5054SOL     OW26797   4.311   4.539   9.364 -0.1487 -0.4220  0.1302
 5054SOL    HW126798   4.304   4.444   9.356 -1.0738 -0.5380  2.2517
 5054SOL    HW226799   4.276   4.570   9.280 -1.5285 -1.4364  0.3273
 5055SOL     OW26800   2.996   3.181  17.094 -0.3177 -0.7615 -0.1488
 5055SOL    HW126801   2.982   3.178  17.189 -0.0165  2.6137  0.0003
 5055SOL    HW226802   2.939   3.252  17.064  0.7171  0.2318  0.2163
 5056SOL     OW26803   3.795   1.312   5.716 -0.1698 -0.1330  0.3193
 5056SOL    HW126804   3.847   1.298   5.636 -0.7071 -0.1696 -0.0252
 5056SOL    HW226805   3.833   1.393   5.750 -1.7405  0.2932  1.0342
 5057SOL     OW26806   0.762   2.285  13.554  0.4907  0.7741  0.1759
 5057SOL    HW126807   0.796   2.241  13.476 -0.6414  0.8720 -0.3768
 5057SOL    HW226808   0.670   2.294  13.529  0.7427  0.0246 -0.9984
 5058SOL     OW26809   3.803   4.665  16.211 -0.0950  0.0584  0.7303
 5058SOL    HW126810   3.772   4.588  16.164 -0.1512 -0.4419  1.5931
 5058SOL    HW226811   3.823   4.622  16.294 -0.7609 -0.7313  0.4778
 5059SOL     OW26812   3.119   2.099   0.757  0.2795  0.3289 -0.1737
 5059SOL    HW126813   3.194   2.101   0.699 -0.7156  0.1681 -1.4659
 5059SOL    HW226814   3.118   2.190   0.787 -0.7267 -0.2443  1.5223
 5060SOL     OW26815   1.634   0.551   5.280  0.1499  0.4584 -0.1626
 5060SOL    HW126816   1.660   0.459   5.293 -1.3639  0.5579  3.3894
 5060SOL    HW226817   1.555   0.550   5.226  0.1262 -4.0261 -0.0753
 5061SOL     OW26818   4.616   0.351  15.050 -0.0831 -0.0417 -0.5716
 5061SOL    HW126819   4.554   0.329  14.980  0.7694 -2.5633 -0.5328
 5061SOL    HW226820   4.560   0.361  15.127 -0.8471 -1.3839 -0.9485
 5062SOL     OW26821   0.893   3.084  11.815  0.5084 -0.6886 -0.3395
 5062SOL    HW126822   0.979   3.049  11.791 -0.7117 -4.2994  0.5871
 5062SOL    HW226823   0.865   3.020  11.880 -1.1810  1.5553  1.1044
 5063SOL     OW26824   3.149   0.312   9.960  0.2845  0.1826 -0.2951
 5063SOL    HW126825   3.182   0.312  10.050  2.7832 -2.7144 -1.1708
 5063SOL    HW226826   3.079   0.374   9.977 -0.9052 -1.4897  0.9122
 5064SOL     OW26827   2.803   1.483   5.972 -0.0786  1.0524  0.1280
 5064SOL    HW126828   2.710   1.493   5.991 -0.3798 -2.6384  0.5159
 5064SOL    HW226829   2.803   1.436   5.888  2.5638 -0.2496  0.8806
 5065SOL     OW26830   1.244   0.655   9.619  0.0572  0.0151  0.0806
 5065SOL    HW126831   1.231   0.740   9.575  0.5743 -0.4866 -1.0478
 5065SOL    HW226832   1.162   0.637   9.665 -0.1165  0.0610 -0.2083
 5066SOL     OW26833   4.012   4.150  12.736 -0.3064  0.2804  0.4116
 5066SOL    HW126834   4.073   4.152  12.810  0.9427 -1.7369 -0.5461
 5066SOL    HW226835   4.004   4.244  12.723 -0.2359  0.2179 -0.0636
 5067SOL     OW26836   3.434   2.539  17.695  0.7453 -0.3513  0.7147
 5067SOL    HW126837   3.470   2.542   0.037  0.8818 -1.1296  0.6818
 5067SOL    HW226838   3.419   2.632  17.676  0.2902 -0.5730 -0.0072
 5068SOL     OW26839   4.668   4.150  16.830 -0.0223  0.1509  0.1758
 5068SOL    HW126840   4.714   4.066  16.830 -0.1573  0.0839  2.1178
 5068SOL    HW226841   4.672   4.175  16.738  5.1019 -1.5820 -0.0669
 5069SOL     OW26842   0.018   3.369   9.742 -0.4331 -0.2429  0.5015
 5069SOL    HW126843   4.664   3.388   9.722 -0.5908 -0.7279  0.7590
 5069SOL    HW226844   0.034   3.423   9.819  0.8830  0.8424 -0.5243
 5070SOL     OW26845   1.492   3.353  16.811 -0.6054  0.1613  0.4794
 5070SOL    HW126846   1.585   3.345  16.790 -0.1022  1.6526  2.0967
 5070SOL    HW226847   1.491   3.446  16.831  0.6608  0.3148 -0.1876
 5071SOL     OW26848   2.669   4.368   3.245  0.4602 -0.0669 -0.0361
 5071SOL    HW126849   2.721   4.315   3.184 -0.1525 -1.9143  1.0774
 5071SOL    HW226850   2.645   4.453   3.207  0.1844 -0.5471 -0.9449
 5072SOL     OW26851   4.547   2.838  13.415  0.5414  0.1969 -0.3391
 5072SOL    HW126852   4.621   2.837  13.354 -0.6013 -0.2579 -1.7206
 5072SOL    HW226853   4.507   2.924  13.401 -1.2589 -0.4826  0.6131
 5073SOL     OW26854   3.738   0.669   6.285  0.2484  0.3124  0.2866
 5073SOL    HW126855   3.683   0.659   6.363 -0.1019  0.1840  0.0253
 5073SOL    HW226856   3.728   0.764   6.271  1.2885  0.2891 -0.6243
 5074SOL     OW26857   2.701   0.134  10.895 -0.0711 -0.6158  0.3038
 5074SOL    HW126858   2.736   0.071  10.959  1.1888 -1.5744 -1.3269
 5074SOL    HW226859   2.740   0.114  10.810  0.0500 -2.0240  0.6860
 5075SOL     OW26860   2.393   0.598   4.014  0.1229  0.6970 -0.0075
 5075SOL    HW126861   2.430   0.615   3.927  0.5078 -1.8203 -0.3408
 5075SOL    HW226862   2.468   0.634   4.061  0.3525  1.4768 -0.9663
 5076SOL     OW26863   0.215   2.592   6.199 -0.3265 -0.2708  0.0349
 5076SOL    HW126864   0.301   2.615   6.164  0.0023 -0.8545  0.4534
 5076SOL    HW226865   0.202   2.640   6.280  0.3686  0.2654 -0.1649
 5077SOL     OW26866   1.597   3.947  12.599  0.2538 -1.1006  0.3953
 5077SOL    HW126867   1.677   3.998  12.595  1.2642 -2.6870  0.4858
 5077SOL    HW226868   1.607   3.895  12.679 -3.2153 -2.8087 -0.2443
 5078SOL     OW26869   3.103   1.278   6.531  0.0557  0.0649 -0.4084
 5078SOL    HW126870   3.036   1.232   6.581  1.5811 -1.9770 -0.2309
 5078SOL    HW226871   3.112   1.216   6.459  1.5748  0.7836 -0.8469
 5079SOL     OW26872   4.439   2.358   5.502 -0.5762 -0.7808  0.3264
 5079SOL    HW126873   4.492   2.284   5.533 -1.3970 -0.8448  1.5734
 5079SOL    HW226874   4.367   2.325   5.449 -0.2167 -1.4350  0.2417
 5080SOL     OW26875   0.601   4.619  13.563 -0.0682 -0.0064 -0.0695
 5080SOL    HW126876   0.517   4.574  13.574 -0.0111  0.0913  0.8297
 5080SOL    HW226877   0.591   4.649  13.473 -0.0391  0.1195 -0.0316
 5081SOL     OW26878   1.162   1.336   5.083 -0.1272  0.3722  0.1509
 5081SOL    HW126879   1.241   1.303   5.126  0.9211  0.5256 -1.6354
 5081SOL    HW226880   1.188   1.372   4.998  0.9025 -1.1114 -0.1665
 5082SOL     OW26881   0.556   2.711   5.991  0.6554 -0.8952 -1.2563
 5082SOL    HW126882   0.587   2.759   5.914  1.4451  0.3275 -0.1592
 5082SOL    HW226883   0.614   2.747   6.058 -1.2071  0.0737 -0.1786
 5083SOL     OW26884   2.954   0.727  13.619 -0.0640  0.4087  0.2899
 5083SOL    HW126885   3.010   0.714  13.542 -0.5913  0.4555 -0.1018
 5083SOL    HW226886   2.885   0.664  13.598  0.0926  0.8942 -1.6760
 5084SOL     OW26887   3.614   1.338   4.144  0.4608 -0.7202 -0.6065
 5084SOL    HW126888   3.607   1.367   4.234  0.3124 -1.0493 -0.5099
 5084SOL    HW226889   3.708   1.329   4.127  0.2764 -1.8972 -1.0436
 5085SOL     OW26890   3.385   4.180   9.075  0.2367 -0.6570 -0.1248
 5085SOL    HW126891   3.341   4.095   9.077 -0.5937 -0.2312 -0.2788
 5085SOL    HW226892   3.453   4.156   9.138  0.7626  1.1445  0.0007
 5086SOL     OW26893   1.459   0.634  11.798 -0.3922 -0.1850 -0.6329
 5086SOL    HW126894   1.378   0.649  11.846  0.3048  1.2394  0.0661
 5086SOL    HW226895   1.523   0.704  11.814 -0.1707 -0.5958  0.2552
 5087SOL     OW26896   3.455   0.052   0.310  0.2195  0.0660  0.6305
 5087SOL    HW126897   3.377   0.029   0.258  0.4875 -1.3546  0.8467
 5087SOL    HW226898   3.479   0.138   0.275 -3.0831  0.6658 -0.2386
 5088SOL     OW26899   0.833   3.173   6.500 -0.2936 -0.1476  0.5644
 5088SOL    HW126900   0.764   3.114   6.469 -0.1968 -0.0379  0.1323
 5088SOL    HW226901   0.792   3.259   6.499  0.0531  0.0279  1.2176
 5089SOL     OW26902   0.257   4.038   3.566  0.1590 -0.0471 -0.1391
 5089SOL    HW126903   0.262   4.127   3.531  0.5883  0.7357  1.9415
 5089SOL    HW226904   0.343   4.003   3.547 -0.6741 -1.2734 -1.6957
 5090SOL     OW26905   4.484   2.500   5.145 -0.4984  0.5925  0.5336
 5090SOL    HW126906   4.507   2.524   5.235 -0.2526 -2.5057  1.3212
 5090SOL    HW226907   4.549   2.433   5.123 -1.1568 -1.1032  3.7893
 5091SOL     OW26908   2.366   2.273   6.953  0.2446  0.6252 -0.9787
 5091SOL    HW126909   2.422   2.226   7.014 -1.7007 -0.5541 -0.1116
 5091SOL    HW226910   2.342   2.203   6.892  0.3399  0.9941 -1.4401
 5092SOL     OW26911   1.064   0.364   4.912  0.4347 -0.1612  0.2357
 5092SOL    HW126912   0.970   0.371   4.931  0.3860  0.6552 -0.2680
 5092SOL    HW226913   1.081   0.441   4.858  0.7984  0.5339  1.3331
 5093SOL     OW26914   3.531   4.378  14.637 -0.6047 -0.7548  0.0493
 5093SOL    HW126915   3.577   4.449  14.681 -1.7920 -1.8750  3.0616
 5093SOL    HW226916   3.540   4.407  14.546  1.1082 -1.9565 -0.1641
 5094SOL     OW26917   0.187   4.603  16.292 -0.0371 -0.1857 -0.0218
 5094SOL    HW126918   0.210   4.586  16.201  0.9205 -0.5377  0.2843
 5094SOL    HW226919   0.107   4.553  16.309  0.0576 -0.2370  0.2730
 5095SOL     OW26920   4.287   1.238   5.687 -0.7703 -0.0946  0.1698
 5095SOL    HW126921   4.289   1.326   5.723  3.8433 -0.6661  1.3483
 5095SOL    HW226922   4.378   1.214   5.669 -1.2470  0.7869 -3.5028
 5096SOL     OW26923   2.792   0.191  17.181  0.0733  0.2346  0.1279
 5096SOL    HW126924   2.842   0.185  17.099 -0.3909 -1.5280 -0.0262
 5096SOL    HW226925   2.863   0.222  17.237  0.5149  0.9609 -0.8311
 5097SOL     OW26926   0.631   4.659   3.884 -0.2786 -0.1715  0.1076
 5097SOL    HW126927   0.700   4.697   3.829  0.3983 -1.5358  0.0178
 5097SOL    HW226928   0.683   4.602   3.940  0.8623  1.4791  0.7208
 5098SOL     OW26929   3.214   1.856  13.197 -0.0243  0.6520  0.3411
 5098SOL    HW126930   3.124   1.834  13.222  0.1747 -0.5428  0.0203
 5098SOL    HW226931   3.259   1.833  13.279 -1.2302  1.0469  1.1167
 5099SOL     OW26932   0.031   0.592  17.109 -0.0732  0.0403 -0.1852
 5099SOL    HW126933   4.725   0.574  17.025 -0.3302 -1.1131  0.2021
 5099SOL    HW226934   0.124   0.593  17.086 -0.4161 -2.5907 -1.7499
 5100SOL     OW26935   2.738   0.003   2.600  0.3680  0.2654  0.5263
 5100SOL    HW126936   2.788   0.081   2.575  2.7138 -1.1391  0.8823
 5100SOL    HW226937   2.804   4.686   2.644 -0.0929 -1.2840 -0.6834
 5101SOL     OW26938   3.679   0.064   6.647 -0.4222  0.7929 -0.4300
 5101SOL    HW126939   3.692   0.148   6.602 -0.3150  0.1725 -1.5552
 5101SOL    HW226940   3.584   0.060   6.659 -0.0781  1.1321  2.3785
 5102SOL     OW26941   0.624   3.766  15.235  0.1760  0.3429  0.2277
 5102SOL    HW126942   0.559   3.701  15.261  0.1634  0.9035  1.6055
 5102SOL    HW226943   0.636   3.824  15.310  0.6429  0.6562 -0.0875
 5103SOL     OW26944   2.861   1.909   7.806 -0.0093  0.1836 -0.9053
 5103SOL    HW126945   2.901   1.834   7.850  1.0073  1.2393  0.0058
 5103SOL    HW226946   2.896   1.905   7.717  0.4759 -1.6280 -0.6259
 5104SOL     OW26947   3.408   1.445   9.128  0.4968  0.0241 -0.4586
 5104SOL    HW126948   3.336   1.430   9.066 -0.2384 -0.1107  0.4212
 5104SOL    HW226949   3.468   1.503   9.082 -1.6361  0.7275 -2.3976
 5105SOL     OW26950   3.437   1.881   9.447 -0.3009  0.4922  0.2234
 5105SOL    HW126951   3.378   1.837   9.385 -1.2104  0.3603  1.1878
 5105SOL    HW226952   3.427   1.966   9.404 -2.7302  1.2516  2.3016
 5106SOL     OW26953   4.509   0.418  10.055  0.0198 -0.4942 -0.4565
 5106SOL    HW126954   4.500   0.487   9.990  0.5761 -0.4541 -0.4875
 5106SOL    HW226955   4.546   0.345  10.005 -0.1890 -0.7825 -0.1969
 5107SOL     OW26956   3.664   3.005   2.139  0.4225  0.3200  0.1566
 5107SOL    HW126957   3.602   2.995   2.067  1.4521 -1.1449 -0.5216
 5107SOL    HW226958   3.647   2.931   2.197 -1.8130  0.0923 -0.7726
 5108SOL     OW26959   2.804   1.242  13.991  0.0384  0.3494 -0.5369
 5108SOL    HW126960   2.854   1.161  14.006 -2.6519 -1.7609 -2.9821
 5108SOL    HW226961   2.863   1.302  13.946 -0.3793  1.3519  0.2650
 5109SOL     OW26962   2.932   2.585   4.342  0.1518  0.3699 -0.2577
 5109SOL    HW126963   2.839   2.561   4.341 -0.0276  1.2439 -3.0663
 5109SOL    HW226964   2.957   2.526   4.271 -3.2121  0.2208 -1.3472
 5110SOL     OW26965   1.463   4.448   4.387 -0.1349  0.2193  0.8332
 5110SOL    HW126966   1.446   4.542   4.376 -0.2680  0.2720  1.4929
 5110SOL    HW226967   1.386   4.436   4.442 -0.6831 -2.7629 -0.6212
 5111SOL     OW26968   2.654   2.505  10.767 -0.2565 -0.1289  0.6228
 5111SOL    HW126969   2.685   2.477  10.682 -2.5695  2.1213 -0.9780
 5111SOL    HW226970   2.736   2.518  10.815  0.4689  1.0556 -0.9546
 5112SOL     OW26971   2.661   0.632   4.105 -0.1273 -0.4495  0.2113
 5112SOL    HW126972   2.652   0.635   4.200 -0.7924 -2.4804  0.2225
 5112SOL    HW226973   2.735   0.689   4.086  0.0966 -0.9949 -0.5641
 5113SOL     OW26974   1.725   1.803   1.869 -0.8260 -0.0707 -0.1457
 5113SOL    HW126975   1.663   1.876   1.870  0.3515  0.9340 -0.5479
 5113SOL    HW226976   1.747   1.801   1.962 -0.6836 -1.2518 -0.2092
 5114SOL     OW26977   3.707   4.019   5.552 -1.2048  0.2612  0.1506
 5114SOL    HW126978   3.748   3.933   5.548 -0.2295  0.6656  1.5431
 5114SOL    HW226979   3.741   4.054   5.470 -1.7871 -0.6918 -0.4914
 5115SOL     OW26980   3.621   3.876   2.190 -0.3431 -0.5719  0.7846
 5115SOL    HW126981   3.599   3.804   2.130  0.5672 -1.0815  1.0700
 5115SOL    HW226982   3.616   3.837   2.277  0.0659 -1.8283  0.2434
 5116SOL     OW26983   1.804   3.952   3.133  0.2521 -0.3305  0.1483
 5116SOL    HW126984   1.832   3.936   3.223 -0.4768 -2.8989 -0.0949
 5116SOL    HW226985   1.812   4.048   3.129 -1.7920 -0.1383  1.0045
 5117SOL     OW26986   2.492   3.148  15.765 -0.5641  0.6706 -0.1769
 5117SOL    HW126987   2.554   3.107  15.826  2.0384  1.7399 -2.0943
 5117SOL    HW226988   2.460   3.074  15.712 -0.8791 -1.2016  2.6067
 5118SOL     OW26989   2.380   2.444   3.376 -0.0819 -0.2322 -0.0470
 5118SOL    HW126990   2.416   2.474   3.292  0.2071 -0.4995 -0.0194
 5118SOL    HW226991   2.416   2.356   3.380 -0.7940 -0.6629 -3.0239
 5119SOL     OW26992   2.002   3.596   7.948 -0.5429 -0.1987  0.4019
 5119SOL    HW126993   2.068   3.533   7.917  0.8191  0.6912  1.4898
 5119SOL    HW226994   1.944   3.605   7.872  0.5498  0.4068 -0.3621
 5120SOL     OW26995   1.694   2.635   3.404  0.1394  0.1861  0.9014
 5120SOL    HW126996   1.650   2.685   3.473  2.4931  2.0446  1.0703
 5120SOL    HW226997   1.765   2.594   3.452  1.7539  2.5863  0.5665
 5121SOL     OW26998   4.030   2.276  14.863  0.3510  0.1035  0.0545
 5121SOL    HW126999   3.960   2.340  14.853  2.5905  2.5013 -0.3368
 5121SOL    HW227000   4.101   2.322  14.819  1.9995 -0.2521  2.3562
 5122SOL     OW27001   3.618   3.582   5.190 -0.1279  0.0760 -0.0952
 5122SOL    HW127002   3.594   3.674   5.204  0.9809  0.4457 -0.5711
 5122SOL    HW227003   3.572   3.565   5.108  0.3080 -0.7813 -0.1600
 5123SOL     OW27004   0.726   1.024  10.774 -0.1499  0.1150  0.2280
 5123SOL    HW127005   0.668   1.097  10.798 -1.1184 -0.4945 -0.2939
 5123SOL    HW227006   0.721   0.966  10.850 -1.1883 -0.6514 -0.4348
 5124SOL     OW27007   1.135   3.735   5.920  0.2829 -0.0663 -0.2953
 5124SOL    HW127008   1.207   3.798   5.929  0.6759 -0.4600 -0.6819
 5124SOL    HW227009   1.109   3.760   5.832  0.2092 -2.5065 -0.9411
 5125SOL     OW27010   3.552   1.212   2.218  0.1387 -0.3265 -0.1806
 5125SOL    HW127011   3.486   1.144   2.211 -0.0032 -0.0949 -1.0142
 5125SOL    HW227012   3.510   1.288   2.178 -1.5715 -1.8822 -1.2811
 5126SOL     OW27013   0.613   0.568   2.356  0.2167  0.7002  0.2681
 5126SOL    HW127014   0.554   0.497   2.382  0.2072  0.8332  0.6045
 5126SOL    HW227015   0.690   0.557   2.412  1.0656 -0.2624 -1.0628
 5127SOL     OW27016   4.293   4.038   8.121  0.3468 -0.6357  0.0667
 5127SOL    HW127017   4.330   3.998   8.200  0.1004 -1.6082 -0.3043
 5127SOL    HW227018   4.207   3.996   8.123  0.7438 -1.3882  2.1205
 5128SOL     OW27019   1.891   0.542   3.398  0.2756  0.2752  0.2706
 5128SOL    HW127020   1.959   0.608   3.390  1.1435 -0.4466  1.6389
 5128SOL    HW227021   1.822   0.589   3.352  0.5273 -0.1204 -0.5133
 5129SOL     OW27022   3.523   4.145   7.418 -0.3896 -0.5706  0.0730
 5129SOL    HW127023   3.573   4.227   7.423  1.3797 -1.5819 -1.2104
 5129SOL    HW227024   3.432   4.173   7.432 -0.4927 -0.9577  0.1686
 5130SOL     OW27025   0.243   2.615   1.251 -0.7230 -0.1104  0.0198
 5130SOL    HW127026   0.238   2.702   1.210 -0.0336 -0.2557 -0.3725
 5130SOL    HW227027   0.288   2.626   1.335  2.2563 -0.3886 -1.5568
 5131SOL     OW27028   4.513   4.262   5.863 -0.3994  0.9257  0.2584
 5131SOL    HW127029   4.434   4.217   5.891  0.2045 -1.0537 -1.3073
 5131SOL    HW227030   4.540   4.315   5.938  0.8327  2.3544 -1.1843
 5132SOL     OW27031   0.430   3.528   3.194  0.1999  0.2900 -0.1561
 5132SOL    HW127032   0.513   3.513   3.239 -0.2222  1.0918  0.8961
 5132SOL    HW227033   0.459   3.581   3.120  1.3153 -1.2086 -0.7810
 5133SOL     OW27034   0.016   0.500  15.432  0.0199  0.3339  0.2916
 5133SOL    HW127035   0.017   0.592  15.407 -1.3408  0.3327  0.2418
 5133SOL    HW227036   0.057   0.471  15.351 -0.6986  1.6617 -0.5405
 5134SOL     OW27037   0.068   2.924   5.402 -0.3398 -0.5701 -0.1243
 5134SOL    HW127038   0.050   3.011   5.436 -0.7012 -1.1347  1.1504
 5134SOL    HW227039   4.714   2.896   5.395  0.2165 -2.4183 -0.0740
 5135SOL     OW27040   1.569   1.895   7.877  0.0194  0.5115 -0.1498
 5135SOL    HW127041   1.579   1.902   7.782  2.7470  2.3806  0.2886
 5135SOL    HW227042   1.658   1.908   7.910 -0.6314 -0.5486  2.0066
 5136SOL     OW27043   1.131   2.704  11.749 -0.1849 -0.2004  0.5607
 5136SOL    HW127044   1.145   2.613  11.775 -0.7123 -0.2283  0.7571
 5136SOL    HW227045   1.192   2.717  11.676 -0.5173 -1.4369  0.0555
 5137SOL     OW27046   0.862   4.089   7.120 -0.1001  0.1287  0.1627
 5137SOL    HW127047   0.924   4.019   7.141  0.0013 -0.7704 -3.0586
 5137SOL    HW227048   0.833   4.065   7.031  0.2435  0.0419  0.0740
 5138SOL     OW27049   2.752   3.853   2.924  0.1003 -0.2459 -0.5688
 5138SOL    HW127050   2.677   3.912   2.923 -0.2848 -0.7246  0.0884
 5138SOL    HW227051   2.711   3.767   2.923 -1.6798  0.5819  0.1623
 5139SOL     OW27052   4.027   4.141   4.804 -0.0470  0.2468 -0.4846
 5139SOL    HW127053   4.069   4.222   4.776 -3.1293  1.9635 -0.2016
 5139SOL    HW227054   3.984   4.188   4.876  0.0183 -0.0185 -0.2724
 5140SOL     OW27055   3.738   1.050   2.404  0.6917  0.7499 -0.3933
 5140SOL    HW127056   3.697   1.093   2.329  1.5468 -0.9045 -1.8094
 5140SOL    HW227057   3.795   1.125   2.423  1.3036 -0.0010  0.7581
 5141SOL     OW27058   2.437   3.610   3.378  0.7114  0.3069  0.3964
 5141SOL    HW127059   2.402   3.606   3.289 -0.2480 -3.4795  0.9755
 5141SOL    HW227060   2.470   3.521   3.387  0.1816 -0.0411 -1.0799
 5142SOL     OW27061   2.149   2.340   3.231  0.0943 -0.2623 -0.4776
 5142SOL    HW127062   2.201   2.408   3.275  0.1678 -1.2852  0.9869
 5142SOL    HW227063   2.197   2.309   3.154 -0.0912 -0.4244 -0.5271
 5143SOL     OW27064   3.016   0.499  15.088 -0.2361  0.1516  0.0175
 5143SOL    HW127065   2.934   0.449  15.086 -1.4142  2.0118  1.1470
 5143SOL    HW227066   2.997   0.570  15.150  0.7001 -0.1929  0.6936
 5144SOL     OW27067   1.774   4.176   8.538  0.4501 -0.6326  0.4035
 5144SOL    HW127068   1.820   4.218   8.466  1.7509 -1.4313  0.7700
 5144SOL    HW227069   1.853   4.143   8.580 -0.3013 -0.9530  1.5847
 5145SOL     OW27070   4.287   1.464  15.085 -0.2263 -0.6233 -0.2031
 5145SOL    HW127071   4.199   1.446  15.051 -1.1489 -0.2064  1.9841
 5145SOL    HW227072   4.338   1.492  15.009 -1.0359  2.2580  0.3204
 5146SOL     OW27073   3.628   1.040   4.324 -0.3520 -0.4149 -0.0726
 5146SOL    HW127074   3.637   1.133   4.343  0.5754 -0.5116 -0.0376
 5146SOL    HW227075   3.708   1.009   4.365 -0.6614  1.8435  2.2268
 5147SOL     OW27076   3.209   0.197   1.515 -0.0636  0.3310  0.7917
 5147SOL    HW127077   3.130   0.173   1.563  0.6212  0.1097  1.8109
 5147SOL    HW227078   3.243   0.108   1.510  0.3236  0.6696 -2.5827
 5148SOL     OW27079   1.016   1.640  13.645  0.5152 -0.1516 -1.2780
 5148SOL    HW127080   0.958   1.666  13.573 -0.1669  0.8701 -0.3573
 5148SOL    HW227081   0.963   1.642  13.725  0.3232 -2.1001 -1.3663
 5149SOL     OW27082   1.196   4.481   4.819 -0.1894  0.1260 -0.9966
 5149SOL    HW127083   1.178   4.575   4.811 -2.0652 -0.2899 -1.5793
 5149SOL    HW227084   1.286   4.490   4.849 -0.4400  0.9494 -0.5009
 5150SOL     OW27085   0.045   3.782   0.221 -0.1361  0.0813  0.3486
 5150SOL    HW127086   4.713   3.775   0.155 -1.6704 -1.8882  2.2023
 5150SOL    HW227087   0.080   3.693   0.222 -0.9868 -0.2368  1.7712
 5151SOL     OW27088   1.776   1.102   5.244  0.3096  0.6914 -0.1840
 5151SOL    HW127089   1.721   1.055   5.308  1.2811  1.8238  1.4760
 5151SOL    HW227090   1.760   1.051   5.165 -3.8313  0.6580  0.6565
 5152SOL     OW27091   1.782   0.016   2.078  0.7067 -0.0362  0.0843
 5152SOL    HW127092   1.854   0.039   2.019  1.8510  0.1974  1.5821
 5152SOL    HW227093   1.712   0.066   2.037  0.9133  1.8363  2.0211
 5153SOL     OW27094   4.229   1.429   2.197 -0.0490  0.0281  0.1206
 5153SOL    HW127095   4.270   1.512   2.172 -0.2084  0.2772  0.6904
 5153SOL    HW227096   4.269   1.373   2.131  0.0521 -0.8117  0.9049
 5154SOL     OW27097   2.386   3.825   5.520  0.2173 -0.4380  0.1718
 5154SOL    HW127098   2.345   3.911   5.511  0.4118 -0.2538  1.0525
 5154SOL    HW227099   2.459   3.834   5.582 -1.2651  2.7376  1.4198
 5155SOL     OW27100   0.151   1.633   6.754 -0.2842 -0.2630  0.3180
 5155SOL    HW127101   0.092   1.574   6.800  0.1756 -0.0060  1.2213
 5155SOL    HW227102   0.088   1.704   6.737  0.8998  1.3397  2.6117
 5156SOL     OW27103   0.963   1.038   6.938 -0.2067  0.5813 -0.2107
 5156SOL    HW127104   0.934   0.998   7.020 -1.4005 -0.1288 -0.9826
 5156SOL    HW227105   0.879   1.081   6.920 -0.3519  0.1939 -0.4500
 5157SOL     OW27106   1.891   2.477   2.031 -0.5563 -0.0144 -0.4554
 5157SOL    HW127107   1.885   2.436   1.945 -1.0670  1.0509 -0.9314
 5157SOL    HW227108   1.797   2.478   2.048 -0.8002 -0.7372 -1.7669
 5158SOL     OW27109   2.799   4.020   1.942  0.5132 -0.0336 -0.2599
 5158SOL    HW127110   2.883   4.065   1.949  0.3500  0.2592 -0.1735
 5158SOL    HW227111   2.820   3.929   1.963  0.6603  0.0914  0.1463
 5159SOL     OW27112   4.501   4.098   4.167  0.0705  0.3608  0.5038
 5159SOL    HW127113   4.429   4.114   4.107 -0.9696  1.3263  2.0058
 5159SOL    HW227114   4.564   4.072   4.099 -2.7444  0.6129 -2.2032
 5160SOL     OW27115   4.462   4.177   3.159 -0.1968  0.1912 -0.0402
 5160SOL    HW127116   4.432   4.181   3.068 -1.7645  0.3394  0.4833
 5160SOL    HW227117   4.378   4.165   3.202  0.8701 -1.3002  1.6416
 5161SOL     OW27118   0.324   2.012   7.922 -0.0512  0.3422 -0.2829
 5161SOL    HW127119   0.344   2.105   7.929 -3.6660  0.8911  2.8943
 5161SOL    HW227120   0.389   1.986   7.857 -1.2180 -1.5777 -0.7064
 5162SOL     OW27121   3.853   0.039   7.329  0.6564  0.1734 -0.2080
 5162SOL    HW127122   3.785   4.718   7.364  0.9270  1.4323  2.4171
 5162SOL    HW227123   3.810   0.078   7.253 -0.5373 -0.0428  0.3485
 5163SOL     OW27124   1.274   4.279   0.445 -0.2302  0.3187  0.5202
 5163SOL    HW127125   1.184   4.276   0.413 -0.3885 -2.2807  1.1853
 5163SOL    HW227126   1.316   4.264   0.361  0.1506 -0.4266  0.8396
 5164SOL     OW27127   4.100   1.626   4.033 -0.3073  0.2681  0.0501
 5164SOL    HW127128   4.039   1.613   4.106  2.8083 -0.1598  2.5976
 5164SOL    HW227129   4.040   1.614   3.959  0.0451 -1.5737  0.0795
 5165SOL     OW27130   4.712   3.200  12.626  0.2752  0.1731 -0.4051
 5165SOL    HW127131   4.733   3.233  12.714  0.4877  0.7717 -0.6742
 5165SOL    HW227132   4.698   3.289  12.592  1.4713  0.2496 -0.7191
 5166SOL     OW27133   2.316   0.287   9.731 -0.7209  0.0330 -0.7758
 5166SOL    HW127134   2.285   0.206   9.690  1.0591 -0.4071 -1.2409
 5166SOL    HW227135   2.275   0.290   9.817  1.1850  2.5217  0.0468
 5167SOL     OW27136   3.660   1.472  11.321  0.8160  0.2152 -0.2194
 5167SOL    HW127137   3.692   1.401  11.265  0.1463 -0.3566  0.1279
 5167SOL    HW227138   3.748   1.502  11.346  0.1259  2.3516 -0.3682
 5168SOL     OW27139   0.880   0.683   9.038 -0.0073  0.0948  0.2459
 5168SOL    HW127140   0.962   0.691   9.087  0.9905 -0.6808 -1.3011
 5168SOL    HW227141   0.910   0.650   8.954 -0.9363 -1.4638  0.5273
 5169SOL     OW27142   1.825   4.137   5.518  0.1097  0.0835 -0.2704
 5169SOL    HW127143   1.757   4.126   5.452  0.2343  0.8932 -0.5332
 5169SOL    HW227144   1.864   4.222   5.498  0.2587  0.4148  1.4182
 5170SOL     OW27145   4.164   2.365   6.355  0.3159  0.2077  0.7474
 5170SOL    HW127146   4.126   2.318   6.429 -0.1359 -1.7365 -0.7097
 5170SOL    HW227147   4.217   2.429   6.401 -0.8474 -0.1786  2.6011
 5171SOL     OW27148   2.753   3.961   4.340 -0.4253  0.0697 -0.5171
 5171SOL    HW127149   2.743   4.002   4.254 -1.2648 -0.5345 -0.7032
 5171SOL    HW227150   2.684   3.896   4.328  1.1052 -1.7441  0.4823
 5172SOL     OW27151   2.078   2.691   4.585 -0.5491  0.1874 -0.0296
 5172SOL    HW127152   2.027   2.708   4.506 -1.2163 -1.7216 -0.0152
 5172SOL    HW227153   2.169   2.702   4.558  0.7251 -1.4273  3.6703
 5173SOL     OW27154   2.762   2.005   2.134  0.3008  0.1259  0.3536
 5173SOL    HW127155   2.703   2.063   2.086  1.0091  0.1995 -0.4384
 5173SOL    HW227156   2.723   2.009   2.221 -1.7015 -0.8295 -0.4708
 5174SOL     OW27157   3.905   1.782   3.170  0.3836  0.1521  0.4021
 5174SOL    HW127158   3.959   1.742   3.102 -2.1711  1.1437 -2.2036
 5174SOL    HW227159   3.849   1.711   3.199 -0.9134  0.1624 -2.0581
 5175SOL     OW27160   1.730   0.465   1.036  0.1013  0.3426 -0.4086
 5175SOL    HW127161   1.641   0.500   1.032 -0.4230 -1.1088 -1.4610
 5175SOL    HW227162   1.741   0.444   1.128  1.0369  0.9290 -0.3910
 5176SOL     OW27163   2.061   4.702   7.950 -0.0286  0.2242 -0.5779
 5176SOL    HW127164   2.156   4.709   7.937  0.3555  0.1661  2.1867
 5176SOL    HW227165   2.028   4.638   7.888 -0.5800  1.0836 -1.1662
 5177SOL     OW27166   1.476   2.944  13.030  0.2919  0.6751 -0.0593
 5177SOL    HW127167   1.434   3.030  13.037 -0.7423  0.1609 -0.0184
 5177SOL    HW227168   1.483   2.911  13.120 -1.9865  0.2991 -0.0296
 5178SOL     OW27169   0.876   0.156  15.427  0.3059 -0.1572 -0.0467
 5178SOL    HW127170   0.934   0.146  15.503 -0.2207 -0.3174  0.3290
 5178SOL    HW227171   0.793   0.190  15.458  0.1671 -0.6541  0.1314
 5179SOL     OW27172   3.886   2.827  17.233  0.3246  0.3771 -0.5893
 5179SOL    HW127173   3.916   2.782  17.154  0.2307  1.1350 -1.0566
 5179SOL    HW227174   3.834   2.898  17.195  0.6604  0.9283 -0.0342
 5180SOL     OW27175   2.352   2.674   6.038 -0.4353 -0.3409 -0.2621
 5180SOL    HW127176   2.313   2.726   5.967 -0.0942  1.0691  0.5648
 5180SOL    HW227177   2.297   2.702   6.111 -0.0281 -1.4475  0.4586
 5181SOL     OW27178   0.828   0.131   7.403 -0.0258 -0.1007  0.1750
 5181SOL    HW127179   0.921   0.111   7.415  0.2511 -0.5422 -2.7965
 5181SOL    HW227180   0.799   0.080   7.479  2.4566 -1.9472 -0.1264
 5182SOL     OW27181   0.923   0.030  16.180  0.6826  0.5294  0.6281
 5182SOL    HW127182   0.891   0.101  16.124 -0.9740 -0.3394  0.4896
 5182SOL    HW227183   0.846   4.717  16.205 -0.0963  1.7954  0.7665
 5183SOL     OW27184   0.609   1.240   1.825 -0.3472  0.0949  0.7238
 5183SOL    HW127185   0.655   1.218   1.744 -0.0364  1.2953  0.5707
 5183SOL    HW227186   0.566   1.318   1.790  2.7138  2.6304  2.5830
 5184SOL     OW27187   4.724   4.241   3.179  0.2913  0.1540  0.4986
 5184SOL    HW127188   4.633   4.229   3.151  0.4528 -0.4786  0.2490
 5184SOL    HW227189   4.733   4.154   3.217  0.3295 -0.2305 -0.3741
 5185SOL     OW27190   0.412   4.067   1.649  0.2865  0.2747 -0.0713
 5185SOL    HW127191   0.348   4.082   1.579  0.6187  2.5291  0.1006
 5185SOL    HW227192   0.491   4.061   1.595  0.0899  2.9683 -0.6707
 5186SOL     OW27193   1.389   0.870   3.309  0.6687 -0.1112  0.0082
 5186SOL    HW127194   1.376   0.935   3.378 -1.8279 -0.3898 -0.1927
 5186SOL    HW227195   1.472   0.900   3.271 -0.9700  3.9381 -0.3629
 5187SOL     OW27196   0.099   1.249   2.346 -0.2822 -0.8972 -0.0869
 5187SOL    HW127197   0.138   1.216   2.265 -1.6219 -0.2954 -0.9775
 5187SOL    HW227198   0.132   1.339   2.342  0.1869 -1.0322  0.7692
 5188SOL     OW27199   0.302   3.961   7.453  0.0063  0.4450 -0.1289
 5188SOL    HW127200   0.331   3.978   7.364  0.3126 -1.0041 -0.3007
 5188SOL    HW227201   0.245   4.037   7.464  0.3993  1.3980 -4.8172
 5189SOL     OW27202   2.099   1.679   2.869  0.3953 -0.5689  0.4405
 5189SOL    HW127203   2.165   1.745   2.892  0.4363  0.0334 -1.4645
 5189SOL    HW227204   2.139   1.598   2.901  2.6452 -0.5665 -2.3786
 5190SOL     OW27205   4.435   4.221  17.554  0.7016  0.4600  0.3623
 5190SOL    HW127206   4.515   4.264  17.523  0.0693  1.7343  0.4929
 5190SOL    HW227207   4.443   4.145  17.496  1.7967  1.1601 -0.4094
 5191SOL     OW27208   4.169   0.459  14.486 -0.0797 -0.1558  0.2834
 5191SOL    HW127209   4.122   0.538  14.459  1.8385  1.5330  1.8642
 5191SOL    HW227210   4.204   0.479  14.573 -0.2566  0.3180  0.2455
 5192SOL     OW27211   0.855   1.056  15.237 -0.3190  0.3298 -0.2915
 5192SOL    HW127212   0.838   0.979  15.290 -0.0597  0.2026 -0.3918
 5192SOL    HW227213   0.813   1.038  15.154 -0.2685  0.4010 -0.3327
 5193SOL     OW27214   2.350   0.292   3.191 -0.1878 -0.2499 -0.6116
 5193SOL    HW127215   2.266   0.333   3.211 -0.6053 -0.6662 -1.5216
 5193SOL    HW227216   2.331   0.206   3.230 -0.9619  0.1609 -0.0602
 5194SOL     OW27217   1.119   3.069   6.098 -0.1707 -0.3725  0.7094
 5194SOL    HW127218   1.048   3.132   6.089 -1.3108 -1.6599  0.6932
 5194SOL    HW227219   1.134   3.068   6.193 -0.5051 -0.4955  0.7608
 5195SOL     OW27220   3.852   4.371  12.663  0.1220 -0.2754  0.3958
 5195SOL    HW127221   3.899   4.405  12.587 -2.6324 -0.0451 -1.1754
 5195SOL    HW227222   3.763   4.406  12.664 -0.2877 -1.3221  1.3865
 5196SOL     OW27223   2.047   3.916  14.437 -0.0955  0.2164 -0.0681
 5196SOL    HW127224   1.969   3.970  14.427 -1.2196 -0.7679  3.5269
 5196SOL    HW227225   2.098   3.972  14.495 -0.7563 -0.3267  1.0325
 5197SOL     OW27226   2.566   2.609   4.873 -0.6393 -0.2441 -0.2734
 5197SOL    HW127227   2.601   2.534   4.921 -0.7826 -0.1425 -0.0038
 5197SOL    HW227228   2.494   2.638   4.929 -1.0561 -1.9943  0.0976
 5198SOL     OW27229   1.648   3.500   3.441  0.3022  0.0961  0.1144
 5198SOL    HW127230   1.697   3.543   3.371  1.8649 -0.3985  0.9117
 5198SOL    HW227231   1.719   3.479   3.502  1.0893  1.4179 -0.3530
 5199SOL     OW27232   2.775   3.446   9.026 -0.0257 -0.1669  0.0872
 5199SOL    HW127233   2.713   3.510   9.062 -0.5773 -2.0203  2.4464
 5199SOL    HW227234   2.814   3.414   9.107  4.2922  0.2049 -1.8273
 5200SOL     OW27235   2.607   1.251  10.164  0.0726  0.2803  0.1716
 5200SOL    HW127236   2.702   1.242  10.172  0.0333 -3.1912 -3.1916
 5200SOL    HW227237   2.576   1.200  10.239  1.2706  1.4074  1.4516
 5201SOL     OW27238   0.816   0.440  16.849  0.4444 -0.3544  0.2044
 5201SOL    HW127239   0.842   0.451  16.758 -0.0192  0.9297  0.2266
 5201SOL    HW227240   0.898   0.414  16.891  0.8676 -0.3100 -0.6018
 5202SOL     OW27241   3.435   3.089   3.494  0.1546 -0.4887 -0.3115
 5202SOL    HW127242   3.438   3.173   3.540  1.4188 -2.1069  2.5316
 5202SOL    HW227243   3.496   3.106   3.422  0.7713  0.2952  0.3935
 5203SOL     OW27244   3.671   3.925   6.360 -0.2242  0.2690 -0.4307
 5203SOL    HW127245   3.610   3.867   6.314 -0.1825  0.0796 -0.2469
 5203SOL    HW227246   3.646   4.015   6.339 -0.9491 -0.7825 -4.1161
 5204SOL     OW27247   0.055   2.702   5.987 -0.4226  0.2208 -0.2412
 5204SOL    HW127248   0.093   2.699   6.075  1.0119 -1.0541 -0.9046
 5204SOL    HW227249   0.137   2.707   5.938  0.0888  0.7495  0.6815
 5205SOL     OW27250   4.641   2.665  11.771  0.3672  0.0497 -0.8527
 5205SOL    HW127251   4.614   2.606  11.841 -1.1213 -0.3081 -1.7375
 5205SOL    HW227252   4.731   2.681  11.799 -0.7070  0.9145  2.0795
 5206SOL     OW27253   3.633   2.809   0.906 -0.9536 -0.1116  0.1803
 5206SOL    HW127254   3.588   2.869   0.846 -0.0346  1.0017  0.6164
 5206SOL    HW227255   3.694   2.767   0.845  0.9474  0.0950  1.9594
 5207SOL     OW27256   1.130   4.354   0.655  0.5097 -0.4153 -0.0959
 5207SOL    HW127257   1.210   4.335   0.606  2.0439  0.0231  2.2394
 5207SOL    HW227258   1.076   4.277   0.634 -0.6676  0.7002 -1.1523
 5208SOL     OW27259   2.998   3.476   4.159 -0.0731  0.2833 -0.3989
 5208SOL    HW127260   3.046   3.397   4.184  1.7591  0.8849 -2.0461
 5208SOL    HW227261   2.985   3.464   4.065 -1.1248 -0.7417 -0.1339
 5209SOL     OW27262   2.058   1.778   9.521  0.1665 -0.3836  0.5621
 5209SOL    HW127263   2.021   1.860   9.554 -3.5462 -1.3297 -1.2044
 5209SOL    HW227264   2.139   1.789   9.571 -0.7817  0.4111  1.9213
 5210SOL     OW27265   0.317   1.186   5.301 -0.6475 -0.0474 -0.6411
 5210SOL    HW127266   0.386   1.151   5.359 -0.2889 -1.2987 -1.8272
 5210SOL    HW227267   0.364   1.179   5.218 -1.4104 -1.6653 -0.9376
 5211SOL     OW27268   0.697   4.072   8.439  0.1121  0.4279 -0.3389
 5211SOL    HW127269   0.632   4.143   8.435 -1.3511 -0.8781 -0.0473
 5211SOL    HW227270   0.701   4.068   8.535 -1.1828 -0.0752 -0.2999
 5212SOL     OW27271   0.912   2.855   7.630 -0.1938  0.8040  1.2539
 5212SOL    HW127272   0.910   2.828   7.538 -1.5210  2.1901  0.8770
 5212SOL    HW227273   0.953   2.776   7.667  1.0640  0.4300 -0.9145
 5213SOL     OW27274   0.712   0.894   2.211 -0.0951 -0.2792 -0.0834
 5213SOL    HW127275   0.721   0.814   2.160 -0.9601 -1.2698  1.3216
 5213SOL    HW227276   0.619   0.915   2.223 -0.4196 -0.9454 -1.4414
 5214SOL     OW27277   2.056   2.812   2.010  0.1114  0.1118 -0.3771
 5214SOL    HW127278   1.987   2.861   2.055  2.3298  0.4112  2.6883
 5214SOL    HW227279   2.009   2.768   1.939  2.7756 -2.9271 -0.2700
 5215SOL     OW27280   2.379   0.292  11.641  0.6840  0.2377 -0.9208
 5215SOL    HW127281   2.474   0.277  11.642  0.2436 -2.6944  0.4232
 5215SOL    HW227282   2.344   0.211  11.603 -0.9183 -0.8550  2.8821
 5216SOL     OW27283   4.581   1.755   7.134  0.3530 -0.1860  0.9756
 5216SOL    HW127284   4.627   1.834   7.163  2.1469 -0.8785  0.0224
 5216SOL    HW227285   4.623   1.687   7.185  1.9518  0.3628  0.3918
 5217SOL     OW27286   1.928   0.151   7.787  0.7256 -0.3048 -0.5235
 5217SOL    HW127287   1.952   0.244   7.784  1.1830 -0.3909  0.7175
 5217SOL    HW227288   1.950   0.120   7.874  1.3618  1.2113 -0.1484
 5218SOL     OW27289   1.527   0.079   8.070  0.1714  0.1461 -0.1250
 5218SOL    HW127290   1.552   0.022   8.143  0.5539 -0.0624 -0.4206
 5218SOL    HW227291   1.444   0.114   8.102 -0.7094 -1.2893 -0.8298
 5219SOL     OW27292   3.697   3.083   3.736  0.3150 -0.1991 -0.1615
 5219SOL    HW127293   3.689   3.022   3.662 -0.0308 -2.0488  1.4185
 5219SOL    HW227294   3.647   3.044   3.807  1.1718  0.6236  0.8803
 5220SOL     OW27295   0.380   4.038   7.204  0.3461 -0.0947 -0.6684
 5220SOL    HW127296   0.442   4.112   7.206 -1.1067  1.0655  0.9733
 5220SOL    HW227297   0.408   4.011   7.116 -0.5074 -0.5535 -0.7925
 5221SOL     OW27298   2.662   2.563   2.958  0.4839  0.6362 -0.2764
 5221SOL    HW127299   2.619   2.499   3.015  1.7565  0.9114  1.0170
 5221SOL    HW227300   2.617   2.541   2.877  0.8763  2.5886 -1.0262
 5222SOL     OW27301   4.186   1.922   6.382 -0.3214 -0.3755  0.2147
 5222SOL    HW127302   4.271   1.912   6.339 -0.4081  2.0561 -0.5728
 5222SOL    HW227303   4.161   1.837   6.417 -0.5243 -0.3272  0.1883
 5223SOL     OW27304   4.667   0.222   8.340 -0.4312  0.0336  0.3435
 5223SOL    HW127305   0.003   0.214   8.279 -0.6178  1.4495 -0.0751
 5223SOL    HW227306   4.708   0.179   8.415 -0.0443 -0.3691 -0.1010
 5224SOL     OW27307   4.233   0.463   4.404  1.0484 -0.5424 -0.3430
 5224SOL    HW127308   4.328   0.456   4.412  1.2145 -1.1122 -2.8557
 5224SOL    HW227309   4.223   0.438   4.312 -0.5319  1.7571 -0.7808
 5225SOL     OW27310   4.593   3.976  17.496 -0.5291  0.1266  0.6279
 5225SOL    HW127311   4.513   3.924  17.497  1.6110 -3.1287  0.7796
 5225SOL    HW227312   4.621   3.969  17.405  1.4054  1.7515  1.0959
 5226SOL     OW27313   4.075   2.563   7.541 -0.6611  0.2433  0.4023
 5226SOL    HW127314   4.066   2.469   7.556  1.0548  0.1690  0.9303
 5226SOL    HW227315   4.127   2.588   7.618  2.5113  1.6426 -2.2168
 5227SOL     OW27316   2.679   4.637   7.230  0.2929  0.5105  0.0175
 5227SOL    HW127317   2.670   4.651   7.325 -3.0043  2.4395 -0.5677
 5227SOL    HW227318   2.639   4.550   7.222  1.2902 -0.0275  0.9054
 5228SOL     OW27319   3.036   1.531   5.130  0.6648  0.0301 -0.4766
 5228SOL    HW127320   2.990   1.614   5.144  0.4103  0.1208 -1.9034
 5228SOL    HW227321   3.016   1.477   5.206 -1.7373 -0.0748 -1.2001
 5229SOL     OW27322   3.207   2.691   7.118  0.2907  0.3738  0.4617
 5229SOL    HW127323   3.248   2.700   7.032  1.0399  0.8159  0.8652
 5229SOL    HW227324   3.287   2.679   7.170  1.6688  0.6027 -1.6239
 5230SOL     OW27325   4.699   3.970   3.336  0.7530 -0.2992 -0.5472
 5230SOL    HW127326   4.691   4.002   3.426  1.7012  0.4332 -0.7336
 5230SOL    HW227327   4.682   3.876   3.348  1.5488  0.1211  3.8643
 5231SOL     OW27328   0.730   2.767   5.032 -0.2555 -0.2259 -0.1799
 5231SOL    HW127329   0.635   2.768   5.027 -0.2693 -2.7582 -0.1521
 5231SOL    HW227330   0.742   2.852   5.074  0.2067  2.2643 -5.3368
 5232SOL     OW27331   2.455   4.164   7.418  0.3927 -0.8157  0.5707
 5232SOL    HW127332   2.427   4.167   7.510 -1.6268  3.2403 -0.1706
 5232SOL    HW227333   2.515   4.090   7.425 -0.2605 -1.6395 -2.3268
 5233SOL     OW27334   0.255   2.669   7.793  0.5406 -0.1861 -0.1306
 5233SOL    HW127335   0.209   2.714   7.722 -0.0808  1.7901  1.5012
 5233SOL    HW227336   0.285   2.583   7.763 -0.6605 -0.0970 -1.5425
 5234SOL     OW27337   0.117   3.661   8.529 -0.1136 -0.2060 -0.4603
 5234SOL    HW127338   0.138   3.729   8.592 -1.7470  0.3158 -0.4850
 5234SOL    HW227339   0.096   3.705   8.446  0.9636  2.1907  0.5485
 5235SOL     OW27340   2.687   1.252   3.759 -0.1088  0.1708 -0.4012
 5235SOL    HW127341   2.619   1.217   3.701 -1.0648 -0.7231  1.2524
 5235SOL    HW227342   2.756   1.187   3.760  0.0059  0.3028  0.3075
 5236SOL     OW27343   2.748   3.197   2.152  0.4675  0.4292 -0.2242
 5236SOL    HW127344   2.739   3.270   2.213 -1.0730  1.7168 -2.0155
 5236SOL    HW227345   2.674   3.140   2.175  1.6231 -1.2898 -0.8052
 5237SOL     OW27346   2.521   3.062   1.165 -0.2106  0.0585 -0.0719
 5237SOL    HW127347   2.542   3.054   1.259  0.2092 -1.9547 -0.3389
 5237SOL    HW227348   2.499   3.155   1.161  0.5526  0.2382 -0.1062
 5238SOL     OW27349   2.142   2.115   2.756 -0.2220 -0.0355  0.6264
 5238SOL    HW127350   2.123   2.176   2.685 -2.0436  2.4742  3.2737
 5238SOL    HW227351   2.053   2.101   2.787 -0.1447 -1.4188  0.2306
 5239SOL     OW27352   2.928   3.033   0.794 -0.6168 -0.1320 -0.3271
 5239SOL    HW127353   2.860   3.044   0.728 -0.6828 -1.5079 -0.4947
 5239SOL    HW227354   2.874   3.059   0.869  1.1700 -2.4887  1.7696
 5240SOL     OW27355   1.768   2.556   1.039  0.0274  0.2657  0.3461
 5240SOL    HW127356   1.763   2.461   1.029  0.1863  0.5076 -2.1219
 5240SOL    HW227357   1.860   2.566   1.014 -0.9791 -0.1630 -3.5617
 5241SOL     OW27358   0.064   2.807  10.103 -0.2874  0.3379 -0.1953
 5241SOL    HW127359   0.047   2.743  10.172 -0.5028  1.7583  1.0550
 5241SOL    HW227360   4.716   2.819  10.061 -0.2895  1.5537  0.1456
 5242SOL     OW27361   0.598   4.607   6.558 -0.1796 -0.1176 -0.4187
 5242SOL    HW127362   0.508   4.590   6.585 -0.6952  1.5212 -1.1491
 5242SOL    HW227363   0.599   4.577   6.467  0.2083  0.3164 -0.5544
 5243SOL     OW27364   4.705   4.671   2.312  0.1622  0.3087  0.4761
 5243SOL    HW127365   0.043   4.702   2.362 -0.7819  2.1740  0.7695
 5243SOL    HW227366   4.700   4.581   2.343 -2.1650  0.2702 -0.0098
 5244SOL     OW27367   2.742   3.115   4.858  0.0733  0.0308 -0.6534
 5244SOL    HW127368   2.748   3.125   4.953  0.3080  0.0731 -0.6747
 5244SOL    HW227369   2.812   3.051   4.843 -1.6223 -2.1790  0.7111
 5245SOL     OW27370   1.132   1.877   1.980  0.0706 -0.2033 -0.3118
 5245SOL    HW127371   1.077   1.803   1.954 -0.3497 -0.4145  1.1665
 5245SOL    HW227372   1.072   1.950   1.994  3.7434  3.4077 -3.4441
 5246SOL     OW27373   2.515   2.568   6.216 -0.2604 -0.2507 -0.0509
 5246SOL    HW127374   2.450   2.520   6.268  0.5382 -0.4333  0.7684
 5246SOL    HW227375   2.455   2.617   6.159  0.7440  0.4354 -0.5050
 5247SOL     OW27376   3.330   1.181   7.388 -0.1774  0.1869  0.5835
 5247SOL    HW127377   3.339   1.181   7.484  0.3073 -1.2623  0.5392
 5247SOL    HW227378   3.236   1.194   7.386 -0.2479 -0.4625 -0.1675
 5248SOL     OW27379   1.691   1.297   6.499 -0.7603 -0.1398  0.5488
 5248SOL    HW127380   1.673   1.227   6.436 -0.4324  0.4776 -0.2331
 5248SOL    HW227381   1.610   1.313   6.547 -1.5816 -0.3035 -0.7991
 5249SOL     OW27382   1.587   2.182   1.548 -0.6421 -0.4552 -0.3621
 5249SOL    HW127383   1.676   2.146   1.542 -0.3445  0.2633 -0.1667
 5249SOL    HW227384   1.541   2.098   1.538 -1.3422  0.1082 -1.8909
 5250SOL     OW27385   2.937   0.482   7.557 -0.3641  0.0162 -0.3137
 5250SOL    HW127386   2.929   0.527   7.473  0.3575 -1.1500 -0.9971
 5250SOL    HW227387   2.859   0.426   7.557  1.1917 -2.1341  0.4439
 5251SOL     OW27388   1.482   1.247   8.383 -0.2678 -0.6060  0.0672
 5251SOL    HW127389   1.425   1.185   8.428 -0.1862  0.2056  1.2753
 5251SOL    HW227390   1.523   1.185   8.322  0.8302  1.4044 -1.2691
 5252SOL     OW27391   3.295   4.150   0.207  0.3059  0.2111 -0.6505
 5252SOL    HW127392   3.351   4.087   0.253 -0.3383 -0.8347 -1.2836
 5252SOL    HW227393   3.361   4.210   0.175  0.5516 -0.5335 -1.5220
 5253SOL     OW27394   1.857   2.398   5.511  0.7126 -0.3850  0.3311
 5253SOL    HW127395   1.894   2.311   5.497 -0.3019 -0.0173 -4.7785
 5253SOL    HW227396   1.776   2.369   5.554 -0.3796 -0.1983 -1.6129
 5254SOL     OW27397   3.534   4.373  17.144  0.5597 -0.3757  0.0904
 5254SOL    HW127398   3.460   4.434  17.151  0.9167  0.1034 -0.3741
 5254SOL    HW227399   3.609   4.424  17.175 -0.3419  1.5937 -0.9840
 5255SOL     OW27400   0.533   1.742   7.972 -0.1811  0.2950  0.7034
 5255SOL    HW127401   0.624   1.713   7.974 -0.4641 -0.7599 -1.2186
 5255SOL    HW227402   0.516   1.740   8.066  0.0628 -0.8411  0.7260
 5256SOL     OW27403   4.627   0.987   5.720 -0.0425 -0.2785  0.1405
 5256SOL    HW127404   4.628   1.068   5.668  0.8065 -0.8898 -0.7837
 5256SOL    HW227405   4.569   0.930   5.670  1.2751 -2.7774  1.4845
 5257SOL     OW27406   3.895   3.435  17.439 -0.9936 -0.4986 -0.4069
 5257SOL    HW127407   3.859   3.348  17.419  0.6629 -1.4690  0.9121
 5257SOL    HW227408   3.873   3.437  17.532 -1.4175 -0.6986 -0.5036
 5258SOL     OW27409   2.187   0.461   4.622 -0.3247 -0.2602  0.4014
 5258SOL    HW127410   2.212   0.431   4.535 -0.6304 -0.2956  0.3283
 5258SOL    HW227411   2.194   0.378   4.670  0.9652 -0.0729  0.5444
 5259SOL     OW27412   1.514   2.052   2.588  0.2197  0.2543  0.5725
 5259SOL    HW127413   1.471   2.131   2.622  0.4469  0.9089 -0.6649
 5259SOL    HW227414   1.537   2.005   2.669 -0.0111  2.8586  2.1406
 5260SOL     OW27415   3.739   0.873   1.882 -0.7211 -0.0410 -0.1747
 5260SOL    HW127416   3.733   0.803   1.947 -0.8146  1.2065  1.1585
 5260SOL    HW227417   3.649   0.906   1.891 -0.8634 -0.6618  0.5875
 5261SOL     OW27418   2.267   2.201   9.265 -0.3634 -0.4952  0.3145
 5261SOL    HW127419   2.226   2.279   9.228  0.7444 -0.2824 -0.4605
 5261SOL    HW227420   2.206   2.177   9.335 -0.5310 -1.6991 -0.2449
 5262SOL     OW27421   3.400   1.815  13.424 -0.4663 -0.4718  0.6265
 5262SOL    HW127422   3.470   1.750  13.426  0.6056  0.6110 -1.7510
 5262SOL    HW227423   3.352   1.788  13.503  0.5562 -1.1171  1.0203
 5263SOL     OW27424   1.524   0.777   8.626 -0.2755  0.5523  0.6426
 5263SOL    HW127425   1.513   0.805   8.717 -0.9075  0.5263  0.5771
 5263SOL    HW227426   1.618   0.761   8.631 -0.3877 -0.8180 -1.7767
 5264SOL     OW27427   4.592   3.172   2.587  0.0819 -0.7175 -0.4448
 5264SOL    HW127428   4.671   3.119   2.596 -1.0514 -2.4495 -0.8285
 5264SOL    HW227429   4.634   3.251   2.553  1.0549 -1.0386 -0.0130
 5265SOL     OW27430   2.585   1.643   8.041  0.0744 -0.6513 -0.5581
 5265SOL    HW127431   2.542   1.561   8.065  0.1402 -0.5602 -0.1254
 5265SOL    HW227432   2.603   1.677   8.129 -1.8158 -0.2704 -0.3035
 5266SOL     OW27433   0.415   3.228   9.624  0.2801  0.3767 -0.1480
 5266SOL    HW127434   0.466   3.155   9.591  2.5594  1.6378  0.5645
 5266SOL    HW227435   0.410   3.214   9.718  1.4466 -0.6534 -0.2475
 5267SOL     OW27436   2.733   3.590   8.272  0.0125 -0.1002  0.1274
 5267SOL    HW127437   2.742   3.494   8.271  0.7064 -0.0522  1.2120
 5267SOL    HW227438   2.639   3.604   8.282  0.3278  2.4086 -0.6816
 5268SOL     OW27439   4.415   2.182   9.214 -0.1464  0.5715 -0.2509
 5268SOL    HW127440   4.366   2.193   9.133 -1.3619  0.2815  0.4394
 5268SOL    HW227441   4.481   2.122   9.179 -1.9371 -2.7380  2.1045
 5269SOL     OW27442   0.552   4.548   5.660  0.1890  0.4031 -0.4524
 5269SOL    HW127443   0.616   4.477   5.670 -0.8449 -0.4044  0.4071
 5269SOL    HW227444   0.605   4.623   5.633  2.5559 -1.0112  0.2274
 5270SOL     OW27445   0.500   0.310   5.631  0.0044  0.1554 -0.4888
 5270SOL    HW127446   0.408   0.282   5.621  0.1994 -1.9695  4.0121
 5270SOL    HW227447   0.528   0.292   5.720 -1.5889 -2.2816 -0.4608
 5271SOL     OW27448   2.062   0.130   0.305 -0.7001  0.4901  0.1504
 5271SOL    HW127449   2.145   0.176   0.291  2.0446 -3.7637  2.1592
 5271SOL    HW227450   2.058   0.109   0.398  1.2696  2.4195  0.6498
 5272SOL     OW27451   4.350   1.447   9.058 -0.3678  0.0211 -0.2624
 5272SOL    HW127452   4.283   1.386   9.090  0.4111 -1.0904 -0.7325
 5272SOL    HW227453   4.407   1.457   9.134  0.0335  3.4897 -1.0240
 5273SOL     OW27454   2.022   1.922   5.720 -0.3706 -0.3644 -0.0775
 5273SOL    HW127455   2.065   1.847   5.679 -0.1898  0.0309 -0.6130
 5273SOL    HW227456   1.942   1.873   5.741 -0.9952  1.0554  0.8676
 5274SOL     OW27457   3.556   4.128   9.321  0.4756 -0.3160 -0.1119
 5274SOL    HW127458   3.601   4.047   9.343  0.1338  0.2080  2.5442
 5274SOL    HW227459   3.471   4.135   9.364  0.9023  1.5733  0.4262
 5275SOL     OW27460   2.574   0.703  15.204 -0.6946 -0.5146  0.3067
 5275SOL    HW127461   2.564   0.789  15.161  0.7009 -0.9060 -0.7940
 5275SOL    HW227462   2.526   0.722  15.284  0.5341 -1.0082  1.1532
 5276SOL     OW27463   1.908   1.095  11.925 -0.1349  0.1015  0.4148
 5276SOL    HW127464   1.948   1.173  11.886 -1.4399  0.6693  0.2104
 5276SOL    HW227465   1.831   1.096  11.868 -0.1614 -4.3844  0.3483
 5277SOL     OW27466   4.507   1.436   2.551 -0.2998  0.1516 -0.2153
 5277SOL    HW127467   4.530   1.343   2.556 -2.3277 -0.4762 -2.4353
 5277SOL    HW227468   4.522   1.470   2.639 -0.9191 -2.0968  0.7678
 5278SOL     OW27469   4.085   0.937   6.143 -0.3197 -0.1872  0.1634
 5278SOL    HW127470   4.044   1.011   6.097 -0.4701  1.0863  2.3738
 5278SOL    HW227471   4.056   0.862   6.091  3.0689  0.1669 -2.2005
 5279SOL     OW27472   0.370   3.986   0.894  0.5038  0.5644  0.4140
 5279SOL    HW127473   0.383   3.973   0.988  0.6876 -1.2111  0.1372
 5279SOL    HW227474   0.391   4.079   0.882  1.0823  0.0776 -2.2387
 5280SOL     OW27475   3.654   2.392   8.447 -0.1889  0.2191  0.5132
 5280SOL    HW127476   3.692   2.470   8.408  0.2915  0.6120  1.7467
 5280SOL    HW227477   3.681   2.407   8.538 -0.8308 -2.4240  1.1428
 5281SOL     OW27478   0.979   2.472   8.177  0.2287 -0.3550 -0.0671
 5281SOL    HW127479   0.933   2.544   8.221 -2.0774 -2.6993  1.3737
 5281SOL    HW227480   1.019   2.440   8.257 -0.8978 -1.2129  0.1575
 5282SOL     OW27481   0.609   3.240   8.094 -0.1934 -0.6116 -0.3724
 5282SOL    HW127482   0.520   3.206   8.088 -0.6625  0.8491 -1.4890
 5282SOL    HW227483   0.656   3.157   8.086  1.5157  0.1175  2.0177
 5283SOL     OW27484   0.391   3.633   3.543  0.7486  0.4916 -0.0596
 5283SOL    HW127485   0.416   3.541   3.532 -1.3825  0.3789 -4.0257
 5283SOL    HW227486   0.418   3.665   3.457  0.4708  0.2569 -0.2350
 5284SOL     OW27487   2.031   3.056   6.493 -0.2797  0.6175  0.1503
 5284SOL    HW127488   1.984   3.131   6.458 -2.3953 -0.2303  1.1460
 5284SOL    HW227489   1.959   2.998   6.517  0.2816  1.0008  2.7548
 5285SOL     OW27490   3.342   2.552   3.461  0.1161 -0.4349 -0.0080
 5285SOL    HW127491   3.380   2.475   3.418 -0.1834 -0.1232 -0.8279
 5285SOL    HW227492   3.251   2.524   3.463 -0.8250  2.7142  1.8482
 5286SOL     OW27493   1.881   2.926   7.002  0.1317 -0.3362  0.3780
 5286SOL    HW127494   1.921   2.871   7.069 -1.9742 -0.4984  1.5155
 5286SOL    HW227495   1.927   2.885   6.929  2.8464 -0.8540  2.3681
 5287SOL     OW27496   1.702   4.546  10.882 -0.2599 -0.3286  0.3779
 5287SOL    HW127497   1.758   4.470  10.903 -1.7762 -1.3456  0.7136
 5287SOL    HW227498   1.616   4.510  10.905 -0.2431 -0.0193  0.9191
 5288SOL     OW27499   4.393   3.585  17.726 -0.8955 -0.1390  0.2441
 5288SOL    HW127500   4.332   3.634  17.671 -1.8526  0.3063  1.7335
 5288SOL    HW227501   4.459   3.651   0.000 -0.5736 -0.1749 -0.6181
 5289SOL     OW27502   2.783   4.026   1.662 -0.3454 -0.1863  0.0773
 5289SOL    HW127503   2.749   4.112   1.686  0.7828  0.3795 -0.3456
 5289SOL    HW227504   2.773   3.979   1.745 -0.3184 -0.9280 -0.3374
 5290SOL     OW27505   1.495   2.206   2.945  0.2990  0.4359  0.1916
 5290SOL    HW127506   1.533   2.122   2.919  1.0618  1.0542 -0.7133
 5290SOL    HW227507   1.403   2.187   2.931  1.5013 -4.4024 -1.0528
 5291SOL     OW27508   0.880   1.502   2.752 -0.3225 -0.0735  0.7270
 5291SOL    HW127509   0.882   1.415   2.791  2.2207  0.2891  1.3888
 5291SOL    HW227510   0.877   1.556   2.831 -0.4997 -0.3162  0.8838
 5292SOL     OW27511   3.060   3.290   6.806  0.0732 -0.2006 -0.4885
 5292SOL    HW127512   3.127   3.318   6.743  0.1529  1.3969  0.3262
 5292SOL    HW227513   3.091   3.203   6.830  2.2455  0.6005 -0.3860
 5293SOL     OW27514   2.686   3.462   6.126 -0.2867  0.6135 -0.7170
 5293SOL    HW127515   2.764   3.430   6.172  0.4309 -0.4847 -2.6858
 5293SOL    HW227516   2.615   3.406   6.156  1.6099 -0.8536  1.0695
 5294SOL     OW27517   4.342   0.059   6.223 -0.0235  0.1843  0.2632
 5294SOL    HW127518   4.322   0.149   6.248  3.0246  1.0540 -0.4846
 5294SOL    HW227519   4.287   0.052   6.145  1.1360 -1.0104 -0.4438
 5295SOL     OW27520   4.561   0.718   6.531  0.0168 -0.7232 -0.1068
 5295SOL    HW127521   4.606   0.737   6.613  2.2560 -2.3527 -0.9382
 5295SOL    HW227522   4.523   0.633   6.552 -0.6819 -0.0845  1.1790
 5296SOL     OW27523   2.767   0.848   9.412  0.5607 -0.1971 -0.7636
 5296SOL    HW127524   2.750   0.796   9.334 -0.5998 -0.3377 -0.4176
 5296SOL    HW227525   2.674   0.872   9.423  0.4431 -2.1764  2.5549
 5297SOL     OW27526   2.453   4.368   8.666 -0.6228 -0.0036 -0.6656
 5297SOL    HW127527   2.361   4.391   8.671  0.1813  2.9057  0.6035
 5297SOL    HW227528   2.470   4.391   8.574 -0.6202  1.0808 -0.3949
 5298SOL     OW27529   3.855   4.626   1.881 -0.2610  0.0712  1.2014
 5298SOL    HW127530   3.905   4.700   1.915 -0.6351  1.3039 -0.9310
 5298SOL    HW227531   3.765   4.645   1.906 -0.5718  1.2048 -0.7396
 5299SOL     OW27532   2.254   0.484  11.480 -0.2563 -0.0596  0.5857
 5299SOL    HW127533   2.287   0.416  11.538 -0.8846 -2.3604 -1.7612
 5299SOL    HW227534   2.171   0.494  11.527 -1.3975 -2.3416 -0.9348
 5300SOL     OW27535   0.543   2.916   2.845  0.0964  0.4865  0.1290
 5300SOL    HW127536   0.541   2.974   2.768 -1.6776  1.2460  0.7399
 5300SOL    HW227537   0.452   2.930   2.871  0.3038  0.2176  0.9845
 5301SOL     OW27538   0.459   2.846   5.026  0.4300 -0.0923 -0.0445
 5301SOL    HW127539   0.442   2.873   4.936 -0.7716 -0.6744  0.0067
 5301SOL    HW227540   0.379   2.849   5.078  1.7253  0.3225  1.9415
 5302SOL     OW27541   2.169   1.950   3.972  0.0044  0.0799  0.2945
 5302SOL    HW127542   2.093   1.934   4.027 -1.0406  0.0885 -1.1737
 5302SOL    HW227543   2.209   2.012   4.034 -0.1660 -0.1557  0.6406
 5303SOL     OW27544   0.724   1.972   7.216 -0.7342 -1.1827  0.0017
 5303SOL    HW127545   0.680   1.937   7.138 -0.5769  0.1090 -0.6559
 5303SOL    HW227546   0.762   1.887   7.239  0.7488 -0.0234  1.8743
 5304SOL     OW27547   0.828   0.662   0.651  0.5899 -0.1264  0.6695
 5304SOL    HW127548   0.772   0.739   0.652  0.6263 -0.0584 -1.8751
 5304SOL    HW227549   0.774   0.594   0.689 -2.2257  0.6322 -1.9434
 5305SOL     OW27550   3.326   0.077   2.447 -0.0794  0.1652 -0.7416
 5305SOL    HW127551   3.267   0.050   2.376 -1.5195  1.1787  0.0633
 5305SOL    HW227552   3.358   0.162   2.416  2.7756 -0.6973 -0.0973
 5306SOL     OW27553   3.072   3.735   6.666 -0.2069 -0.1025  0.0252
 5306SOL    HW127554   3.161   3.719   6.696 -0.2482 -2.7187 -1.2669
 5306SOL    HW227555   3.021   3.703   6.741  2.4266 -2.1838  0.9078
 5307SOL     OW27556   0.156   2.098  13.888 -0.1308 -0.2393  0.0645
 5307SOL    HW127557   0.086   2.102  13.822 -0.4072  1.2342  0.4555
 5307SOL    HW227558   0.161   2.002  13.879 -0.0292 -0.2573  0.3204
 5308SOL     OW27559   2.685   3.269  16.828  0.5627 -0.0175  0.1649
 5308SOL    HW127560   2.702   3.274  16.922  0.8735 -0.7736  0.1495
 5308SOL    HW227561   2.598   3.310  16.829  0.3281 -0.5202  0.3415
 5309SOL     OW27562   3.287   0.670   8.835  0.7087  0.2401 -0.0143
 5309SOL    HW127563   3.331   0.701   8.914 -1.0551  0.8997  0.7088
 5309SOL    HW227564   3.206   0.721   8.831  0.1396 -0.5173  1.6513
 5310SOL     OW27565   4.523   2.924   1.546 -0.1601  0.3933 -0.9444
 5310SOL    HW127566   4.546   2.836   1.517 -2.7147 -0.5910 -0.0351
 5310SOL    HW227567   4.458   2.954   1.483  0.7417 -0.8120 -2.4288
 5311SOL     OW27568   3.466   3.456  17.230  0.0148 -0.5725 -0.1735
 5311SOL    HW127569   3.430   3.495  17.150  0.6910  1.6513  0.6192
 5311SOL    HW227570   3.449   3.521  17.297 -0.8285  1.8060 -2.7122
 5312SOL     OW27571   3.085   0.381   5.732 -0.3683  0.0389  0.0136
 5312SOL    HW127572   3.101   0.351   5.642 -1.1728  2.1113 -0.8146
 5312SOL    HW227573   3.163   0.434   5.748 -0.1708  0.0594 -1.0424
 5313SOL     OW27574   0.992   2.181   8.551 -0.1085  0.2078  0.1714
 5313SOL    HW127575   1.002   2.241   8.477  0.3030  1.7807  1.4949
 5313SOL    HW227576   1.080   2.147   8.565 -0.0953  0.1019 -0.1657
 5314SOL     OW27577   2.555   3.448   0.982  0.6791 -0.4807 -0.6000
 5314SOL    HW127578   2.571   3.416   1.071  1.2347 -0.4678 -0.6983
 5314SOL    HW227579   2.637   3.496   0.977 -0.1685  0.6731 -3.3749
 5315SOL     OW27580   3.870   3.260   5.210 -0.1572 -0.1631  0.7428
 5315SOL    HW127581   3.911   3.179   5.178  0.8426  0.2070  1.0839
 5315SOL    HW227582   3.939   3.310   5.253  0.5008 -0.8452  0.4824
 5316SOL     OW27583   3.503   4.277   7.693  0.1623  0.0589  0.4503
 5316SOL    HW127584   3.423   4.313   7.732  1.4839  2.5175  0.8239
 5316SOL    HW227585   3.475   4.192   7.658  0.1982 -1.1630  3.3614
 5317SOL     OW27586   3.457   0.238   3.709  0.1482 -0.4499 -0.8050
 5317SOL    HW127587   3.390   0.287   3.661  0.2222  0.9141  0.4634
 5317SOL    HW227588   3.448   0.146   3.684 -1.6718 -0.7772  1.0688
 5318SOL     OW27589   1.247   4.249  15.776  0.3765 -0.0927  0.0761
 5318SOL    HW127590   1.187   4.188  15.819 -0.1388  1.2855  1.2770
 5318SOL    HW227591   1.199   4.324  15.809  2.7557  0.6998  1.7626
 5319SOL     OW27592   3.591   1.364   6.660  0.2198 -0.1152 -0.2007
 5319SOL    HW127593   3.592   1.448   6.706 -0.5405 -0.9039  1.2714
 5319SOL    HW227594   3.523   1.325   6.715  0.5364  0.5753  0.6813
 5320SOL     OW27595   1.308   3.974  11.292  0.0856  0.3122  0.3131
 5320SOL    HW127596   1.247   4.048  11.300  1.2197  1.1501  1.3068
 5320SOL    HW227597   1.386   4.022  11.264 -0.2879 -0.1664 -1.5208
 5321SOL     OW27598   4.499   1.708   9.582 -0.3379 -0.4027  0.0117
 5321SOL    HW127599   4.478   1.632   9.527 -0.1939 -0.2010 -0.3206
 5321SOL    HW227600   4.593   1.691   9.593 -0.2185  1.0539  1.3081
 5322SOL     OW27601   3.825   0.692   0.080 -0.2047 -0.5181 -0.2149
 5322SOL    HW127602   3.828   0.771   0.134 -0.2894 -1.1601  0.7302
 5322SOL    HW227603   3.917   0.679   0.056 -0.0950  0.5391 -0.3612
 5323SOL     OW27604   1.504   2.103  12.007 -0.2292  0.3641  0.0986
 5323SOL    HW127605   1.480   2.049  12.082  1.7988 -2.9888 -1.6123
 5323SOL    HW227606   1.548   2.174  12.054  1.1103 -0.5964  0.2896
 5324SOL     OW27607   4.333   1.177   6.026 -0.1191  0.1568  0.4729
 5324SOL    HW127608   4.409   1.120   6.010 -0.9506 -0.4522 -1.2294
 5324SOL    HW227609   4.261   1.123   5.997  0.7875 -0.5814 -0.4074
 5325SOL     OW27610   3.777   3.552  17.712  0.6426 -0.0893 -0.0073
 5325SOL    HW127611   3.716   3.620  17.740 -1.5873 -2.3514  0.7490
 5325SOL    HW227612   3.748   3.478   0.019 -0.7308 -0.3895 -1.1339
 5326SOL     OW27613   0.988   3.370  17.052  0.4307  0.1153 -0.5172
 5326SOL    HW127614   0.985   3.429  17.127  0.6742  1.6295 -1.7043
 5326SOL    HW227615   0.949   3.431  16.990  0.3415  0.6577  0.0809
 5327SOL     OW27616   4.357   2.467  11.796 -0.0019  0.3778  0.2940
 5327SOL    HW127617   4.427   2.472  11.861 -1.1047  1.3011  1.4187
 5327SOL    HW227618   4.347   2.556  11.764 -0.6597  0.0961 -0.2758
 5328SOL     OW27619   0.903   1.845  16.244  0.0672  0.0263 -0.1159
 5328SOL    HW127620   0.831   1.798  16.286  0.7922 -0.1378  0.9272
 5328SOL    HW227621   0.855   1.928  16.241  1.5144  0.8062 -1.9174
 5329SOL     OW27622   2.404   4.717   3.845  0.1495 -0.0556 -0.1401
 5329SOL    HW127623   2.406   4.649   3.912  1.4471 -1.5100 -1.6682
 5329SOL    HW227624   2.490   0.018   3.863  0.5769 -0.2541 -1.7741
 5330SOL     OW27625   0.025   3.493   9.036 -0.1216 -0.3390 -0.1462
 5330SOL    HW127626   0.020   3.440   9.116  2.9886 -0.6879 -0.2096
 5330SOL    HW227627   0.017   3.424   8.970 -0.7816 -1.1437  0.7486
 5331SOL     OW27628   1.442   1.633   9.415 -0.1087  0.6088  0.0286
 5331SOL    HW127629   1.442   1.577   9.338  1.3168  0.8984 -0.1913
 5331SOL    HW227630   1.528   1.675   9.414 -0.0862  0.6097  2.0272
 5332SOL     OW27631   1.014   1.397   3.088  0.4004 -0.2419 -0.1317
 5332SOL    HW127632   0.941   1.336   3.081 -0.4230  1.0816 -3.4787
 5332SOL    HW227633   0.971   1.483   3.084  0.5092 -0.0859  1.9175
 5333SOL     OW27634   4.299   0.930   4.073 -0.1431 -0.3179 -0.1993
 5333SOL    HW127635   4.379   0.955   4.027  0.7125 -0.3111  1.3002
 5333SOL    HW227636   4.312   0.972   4.158  0.8028 -2.4582  0.7003
 5334SOL     OW27637   2.040   0.518   6.304 -0.2855  0.2690  0.2677
 5334SOL    HW127638   2.071   0.581   6.369 -1.3391  2.1497 -1.0508
 5334SOL    HW227639   2.027   0.443   6.361 -0.1733  0.8180  1.0084
 5335SOL     OW27640   0.175   2.417   5.963  0.4430  0.2261 -0.0500
 5335SOL    HW127641   0.210   2.505   5.958  0.1320  0.2859 -1.0780
 5335SOL    HW227642   0.172   2.398   6.057 -1.1657 -3.2746 -0.8064
 5336SOL     OW27643   1.438   4.453   5.452  0.2175  0.3638  0.2647
 5336SOL    HW127644   1.485   4.372   5.432 -1.7340 -1.0435  1.4316
 5336SOL    HW227645   1.504   4.506   5.498 -0.6072  0.6468  1.1114
 5337SOL     OW27646   3.737   2.841   4.328  0.4701  0.2831 -0.3804
 5337SOL    HW127647   3.657   2.854   4.378  0.2524  1.4107 -1.0193
 5337SOL    HW227648   3.717   2.896   4.252 -0.9965 -1.0589 -0.9531
 5338SOL     OW27649   0.921   3.409   2.230 -0.2550 -0.4421 -0.0319
 5338SOL    HW127650   0.887   3.418   2.320  0.6519  2.9995 -0.0360
 5338SOL    HW227651   0.951   3.497   2.212  1.8656 -1.2341 -0.3732
 5339SOL     OW27652   3.059   4.199   5.402  0.3962  0.0127 -0.1722
 5339SOL    HW127653   3.054   4.164   5.313  1.8546 -0.1556 -0.1779
 5339SOL    HW227654   2.980   4.254   5.406  0.2357  0.1226 -4.1137
 5340SOL     OW27655   3.054   0.412   8.243  0.4531 -0.3298 -0.0400
 5340SOL    HW127656   3.091   0.325   8.228  0.5722 -0.4150  0.7666
 5340SOL    HW227657   3.124   0.463   8.283 -0.3423  0.4506  0.3420
 5341SOL     OW27658   0.181   3.357   9.520  0.1120 -0.5753 -0.1720
 5341SOL    HW127659   0.256   3.301   9.541 -0.9767 -1.5470  1.1246
 5341SOL    HW227660   0.134   3.354   9.603 -0.6487  2.4343 -0.4918
 5342SOL     OW27661   3.473   0.286   1.592 -0.1543  0.0916  0.3381
 5342SOL    HW127662   3.462   0.370   1.547  2.8733 -0.6555 -1.7922
 5342SOL    HW227663   3.392   0.247   1.559  0.3087 -1.1749  0.7027
 5343SOL     OW27664   3.803   2.242   7.346 -0.6001  0.3189 -0.3070
 5343SOL    HW127665   3.844   2.327   7.330 -0.1084 -0.0981 -1.2529
 5343SOL    HW227666   3.828   2.238   7.438 -0.0977 -1.7654 -0.5300
 5344SOL     OW27667   4.579   1.014   0.711 -0.1927  0.0988 -0.9082
 5344SOL    HW127668   4.644   1.079   0.686  1.6108 -1.0166  0.8400
 5344SOL    HW227669   4.589   1.009   0.807  0.6524  0.5434 -0.9738
 5345SOL     OW27670   3.289   3.037   2.159 -0.0380  0.3126  0.1217
 5345SOL    HW127671   3.321   3.069   2.244  1.0818 -0.5851  0.0223
 5345SOL    HW227672   3.280   3.117   2.107 -1.4212  0.4137  0.5106
 5346SOL     OW27673   3.803   2.694   8.560  0.3007  0.0791  0.0533
 5346SOL    HW127674   3.775   2.679   8.650  1.9000 -0.7389  0.3997
 5346SOL    HW227675   3.722   2.739   8.534 -0.6464 -0.4128  2.1269
 5347SOL     OW27676   3.793   4.730   2.963  0.0812  0.5559  0.1496
 5347SOL    HW127677   3.833   4.668   2.902 -0.6418  1.0425 -0.8196
 5347SOL    HW227678   3.752   4.657   3.009 -1.9200  0.3042 -2.0518
 5348SOL     OW27679   1.214   3.184   7.574 -0.0676  0.0974  0.2620
 5348SOL    HW127680   1.305   3.212   7.585  0.2889  0.0746 -2.5985
 5348SOL    HW227681   1.170   3.239   7.639  1.4448  0.2421  1.1712
 5349SOL     OW27682   0.414   2.249   2.727 -0.5263  0.1017  0.0880
 5349SOL    HW127683   0.445   2.279   2.641  1.5895 -0.7159  0.5818
 5349SOL    HW227684   0.363   2.171   2.707  1.6152 -0.8175 -1.7707
 5350SOL     OW27685   4.123   1.643   9.096  0.4889 -0.3300  0.5413
 5350SOL    HW127686   4.074   1.587   9.156 -0.8163 -0.3455 -0.5457
 5350SOL    HW227687   4.208   1.600   9.107  0.1235 -0.9747  0.8570
 5351SOL     OW27688   2.885   4.620   4.792 -0.6510 -0.3259  0.1284
 5351SOL    HW127689   2.865   4.687   4.857 -2.8855 -2.0560  1.2214
 5351SOL    HW227690   2.965   4.654   4.752  0.9148 -3.4984  0.5646
 5352SOL     OW27691   0.657   2.213   2.016 -0.0701  0.5460  0.3688
 5352SOL    HW127692   0.723   2.213   1.947  0.0202 -0.8689  0.4601
 5352SOL    HW227693   0.576   2.220   1.966  0.3379 -0.5288 -0.4298
 5353SOL     OW27694   4.000   2.372  15.340  0.6522  0.8374  0.0787
 5353SOL    HW127695   4.086   2.344  15.309  0.5753  1.5452 -0.7524
 5353SOL    HW227696   3.991   2.325  15.423 -0.8518 -3.0582 -2.2508
 5354SOL     OW27697   2.516   1.286   6.339 -0.0686  0.0411  0.4227
 5354SOL    HW127698   2.534   1.233   6.417  0.3597 -0.5549 -0.0887
 5354SOL    HW227699   2.536   1.226   6.267 -0.7227  1.4905 -0.9528
 5355SOL     OW27700   1.148   2.746   8.497 -0.7438  0.0824 -0.0159
 5355SOL    HW127701   1.129   2.790   8.579  3.6492  0.8398  0.5647
 5355SOL    HW227702   1.119   2.658   8.522 -0.4043  0.4025  1.4814
 5356SOL     OW27703   1.054   0.666   8.447 -0.1402 -0.2431  0.8307
 5356SOL    HW127704   1.143   0.683   8.479  1.1118 -2.8413 -1.2677
 5356SOL    HW227705   1.062   0.577   8.412  0.6583 -0.0147  0.4339
 5357SOL     OW27706   3.421   3.728  16.970  0.1575 -0.0379  0.6768
 5357SOL    HW127707   3.365   3.651  16.979  0.0454 -0.3885 -3.0011
 5357SOL    HW227708   3.395   3.774  17.050 -2.0139  1.1714 -0.7290
 5358SOL     OW27709   3.862   3.699   6.976  0.1037  0.0070  0.0606
 5358SOL    HW127710   3.929   3.714   7.042 -2.0600 -0.3661  2.3422
 5358SOL    HW227711   3.798   3.646   7.023  0.6992 -0.1261  0.7117
 5359SOL     OW27712   4.046   0.964   0.836 -0.1390 -0.3508 -0.2490
 5359SOL    HW127713   4.067   0.872   0.849  2.0606  0.1942 -0.0361
 5359SOL    HW227714   4.092   1.003   0.910 -1.7681  0.4183  0.3809
 5360SOL     OW27715   2.921   1.794   6.208  0.2015  0.2386  0.2527
 5360SOL    HW127716   2.878   1.879   6.197  1.2413  0.5949 -1.0569
 5360SOL    HW227717   2.883   1.765   6.291  0.3951  1.1181  0.6465
 5361SOL     OW27718   2.830   0.660   4.573  0.1655  0.5657  0.0540
 5361SOL    HW127719   2.841   0.569   4.545 -1.6362  0.1408  0.6864
 5361SOL    HW227720   2.886   0.661   4.650  0.0636  1.7253  0.1041
 5362SOL     OW27721   4.057   3.641   6.755  0.0682  0.2674  0.5849
 5362SOL    HW127722   4.002   3.696   6.810  0.5604  2.8704 -1.5245
 5362SOL    HW227723   4.027   3.555   6.782  1.3112 -0.1717  0.5951
 5363SOL     OW27724   0.702   4.728  17.376  0.2094  0.0950  0.3700
 5363SOL    HW127725   0.734   0.001  17.287 -0.4219  0.6390  0.2007
 5363SOL    HW227726   0.784   4.734  17.424  0.8243  3.7316 -1.1167
 5364SOL     OW27727   3.553   0.967   6.962 -0.1233  0.0819 -0.2350
 5364SOL    HW127728   3.542   0.969   7.058  0.6980 -0.4195 -0.1311
 5364SOL    HW227729   3.478   0.910   6.945 -2.1454  2.8326 -0.6291
 5365SOL     OW27730   2.253   0.860   7.937 -0.0770 -0.1544 -0.2243
 5365SOL    HW127731   2.336   0.885   7.977  0.1883  1.1376 -1.6144
 5365SOL    HW227732   2.271   0.880   7.846 -0.2990  1.8420  0.1813
 5366SOL     OW27733   3.321   0.181   4.542 -0.5752 -0.6235 -0.2829
 5366SOL    HW127734   3.253   0.134   4.590 -2.7360  0.0390 -2.6718
 5366SOL    HW227735   3.391   0.118   4.560 -0.7926 -0.3720  1.4358
 5367SOL     OW27736   1.506   1.532   0.515 -0.0349  0.2337 -0.2954
 5367SOL    HW127737   1.588   1.570   0.545 -0.8318  1.4417  0.3763
 5367SOL    HW227738   1.503   1.576   0.430 -1.0705  1.0126  0.1415
 5368SOL     OW27739   4.398   0.551   4.727  0.5704 -0.1314  0.2502
 5368SOL    HW127740   4.308   0.519   4.733  0.6127 -0.3839 -0.4245
 5368SOL    HW227741   4.433   0.475   4.680  1.6294  2.0733 -2.5383
 5369SOL     OW27742   4.395   2.137   6.453  0.2301 -0.7039  0.1974
 5369SOL    HW127743   4.407   2.069   6.387 -1.7241  0.8006 -1.7242
 5369SOL    HW227744   4.381   2.079   6.528  1.2106  1.0600  1.7667
 5370SOL     OW27745   3.047   0.842   6.494  0.1447  0.1845  0.6928
 5370SOL    HW127746   2.953   0.841   6.511 -0.3036 -1.1415 -1.7485
 5370SOL    HW227747   3.046   0.910   6.426  0.3602 -0.3411  0.1589
 5371SOL     OW27748   3.865   0.919   9.771  0.4478 -0.4075 -0.0036
 5371SOL    HW127749   3.893   0.917   9.863 -0.2601  1.9494  0.2690
 5371SOL    HW227750   3.944   0.882   9.732 -2.0338 -2.3203 -3.1855
 5372SOL     OW27751   2.198   1.702   1.933 -0.3886 -0.6399  0.7093
 5372SOL    HW127752   2.213   1.706   2.028 -2.1803 -0.3522  0.9861
 5372SOL    HW227753   2.107   1.675   1.922 -1.0755  1.7545  0.4235
 5373SOL     OW27754   1.072   3.037   6.421  0.0377 -0.3590  0.1683
 5373SOL    HW127755   1.063   2.950   6.382  0.5798 -0.1980 -0.3242
 5373SOL    HW227756   0.987   3.078   6.434  0.1938  0.1929 -0.5526
 5374SOL     OW27757   1.241   4.207   7.884  0.6661 -0.2392  0.7706
 5374SOL    HW127758   1.279   4.218   7.797  0.7659 -2.0064  0.5925
 5374SOL    HW227759   1.311   4.233   7.943  0.5468  0.0994  0.7605
 5375SOL     OW27760   0.023   4.255  15.779  0.3254  0.1940 -0.1102
 5375SOL    HW127761   0.078   4.186  15.816 -1.5813 -1.4622 -0.3482
 5375SOL    HW227762   4.683   4.202  15.758  0.0282  0.2223  0.9135
 5376SOL     OW27763   3.347   3.103  13.309  0.3591 -0.9138  0.3526
 5376SOL    HW127764   3.398   3.030  13.343  1.5706  0.1907  0.9203
 5376SOL    HW227765   3.273   3.050  13.279 -0.2894 -0.3735  0.9982
 5377SOL     OW27766   2.334   4.008   3.208  0.4007 -0.4240  0.3981
 5377SOL    HW127767   2.416   3.981   3.166 -0.3889  0.3493 -1.6788
 5377SOL    HW227768   2.368   4.056   3.283  2.7805 -0.9642 -0.3342
 5378SOL     OW27769   0.643   3.766   4.946 -0.4920 -0.3776 -0.2420
 5378SOL    HW127770   0.663   3.757   5.039 -0.0613 -1.0109 -0.3957
 5378SOL    HW227771   0.595   3.685   4.926  2.0753 -2.5169  2.2512
 5379SOL     OW27772   3.238   0.891   8.430  0.1064  0.0077 -0.5666
 5379SOL    HW127773   3.251   0.972   8.380  0.6972  0.7056  0.7031
 5379SOL    HW227774   3.328   0.857   8.433 -0.7597 -2.1276  0.5476
 5380SOL     OW27775   1.213   3.581  13.598 -0.0151 -0.1255  0.0985
 5380SOL    HW127776   1.173   3.496  13.576 -0.2744  0.3609 -1.3014
 5380SOL    HW227777   1.252   3.558  13.682  2.1241 -0.5877 -1.0272
 5381SOL     OW27778   1.683   0.923   3.157 -0.2093 -0.4824 -0.1154
 5381SOL    HW127779   1.758   0.919   3.097  0.1330  1.4803  0.1870
 5381SOL    HW227780   1.709   1.002   3.204  1.5877 -2.0302  1.4836
 5382SOL     OW27781   3.916   3.289   6.017  0.3907 -0.2981 -0.1430
 5382SOL    HW127782   3.861   3.274   6.094 -1.0367 -0.2361 -1.1584
 5382SOL    HW227783   3.848   3.291   5.949  0.3931  1.3966 -0.0846
 5383SOL     OW27784   3.620   3.091   3.304  0.5630 -0.2708 -0.2832
 5383SOL    HW127785   3.662   3.130   3.381  1.0352 -1.1061 -0.1220
 5383SOL    HW227786   3.686   3.093   3.235 -0.7891 -0.2677 -1.5825
 5384SOL     OW27787   2.940   0.031   2.933  0.8935 -0.4758  0.3154
 5384SOL    HW127788   3.025   0.023   2.977  1.1001  0.0372 -0.0002
 5384SOL    HW227789   2.900   4.689   2.970  1.6541 -0.6374  0.7968
 5385SOL     OW27790   2.841   0.667  12.218 -0.1903 -0.3127 -0.2293
 5385SOL    HW127791   2.829   0.650  12.125 -3.4643 -1.6470  0.4352
 5385SOL    HW227792   2.936   0.666  12.229 -0.2241  2.8565  0.2038
 5386SOL     OW27793   2.440   2.558   5.574  0.2089 -0.8106 -0.1916
 5386SOL    HW127794   2.366   2.617   5.557  1.9113  1.3897  0.0151
 5386SOL    HW227795   2.493   2.584   5.498 -0.1597  1.9617  0.5079
 5387SOL     OW27796   4.675   3.431   0.880 -0.3014 -0.0882  0.2238
 5387SOL    HW127797   4.583   3.439   0.907 -0.7679  0.5312 -1.5384
 5387SOL    HW227798   4.653   3.436   0.787 -1.5186  1.2768  0.5899
 5388SOL     OW27799   2.978   4.356   4.738  0.3454 -0.3843 -0.5515
 5388SOL    HW127800   3.040   4.412   4.692 -0.0788 -0.7274 -1.5540
 5388SOL    HW227801   2.899   4.409   4.724 -1.9234 -3.4451  0.5598
 5389SOL     OW27802   2.975   1.892   4.042  0.2162  0.1704  0.6243
 5389SOL    HW127803   2.967   1.874   3.949  1.4309 -1.0767  0.7644
 5389SOL    HW227804   3.017   1.978   4.032  0.9463 -0.3695 -0.8868
 5390SOL     OW27805   0.572   0.736   6.273 -0.0519 -0.0287  0.0868
 5390SOL    HW127806   0.608   0.652   6.302 -0.4256  0.4203  1.8503
 5390SOL    HW227807   0.600   0.785   6.351 -0.5000 -0.9831  0.8389
 5391SOL     OW27808   1.450   1.662   4.631 -0.0702 -0.1066  0.5392
 5391SOL    HW127809   1.410   1.696   4.711 -1.3100 -1.0014  0.3079
 5391SOL    HW227810   1.506   1.737   4.614 -0.6664  0.8989  2.9918
 5392SOL     OW27811   2.008   0.220  12.315  0.1793 -0.6133 -0.3168
 5392SOL    HW127812   1.928   0.271  12.324 -0.2063 -1.1195 -0.9169
 5392SOL    HW227813   2.059   0.295  12.285 -0.3439 -0.3180 -0.4574
 5393SOL     OW27814   2.035   4.104   8.633  0.1503 -0.3374  0.2371
 5393SOL    HW127815   2.060   4.052   8.709  1.7340 -0.5933 -0.4513
 5393SOL    HW227816   2.096   4.075   8.565 -0.9006  2.0391 -1.7062
 5394SOL     OW27817   3.411   2.260   9.069 -0.4571 -0.6928  0.5158
 5394SOL    HW127818   3.396   2.217   8.985  4.4514 -0.3002 -0.5885
 5394SOL    HW227819   3.489   2.314   9.053 -0.7510 -0.9893 -1.9846
 5395SOL     OW27820   1.626   0.836   8.314 -0.5257  0.0932  0.6071
 5395SOL    HW127821   1.574   0.757   8.326 -0.1064 -0.2318  0.2973
 5395SOL    HW227822   1.718   0.808   8.315 -1.1974 -2.0513  0.9603
 5396SOL     OW27823   3.938   0.416   7.852 -0.4053  0.0649  0.5991
 5396SOL    HW127824   3.928   0.334   7.902  0.0481 -1.2785 -1.5113
 5396SOL    HW227825   3.980   0.380   7.774 -1.7422 -1.0862  0.4105
 5397SOL     OW27826   4.115   1.566   7.582 -0.1410 -0.7126 -1.0285
 5397SOL    HW127827   4.076   1.597   7.500  1.0082 -0.0577 -1.3240
 5397SOL    HW227828   4.141   1.475   7.565  0.7012 -0.3199 -1.8326
 5398SOL     OW27829   2.593   2.806   4.346  0.0555  0.0013 -0.0766
 5398SOL    HW127830   2.656   2.862   4.391 -0.3598 -0.7980  1.4883
 5398SOL    HW227831   2.648   2.770   4.276 -0.3099  1.1024 -0.9420
 5399SOL     OW27832   3.528   2.931   3.947 -0.2140  0.0350 -0.2201
 5399SOL    HW127833   3.482   2.889   3.874 -1.7311 -0.9025  1.2744
 5399SOL    HW227834   3.464   2.994   3.979 -1.2565 -0.4779 -1.3173
 5400SOL     OW27835   2.623   1.858   6.992 -0.3416 -0.3918 -0.0518
 5400SOL    HW127836   2.575   1.838   6.911  0.7649  2.2010 -1.3375
 5400SOL    HW227837   2.550   1.859   7.054 -0.8949  0.7814 -0.7174
 5401SOL     OW27838   2.099   1.444  14.880  0.5115  0.2155  0.0463
 5401SOL    HW127839   2.076   1.351  14.877 -0.4053  0.4570 -0.6468
 5401SOL    HW227840   2.056   1.466  14.962 -0.1799  2.4069 -0.8790
 5402SOL     OW27841   4.341   1.508   8.073 -0.0035  0.0706 -0.0265
 5402SOL    HW127842   4.328   1.520   7.979 -0.4393  0.2799  0.0639
 5402SOL    HW227843   4.430   1.474   8.072  0.5586  1.4914  1.2872
 5403SOL     OW27844   0.928   4.414   6.992 -0.9106  0.1167  0.0398
 5403SOL    HW127845   0.882   4.444   7.070  0.0339  0.1798  0.5721
 5403SOL    HW227846   0.883   4.463   6.923  1.1450  1.1551 -0.5666
 5404SOL     OW27847   1.529   3.534   7.767 -0.0630  0.2510 -0.1674
 5404SOL    HW127848   1.465   3.556   7.700 -0.3789 -1.5759 -0.4671
 5404SOL    HW227849   1.489   3.581   7.840  3.4015 -0.5554  2.2497
 5405SOL     OW27850   1.373   1.223   5.485  0.2353  0.6420  0.2602
 5405SOL    HW127851   1.376   1.163   5.411  0.1217  0.6370  0.2590
 5405SOL    HW227852   1.458   1.267   5.480 -0.7944  2.5402 -0.7539
 5406SOL     OW27853   2.633   4.001   3.717  0.1283 -0.5327 -0.1693
 5406SOL    HW127854   2.539   3.981   3.726 -0.5854  2.0940 -2.0002
 5406SOL    HW227855   2.681   3.922   3.743  0.1671  0.7008  3.4634
 5407SOL     OW27856   1.436   1.127   6.949 -0.2629 -0.4390  0.1849
 5407SOL    HW127857   1.352   1.171   6.961 -0.3419 -0.2804 -1.0493
 5407SOL    HW227858   1.465   1.170   6.869 -1.4095  0.1541  0.0870
 5408SOL     OW27859   4.682   2.357   5.672  0.1804  0.2094  0.0450
 5408SOL    HW127860   0.005   2.314   5.612 -1.8285 -0.4521 -1.4796
 5408SOL    HW227861   4.713   2.447   5.661 -1.4861  0.9692  1.5149
 5409SOL     OW27862   0.413   0.770   7.643 -0.0657 -0.8958 -0.2214
 5409SOL    HW127863   0.386   0.843   7.699  0.6433 -1.3079  0.6723
 5409SOL    HW227864   0.491   0.740   7.691  0.3623 -1.8966 -1.5443
 5410SOL     OW27865   0.045   1.450  16.726 -0.0863 -0.6801 -0.1649
 5410SOL    HW127866   0.109   1.472  16.659  0.0883  0.1353  0.2619
 5410SOL    HW227867   0.014   1.537  16.751  0.5206  0.1270 -2.2607
 5411SOL     OW27868   1.141   1.943  16.378 -0.3825  0.0921 -0.0124
 5411SOL    HW127869   1.069   1.994  16.415 -0.2229  0.8830 -0.8125
 5411SOL    HW227870   1.095   1.865  16.348 -0.4357  0.3903 -0.7023
 5412SOL     OW27871   2.175   3.723   0.414  1.0243 -0.0090 -0.4566
 5412SOL    HW127872   2.126   3.657   0.365 -1.4999  1.2074  0.4049
 5412SOL    HW227873   2.201   3.776   0.339 -1.8121  0.7682 -0.9058
 5413SOL     OW27874   2.293   4.409   3.446 -0.3168  0.1923  0.1860
 5413SOL    HW127875   2.205   4.439   3.424  0.6283  2.8514  0.0586
 5413SOL    HW227876   2.351   4.485   3.440 -2.9713  2.3339  2.0326
 5414SOL     OW27877   3.026   3.042   4.591 -0.1108  0.1910  0.4307
 5414SOL    HW127878   3.010   2.988   4.514  0.0192 -0.6872  1.0192
 5414SOL    HW227879   3.065   2.975   4.646  2.0619 -0.4169 -1.8697
 5415SOL     OW27880   3.910   2.263   4.192 -0.2653 -0.4691 -0.3726
 5415SOL    HW127881   3.891   2.191   4.251 -0.3707  0.7416  1.0694
 5415SOL    HW227882   3.892   2.330   4.258  3.5941  0.9814 -0.7391
 5416SOL     OW27883   1.049   3.672   3.402  0.1040  0.3107  0.1484
 5416SOL    HW127884   1.030   3.591   3.449  3.0765 -0.2494  0.3977
 5416SOL    HW227885   1.072   3.648   3.312  0.3868  0.3713  0.2033
 5417SOL     OW27886   0.101   3.166   8.336  0.3749 -0.3895  0.0292
 5417SOL    HW127887   0.112   3.189   8.244 -2.1400  2.8826  0.5588
 5417SOL    HW227888   0.032   3.101   8.323  1.3384 -1.2549 -0.7514
 5418SOL     OW27889   4.737   3.765   3.816 -0.4582  0.6584 -0.0527
 5418SOL    HW127890   4.669   3.703   3.789  1.3148 -1.5678  0.6467
 5418SOL    HW227891   0.063   3.737   3.750  1.3989  0.3233  1.8592
 5419SOL     OW27892   2.987   1.995   8.365  0.3826 -0.4313 -0.3488
 5419SOL    HW127893   2.986   2.088   8.343  0.9013 -0.4886 -0.6018
 5419SOL    HW227894   3.073   1.965   8.335 -0.2368 -0.1681 -2.3555
 5420SOL     OW27895   0.238   3.952   9.605 -0.1518 -0.2035 -0.2255
 5420SOL    HW127896   0.279   4.037   9.589 -0.1733 -0.4868 -1.8247
 5420SOL    HW227897   0.262   3.922   9.693 -1.1000 -1.8490 -0.5443
 5421SOL     OW27898   2.834   1.698   8.637  0.0315 -0.1065  0.3550
 5421SOL    HW127899   2.813   1.789   8.658  0.6391 -0.0935  0.9108
 5421SOL    HW227900   2.928   1.706   8.625  0.3716 -2.9105  1.1329
 5422SOL     OW27901   0.494   3.774   3.974 -0.3664  0.3233  0.1388
 5422SOL    HW127902   0.416   3.720   3.980 -0.3476  0.4561  1.5980
 5422SOL    HW227903   0.499   3.779   3.878  0.3275 -0.0071  0.1569
 5423SOL     OW27904   4.204   0.659  14.137  0.2214  0.1099  0.2785
 5423SOL    HW127905   4.165   0.621  14.059 -0.0355 -1.0539  0.9742
 5423SOL    HW227906   4.132   0.709  14.176  0.5744  1.7077 -1.1376
 5424SOL     OW27907   4.192   2.708   6.392  0.1079 -0.4526  0.2223
 5424SOL    HW127908   4.123   2.771   6.413 -0.4128 -0.0680 -2.6017
 5424SOL    HW227909   4.235   2.688   6.475 -1.1302 -0.6354  0.8275
 5425SOL     OW27910   3.457   0.413   7.078 -0.1151  0.1578 -0.1000
 5425SOL    HW127911   3.420   0.365   7.004 -1.7385 -1.5448  1.8422
 5425SOL    HW227912   3.372   0.424   7.121 -0.9530 -1.2868 -1.4018
 5426SOL     OW27913   0.962   3.271  16.412  0.0343 -0.5705 -0.0508
 5426SOL    HW127914   0.895   3.337  16.429 -0.0294 -0.7435  0.3672
 5426SOL    HW227915   0.958   3.221  16.494 -0.7508  0.7826  0.7411
 5427SOL     OW27916   3.177   2.332   8.001 -0.1171  0.3275  0.0208
 5427SOL    HW127917   3.232   2.277   8.056 -0.6159  0.4249  0.6209
 5427SOL    HW227918   3.111   2.270   7.970  0.3802 -1.3315  2.2787
 5428SOL     OW27919   4.672   1.766   5.272  0.2640  0.1366  0.4347
 5428SOL    HW127920   4.696   1.857   5.256  0.3388  0.0355 -0.0188
 5428SOL    HW227921   0.016   1.725   5.302  0.0688  0.9930  2.1237
 5429SOL     OW27922   3.290   3.878   7.031  0.2608  0.2001 -0.1175
 5429SOL    HW127923   3.288   3.955   6.973  1.6769  0.5768  0.3309
 5429SOL    HW227924   3.225   3.893   7.100 -2.1433 -0.8160 -2.1939
 5430SOL     OW27925   3.625   3.608   4.328  0.0358 -0.1860  0.0939
 5430SOL    HW127926   3.624   3.701   4.350  1.0650 -0.6663  2.1219
 5430SOL    HW227927   3.658   3.573   4.411 -1.8851  0.4271  1.0989
 5431SOL     OW27928   0.545   0.028   6.930  0.0131  0.5141  0.0492
 5431SOL    HW127929   0.595   0.106   6.953 -1.2289  0.9458  1.2805
 5431SOL    HW227930   0.516   0.054   6.842  0.9766 -0.0250 -0.4325
 5432SOL     OW27931   3.242   4.517   9.877  0.7938 -0.3670 -0.6629
 5432SOL    HW127932   3.307   4.587   9.876 -0.4978  0.8940  1.1641
 5432SOL    HW227933   3.259   4.473   9.794  1.9029 -0.1577 -0.5406
 5433SOL     OW27934   3.984   4.156  13.052  0.3005  0.0284 -0.1149
 5433SOL    HW127935   3.942   4.111  13.125 -0.6481  0.6614 -0.2603
 5433SOL    HW227936   4.036   4.091  13.005  0.6734 -1.5467  2.5086
 5434SOL     OW27937   0.899   2.947   4.431 -0.3363  0.0815  0.5957
 5434SOL    HW127938   0.954   2.874   4.400  3.0439  2.8288  0.1263
 5434SOL    HW227939   0.970   3.010   4.446 -1.5240  0.9600  2.4906
 5435SOL     OW27940   2.767   4.651  16.193 -0.1031  0.1674 -0.2265
 5435SOL    HW127941   2.823   4.656  16.270 -2.8005 -1.3004  1.8172
 5435SOL    HW227942   2.772   0.005  16.164  0.3294 -0.0972 -0.9925
 5436SOL     OW27943   0.377   0.975   5.634  0.0628  0.4138 -0.4113
 5436SOL    HW127944   0.300   0.976   5.692  1.3380 -1.5928  1.2867
 5436SOL    HW227945   0.382   0.880   5.628  0.6713  0.2879  2.2647
 5437SOL     OW27946   2.603   2.952   7.845  0.2819  0.0798  0.1671
 5437SOL    HW127947   2.666   3.023   7.858 -1.0756  1.5791 -1.3477
 5437SOL    HW227948   2.666   2.880   7.850  1.2445  0.9426  0.3636
 5438SOL     OW27949   1.627   0.100   9.355  0.1835  0.2614 -0.0842
 5438SOL    HW127950   1.573   0.064   9.283  0.5180 -0.0643 -0.1746
 5438SOL    HW227951   1.555   0.132   9.408  1.8206  0.4127  2.0214
 5439SOL     OW27952   1.551   4.450   6.326 -0.6076 -0.3603 -0.2672
 5439SOL    HW127953   1.610   4.523   6.343 -2.2823  1.0045 -0.2582
 5439SOL    HW227954   1.595   4.407   6.252  0.2741 -0.7356  0.4815
 5440SOL     OW27955   3.286   2.459  16.110 -0.5787  0.4004  0.0901
 5440SOL    HW127956   3.341   2.384  16.088  1.7464  2.1836 -0.3428
 5440SOL    HW227957   3.339   2.505  16.176 -0.5072 -2.3763  1.9474
 5441SOL     OW27958   1.805   1.837   5.379 -0.3925  0.7108  0.8334
 5441SOL    HW127959   1.868   1.765   5.370 -0.5297  0.6489  0.3460
 5441SOL    HW227960   1.735   1.792   5.331 -1.4876 -0.3500  3.3976
 5442SOL     OW27961   2.777   2.466   0.894 -0.4203 -1.0228  0.0033
 5442SOL    HW127962   2.763   2.526   0.968  0.2727  1.4734 -1.8954
 5442SOL    HW227963   2.726   2.503   0.822  0.5784 -0.9472 -0.6664
 5443SOL     OW27964   3.528   0.315   8.266 -0.4712  0.0793  0.3029
 5443SOL    HW127965   3.610   0.311   8.316 -0.3682  0.5681  0.1791
 5443SOL    HW227966   3.561   0.389   8.214  0.6060 -2.3396 -2.4305
 5444SOL     OW27967   3.937   0.935   7.884 -0.3257  0.2525 -0.2429
 5444SOL    HW127968   3.922   0.852   7.930  2.2433 -0.4140 -0.6255
 5444SOL    HW227969   3.996   0.919   7.811 -0.3268  0.3431 -0.2637
 5445SOL     OW27970   4.020   1.884  13.548 -0.5262 -0.2648  0.5297
 5445SOL    HW127971   4.069   1.894  13.466  2.5588 -3.2555  2.0252
 5445SOL    HW227972   4.054   1.961  13.594  0.4338 -1.0668  1.1601
 5446SOL     OW27973   0.429   0.931  11.355  0.0377 -0.1573 -0.3234
 5446SOL    HW127974   0.395   1.018  11.331  1.2741  1.1552  2.7032
 5446SOL    HW227975   0.494   0.922  11.286  1.6728  1.9279  0.9609
 5447SOL     OW27976   1.394   3.063   2.949 -0.5864 -0.2029  0.7868
 5447SOL    HW127977   1.364   3.037   3.036 -0.4233 -1.1881  0.5554
 5447SOL    HW227978   1.342   3.003   2.895  0.1507 -1.7203  1.7552
 5448SOL     OW27979   2.087   1.449   4.460 -0.1185 -0.4286  0.2769
 5448SOL    HW127980   2.172   1.422   4.493  0.0612  0.4729  0.5551
 5448SOL    HW227981   2.082   1.418   4.369  1.2495  0.3267 -0.0463
 5449SOL     OW27982   3.572   3.904   8.902 -0.2524  0.0573 -0.2121
 5449SOL    HW127983   3.509   3.939   8.840 -2.5078 -1.8238  1.0223
 5449SOL    HW227984   3.516   3.876   8.975 -2.3288 -0.8398 -2.1667
 5450SOL     OW27985   3.593   4.181   2.835 -0.1628 -0.3623 -0.1671
 5450SOL    HW127986   3.677   4.188   2.881 -0.4787 -1.0283  0.5060
 5450SOL    HW227987   3.613   4.177   2.741 -0.4400 -1.8247 -0.1711
 5451SOL     OW27988   3.860   2.148   3.027 -0.0615  0.7188  0.1795
 5451SOL    HW127989   3.803   2.116   2.958  0.9776  0.8261 -0.7216
 5451SOL    HW227990   3.947   2.125   2.996  1.4917  0.8369  4.4105
 5452SOL     OW27991   4.557   0.816  17.400 -0.5097 -0.4120  0.1238
 5452SOL    HW127992   4.489   0.783  17.341  1.4018 -1.3035 -1.5526
 5452SOL    HW227993   4.509   0.833  17.482  0.9178  1.1979  0.6229
 5453SOL     OW27994   1.379   1.974   7.440  0.1256  0.6470 -0.1050
 5453SOL    HW127995   1.373   1.969   7.345 -0.1557  2.4069 -0.1661
 5453SOL    HW227996   1.290   1.945   7.462  0.1384  2.3474  2.1642
 5454SOL     OW27997   2.553   4.680   8.320 -0.4644 -0.1243 -0.0537
 5454SOL    HW127998   2.541   4.711   8.410 -0.3367  0.2344 -0.1606
 5454SOL    HW227999   2.596   0.020   8.284 -0.5403 -0.8163 -1.6408
 5455SOL     OW28000   3.713   3.371  17.146  0.1137 -0.7079 -0.1553
 5455SOL    HW128001   3.677   3.372  17.057 -2.1601  0.2038  0.7920
 5455SOL    HW228002   3.635   3.380  17.201 -0.2033  0.9953 -0.8877
 5456SOL     OW28003   3.551   4.124  11.927 -0.2109 -0.2354  0.0919
 5456SOL    HW128004   3.572   4.151  11.837 -2.7165 -0.0427 -0.4329
 5456SOL    HW228005   3.461   4.157  11.932  0.4406  1.7154 -0.9000
 5457SOL     OW28006   3.237   4.450   5.339  0.5768  0.1361 -0.1735
 5457SOL    HW128007   3.204   4.487   5.421 -1.9241  0.2238 -1.2226
 5457SOL    HW228008   3.161   4.393   5.322  1.6846 -0.8042 -2.0343
 5458SOL     OW28009   3.973   1.810   5.518  0.5361 -0.0180 -0.1049
 5458SOL    HW128010   3.908   1.742   5.504 -1.7031  1.7182  1.9797
 5458SOL    HW228011   4.007   1.822   5.430  1.8095 -2.0967  0.1021
 5459SOL     OW28012   4.604   0.128   9.229  0.5895 -0.3216 -0.2817
 5459SOL    HW128013   4.559   0.204   9.193  1.5351 -0.4524 -1.7233
 5459SOL    HW228014   4.635   0.163   9.312  1.0960  0.5190 -0.8214
 5460SOL     OW28015   3.874   3.441   6.397 -0.3411  0.0526 -0.1856
 5460SOL    HW128016   3.879   3.536   6.410 -0.0125 -0.3077  2.3428
 5460SOL    HW228017   3.827   3.425   6.479 -0.4319  0.0437 -0.2398
 5461SOL     OW28018   1.876   4.362   3.971 -0.8448  0.0960  0.3024
 5461SOL    HW128019   1.908   4.289   4.025  0.1036  1.5580  1.7424
 5461SOL    HW228020   1.819   4.325   3.904  1.0285 -2.6006  0.1699
 5462SOL     OW28021   3.327   1.929   8.022 -0.2569  0.0750  0.4892
 5462SOL    HW128022   3.398   1.937   7.958  0.3765 -0.2000  1.1697
 5462SOL    HW228023   3.325   2.021   8.047 -2.2505  0.6598 -1.8375
 5463SOL     OW28024   1.405   2.846  12.017  0.0859 -0.1577 -0.4411
 5463SOL    HW128025   1.444   2.877  11.935  2.2857 -0.2124  0.5803
 5463SOL    HW228026   1.455   2.764  12.020 -1.2620 -0.9142  0.9541
 5464SOL     OW28027   3.975   3.868   2.969  0.2427  0.2143  0.2574
 5464SOL    HW128028   3.919   3.919   3.027 -4.0083 -0.8655 -2.7985
 5464SOL    HW228029   4.058   3.858   3.015  0.7558  2.5382 -0.1510
 5465SOL     OW28030   4.041   0.834  13.830 -0.1311 -0.1104 -0.1345
 5465SOL    HW128031   4.062   0.814  13.738  1.8410  0.1897  0.2408
 5465SOL    HW228032   4.033   0.745  13.864 -1.4127 -0.1509 -0.5489
 5466SOL     OW28033   4.587   1.932   2.373  0.1814 -0.0072  0.0290
 5466SOL    HW128034   4.578   1.843   2.337  0.6514 -0.1159  0.1777
 5466SOL    HW228035   4.675   1.933   2.409  0.0011  1.7099  0.3870
 5467SOL     OW28036   2.450   0.482   9.408 -0.1518  0.0671  0.2577
 5467SOL    HW128037   2.539   0.516   9.400 -0.8156  1.5746 -0.6461
 5467SOL    HW228038   2.408   0.559   9.370  0.5861  0.1001 -0.4882
 5468SOL     OW28039   0.490   2.964   5.560  0.4763 -0.1330 -0.1464
 5468SOL    HW128040   0.495   2.924   5.474  1.4320  1.0563 -0.6515
 5468SOL    HW228041   0.402   2.948   5.594  1.6592 -0.4030  2.8224
 5469SOL     OW28042   4.706   3.400   2.492 -0.1514  0.2905 -0.2799
 5469SOL    HW128043   4.682   3.481   2.448 -0.1401 -0.2884 -1.3402
 5469SOL    HW228044   0.054   3.378   2.456  1.1396  2.5259  1.3832
 5470SOL     OW28045   1.030   2.038   9.720  0.0561  0.0075 -0.1833
 5470SOL    HW128046   1.073   1.954   9.736 -0.8791 -0.3198  0.5768
 5470SOL    HW228047   1.080   2.098   9.776 -5.2643  2.9977  1.3951
 5471SOL     OW28048   0.637   1.709   4.647 -0.7146 -0.2471  0.7326
 5471SOL    HW128049   0.617   1.661   4.727  2.7450 -2.7479  0.0800
 5471SOL    HW228050   0.547   1.731   4.620 -0.2825 -0.1324 -0.5999
 5472SOL     OW28051   1.046   3.003  17.271  0.0165  0.2902 -0.1885
 5472SOL    HW128052   1.130   3.038  17.241  0.1525  1.3361  1.4246
 5472SOL    HW228053   1.009   2.951  17.199 -0.9900  1.9088 -0.8452
 5473SOL     OW28054   3.496   2.108   5.972  0.1983  0.1635  0.4028
 5473SOL    HW128055   3.449   2.057   6.038 -0.5561  1.1022  0.5908
 5473SOL    HW228056   3.450   2.081   5.893  1.2930 -0.7316  0.0802
 5474SOL     OW28057   2.724   0.774   4.341  0.4594  0.0317 -0.4314
 5474SOL    HW128058   2.793   0.805   4.283 -0.3908 -1.0109 -2.0207
 5474SOL    HW228059   2.774   0.744   4.417 -0.1082 -1.8953 -0.7934
 5475SOL     OW28060   3.285   3.179   8.970  0.2822 -0.0596  0.3625
 5475SOL    HW128061   3.350   3.110   8.957 -1.6985 -1.5810 -1.5807
 5475SOL    HW228062   3.341   3.256   8.967 -0.5339  0.4971 -0.5031
 5476SOL     OW28063   4.525   2.186   8.749  0.2931  0.2403 -0.2998
 5476SOL    HW128064   4.445   2.143   8.779 -0.5362  3.1129  1.5483
 5476SOL    HW228065   4.557   2.108   8.704 -0.4726 -0.0502 -0.3409
 5477SOL     OW28066   4.511   1.380   0.473 -0.7141  0.2627  0.4787
 5477SOL    HW128067   4.483   1.289   0.482  1.9149 -0.5128  0.6362
 5477SOL    HW228068   4.442   1.430   0.516 -1.8156  0.6360 -1.7394
 5478SOL     OW28069   0.856   1.771   7.391 -0.0328  0.6238 -0.4789
 5478SOL    HW128070   0.770   1.729   7.398  0.8254 -0.8393  1.2573
 5478SOL    HW228071   0.859   1.822   7.472  0.2159 -1.7399  0.9988
 5479SOL     OW28072   3.431   2.787   2.508  0.8709  0.1397  0.1869
 5479SOL    HW128073   3.368   2.844   2.465 -0.0396 -1.4132 -0.5468
 5479SOL    HW228074   3.380   2.707   2.495 -1.5335  1.7159 -0.0594
 5480SOL     OW28075   3.658   3.576   7.106  0.3788  0.2153 -0.1530
 5480SOL    HW128076   3.602   3.649   7.133  0.1894  0.4833 -1.2564
 5480SOL    HW228077   3.658   3.507   7.172 -0.1750  2.1477  1.8301
 5481SOL     OW28078   0.859   2.672   8.923  0.3393 -0.2708 -0.0142
 5481SOL    HW128079   0.854   2.728   9.000 -0.9437 -1.1281  0.5186
 5481SOL    HW228080   0.767   2.672   8.895 -0.2099 -1.8454  1.7458
 5482SOL     OW28081   1.714   1.547   6.766 -0.3443 -0.0831  0.1343
 5482SOL    HW128082   1.704   1.617   6.831 -1.8201 -0.3056  0.1619
 5482SOL    HW228083   1.624   1.520   6.749 -0.0343  0.6842 -2.6358
 5483SOL     OW28084   1.923   0.106   5.664  0.4569 -0.1263 -0.4136
 5483SOL    HW128085   1.991   0.171   5.682 -0.1272  0.5282 -0.5767
 5483SOL    HW228086   1.946   0.031   5.719 -1.3865  0.2996  0.9204
 5484SOL     OW28087   0.178   3.788   3.293 -0.3099  0.2267 -0.1216
 5484SOL    HW128088   0.209   3.808   3.205  0.9339  3.9292  1.1996
 5484SOL    HW228089   0.119   3.861   3.312  0.2247  0.7246 -0.3798
 5485SOL     OW28090   0.178   3.235   6.340 -0.2362  0.0412 -0.2518
 5485SOL    HW128091   0.174   3.151   6.387  2.1856 -0.0289 -0.1774
 5485SOL    HW228092   0.097   3.229   6.290 -0.6243 -2.6066  0.6904
 5486SOL     OW28093   0.100   4.046   8.453  0.1156 -0.5612  0.2543
 5486SOL    HW128094   0.020   4.050   8.505  0.6724 -2.7289  1.3193
 5486SOL    HW228095   0.162   4.087   8.513  0.0974  1.2066 -0.9635
 5487SOL     OW28096   1.714   3.172   9.445 -0.2777  0.1813  0.2586
 5487SOL    HW128097   1.637   3.132   9.485 -0.3344 -1.6897 -1.7112
 5487SOL    HW228098   1.698   3.142   9.355 -0.6232  2.4231 -0.4135
 5488SOL     OW28099   4.402   4.156   6.737  0.1907 -0.5176 -0.8882
 5488SOL    HW128100   4.373   4.065   6.741 -0.2974 -0.2646  1.5982
 5488SOL    HW228101   4.320   4.206   6.750  1.6732  2.1709 -1.8720
 5489SOL     OW28102   1.708   2.049  12.448  0.1343  0.2069  0.3186
 5489SOL    HW128103   1.637   1.984  12.446  0.0098  0.3121  1.5907
 5489SOL    HW228104   1.743   2.047  12.359  0.5085  0.1836  0.4669
 5490SOL     OW28105   3.087   2.116   3.917 -0.4088 -0.4802 -0.6395
 5490SOL    HW128106   3.047   2.201   3.899  1.1871  0.8359  2.0125
 5490SOL    HW228107   3.138   2.098   3.839  1.1998 -0.7201  0.4775
 5491SOL     OW28108   3.720   0.726   4.217 -0.6333 -0.2708 -0.2617
 5491SOL    HW128109   3.659   0.690   4.282 -0.8058  2.0727  0.9043
 5491SOL    HW228110   3.772   0.790   4.266 -2.1003 -0.5698  1.6992
 5492SOL     OW28111   0.874   4.039  10.606 -0.3790 -0.3600  0.8899
 5492SOL    HW128112   0.796   4.095  10.611  0.5289  1.2549 -3.0432
 5492SOL    HW228113   0.946   4.094  10.635 -0.8862 -0.7633  2.8921
 5493SOL     OW28114   4.593   3.810  10.731  0.1428 -0.1341 -0.7220
 5493SOL    HW128115   4.566   3.843  10.817 -0.2098 -2.3902  0.0283
 5493SOL    HW228116   4.555   3.723  10.737  0.7453 -0.4392 -1.3445
 5494SOL     OW28117   2.947   1.802   7.560  0.6368  0.2767  0.0009
 5494SOL    HW128118   3.017   1.863   7.538  1.8668 -1.0154  0.3186
 5494SOL    HW228119   2.889   1.832   7.489 -0.7731  1.6787  1.7351
 5495SOL     OW28120   2.837   3.759   5.340  0.8004 -0.0177 -0.3762
 5495SOL    HW128121   2.876   3.676   5.367 -2.0067 -0.7089  1.4957
 5495SOL    HW228122   2.906   3.825   5.333  0.2639  0.6366  0.4669
 5496SOL     OW28123   4.183   0.935   0.064 -0.0891 -0.2561 -0.3093
 5496SOL    HW128124   4.109   0.993   0.081 -0.0666 -0.1365 -0.6149
 5496SOL    HW228125   4.232   0.988   0.001  0.2245  0.4124  0.5030
 5497SOL     OW28126   0.319   4.200   8.666 -0.1234 -0.1398 -0.0226
 5497SOL    HW128127   0.339   4.132   8.730 -0.2258  0.2836  0.4622
 5497SOL    HW228128   0.401   4.249   8.672 -2.3499  3.2194  2.7294
 5498SOL     OW28129   1.239   3.611   9.278  0.0732  0.0763  0.2721
 5498SOL    HW128130   1.321   3.564   9.267  0.2469  0.2848  0.6640
 5498SOL    HW228131   1.202   3.576   9.360 -0.3595  0.3084  0.1778
 5499SOL     OW28132   0.791   0.099   6.095 -0.2549 -0.0843  0.1021
 5499SOL    HW128133   0.745   0.143   6.166  1.3788  1.0351  0.4755
 5499SOL    HW228134   0.748   0.143   6.022 -1.0928 -0.8504  0.1412
 5500SOL     OW28135   2.977   3.117  11.581 -0.2138  0.0978 -0.1673
 5500SOL    HW128136   2.956   3.157  11.665 -0.3363  0.0515 -0.1746
 5500SOL    HW228137   2.975   3.023  11.602 -2.0049  1.1880  4.6479
 5501SOL     OW28138   0.087   2.328   8.791  0.2486  0.2374 -0.7744
 5501SOL    HW128139   0.017   2.264   8.778 -2.0837  2.4781  0.6491
 5501SOL    HW228140   0.038   2.410   8.789 -0.4163 -0.1420 -0.0689
 5502SOL     OW28141   1.472   3.573   8.367 -0.2306 -0.7259  0.9440
 5502SOL    HW128142   1.517   3.534   8.293 -1.1270 -0.1650  0.0937
 5502SOL    HW228143   1.399   3.616   8.322 -0.4022 -1.9127  0.0896
 5503SOL     OW28144   3.385   3.871   3.107 -0.3169 -0.1831  0.2278
 5503SOL    HW128145   3.357   3.883   3.198 -0.2181  2.6314 -0.1048
 5503SOL    HW228146   3.300   3.886   3.064 -0.3936  1.2635  0.8578
 5504SOL     OW28147   1.439   3.135   9.791  0.1771 -0.1955  0.1562
 5504SOL    HW128148   1.492   3.210   9.820 -0.6586 -0.0453  1.2816
 5504SOL    HW228149   1.373   3.121   9.859 -1.7048 -1.0195 -1.8531
 5505SOL     OW28150   3.222   3.777   1.271 -0.3345  1.3472  0.2790
 5505SOL    HW128151   3.204   3.687   1.299  0.8623  1.6561  2.0106
 5505SOL    HW228152   3.203   3.822   1.353  1.0227 -1.3780  2.1106
 5506SOL     OW28153   4.711   4.024   9.519  0.3575  0.1236  0.4378
 5506SOL    HW128154   0.042   4.067   9.570  1.4223 -1.2704  0.1785
 5506SOL    HW228155   0.008   4.032   9.430  0.0491 -1.7565  0.1553
 5507SOL     OW28156   0.210   4.253   2.933 -0.1071  0.2243  0.3830
 5507SOL    HW128157   0.127   4.245   2.981 -0.7600  2.2829 -0.3840
 5507SOL    HW228158   0.262   4.299   2.999  0.4680  1.4403 -0.9366
 5508SOL     OW28159   2.850   0.184   4.302  0.3000 -0.3022 -0.0398
 5508SOL    HW128160   2.853   0.095   4.268 -0.0162 -0.3771  0.1266
 5508SOL    HW228161   2.757   0.202   4.312  0.8095  2.3000 -0.0150
 5509SOL     OW28162   1.052   0.658   4.905  0.1122 -0.0518 -0.2177
 5509SOL    HW128163   1.130   0.645   4.852 -0.1343  0.6232 -0.7414
 5509SOL    HW228164   1.050   0.753   4.894 -0.2836 -0.1453 -0.9557
 5510SOL     OW28165   2.874   3.346   6.290  0.0491  0.2297 -0.2963
 5510SOL    HW128166   2.880   3.405   6.365  1.1843 -0.8314  0.4426
 5510SOL    HW228167   2.824   3.273   6.326 -1.5977  2.6437  2.3021
 5511SOL     OW28168   3.047   4.338   6.138  0.1440  0.1613 -0.1047
 5511SOL    HW128169   3.073   4.336   6.045 -1.2731 -2.1280 -0.4375
 5511SOL    HW228170   3.092   4.266   6.182  0.7808 -0.9120 -2.5137
 5512SOL     OW28171   4.389   2.199   2.901 -0.7487 -0.4636  0.1435
 5512SOL    HW128172   4.443   2.142   2.955  1.2102 -0.5082 -1.9003
 5512SOL    HW228173   4.454   2.217   2.833 -1.3866  1.2341 -0.0266
 5513SOL     OW28174   4.007   0.586  15.151  0.0812  0.2522  0.1210
 5513SOL    HW128175   3.952   0.636  15.211 -1.0158  0.0626 -0.7251
 5513SOL    HW228176   3.949   0.589  15.074 -1.0672 -3.5472  0.8399
 5514SOL     OW28177   2.219   3.331  16.853 -0.5147 -0.1466  0.4075
 5514SOL    HW128178   2.218   3.279  16.773  0.6387 -0.9495  0.9030
 5514SOL    HW228179   2.300   3.381  16.843 -1.7920  2.1437  1.6448
 5515SOL     OW28180   3.776   4.160  16.842  0.4591  0.2957 -0.0296
 5515SOL    HW128181   3.738   4.073  16.859 -1.7276  1.0628 -1.0859
 5515SOL    HW228182   3.790   4.185  16.933  2.4909 -2.3699  0.4109
 5516SOL     OW28183   1.080   4.560  15.092 -0.1935  0.3240  0.7640
 5516SOL    HW128184   1.136   4.556  15.014 -0.4069 -1.6218  0.6916
 5516SOL    HW228185   1.101   4.477  15.134  1.6960  0.9038  0.9404
 5517SOL     OW28186   4.728   3.258  13.448  0.0448  0.9800  0.0786
 5517SOL    HW128187   0.075   3.229  13.413  0.7806  0.5000  2.2611
 5517SOL    HW228188   4.733   3.242  13.542 -0.6754 -0.3658 -0.1196
 5518SOL     OW28189   3.303   3.890   9.376  0.4886 -0.1019 -0.0819
 5518SOL    HW128190   3.322   3.967   9.429 -1.1356 -0.5966  1.2238
 5518SOL    HW228191   3.358   3.824   9.417  1.3874  0.7501  0.0574
 5519SOL     OW28192   4.443   3.538   7.724 -0.3879  0.1821 -0.6756
 5519SOL    HW128193   4.534   3.567   7.716 -0.8977  2.2404  1.0080
 5519SOL    HW228194   4.431   3.508   7.814  0.3626 -1.2834 -1.0669
 5520SOL     OW28195   0.390   1.476   4.443  0.0491 -0.4296 -0.0960
 5520SOL    HW128196   0.303   1.469   4.482 -0.1840  0.8343 -0.3888
 5520SOL    HW228197   0.408   1.384   4.427 -1.0746 -0.8392  0.9616
 5521SOL     OW28198   1.624   1.862   6.615 -0.0545  0.2289 -0.2417
 5521SOL    HW128199   1.657   1.774   6.594 -1.8716 -0.3664 -0.5669
 5521SOL    HW228200   1.542   1.868   6.567  0.0647 -2.1611 -0.7491
 5522SOL     OW28201   0.267   3.701  11.668  0.3986 -0.3516  0.3599
 5522SOL    HW128202   0.272   3.791  11.699 -0.4079 -0.2093  0.0711
 5522SOL    HW228203   0.345   3.657  11.701  1.0013  0.2859 -0.2382
 5523SOL     OW28204   2.284   2.642  14.864  0.1625 -0.3157  0.1275
 5523SOL    HW128205   2.375   2.665  14.878 -0.2439  1.2018  0.3112
 5523SOL    HW228206   2.299   2.555  14.826 -0.1770  0.4260 -1.7450
 5524SOL     OW28207   0.046   2.152   9.446  0.0164 -0.1550 -0.4666
 5524SOL    HW128208   0.099   2.149   9.366 -1.8504 -1.9984 -1.6371
 5524SOL    HW228209   4.704   2.103   9.426  1.2984 -1.9687 -1.1907
 5525SOL     OW28210   4.599   1.566   7.902 -0.5710 -0.1857 -0.4382
 5525SOL    HW128211   4.631   1.476   7.912  0.6407  0.2933 -0.0724
 5525SOL    HW228212   4.507   1.550   7.882 -0.5450  0.1964 -0.8770
 5526SOL     OW28213   0.910   1.831   5.755  0.1690  0.1115  0.2701
 5526SOL    HW128214   0.905   1.846   5.661 -0.0970 -1.0390  0.1035
 5526SOL    HW228215   0.822   1.792   5.760  1.7228 -3.6953 -2.4091
 5527SOL     OW28216   3.421   1.822   8.270 -0.2381 -0.3733  0.1409
 5527SOL    HW128217   3.372   1.851   8.193  0.0411 -0.5664 -0.1060
 5527SOL    HW228218   3.504   1.867   8.257 -0.5915  0.5124  0.9324
 5528SOL     OW28219   3.776   0.422   6.839 -0.0511 -0.0083  0.4419
 5528SOL    HW128220   3.773   0.371   6.758 -0.5910  0.7046  0.0229
 5528SOL    HW228221   3.864   0.399   6.871  0.4451  0.4993 -0.5706
 5529SOL     OW28222   1.978   3.159   9.479 -0.3941 -0.2747 -0.3035
 5529SOL    HW128223   1.969   3.082   9.536  1.5807  0.9543  1.6730
 5529SOL    HW228224   1.886   3.187   9.480 -0.4851 -0.6206  1.6967
 5530SOL     OW28225   4.615   3.327   4.369 -0.1679  0.2641  0.2035
 5530SOL    HW128226   4.568   3.402   4.405  1.5556  0.2186  2.5013
 5530SOL    HW228227   4.706   3.336   4.398 -1.1530  0.8282  3.0573
 5531SOL     OW28228   2.534   4.337   4.862  0.2455 -0.0176 -0.2318
 5531SOL    HW128229   2.541   4.291   4.778 -0.0056 -0.2127 -0.1448
 5531SOL    HW228230   2.516   4.262   4.918 -2.7836  0.6417 -0.3312
 5532SOL     OW28231   2.772   1.074   4.650  0.2719 -0.1924  0.3527
 5532SOL    HW128232   2.782   1.029   4.566 -1.4941 -0.8827  0.5186
 5532SOL    HW228233   2.820   1.155   4.634  0.1877  0.1278  1.7368
 5533SOL     OW28234   1.298   2.119  11.839  0.4078  0.7181 -0.7639
 5533SOL    HW128235   1.378   2.112  11.891 -0.9997 -0.2198  1.2813
 5533SOL    HW228236   1.231   2.092  11.902  0.6480 -0.2719 -0.9227
 5534SOL     OW28237   2.539   1.155   3.533  0.3751 -0.4372  0.2516
 5534SOL    HW128238   2.460   1.110   3.561  0.9550 -0.9597  1.0790
 5534SOL    HW228239   2.552   1.121   3.445  0.8027 -0.5922  0.3720
 5535SOL     OW28240   2.483   4.319   0.463 -0.1879  0.0445  1.0137
 5535SOL    HW128241   2.475   4.361   0.549  0.1536 -2.2146  2.1574
 5535SOL    HW228242   2.415   4.362   0.411  0.6575 -0.5204 -0.5531
 5536SOL     OW28243   1.958   2.489   7.526  0.2238  0.0710 -0.3715
 5536SOL    HW128244   1.868   2.475   7.497  0.2699 -0.3396 -0.3160
 5536SOL    HW228245   1.945   2.515   7.617  1.9620 -1.2423  0.2597
 5537SOL     OW28246   2.929   4.325  10.259 -0.5223 -0.4771 -0.2476
 5537SOL    HW128247   2.984   4.289  10.329 -0.5011  1.2439  0.6237
 5537SOL    HW228248   2.996   4.348  10.196 -1.3526  0.2964 -0.8519
 5538SOL     OW28249   0.594   2.679   0.506  0.1221 -0.1693  0.1402
 5538SOL    HW128250   0.515   2.691   0.454  0.0768 -0.0497  0.2364
 5538SOL    HW228251   0.556   2.688   0.594  1.3184 -0.0641  0.6434
 5539SOL     OW28252   3.782   2.313   8.173 -0.1696 -0.3476  0.5952
 5539SOL    HW128253   3.764   2.399   8.211  0.4534  1.1043 -2.3972
 5539SOL    HW228254   3.858   2.280   8.221  0.9735 -0.3555 -1.2326
 5540SOL     OW28255   3.335   0.661  15.030  0.2043 -0.2278  0.0826
 5540SOL    HW128256   3.403   0.703  14.978  0.7036 -0.7687  0.2998
 5540SOL    HW228257   3.254   0.665  14.979 -1.2716 -2.4826  2.2414
 5541SOL     OW28258   2.921   1.031   9.556 -0.2270  0.3694  0.0197
 5541SOL    HW128259   2.952   1.061   9.470 -4.5645 -0.1247 -1.7724
 5541SOL    HW228260   2.885   0.948   9.524  0.8912  0.1220 -0.5775
 5542SOL     OW28261   1.898   2.062   2.888  0.2057 -0.1005  0.5362
 5542SOL    HW128262   1.831   2.114   2.846  2.4548  1.1397 -1.5208
 5542SOL    HW228263   1.927   2.117   2.961 -0.1509 -0.3648  0.8734
 5543SOL     OW28264   2.247   2.101   4.189  0.0725 -0.1402  0.1715
 5543SOL    HW128265   2.223   2.188   4.219 -2.1109 -0.2348 -1.3066
 5543SOL    HW228266   2.338   2.087   4.215 -0.5281 -1.8280  1.3352
 5544SOL     OW28267   2.151   3.015   5.572 -0.3352 -0.2215  0.7096
 5544SOL    HW128268   2.096   2.966   5.511 -0.8534  0.4889  0.5988
 5544SOL    HW228269   2.134   3.103   5.537  3.6383  0.1564 -0.2796
 5545SOL     OW28270   1.886   4.597   8.871  0.1476  0.4762 -0.5532
 5545SOL    HW128271   1.832   4.676   8.868 -0.2322  0.1303 -2.5057
 5545SOL    HW228272   1.949   4.627   8.937 -1.9311  0.6425  1.3787
 5546SOL     OW28273   1.643   4.635  10.611  0.3152  0.0920 -0.4769
 5546SOL    HW128274   1.668   4.580  10.685 -0.4593 -1.4028 -1.3100
 5546SOL    HW228275   1.634   4.724  10.645  2.0297  0.6874 -1.5888
 5547SOL     OW28276   0.196   2.363   1.773 -0.1156  0.2485 -0.5856
 5547SOL    HW128277   0.286   2.335   1.783 -0.4521 -0.5976  0.0377
 5547SOL    HW228278   0.148   2.282   1.758  0.6220 -0.3115  0.1436
 5548SOL     OW28279   0.483   4.123   2.791  0.7822  0.6273 -0.4871
 5548SOL    HW128280   0.566   4.104   2.747  0.8253  4.1270 -1.9177
 5548SOL    HW228281   0.445   4.165   2.714  0.3043  1.1052  0.0158
 5549SOL     OW28282   3.735   4.585  17.178 -0.0339  0.3248 -0.0714
 5549SOL    HW128283   3.726   4.635  17.259 -0.0335  2.1087 -1.1587
 5549SOL    HW228284   3.781   4.652  17.126 -0.4795 -1.3501 -2.6431
 5550SOL     OW28285   2.904   4.651   7.550 -0.1485  0.1829 -0.4077
 5550SOL    HW128286   2.962   4.721   7.520  1.2254 -0.3797  0.9470
 5550SOL    HW228287   2.957   4.572   7.552  3.8775  2.8910  0.5244
 5551SOL     OW28288   4.263   4.296   9.190  0.5292 -0.5526 -0.1084
 5551SOL    HW128289   4.283   4.204   9.176 -0.3144 -0.7899  0.2417
 5551SOL    HW228290   4.173   4.290   9.221  0.9611 -0.2682  1.2038
 5552SOL     OW28291   0.218   1.452   5.888 -0.2281  0.2330  0.1702
 5552SOL    HW128292   0.277   1.377   5.876 -1.7207 -0.8207 -0.5255
 5552SOL    HW228293   0.272   1.525   5.920  0.5756 -0.2464 -0.0990
 5553SOL     OW28294   0.792   3.743   5.210  0.4176  0.8349  0.0204
 5553SOL    HW128295   0.835   3.786   5.285 -1.7507  0.2553  1.6010
 5553SOL    HW228296   0.862   3.690   5.172 -0.4783 -0.4323  0.1425
 5554SOL     OW28297   2.302   0.241  13.884 -0.6162 -0.2497  0.4307
 5554SOL    HW128298   2.362   0.262  13.956 -0.3621 -1.0188  0.4435
 5554SOL    HW228299   2.238   0.310  13.900  0.0006  1.0839 -2.9832
 5555SOL     OW28300   3.635   3.598  11.836  0.0741  0.2840  0.0034
 5555SOL    HW128301   3.699   3.661  11.803 -0.1448  0.9007  0.7477
 5555SOL    HW228302   3.684   3.574  11.915 -0.0824 -0.9976 -0.2901
 5556SOL     OW28303   0.920   1.038   2.308 -0.0856  0.1830  0.1022
 5556SOL    HW128304   0.960   1.051   2.222  1.2649  0.3681  0.7710
 5556SOL    HW228305   0.844   0.994   2.270  1.1581 -2.0848  0.2671
 5557SOL     OW28306   2.828   0.247   1.379 -0.0261 -0.3373  0.4468
 5557SOL    HW128307   2.885   0.297   1.320  0.9244 -0.0098  1.6275
 5557SOL    HW228308   2.870   0.268   1.463 -0.1692  3.4269 -0.4013
 5558SOL     OW28309   3.736   4.443   7.709  0.0201 -0.0776  0.2391
 5558SOL    HW128310   3.776   4.359   7.732  2.1198  1.1394  0.9858
 5558SOL    HW228311   3.648   4.416   7.736  0.2199 -0.5775  0.3961
 5559SOL     OW28312   2.965   3.958   3.681 -0.7561  0.2753 -0.2746
 5559SOL    HW128313   2.940   3.893   3.616  0.8007 -0.0718 -0.5236
 5559SOL    HW228314   2.990   3.902   3.754  1.2837 -0.9455 -1.9234
 5560SOL     OW28315   2.398   1.267  12.552  0.7943 -0.0130 -0.1931
 5560SOL    HW128316   2.477   1.220  12.579 -0.6347 -0.4106  3.3530
 5560SOL    HW228317   2.354   1.188  12.522 -1.5942  0.6082  1.6285
 5561SOL     OW28318   1.866   2.411   4.207 -0.1475  0.2948 -0.3686
 5561SOL    HW128319   1.856   2.331   4.259 -0.4445  0.6087  0.0532
 5561SOL    HW228320   1.958   2.427   4.226  0.3749 -1.7320 -1.1584
 5562SOL     OW28321   0.536   2.423   8.320 -0.0039 -0.5938  0.2490
 5562SOL    HW128322   0.577   2.497   8.274 -1.3176 -0.9864 -1.5615
 5562SOL    HW228323   0.450   2.459   8.340 -0.1643 -0.0769 -1.3449
 5563SOL     OW28324   0.247   4.558  11.633  0.4470  0.1780 -0.6554
 5563SOL    HW128325   0.301   4.488  11.670  1.6538  0.2601 -2.2288
 5563SOL    HW228326   0.231   4.534  11.541 -0.9886 -1.1133 -0.0649
 5564SOL     OW28327   3.287   2.101   8.863  0.2550  0.2534  0.0436
 5564SOL    HW128328   3.219   2.111   8.796 -2.5065 -0.0712  2.8197
 5564SOL    HW228329   3.290   2.006   8.870  1.1480  0.4989  3.0278
 5565SOL     OW28330   2.898   2.988  16.932 -0.1821 -0.4514 -0.7053
 5565SOL    HW128331   2.832   2.948  16.989 -0.6978  1.0198 -0.2938
 5565SOL    HW228332   2.945   3.046  16.992  2.3020 -1.7289 -1.3969
 5566SOL     OW28333   0.264   2.371   4.688 -0.2172  0.2281  0.0230
 5566SOL    HW128334   0.214   2.452   4.679  0.3708  0.5945  0.0538
 5566SOL    HW228335   0.278   2.339   4.599 -2.1446  0.2737 -0.2953
 5567SOL     OW28336   4.034   3.887   4.877 -0.0846  0.0284  0.1937
 5567SOL    HW128337   4.129   3.902   4.879 -0.2907  1.2585  0.9460
 5567SOL    HW228338   4.021   3.977   4.847 -0.4029  0.0385  0.3675
 5568SOL     OW28339   4.443   4.424   8.184  0.3874 -0.7681 -0.1138
 5568SOL    HW128340   4.454   4.344   8.236  1.8624  0.0036  0.7479
 5568SOL    HW228341   4.367   4.399   8.131 -0.4228 -0.9209  1.1110
 5569SOL     OW28342   4.164   4.454  17.538 -0.0576  0.3511 -0.7991
 5569SOL    HW128343   4.252   4.477  17.568  0.4581 -0.0846 -1.9582
 5569SOL    HW228344   4.136   4.529  17.486  0.2804  0.5595 -0.6831
 5570SOL     OW28345   1.749   1.557  17.085  0.8204 -0.0790 -0.0403
 5570SOL    HW128346   1.796   1.516  17.013  0.9966 -0.4939  0.3119
 5570SOL    HW228347   1.731   1.644  17.048 -1.2803 -1.0521 -1.3219
 5571SOL     OW28348   2.059   1.650   8.896 -0.7439  1.0268 -0.2501
 5571SOL    HW128349   2.084   1.723   8.953  0.9069 -0.0713  0.4499
 5571SOL    HW228350   2.068   1.702   8.816  1.7395  0.4622 -0.3663
 5572SOL     OW28351   0.478   4.346   8.133  0.5143  0.3570 -0.5558
 5572SOL    HW128352   0.400   4.315   8.086 -1.2427  2.9651  0.6322
 5572SOL    HW228353   0.503   4.424   8.085  1.3722 -0.2289 -1.0537
 5573SOL     OW28354   4.650   0.910   7.068  0.0778 -0.3151  0.1344
 5573SOL    HW128355   4.623   0.982   7.010 -0.5809  0.5670  1.5489
 5573SOL    HW228356   4.565   0.877   7.099 -0.1564 -0.9992 -1.2084
 5574SOL     OW28357   3.804   3.589   7.516  0.0499  0.1506 -0.2747
 5574SOL    HW128358   3.836   3.555   7.600 -0.0995  0.1909 -0.2017
 5574SOL    HW228359   3.866   3.657   7.490  0.8594  0.3536  2.2115
 5575SOL     OW28360   4.288   2.410   7.356 -0.0065 -0.3333 -0.2487
 5575SOL    HW128361   4.254   2.478   7.298 -0.9817  0.2187  0.9790
 5575SOL    HW228362   4.282   2.333   7.299  2.7426 -1.0336  0.4095
 5576SOL     OW28363   1.138   3.152  16.999  0.2405 -0.0327  0.2828
 5576SOL    HW128364   1.082   3.102  16.940  0.0180 -0.1885  0.6259
 5576SOL    HW228365   1.091   3.233  17.016  2.4351  0.8689  2.0775
 5577SOL     OW28366   0.410   4.146   4.361  0.5586 -0.0287 -0.3226
 5577SOL    HW128367   0.391   4.188   4.445 -0.7310  0.3003 -0.7771
 5577SOL    HW228368   0.502   4.121   4.369  0.9451  1.3999 -0.2981
 5578SOL     OW28369   0.224   0.499   5.033  0.3337  0.3713  0.4620
 5578SOL    HW128370   0.203   0.419   4.985 -0.4024  0.1889  1.1032
 5578SOL    HW228371   0.166   0.482   5.107 -0.3832  0.2905 -0.1230
 5579SOL     OW28372   0.354   4.514  13.553  0.0419  0.4786  0.4335
 5579SOL    HW128373   0.303   4.478  13.481 -1.2430  2.5861  0.3333
 5579SOL    HW228374   0.347   4.438  13.611 -0.2273 -0.1712 -0.4503
 5580SOL     OW28375   4.422   4.023  15.893  0.0846 -0.1199  0.3581
 5580SOL    HW128376   4.379   4.066  15.967 -1.9409  0.0483 -0.9037
 5580SOL    HW228377   4.442   4.097  15.837 -1.6928 -0.6740 -1.0067
 5581SOL     OW28378   4.683   1.799   8.009 -0.5232  0.4256  0.4852
 5581SOL    HW128379   4.659   1.711   7.981 -0.6387  0.5083  0.3284
 5581SOL    HW228380   4.596   1.837   7.996 -0.1472  1.0631 -0.1265
 5582SOL     OW28381   3.613   3.098   2.873 -0.2002 -0.3316 -0.7820
 5582SOL    HW128382   3.604   3.015   2.825  0.8737 -0.2708 -1.0937
 5582SOL    HW228383   3.644   3.069   2.959 -1.1130  0.8373 -0.0662
 5583SOL     OW28384   2.525   2.479   0.194  0.1870  0.0342 -0.8485
 5583SOL    HW128385   2.506   2.415   0.125  2.3495 -0.1297 -1.2966
 5583SOL    HW228386   2.522   2.563   0.148  2.5862  1.0088  0.7699
 5584SOL     OW28387   4.575   4.177  16.508 -0.0148  0.3699 -0.2260
 5584SOL    HW128388   4.491   4.223  16.507 -1.0655 -1.5720  0.6564
 5584SOL    HW228389   4.586   4.169  16.413  0.5937  2.7794 -0.3748
 5585SOL     OW28390   4.289   4.564   7.201  0.0135 -0.7330 -0.1788
 5585SOL    HW128391   4.320   4.528   7.117  0.9949  1.2603 -0.6713
 5585SOL    HW228392   4.277   4.653   7.170  2.6045 -0.7204 -1.1266
 5586SOL     OW28393   2.286   2.087   7.375 -0.1442  0.1427 -0.0486
 5586SOL    HW128394   2.257   2.178   7.385  1.9562  0.7721  0.3501
 5586SOL    HW228395   2.234   2.055   7.450  0.5650 -1.7601 -0.3756
 5587SOL     OW28396   2.169   0.888   4.103 -0.3410  0.4525 -0.1502
 5587SOL    HW128397   2.195   0.823   4.169 -1.2018 -0.2072 -0.4607
 5587SOL    HW228398   2.156   0.828   4.030 -2.6665  1.7617 -0.8297
 5588SOL     OW28399   1.430   1.657  11.319  0.4071  0.0324  0.2025
 5588SOL    HW128400   1.450   1.743  11.358  0.7119  0.0818 -0.0623
 5588SOL    HW228401   1.356   1.678  11.263  0.4792 -0.7910 -0.1933
 5589SOL     OW28402   1.736   1.325  13.348  0.2187  0.7034 -0.6430
 5589SOL    HW128403   1.826   1.291  13.356 -0.5355 -1.6743 -2.1304
 5589SOL    HW228404   1.715   1.332  13.442 -1.2981  1.8569 -1.0775
 5590SOL     OW28405   2.216   3.296   4.761 -0.2954 -0.1614  0.0615
 5590SOL    HW128406   2.281   3.275   4.828 -0.9849  1.8520  1.3446
 5590SOL    HW228407   2.186   3.209   4.736  0.5826 -0.8921  1.5919
 5591SOL     OW28408   1.757   3.781   8.865  0.1348  0.2267  0.4372
 5591SOL    HW128409   1.728   3.865   8.830  2.0546  0.9212  0.4877
 5591SOL    HW228410   1.802   3.740   8.791 -2.3923 -0.3427 -0.7641
 5592SOL     OW28411   2.993   3.522   2.121  0.5096  0.3394 -0.2682
 5592SOL    HW128412   3.085   3.544   2.112  1.2229 -2.0297  1.0963
 5592SOL    HW228413   2.978   3.515   2.215 -2.7267  1.1853 -0.7276
 5593SOL     OW28414   0.150   1.594   4.301 -0.2145 -0.1058 -0.2507
 5593SOL    HW128415   0.083   1.628   4.241  0.4498 -0.0929 -0.9781
 5593SOL    HW228416   0.196   1.536   4.240  1.3090  1.5756 -0.6910
 5594SOL     OW28417   4.349   4.331   2.386  0.1542 -0.8581 -0.6959
 5594SOL    HW128418   4.302   4.354   2.466 -1.6854 -2.0240 -1.4379
 5594SOL    HW228419   4.281   4.302   2.325 -1.2229  1.0271 -0.0581
 5595SOL     OW28420   4.112   1.505   3.339 -0.0072 -0.9306 -0.3001
 5595SOL    HW128421   4.069   1.565   3.400  1.5370  0.1463 -0.2690
 5595SOL    HW228422   4.131   1.563   3.265 -0.4045  2.3940  2.1931
 5596SOL     OW28423   2.023   0.432  12.892 -0.1613  0.1354 -0.3695
 5596SOL    HW128424   1.945   0.425  12.947 -1.4055  1.4629 -1.9427
 5596SOL    HW228425   2.081   0.502  12.921 -2.1326 -0.1172  4.1311
 5597SOL     OW28426   1.456   3.914   5.478 -0.8487 -0.0251  0.4941
 5597SOL    HW128427   1.526   3.905   5.413 -1.5338  1.2770 -0.4142
 5597SOL    HW228428   1.482   3.841   5.535 -0.5999  0.7166  1.3270
 5598SOL     OW28429   1.071   0.165   4.170 -0.2808  0.0381  0.0313
 5598SOL    HW128430   1.015   0.195   4.242 -0.9904 -3.2940  0.9105
 5598SOL    HW228431   1.155   0.206   4.191 -0.5270  1.1107 -1.0925
 5599SOL     OW28432   1.364   3.275   1.546  0.1564 -0.3722  0.3343
 5599SOL    HW128433   1.390   3.184   1.531 -0.9827 -1.0583  2.4890
 5599SOL    HW228434   1.345   3.306   1.458  1.3087 -1.5354 -0.3272
 5600SOL     OW28435   2.587   4.175   8.377  0.2651  0.0167  0.2683
 5600SOL    HW128436   2.524   4.133   8.435 -0.2205  0.8879  0.3721
 5600SOL    HW228437   2.524   4.203   8.311  1.8320 -0.4361 -1.3871
 5601SOL     OW28438   4.140   4.460  15.552 -0.0965  0.0599  0.0240
 5601SOL    HW128439   4.049   4.432  15.551 -0.5331  1.3855  1.7015
 5601SOL    HW228440   4.142   4.533  15.614  1.9855  0.8316 -0.9644
 5602SOL     OW28441   4.587   3.059   4.313  0.4460  0.1356  0.1043
 5602SOL    HW128442   4.508   3.033   4.360  0.7090  0.2240  0.5973
 5602SOL    HW228443   4.634   3.130   4.357  0.5121 -0.7894  1.5434
 5603SOL     OW28444   0.686   2.510   4.351  0.1709 -0.0856  0.2956
 5603SOL    HW128445   0.697   2.579   4.285  1.8446 -0.9325 -0.3237
 5603SOL    HW228446   0.726   2.434   4.308  3.4504  1.9385 -0.3156
 5604SOL     OW28447   1.754   4.296   5.167 -0.2863 -0.0349  0.3454
 5604SOL    HW128448   1.822   4.326   5.227 -0.3702  1.1742 -0.1669
 5604SOL    HW228449   1.729   4.377   5.123  1.9260  0.2186 -0.4555
 5605SOL     OW28450   3.296   0.812   6.028 -0.0144  0.1644 -0.5881
 5605SOL    HW128451   3.214   0.850   5.996 -0.1332 -0.1790 -0.6845
 5605SOL    HW228452   3.326   0.783   5.941  1.1062  1.5139 -0.6743
 5606SOL     OW28453   1.167   2.452   2.508 -0.2099  0.2167 -0.1511
 5606SOL    HW128454   1.147   2.376   2.453  1.9263  0.5296 -1.3719
 5606SOL    HW228455   1.082   2.465   2.551 -0.4353 -0.4240 -0.4125
 5607SOL     OW28456   4.121   4.550   8.074  0.1744  0.1443  0.5213
 5607SOL    HW128457   4.150   4.459   8.085  1.3816  0.4543 -0.1502
 5607SOL    HW228458   4.167   4.606   8.137 -0.0665  0.4024  0.4674
 5608SOL     OW28459   3.261   3.581   7.045 -0.4604 -0.0446 -0.1987
 5608SOL    HW128460   3.308   3.657   7.011  1.4431 -1.7744 -1.4118
 5608SOL    HW228461   3.261   3.604   7.138 -0.2365 -0.5746 -0.0641
 5609SOL     OW28462   4.243   3.665   6.102 -0.1806  0.5719 -0.2139
 5609SOL    HW128463   4.328   3.707   6.088 -1.0737  2.7681  1.0070
 5609SOL    HW228464   4.266   3.610   6.177 -0.5721  0.7978  0.0688
 5610SOL     OW28465   2.315   1.539   3.627 -0.1149 -0.3162  0.5959
 5610SOL    HW128466   2.405   1.568   3.613  0.5888 -2.5412  0.4893
 5610SOL    HW228467   2.278   1.575   3.546  1.4467  0.5904  0.2831
 5611SOL     OW28468   1.883   0.931  17.724 -0.5195 -0.0691  0.1433
 5611SOL    HW128469   1.962   0.880  17.743  0.2863  1.2588  0.4034
 5611SOL    HW228470   1.908   0.973  17.642 -0.6407 -1.9347 -0.8524
 5612SOL     OW28471   2.018   0.652   6.829 -0.4203 -0.0386 -0.2052
 5612SOL    HW128472   1.987   0.740   6.806 -1.6807 -0.5305 -0.3577
 5612SOL    HW228473   2.112   0.674   6.834 -0.5541  0.5681 -0.2847
 5613SOL     OW28474   3.102   2.928   8.834  0.1429  0.3663 -0.3452
 5613SOL    HW128475   3.120   3.011   8.879 -0.6398 -0.3440  1.2954
 5613SOL    HW228476   3.181   2.921   8.780 -0.0441 -4.4765  0.0417
 5614SOL     OW28477   1.894   3.106   9.881 -0.3087  0.1026 -0.0408
 5614SOL    HW128478   1.945   3.187   9.878  1.1341 -0.8060  0.0046
 5614SOL    HW228479   1.963   3.040   9.883 -0.5908 -0.1881  0.3140
 5615SOL     OW28480   3.920   2.035   3.823  0.0938  0.2614  0.3534
 5615SOL    HW128481   3.935   2.009   3.732 -2.4696 -0.2403  0.0565
 5615SOL    HW228482   3.904   2.128   3.807  0.3500  0.1238 -0.7010
 5616SOL     OW28483   1.277   0.314  13.060  0.3149  0.1955 -0.6710
 5616SOL    HW128484   1.364   0.322  13.098  1.3872 -1.2175 -2.8110
 5616SOL    HW228485   1.254   0.221  13.071  2.7026 -0.3015  0.0722
 5617SOL     OW28486   1.750   2.030  16.776 -0.3358  0.1051  0.6073
 5617SOL    HW128487   1.723   2.038  16.685  0.1913 -0.5841  0.3865
 5617SOL    HW228488   1.793   2.114  16.792 -0.1697  0.1771 -0.1914
 5618SOL     OW28489   4.051   4.095  15.384  0.5676  0.6046  0.3988
 5618SOL    HW128490   4.043   4.061  15.295  1.7149  0.7569  0.2451
 5618SOL    HW228491   3.995   4.172  15.370  0.4140  0.6314  1.1834
 5619SOL     OW28492   0.435   2.862   6.590 -0.0463 -0.1107 -0.3809
 5619SOL    HW128493   0.529   2.869   6.573 -0.1770 -0.3056 -1.1943
 5619SOL    HW228494   0.410   2.921   6.662 -0.2048  0.4102 -0.8633
 5620SOL     OW28495   0.485   4.261   5.369 -0.0169  0.4225  0.3592
 5620SOL    HW128496   0.577   4.235   5.360 -0.2687 -0.3132 -0.0267
 5620SOL    HW228497   0.464   4.202   5.441  0.5978  0.4642  0.5745
 5621SOL     OW28498   1.072   0.525   0.609 -0.0064 -0.2661  0.1680
 5621SOL    HW128499   1.132   0.594   0.579 -0.2879 -0.5044 -0.9623
 5621SOL    HW228500   0.991   0.576   0.614 -0.0061 -0.2130 -0.2900
 5622SOL     OW28501   1.865   0.270   6.712 -0.7433  0.2231  0.2990
 5622SOL    HW128502   1.802   0.295   6.645 -2.2250 -0.4594  1.4239
 5622SOL    HW228503   1.797   0.249   6.776 -1.8405 -0.4401 -1.0922
 5623SOL     OW28504   1.327   2.524  10.403 -0.6141  0.8653  0.1126
 5623SOL    HW128505   1.422   2.537  10.397 -0.6146  0.4510 -0.8152
 5623SOL    HW228506   1.299   2.602  10.355 -0.6424 -0.1026 -1.4673
 5624SOL     OW28507   4.118   4.412   0.214  0.1322 -0.3180  0.7846
 5624SOL    HW128508   4.072   4.466   0.279  1.3534  1.1495  0.4343
 5624SOL    HW228509   4.103   4.325   0.251 -0.5247 -0.5059  0.0768
 5625SOL     OW28510   2.790   4.608  17.108 -0.6356 -0.2256  0.1267
 5625SOL    HW128511   2.879   4.603  17.075 -1.1630  0.8655 -1.4964
 5625SOL    HW228512   2.816   4.614  17.200 -1.0870  0.7546  0.1909
 5626SOL     OW28513   0.747   4.180   1.922  0.4182 -0.2611  0.0811
 5626SOL    HW128514   0.721   4.163   2.013 -0.6642  3.4713  0.4728
 5626SOL    HW228515   0.804   4.103   1.917 -0.3674 -0.7867 -0.9255
 5627SOL     OW28516   1.945   1.707   7.751 -0.2315 -0.1114 -0.3371
 5627SOL    HW128517   1.872   1.646   7.742 -0.0890 -0.4804  1.0463
 5627SOL    HW228518   1.931   1.760   7.672  1.6609  0.9132  0.0083
 5628SOL     OW28519   1.536   3.718   6.602  0.0266  0.1443 -0.0138
 5628SOL    HW128520   1.539   3.683   6.691  0.6204 -0.8792 -0.4386
 5628SOL    HW228521   1.458   3.774   6.598  0.5775  1.0091  1.3278
 5629SOL     OW28522   4.346   3.697  17.261  0.3001  0.0711 -0.4505
 5629SOL    HW128523   4.314   3.637  17.193 -1.2157  2.5629 -1.9394
 5629SOL    HW228524   4.403   3.631  17.301  1.8222  0.7292 -1.5309
 5630SOL     OW28525   0.169   0.552   3.022 -0.7198 -0.0654 -0.1433
 5630SOL    HW128526   0.193   0.514   3.107  1.7705  1.8730  0.0476
 5630SOL    HW228527   0.186   0.641   3.053 -3.2886 -0.3472  2.0268
 5631SOL     OW28528   1.391   3.808   0.919 -0.2378 -0.6746  0.0045
 5631SOL    HW128529   1.321   3.840   0.974  1.0518 -2.2397  2.5540
 5631SOL    HW228530   1.441   3.765   0.988  1.7971 -0.3295 -1.2231
 5632SOL     OW28531   0.946   2.731   4.857  0.0257  0.1805 -0.1645
 5632SOL    HW128532   0.888   2.725   4.933  0.2724 -0.3153 -0.0228
 5632SOL    HW228533   0.927   2.822   4.833 -0.4346  0.1778  0.1879
 5633SOL     OW28534   1.934   4.525  12.790  1.0586  0.2373  0.0058
 5633SOL    HW128535   1.891   4.478  12.718  1.3313 -1.1417  0.7481
 5633SOL    HW228536   1.937   4.611  12.748 -0.2544  0.1013 -0.3728
 5634SOL     OW28537   2.069   3.881   7.125  0.2438 -0.1701  0.3853
 5634SOL    HW128538   2.150   3.918   7.090  1.7430 -1.3871  2.5805
 5634SOL    HW228539   2.112   3.844   7.203  0.6780 -1.9656 -0.7167
 5635SOL     OW28540   3.347   0.131  12.848  0.1369  0.1607  0.3065
 5635SOL    HW128541   3.340   0.225  12.862 -2.5969  0.0583 -0.4083
 5635SOL    HW228542   3.291   0.102  12.776  1.1802  0.7654 -0.7508
 5636SOL     OW28543   2.022   0.910   7.050 -0.1313 -0.0184 -0.0702
 5636SOL    HW128544   1.951   0.862   7.007  0.0497 -1.2721  1.0371
 5636SOL    HW228545   1.975   0.970   7.108 -0.1661  2.4757 -2.6812
 5637SOL     OW28546   3.720   3.388   3.309 -0.7098  0.0594 -0.3200
 5637SOL    HW128547   3.791   3.446   3.284  1.0436 -1.5914  0.7807
 5637SOL    HW228548   3.759   3.340   3.383  1.0203  0.5801 -0.8937
 5638SOL     OW28549   3.287   4.223   5.023  0.9432 -0.3961  0.0857
 5638SOL    HW128550   3.248   4.166   4.957 -1.5311  1.8569 -0.4085
 5638SOL    HW228551   3.208   4.257   5.065 -0.3906 -1.4139 -1.5597
 5639SOL     OW28552   4.628   0.058   9.678  0.1845  0.2136  0.0057
 5639SOL    HW128553   4.675   0.072   9.596  0.5381  0.2940  0.2203
 5639SOL    HW228554   4.539   0.091   9.667  0.2118  0.6078  0.9684
 5640SOL     OW28555   1.745   0.080   8.888  0.3240  0.4681 -0.1174
 5640SOL    HW128556   1.710   0.141   8.822 -0.2789  1.2140  0.8914
 5640SOL    HW228557   1.781   0.134   8.958  2.5262 -1.5195  0.2797
 5641SOL     OW28558   3.283   2.768   5.380  0.3494  0.2197 -0.1002
 5641SOL    HW128559   3.368   2.797   5.413  0.0262  1.8627 -0.7105
 5641SOL    HW228560   3.256   2.698   5.439  0.3888  1.0415  0.8921
 5642SOL     OW28561   2.257   2.984   2.951 -0.5488 -0.4283 -0.0860
 5642SOL    HW128562   2.291   3.035   2.877 -1.1521  1.8976  1.2463
 5642SOL    HW228563   2.166   2.980   2.923 -0.4564  0.9550 -0.6163
 5643SOL     OW28564   4.509   1.429  17.245 -0.2239  0.6463  0.3025
 5643SOL    HW128565   4.563   1.415  17.168 -0.5984  0.3551  0.0914
 5643SOL    HW228566   4.466   1.514  17.228 -2.5295 -0.9108 -1.7160
 5644SOL     OW28567   3.869   1.157   2.144 -0.1956  0.8851  0.2222
 5644SOL    HW128568   3.895   1.229   2.202  2.3265 -0.1822  0.3900
 5644SOL    HW228569   3.797   1.189   2.090 -1.2482  0.0211  1.1227
 5645SOL     OW28570   2.515   2.419  14.152  0.0310  0.3694  0.3291
 5645SOL    HW128571   2.420   2.432  14.152  0.1822  1.4162  1.0551
 5645SOL    HW228572   2.536   2.460  14.068  2.0823 -2.3962 -0.5331
 5646SOL     OW28573   3.915   3.660   2.447 -0.1469 -0.3567  0.5507
 5646SOL    HW128574   3.975   3.664   2.372 -3.5213 -0.1820 -2.1485
 5646SOL    HW228575   3.869   3.578   2.429 -0.6332  0.2467 -0.9320
 5647SOL     OW28576   0.723   3.511   5.861 -0.1600  0.1299 -0.1441
 5647SOL    HW128577   0.775   3.578   5.817  1.2183  0.1325  1.4862
 5647SOL    HW228578   0.685   3.477   5.780 -2.3958  1.4088  0.3830
 5648SOL     OW28579   3.950   4.685   5.271  0.6743  0.4553 -0.1256
 5648SOL    HW128580   3.898   4.604   5.274 -0.2872  1.1131  0.8571
 5648SOL    HW228581   3.894   4.733   5.332  0.9982  0.1800  0.3924
 5649SOL     OW28582   3.309   2.108   2.627  0.0039  0.2834  0.0551
 5649SOL    HW128583   3.382   2.059   2.591 -1.5123 -0.3923 -2.0842
 5649SOL    HW228584   3.348   2.195   2.632 -1.2971  0.9702 -1.8685
 5650SOL     OW28585   1.846   3.896   3.391  0.3822 -0.4988 -0.4189
 5650SOL    HW128586   1.883   3.973   3.434 -1.6671  1.6400 -2.4472
 5650SOL    HW228587   1.913   3.829   3.400  0.6458  0.2251  2.9038
 5651SOL     OW28588   2.218   3.069   0.312 -0.1073 -0.6850 -0.3337
 5651SOL    HW128589   2.235   3.157   0.346  1.2709 -1.3653  0.7632
 5651SOL    HW228590   2.168   3.025   0.380 -2.3279 -0.5102 -1.8555
 5652SOL     OW28591   3.395   2.325   2.768 -0.1305  0.1267 -0.2838
 5652SOL    HW128592   3.394   2.358   2.678  1.8962  0.5004 -0.1736
 5652SOL    HW228593   3.310   2.353   2.802 -0.5776 -1.1775 -0.3028
 5653SOL     OW28594   2.637   4.069   9.673  0.0999 -0.4085  0.0493
 5653SOL    HW128595   2.720   4.053   9.627  0.5546  0.1769  0.6599
 5653SOL    HW228596   2.650   4.158   9.707 -0.4907 -0.3924  0.2331
 5654SOL     OW28597   3.773   2.576   8.266 -0.5826 -0.5212 -0.0939
 5654SOL    HW128598   3.779   2.591   8.172 -0.4590 -0.1407 -0.0235
 5654SOL    HW228599   3.799   2.665   8.288  0.6007 -1.1373  1.0322
 5655SOL     OW28600   4.134   3.881  14.647 -0.3910  0.5813 -0.0011
 5655SOL    HW128601   4.088   3.908  14.568 -0.6719 -1.1599 -0.4177
 5655SOL    HW228602   4.092   3.939  14.711 -1.8767 -0.1426 -0.3419
 5656SOL     OW28603   1.373   1.817   3.697  0.0556  0.2931  0.9136
 5656SOL    HW128604   1.455   1.836   3.652 -0.5223  0.2626 -0.1610
 5656SOL    HW228605   1.410   1.817   3.785 -0.1983 -0.1549  1.0195
 5657SOL     OW28606   4.607   1.534   4.410 -0.1725 -0.0359 -0.4747
 5657SOL    HW128607   4.590   1.440   4.415  1.7518 -0.3514  0.0959
 5657SOL    HW228608   4.702   1.530   4.420 -0.1929  3.0576  0.9748
 5658SOL     OW28609   0.636   1.748   5.795  0.2251 -0.5458  0.1243
 5658SOL    HW128610   0.598   1.672   5.752 -1.9986  0.3712  0.4309
 5658SOL    HW228611   0.599   1.818   5.741 -0.8787 -1.7833 -0.7159
 5659SOL     OW28612   1.789   4.680  14.208 -0.3340 -0.3437  0.9127
 5659SOL    HW128613   1.844   4.607  14.180  1.5702  0.5619  2.3770
 5659SOL    HW228614   1.835   0.011  14.160 -0.8114 -2.1094 -2.0996
 5660SOL     OW28615   3.177   0.500   4.158  0.1143 -0.2874  0.3581
 5660SOL    HW128616   3.101   0.442   4.155 -0.2955  0.3639 -1.7338
 5660SOL    HW228617   3.197   0.492   4.251  2.1609  0.7596  0.0092
 5661SOL     OW28618   0.504   4.627  17.088  0.1791 -0.0557  0.6114
 5661SOL    HW128619   0.518   4.709  17.134 -1.0136  2.1753 -3.0098
 5661SOL    HW228620   0.429   4.654  17.034  0.0779  0.2466  0.9042
 5662SOL     OW28621   2.498   4.670   3.169  0.1704  0.4758  0.0455
 5662SOL    HW128622   2.460   4.731   3.232 -2.1224  0.0072 -0.8843
 5662SOL    HW228623   2.496   4.724   3.090  1.1406 -1.9260 -1.6294
 5663SOL     OW28624   3.489   4.350   4.877 -0.1831  0.2687 -0.3485
 5663SOL    HW128625   3.428   4.324   4.946  0.1151 -0.1508 -0.2424
 5663SOL    HW228626   3.540   4.271   4.860 -0.6546  0.0647 -0.8349
 5664SOL     OW28627   0.550   1.410   7.534  0.0244  0.2756  0.3614
 5664SOL    HW128628   0.497   1.330   7.541  1.0960 -0.4741 -0.0587
 5664SOL    HW228629   0.569   1.425   7.627 -3.4902  1.5104  0.8781
 5665SOL     OW28630   0.859   4.554   7.225 -0.6032 -0.0900 -0.0361
 5665SOL    HW128631   0.917   4.554   7.301 -0.6306  0.1494 -0.0162
 5665SOL    HW228632   0.777   4.520   7.262 -1.6864  0.9660 -1.4934
 5666SOL     OW28633   3.009   2.128   7.919  0.2935  0.0976  0.2207
 5666SOL    HW128634   2.994   2.095   7.830  0.1743  1.8950 -0.4453
 5666SOL    HW228635   3.013   2.045   7.965  0.3134  0.0715  0.1723
 5667SOL     OW28636   1.077   0.031   5.464  0.2292  0.0512 -0.0839
 5667SOL    HW128637   1.111   4.716   5.537  1.0963  1.1480  0.2939
 5667SOL    HW228638   1.001   4.720   5.431  1.0397  0.2363 -2.2834
 5668SOL     OW28639   2.758   3.069   1.027  0.2149 -0.1628  0.7111
 5668SOL    HW128640   2.698   3.105   0.962  0.9473  1.1709  0.7610
 5668SOL    HW228641   2.696   3.059   1.099 -2.1676 -2.2315 -1.6273
 5669SOL     OW28642   1.201   4.358   3.250  0.0280 -0.0460  0.8375
 5669SOL    HW128643   1.192   4.294   3.320 -1.1603  1.3818  2.0041
 5669SOL    HW228644   1.143   4.425   3.287 -1.3557 -1.8502  1.9378
 5670SOL     OW28645   3.245   3.472  11.539  0.0790 -0.0634 -0.1826
 5670SOL    HW128646   3.320   3.532  11.536 -1.3595  1.6610 -1.9247
 5670SOL    HW228647   3.290   3.391  11.560  1.5402  0.6702 -0.4826
 5671SOL     OW28648   2.515   3.355   3.388  0.4744  0.0544  0.4874
 5671SOL    HW128649   2.570   3.284   3.354  0.9249  1.2169 -1.2376
 5671SOL    HW228650   2.434   3.309   3.410  1.9675 -2.2959  1.0787
 5672SOL     OW28651   4.302   1.696  16.909 -0.6786  0.1518  0.2953
 5672SOL    HW128652   4.270   1.700  16.819 -0.9066  0.2312  0.3785
 5672SOL    HW228653   4.243   1.640  16.961 -2.0106  1.2896  0.0195
 5673SOL     OW28654   3.502   3.553  11.583 -0.3897  0.2242  0.1019
 5673SOL    HW128655   3.558   3.478  11.563 -0.2093  0.3011  0.3161
 5673SOL    HW228656   3.520   3.559  11.676  0.5025 -0.2894 -0.0333
 5674SOL     OW28657   0.669   3.437   5.349 -0.1386 -0.3369  0.0110
 5674SOL    HW128658   0.614   3.363   5.375  1.1039 -0.9575  0.8210
 5674SOL    HW228659   0.613   3.493   5.296  0.5454 -1.2137 -1.6420
 5675SOL     OW28660   3.324   3.925   3.369  0.3642 -0.2552  0.0632
 5675SOL    HW128661   3.388   3.967   3.426 -0.7361  0.9469  0.4139
 5675SOL    HW228662   3.245   3.975   3.390  1.2133  0.6587  1.0656
 5676SOL     OW28663   0.131   1.393   3.350 -0.1750  0.3467  0.4198
 5676SOL    HW128664   0.088   1.461   3.401 -1.1972 -1.1019  1.4759
 5676SOL    HW228665   0.056   1.335   3.339 -2.0626  2.7656  0.7689
 5677SOL     OW28666   2.442   3.114   5.445 -0.1974 -0.5576  0.4414
 5677SOL    HW128667   2.365   3.168   5.430  0.4039  0.3265  0.5850
 5677SOL    HW228668   2.502   3.132   5.373  0.1046 -1.7646  0.3790
 5678SOL     OW28669   0.264   3.942   3.015  0.0073  0.7283 -0.2099
 5678SOL    HW128670   0.330   3.991   3.063  0.5769  1.2196 -1.5097
 5678SOL    HW228671   0.228   4.007   2.956 -0.9008 -0.9133 -1.4769
 5679SOL     OW28672   3.746   1.550   2.897  0.5843 -0.0198  0.2562
 5679SOL    HW128673   3.812   1.569   2.830  1.0302  1.1521  1.0341
 5679SOL    HW228674   3.687   1.624   2.887  0.3321  0.0269  2.0477
 5680SOL     OW28675   0.195   4.237   4.639 -0.4930 -0.2550  0.4526
 5680SOL    HW128676   0.145   4.249   4.558 -1.1533  0.6880  1.0084
 5680SOL    HW228677   0.240   4.320   4.651 -0.6353 -0.3089  1.3657
 5681SOL     OW28678   3.100   2.643  14.606  0.5829  0.1813 -0.6407
 5681SOL    HW128679   3.165   2.595  14.658  0.9800  2.0127  0.5394
 5681SOL    HW228680   3.111   2.731  14.641  0.3314  0.9913 -2.6217
 5682SOL     OW28681   4.041   1.117  13.759 -0.4935 -0.0064  0.3097
 5682SOL    HW128682   4.027   1.029  13.796  1.8168  0.6873  2.8300
 5682SOL    HW228683   4.068   1.090  13.671  0.8245 -0.5981  0.8843
 5683SOL     OW28684   1.236   0.018  13.082 -0.2805  0.4074 -0.1616
 5683SOL    HW128685   1.328   0.008  13.107 -0.1973  1.2407 -0.1347
 5683SOL    HW228686   1.219   4.669  13.045  2.8854 -0.4812  0.4122
 5684SOL     OW28687   1.862   3.866   0.047  0.2670  0.0151 -0.2429
 5684SOL    HW128688   1.865   3.910   0.132  0.8377  0.6298 -0.5797
 5684SOL    HW228689   1.879   3.944  17.742 -0.2547  0.9962  1.0682
 5685SOL     OW28690   0.284   2.210  14.740 -0.3263 -0.2444 -0.3120
 5685SOL    HW128691   0.351   2.273  14.715  1.6712 -2.1484  0.2463
 5685SOL    HW228692   0.302   2.211  14.834 -0.2045  3.3547 -0.3937
 5686SOL     OW28693   3.584   0.768   7.489 -0.2958 -0.2341  0.7723
 5686SOL    HW128694   3.489   0.769   7.495 -0.0951 -1.7508  4.1711
 5686SOL    HW228695   3.610   0.774   7.581 -0.2261  1.6723  0.6199
 5687SOL     OW28696   2.228   3.359   3.319  0.2055  0.4941 -0.1725
 5687SOL    HW128697   2.238   3.275   3.275 -1.2948  0.3950 -0.3271
 5687SOL    HW228698   2.214   3.326   3.408  0.3834  0.6120 -0.1025
 5688SOL     OW28699   4.410   1.752   3.319  0.2688  0.0651 -0.3582
 5688SOL    HW128700   4.500   1.750   3.286 -0.8923  0.4024 -3.5603
 5688SOL    HW228701   4.371   1.678   3.273 -0.9346  0.5344 -0.0792
 5689SOL     OW28702   4.458   3.539   5.398 -0.0684 -0.0848 -0.3492
 5689SOL    HW128703   4.523   3.517   5.331 -0.7625  0.5356 -1.2394
 5689SOL    HW228704   4.519   3.590   5.451  1.1395 -1.2237 -0.6306
 5690SOL     OW28705   4.655   3.220   7.570 -0.0599  0.4196 -0.2276
 5690SOL    HW128706   4.660   3.263   7.655 -1.5237  1.4178 -0.6444
 5690SOL    HW228707   4.686   3.298   7.525  1.3241 -0.2125 -0.3788
 5691SOL     OW28708   2.166   3.409   3.622  0.1757  0.0094 -0.0017
 5691SOL    HW128709   2.257   3.415   3.594  0.7656  0.8451  2.1713
 5691SOL    HW228710   2.177   3.367   3.707 -0.2353 -1.0399 -0.4643
 5692SOL     OW28711   3.452   0.712   8.629 -0.5173 -0.5266  0.0344
 5692SOL    HW128712   3.380   0.694   8.690 -1.4595 -0.3650 -1.0419
 5692SOL    HW228713   3.522   0.654   8.660 -0.0597  0.7148  1.3224
 5693SOL     OW28714   4.029   4.107  16.441 -0.2111 -0.1264  0.4944
 5693SOL    HW128715   4.093   4.063  16.385 -1.7289 -0.5915 -0.8495
 5693SOL    HW228716   4.002   4.182  16.389 -0.8888  0.0904  1.1544
 5694SOL     OW28717   1.329   1.318   2.041  0.0642 -0.3452  0.1277
 5694SOL    HW128718   1.286   1.369   1.972 -1.9341 -0.2281  1.4481
 5694SOL    HW228719   1.306   1.388   2.102  3.1316 -0.0070  0.8664
 5695SOL     OW28720   1.202   4.697   1.736  0.3245  0.7302 -0.2910
 5695SOL    HW128721   1.192   4.690   1.641 -1.5749 -0.4546 -0.0117
 5695SOL    HW228722   1.128   0.019   1.749  0.3196 -0.0205  2.8842
 5696SOL     OW28723   3.846   0.398   1.936  0.5032  0.0902  0.0020
 5696SOL    HW128724   3.936   0.409   1.906  0.1001 -0.7164 -1.4757
 5696SOL    HW228725   3.798   0.405   1.853 -1.4545 -0.2898  1.1105
 5697SOL     OW28726   1.770   2.678   9.576  0.2943  0.3214  0.4683
 5697SOL    HW128727   1.723   2.713   9.500 -1.7214 -0.4935  1.3444
 5697SOL    HW228728   1.697   2.680   9.637 -0.2482  3.4345 -0.3020
 5698SOL     OW28729   2.481   2.315   4.812 -0.0920  0.3796  0.3016
 5698SOL    HW128730   2.517   2.325   4.901  1.0613 -1.4276  0.0458
 5698SOL    HW228731   2.454   2.223   4.813  2.8678 -0.5053 -0.0708
 5699SOL     OW28732   0.090   1.680   5.758  0.2589  0.4675 -0.3572
 5699SOL    HW128733   0.157   1.743   5.785  0.2643 -0.2397  1.3299
 5699SOL    HW228734   0.125   1.593   5.778 -2.0324 -0.8021 -1.8551
 5700SOL     OW28735   2.654   3.918   7.493  0.3792 -0.6720 -0.8021
 5700SOL    HW128736   2.709   3.856   7.541 -1.5568 -1.5240  0.3302
 5700SOL    HW228737   2.569   3.874   7.493  0.0207 -0.0083  1.6110
 5701SOL     OW28738   0.515   0.447  10.394  0.2178  0.0648 -0.7757
 5701SOL    HW128739   0.608   0.427  10.385  0.4044 -0.1382  1.6908
 5701SOL    HW228740   0.520   0.512  10.463  0.3659 -2.7576  1.8950
 5702SOL     OW28741   1.288   0.879   6.976 -0.0795 -0.0969  0.4026
 5702SOL    HW128742   1.277   0.869   7.070 -0.5020  0.4869  0.4192
 5702SOL    HW228743   1.350   0.952   6.969  1.0137 -1.0198  0.4970
 5703SOL     OW28744   4.416   3.083  16.648 -0.0340 -0.7366  0.2305
 5703SOL    HW128745   4.492   3.032  16.678  2.3981  2.8201  0.1445
 5703SOL    HW228746   4.353   3.018  16.618 -1.1559  0.9744 -1.1270
 5704SOL     OW28747   0.907   0.885   6.691  0.5523 -0.6242  0.3329
 5704SOL    HW128748   0.881   0.910   6.779  2.5175  0.3061  0.6462
 5704SOL    HW228749   0.973   0.818   6.711  0.1139 -1.5306 -1.1906
 5705SOL     OW28750   2.245   0.242  10.011  0.0671 -0.6019 -0.1012
 5705SOL    HW128751   2.157   0.236  10.048  0.9502 -0.6727  2.0103
 5705SOL    HW228752   2.297   0.266  10.088  0.3090 -0.0145 -0.4478
 5706SOL     OW28753   3.198   2.256   5.420  0.1237 -0.3014  0.8200
 5706SOL    HW128754   3.221   2.250   5.513  1.8059 -1.7526  0.2952
 5706SOL    HW228755   3.284   2.260   5.379  0.2723 -0.1243  1.1483
 5707SOL     OW28756   2.616   4.698   7.504  0.2746  0.2999  0.2031
 5707SOL    HW128757   2.585   4.619   7.548 -0.1360  0.4998  0.2704
 5707SOL    HW228758   2.706   4.700   7.537  0.2920 -0.2884  0.1917
 5708SOL     OW28759   2.550   0.934  15.035  0.0925  0.1591 -0.2554
 5708SOL    HW128760   2.590   0.919  14.950 -1.2725 -0.9360 -0.7074
 5708SOL    HW228761   2.459   0.957  15.016  0.5235  1.8083 -0.2771
 5709SOL     OW28762   4.210   1.919   1.636  0.3536  0.0851  0.4741
 5709SOL    HW128763   4.302   1.942   1.630  0.6901 -1.2709  0.3028
 5709SOL    HW228764   4.173   1.997   1.677 -1.7873 -0.6624 -0.0065
 5710SOL     OW28765   3.044   2.806  14.200  0.0880  0.2334  0.3580
 5710SOL    HW128766   3.034   2.738  14.133  1.6499  1.7760 -1.4415
 5710SOL    HW228767   3.001   2.761  14.273 -2.6924  1.8836 -0.2592
 5711SOL     OW28768   1.397   3.850   6.866  0.1814  0.2182  0.0838
 5711SOL    HW128769   1.470   3.910   6.882  0.4771  0.5197 -2.4157
 5711SOL    HW228770   1.369   3.886   6.782 -0.3491 -1.3534 -0.4176
 5712SOL     OW28771   4.459   0.012   2.432  0.3242 -0.1400 -0.2470
 5712SOL    HW128772   4.547   4.732   2.396  1.0168  1.6464  0.5974
 5712SOL    HW228773   4.407   4.694   2.373  0.5860  0.1126 -0.7189
 5713SOL     OW28774   1.146   0.909   7.373  0.6015 -0.1460 -0.2967
 5713SOL    HW128775   1.201   0.831   7.371  0.3614 -0.3414  0.9778
 5713SOL    HW228776   1.062   0.866   7.359 -0.5367  1.4883  1.6040
 5714SOL     OW28777   4.735   4.226   4.850 -0.5629 -0.9031 -0.4854
 5714SOL    HW128778   4.675   4.200   4.780 -2.3826 -3.2315  1.9546
 5714SOL    HW228779   0.078   4.200   4.805  0.5476 -0.1475  1.0684
 5715SOL     OW28780   4.326   4.657   2.733 -0.4896 -0.2395 -0.1021
 5715SOL    HW128781   4.368   0.004   2.751 -3.3493  1.7341 -2.7265
 5715SOL    HW228782   4.234   4.682   2.734 -0.1098  1.1227  0.5378
 5716SOL     OW28783   1.940   3.198   3.277 -0.2176 -0.0555 -0.2976
 5716SOL    HW128784   2.025   3.182   3.237 -0.0648  3.4263 -1.4031
 5716SOL    HW228785   1.892   3.115   3.269  1.5595 -1.2597  1.5953
 5717SOL     OW28786   2.151   1.823   1.020  0.1624  0.7718  0.3534
 5717SOL    HW128787   2.116   1.866   0.943 -0.8448 -0.1918  0.2815
 5717SOL    HW228788   2.131   1.883   1.092 -2.8299 -0.7799  0.7996
 5718SOL     OW28789   0.453   1.591   2.780  0.0575 -0.2515  0.0617
 5718SOL    HW128790   0.533   1.560   2.738 -0.2609 -2.1207  0.8174
 5718SOL    HW228791   0.485   1.598   2.870 -0.5723 -0.3910  0.2960
 5719SOL     OW28792   3.746   4.680   5.499 -0.0701  0.2982  0.4458
 5719SOL    HW128793   3.656   4.648   5.506 -0.4244  1.4231  1.0399
 5719SOL    HW228794   3.775   4.707   5.586 -0.1563  1.3287  0.1579
 5720SOL     OW28795   3.718   1.838   4.362  0.0309  0.4598  0.2483
 5720SOL    HW128796   3.787   1.799   4.415  0.6336 -0.6544 -1.3523
 5720SOL    HW228797   3.686   1.757   4.324 -1.5887  2.3710 -2.5344
 5721SOL     OW28798   4.621   3.742   2.477  0.1474 -0.3927  0.1243
 5721SOL    HW128799   4.549   3.804   2.485  0.3582 -0.5259  2.9646
 5721SOL    HW228800   4.587   3.681   2.542  1.0880 -0.0163  0.9736
 5722SOL     OW28801   2.983   4.306   9.709  0.3377 -0.1394  0.1496
 5722SOL    HW128802   2.888   4.315   9.708  0.3935  0.4415  0.3365
 5722SOL    HW228803   2.996   4.219   9.671  2.4981  0.7264 -1.0572
 5723SOL     OW28804   4.447   1.734   6.588  0.3218 -0.5981  0.4112
 5723SOL    HW128805   4.478   1.710   6.501 -1.7134  0.6705 -0.6522
 5723SOL    HW228806   4.400   1.659   6.624  0.5934 -0.5165  0.9337
 5724SOL     OW28807   4.415   1.387   6.160 -0.3527  0.1547  0.1014
 5724SOL    HW128808   4.438   1.459   6.101  0.9058  0.7467  1.3010
 5724SOL    HW228809   4.389   1.317   6.100  5.5195 -1.4379 -0.6087
 5725SOL     OW28810   1.487   3.915   8.315 -0.2994 -0.0130  0.5481
 5725SOL    HW128811   1.536   3.890   8.236 -2.5570 -3.9644  0.4270
 5725SOL    HW228812   1.545   3.914   8.391  0.8562 -0.1131 -0.3337
 5726SOL     OW28813   1.161   3.936   5.502  0.0341 -0.3519  0.4513
 5726SOL    HW128814   1.180   3.949   5.595  0.2167  2.0976  0.0864
 5726SOL    HW228815   1.251   3.915   5.477  0.0193 -1.8566  1.6813
 5727SOL     OW28816   1.139   1.831   8.976  0.1039 -0.2792  0.1459
 5727SOL    HW128817   1.169   1.831   8.885 -1.0375 -0.3888 -0.2200
 5727SOL    HW228818   1.200   1.774   9.024 -1.9333 -2.0880  0.5538
 5728SOL     OW28819   4.301   2.523   8.928  0.3137  0.1373  0.7058
 5728SOL    HW128820   4.306   2.478   8.844  0.4505  1.7966 -0.1716
 5728SOL    HW228821   4.389   2.521   8.966  0.3136  2.0483  0.8137
 5729SOL     OW28822   1.657   0.324  11.319 -0.1032  0.0216  0.0751
 5729SOL    HW128823   1.702   0.382  11.257 -1.3977  0.1506 -0.7681
 5729SOL    HW228824   1.701   0.240  11.324 -1.5249 -0.6331  1.4156
 5730SOL     OW28825   4.676   0.623   6.855  0.4438 -0.1811  0.0419
 5730SOL    HW128826   4.717   0.695   6.806  0.3748 -2.0577 -2.7380
 5730SOL    HW228827   4.588   0.659   6.869  0.4880  0.6252 -1.8009
 5731SOL     OW28828   0.495   2.781   5.325  0.0193 -0.1410  0.2264
 5731SOL    HW128829   0.480   2.824   5.241  0.0088 -1.7526 -0.6037
 5731SOL    HW228830   0.452   2.696   5.314  0.0333 -0.0253 -0.7295
 5732SOL     OW28831   3.677   3.208  14.132 -0.1153 -0.7707  0.1799
 5732SOL    HW128832   3.618   3.171  14.066 -0.9610  0.8788  0.0168
 5732SOL    HW228833   3.624   3.270  14.183  0.4860 -1.6065  1.8418
 5733SOL     OW28834   4.014   4.307   9.307  0.7798  0.0170 -0.0821
 5733SOL    HW128835   3.996   4.260   9.388  0.2219 -2.6018 -1.7016
 5733SOL    HW228836   3.926   4.294   9.273  0.3595  2.3349  0.1683
 5734SOL     OW28837   2.772   0.548  13.446  0.2047 -0.1964  0.3074
 5734SOL    HW128838   2.687   0.537  13.404 -0.3239 -0.9986  1.5810
 5734SOL    HW228839   2.818   0.467  13.424 -1.0360 -0.5766 -0.8941
 5735SOL     OW28840   2.157   2.663   7.680 -0.2804  0.2752  0.1944
 5735SOL    HW128841   2.067   2.695   7.677  0.7067  2.9736 -0.1017
 5735SOL    HW228842   2.160   2.617   7.764  3.4185 -0.0263 -0.0897
 5736SOL     OW28843   3.260   1.803   6.758  0.0982  0.0930 -0.0666
 5736SOL    HW128844   3.351   1.774   6.768  1.2613  2.8305 -2.9731
 5736SOL    HW228845   3.233   1.737   6.695  0.3208  0.3928 -0.4706
 5737SOL     OW28846   1.436   0.408   8.686  0.9099 -0.2620  0.4306
 5737SOL    HW128847   1.445   0.495   8.726 -0.0225 -0.1104  0.3138
 5737SOL    HW228848   1.434   0.426   8.592 -1.7167  0.2243  0.5882
 5738SOL     OW28849   1.345   3.929   3.066 -0.1450 -0.1690 -0.3070
 5738SOL    HW128850   1.379   3.988   2.999  0.5601  0.7588  0.8762
 5738SOL    HW228851   1.401   3.852   3.063  2.1014  1.4159  1.2533
 5739SOL     OW28852   4.537   2.806   5.972 -0.1657 -0.5329  0.8372
 5739SOL    HW128853   4.610   2.744   5.967 -0.6562 -0.9267 -1.1613
 5739SOL    HW228854   4.485   2.769   6.044  0.1990 -0.3986  1.1753
 5740SOL     OW28855   1.870   1.660   5.918 -0.0836 -0.5742  0.4010
 5740SOL    HW128856   1.786   1.652   5.964 -0.7481 -0.1569 -0.7249
 5740SOL    HW228857   1.840   1.657   5.827 -0.4938  2.9262  0.4295
 5741SOL     OW28858   3.598   2.881   2.696 -0.0907 -0.2394 -0.4742
 5741SOL    HW128859   3.644   2.809   2.739 -1.6904 -0.1689  1.3783
 5741SOL    HW228860   3.527   2.830   2.656  1.0612  0.0826 -2.9124
 5742SOL     OW28861   0.905   1.433   6.141 -0.2395  0.4081 -0.2785
 5742SOL    HW128862   0.946   1.414   6.057  1.7291 -0.2281  0.8152
 5742SOL    HW228863   0.824   1.384   6.128 -0.5113  0.2536  2.0033
 5743SOL     OW28864   1.016   0.177  15.201 -0.5731 -0.2407 -0.0708
 5743SOL    HW128865   0.932   0.148  15.164 -0.0678 -0.1948 -1.2490
 5743SOL    HW228866   0.983   0.191  15.290  1.0845 -1.1287  0.6651
 5744SOL     OW28867   3.878   0.769   7.550  0.3104 -0.2752 -0.0861
 5744SOL    HW128868   3.897   0.859   7.578  3.9277 -0.9544 -0.3476
 5744SOL    HW228869   3.839   0.778   7.463  1.7641  0.2428 -0.6906
 5745SOL     OW28870   1.622   4.041  16.804  0.2173  0.5292  0.0677
 5745SOL    HW128871   1.530   4.065  16.794  0.4077  0.4060 -2.0714
 5745SOL    HW228872   1.622   3.951  16.836  0.5260  0.4348 -0.2022
 5746SOL     OW28873   1.905   1.439   2.000 -0.4469  0.3046  0.0453
 5746SOL    HW128874   1.959   1.360   2.003  0.7715  1.2407  3.0817
 5746SOL    HW228875   1.848   1.420   1.926 -0.7143  0.9561  0.0835
 5747SOL     OW28876   2.325   3.027  11.170  0.4367  0.1459  0.1827
 5747SOL    HW128877   2.256   3.079  11.128  0.4339 -0.4970 -0.5954
 5747SOL    HW228878   2.365   2.989  11.092  1.1023 -0.1216  0.6609
 5748SOL     OW28879   0.817   1.244   0.765 -0.2818 -0.5803  0.1038
 5748SOL    HW128880   0.825   1.157   0.804 -1.1022 -0.9595 -0.5834
 5748SOL    HW228881   0.820   1.222   0.672  0.4520  0.1455 -0.0455
 5749SOL     OW28882   0.488   2.653   7.284 -0.3124  0.2489  0.7511
 5749SOL    HW128883   0.533   2.685   7.362  2.9149 -0.5293 -0.8122
 5749SOL    HW228884   0.483   2.735   7.235  0.0446 -1.1055 -1.5650
 5750SOL     OW28885   0.836   3.531   9.429  0.1106 -0.6758 -0.5431
 5750SOL    HW128886   0.920   3.510   9.469  1.4318  3.4115 -1.1492
 5750SOL    HW228887   0.827   3.626   9.427  1.5915 -0.5081  0.5049
 5751SOL     OW28888   2.531   0.206  13.676  0.5338 -0.6220 -0.7364
 5751SOL    HW128889   2.481   0.177  13.752  1.1991 -0.5314 -0.2633
 5751SOL    HW228890   2.623   0.201  13.701 -0.2676 -0.3434  2.1883
 5752SOL     OW28891   1.446   2.654   2.117 -0.5813  0.4896  0.8614
 5752SOL    HW128892   1.440   2.750   2.120  0.8410  0.5838  0.4792
 5752SOL    HW228893   1.380   2.633   2.183 -0.7700 -1.3787  0.0907
 5753SOL     OW28894   0.565   2.852   2.474 -0.4842  0.0264  0.1181
 5753SOL    HW128895   0.521   2.932   2.502 -1.9065 -0.5974 -0.3444
 5753SOL    HW228896   0.493   2.790   2.486  1.3581 -2.1410 -0.0281
 5754SOL     OW28897   3.576   0.802   4.748 -0.1058 -0.1822 -0.1285
 5754SOL    HW128898   3.632   0.758   4.684 -0.6933  1.3558 -1.6998
 5754SOL    HW228899   3.495   0.818   4.700 -0.0701  0.0440 -0.1143
 5755SOL     OW28900   0.807   3.986   7.970 -0.1018 -0.0765 -0.3333
 5755SOL    HW128901   0.868   3.947   8.033 -1.5423  1.1622  1.8003
 5755SOL    HW228902   0.765   4.055   8.021 -0.7616  1.0217 -2.3181
 5756SOL     OW28903   1.775   4.322  12.604 -0.0358  0.1380  0.0077
 5756SOL    HW128904   1.774   4.360  12.516  1.0892 -0.0167 -0.0746
 5756SOL    HW228905   1.777   4.228  12.589  1.0162  0.0372  0.8074
 5757SOL     OW28906   3.842   4.500  13.685  0.2751 -0.5527  0.6698
 5757SOL    HW128907   3.772   4.448  13.645  2.6412 -0.2191 -3.8214
 5757SOL    HW228908   3.797   4.518  13.768  1.0425 -0.6201  1.1003
 5758SOL     OW28909   3.538   0.669   2.050  0.4063  0.1808  0.2089
 5758SOL    HW128910   3.504   0.652   2.137  0.3024 -1.2414 -0.1189
 5758SOL    HW228911   3.633   0.672   2.061  0.3291  2.1296  0.3483
 5759SOL     OW28912   0.616   2.090  14.959  0.0340 -0.0628  0.1453
 5759SOL    HW128913   0.653   2.002  14.968 -2.1119 -0.8659  1.2814
 5759SOL    HW228914   0.526   2.075  14.988 -0.1038 -0.8595 -0.6794
 5760SOL     OW28915   2.625   3.478  15.753  0.1183  0.3045 -0.1942
 5760SOL    HW128916   2.541   3.480  15.800 -1.3880 -0.3595 -2.8049
 5760SOL    HW228917   2.591   3.514  15.670  2.2751  1.4795 -0.5772
 5761SOL     OW28918   0.084   0.028   6.150  0.2929  0.0728 -0.2221
 5761SOL    HW128919   0.064   0.094   6.084 -1.4464  0.9835  1.2170
 5761SOL    HW228920   0.175   0.003   6.134  0.6469  2.9915 -2.7162
 5762SOL     OW28921   3.254   2.852  13.619 -0.3139  0.3867  0.3205
 5762SOL    HW128922   3.243   2.757  13.628 -0.2914  0.3292 -0.2293
 5762SOL    HW228923   3.292   2.866  13.532 -1.6902  0.3875 -0.2878
 5763SOL     OW28924   0.780   2.582   3.086 -0.3027  0.8452 -0.3563
 5763SOL    HW128925   0.697   2.578   3.039  0.1437 -0.3937 -1.0370
 5763SOL    HW228926   0.811   2.672   3.069  1.8751  0.4174  1.3572
 5764SOL     OW28927   2.968   1.421   4.043  0.0652  0.5089 -0.0964
 5764SOL    HW128928   3.041   1.467   4.003  2.9874 -2.7658  1.4559
 5764SOL    HW228929   2.981   1.339   3.995 -0.5600  1.5638 -2.0529
 5765SOL     OW28930   0.163   3.327  11.385  0.1206  0.0932  0.6894
 5765SOL    HW128931   0.095   3.378  11.430  0.0879 -0.6491  1.4736
 5765SOL    HW228932   0.236   3.388  11.386  1.6842 -1.8197  1.5049
 5766SOL     OW28933   0.495   3.082   4.516  0.6416 -0.1882  0.4704
 5766SOL    HW128934   0.542   3.144   4.572 -1.5966  0.6299  1.4395
 5766SOL    HW228935   0.477   3.141   4.442 -2.3129 -0.9884  0.5440
 5767SOL     OW28936   4.347   1.641   6.021  0.7034  0.3515 -0.9249
 5767SOL    HW128937   4.319   1.711   5.963 -0.1626  0.8205  0.0596
 5767SOL    HW228938   4.264   1.635   6.067  1.2373 -0.4523 -0.0610
 5768SOL     OW28939   0.531   1.882   7.473 -0.4149 -0.4985 -0.1126
 5768SOL    HW128940   0.558   1.791   7.461  1.9763  0.0947  0.7313
 5768SOL    HW228941   0.550   1.890   7.567 -0.7648  0.0806 -0.0934
 5769SOL     OW28942   2.613   2.736   8.554  0.0107  0.3248  0.0165
 5769SOL    HW128943   2.676   2.765   8.620  1.3273  0.6337 -1.3745
 5769SOL    HW228944   2.534   2.787   8.572  0.9723  1.5651  0.8190
 5770SOL     OW28945   4.286   3.863   9.416  0.5812  0.5636  0.2466
 5770SOL    HW128946   4.229   3.906   9.480  1.8087  2.7012 -0.0944
 5770SOL    HW228947   4.346   3.931   9.386  1.9597  1.1485  4.3837
 5771SOL     OW28948   3.486   1.917   2.524  0.4191  0.2210  0.6356
 5771SOL    HW128949   3.520   1.837   2.563 -0.6451 -0.8138 -0.5672
 5771SOL    HW228950   3.395   1.896   2.503  1.0249 -0.7344 -0.9968
 5772SOL     OW28951   2.155   3.085   1.205 -0.1756 -0.7480 -0.0061
 5772SOL    HW128952   2.226   3.079   1.269 -0.4508 -0.4275  0.3293
 5772SOL    HW228953   2.162   3.174   1.168  1.4505 -1.1453 -0.6557
 5773SOL     OW28954   0.408   4.041   6.161  0.2333 -0.0210  0.3786
 5773SOL    HW128955   0.323   4.085   6.162  0.1969 -0.0797  0.0636
 5773SOL    HW228956   0.381   3.949   6.151 -0.0437 -0.0055  0.9687
 5774SOL     OW28957   3.771   0.862   3.066  0.3814  0.5181 -0.2810
 5774SOL    HW128958   3.726   0.932   3.114  0.8316  1.0913 -0.6863
 5774SOL    HW228959   3.763   0.902   2.979  1.8283  0.3810 -0.4779
 5775SOL     OW28960   1.182   2.214   5.846  0.0213 -0.0637 -0.2194
 5775SOL    HW128961   1.108   2.220   5.906  0.6104 -0.4026  0.5430
 5775SOL    HW228962   1.200   2.120   5.846 -1.0610 -0.2823  2.5988
 5776SOL     OW28963   2.941   2.758   6.971 -0.4993 -0.0328  0.2889
 5776SOL    HW128964   2.905   2.781   6.886  2.5104  1.0279 -0.6949
 5776SOL    HW228965   3.031   2.735   6.948  0.1334  2.8710 -0.1865
 5777SOL     OW28966   3.150   2.687   3.846  0.2651 -0.1757  0.0007
 5777SOL    HW128967   3.058   2.712   3.850 -0.1755 -1.6123 -1.5127
 5777SOL    HW228968   3.170   2.700   3.939  0.4007 -0.5663  0.0261
 5778SOL     OW28969   3.669   3.208   6.193  0.4942  0.5596 -0.3000
 5778SOL    HW128970   3.633   3.289   6.160 -1.9085 -0.3474  0.0682
 5778SOL    HW228971   3.587   3.159   6.208 -0.1637  2.2215  1.5639
 5779SOL     OW28972   1.443   1.510   6.693 -0.7209 -0.1747 -0.1639
 5779SOL    HW128973   1.383   1.584   6.703  0.3664  0.6882 -0.0309
 5779SOL    HW228974   1.389   1.450   6.642  0.1693 -0.8952 -0.2522
 5780SOL     OW28975   3.069   0.837  12.007  0.2882  0.2870 -0.3927
 5780SOL    HW128976   2.985   0.850  11.964  0.0559 -2.1228 -0.6268
 5780SOL    HW228977   3.052   0.782  12.084 -0.9305  1.9138  0.4990
 5781SOL     OW28978   3.347   2.840   3.762  0.3045 -0.4246  0.7097
 5781SOL    HW128979   3.287   2.910   3.734  0.8188 -0.8918 -1.5868
 5781SOL    HW228980   3.281   2.783   3.800 -0.6460  0.8060  0.9208
 5782SOL     OW28981   0.773   3.194   4.227 -0.1460  0.1997 -0.3857
 5782SOL    HW128982   0.767   3.290   4.223 -1.6352  0.1569  0.7174
 5782SOL    HW228983   0.682   3.172   4.247 -0.0633 -0.8002 -1.1608
 5783SOL     OW28984   3.652   3.018   6.651  0.2293  0.1069 -0.3875
 5783SOL    HW128985   3.589   3.083   6.620  0.3603  0.8335  0.8954
 5783SOL    HW228986   3.725   3.032   6.591 -0.6610 -3.4904 -2.3642
 5784SOL     OW28987   3.178   1.669   2.306  0.2513  0.0537  0.2942
 5784SOL    HW128988   3.225   1.744   2.343  1.7132 -0.2833 -0.8999
 5784SOL    HW228989   3.176   1.686   2.212  0.7921 -1.1378  0.0718
 5785SOL     OW28990   0.325   3.983   0.096 -0.3108 -0.2193  0.2536
 5785SOL    HW128991   0.250   4.020   0.049 -0.5095 -1.2078 -0.2152
 5785SOL    HW228992   0.308   4.050   0.162  0.1760  2.6300 -2.5408
 5786SOL     OW28993   0.350   1.498   6.244 -0.1587  0.0577  0.4089
 5786SOL    HW128994   0.264   1.525   6.210 -0.2705 -1.4977 -0.5461
 5786SOL    HW228995   0.328   1.478   6.335  0.3020 -0.3126  0.4364
 5787SOL     OW28996   4.554   1.600  11.416  0.3744 -0.5118  0.6357
 5787SOL    HW128997   4.585   1.517  11.452 -2.0602 -1.4953  0.4913
 5787SOL    HW228998   4.478   1.604  11.475  0.5420  1.3140  0.7133
 5788SOL     OW28999   1.833   2.959   5.631  0.3626 -0.0813  0.4446
 5788SOL    HW129000   1.850   2.881   5.577  2.7662  1.7767 -1.4442
 5788SOL    HW229001   1.851   2.933   5.722  1.9944  0.9765  0.4092
 5789SOL     OW29002   1.261   1.959   2.898  0.4204 -0.0469 -0.5298
 5789SOL    HW129003   1.248   1.915   2.983  0.8974  0.5754 -0.1418
 5789SOL    HW229004   1.353   1.938   2.881  0.5523 -0.6800  0.9211
 5790SOL     OW29005   3.370   0.421   6.439  0.2996 -0.3190 -0.4853
 5790SOL    HW129006   3.311   0.496   6.432  1.2448  0.5297  0.7967
 5790SOL    HW229007   3.430   0.449   6.370  0.4831 -0.4473 -0.3780
 5791SOL     OW29008   1.194   4.342   3.647 -0.1825 -1.0496 -0.1856
 5791SOL    HW129009   1.138   4.276   3.605  0.0944  0.8072 -3.4116
 5791SOL    HW229010   1.133   4.397   3.695 -0.3772 -2.5128  1.2592
 5792SOL     OW29011   4.360   3.273   5.041  0.1402 -0.1373 -0.1867
 5792SOL    HW129012   4.335   3.230   5.122  2.7364  1.6714  1.5516
 5792SOL    HW229013   4.355   3.200   4.979  2.0103 -0.4571  0.0473
 5793SOL     OW29014   4.228   2.928   3.188 -0.2097  0.2637  0.3678
 5793SOL    HW129015   4.137   2.918   3.216 -0.1828  0.4611  0.5238
 5793SOL    HW229016   4.225   3.021   3.163 -3.0564 -0.1288 -0.7324
 5794SOL     OW29017   2.435   0.030   5.835  0.1573  0.3590  0.3775
 5794SOL    HW129018   2.462   4.685   5.875 -0.7562 -0.4573 -0.6932
 5794SOL    HW229019   2.452   0.091   5.907  0.9278  2.0264 -1.2142
 5795SOL     OW29020   1.107   1.432   6.675  0.2541 -0.0716  0.1318
 5795SOL    HW129021   1.078   1.435   6.584  1.0633 -0.6766 -0.1403
 5795SOL    HW229022   1.056   1.355   6.699  0.2408 -0.9408 -2.7137
 5796SOL     OW29023   2.253   0.040   6.456 -0.3742  0.3517  0.0779
 5796SOL    HW129024   2.205   4.704   6.417  0.5625  1.0118 -2.2963
 5796SOL    HW229025   2.226   0.019   6.546  0.9882  1.9921  0.8844
 5797SOL     OW29026   2.272   0.270   5.327  0.2575  0.1010  1.0241
 5797SOL    HW129027   2.298   0.330   5.397 -2.3083  0.0303  2.0276
 5797SOL    HW229028   2.209   0.217   5.375 -1.6199  0.5068 -1.0354
 5798SOL     OW29029   1.845   4.628  17.624 -0.6250 -0.2988 -0.3813
 5798SOL    HW129030   1.867   4.628  17.718 -0.5524  1.4844 -0.4086
 5798SOL    HW229031   1.847   4.723  17.615  0.7301 -0.3076 -0.1129
 5799SOL     OW29032   1.964   4.213   5.957  0.0979 -0.3942 -0.5098
 5799SOL    HW129033   1.942   4.305   5.945 -0.0280 -0.4109 -0.4048
 5799SOL    HW229034   2.016   4.211   6.038  0.9763  0.9076 -1.0428
 5800SOL     OW29035   1.567   1.969   5.945  0.2398  0.0860  0.5734
 5800SOL    HW129036   1.659   1.948   5.927 -0.1883  0.6354 -2.2103
 5800SOL    HW229037   1.565   1.949   6.039  1.8350 -0.4634  0.4891
 5801SOL     OW29038   3.162   1.553   3.926 -0.0273 -0.2249  0.6756
 5801SOL    HW129039   3.183   1.605   4.003 -0.3412 -0.2987  0.8090
 5801SOL    HW229040   3.242   1.506   3.903 -0.0342 -0.0835  0.3605
 5802SOL     OW29041   1.910   0.755   8.319 -0.0050 -0.3420 -0.4619
 5802SOL    HW129042   1.895   0.748   8.225  1.9617  1.8604 -0.9339
 5802SOL    HW229043   1.998   0.716   8.317 -0.5568 -1.4971 -1.8508
 5803SOL     OW29044   4.568   1.429   2.082 -0.2166  1.4568 -0.1523
 5803SOL    HW129045   4.651   1.392   2.052 -1.4001  1.4214 -3.3331
 5803SOL    HW229046   4.487   1.417   2.032 -0.5878  1.6264  0.4100
 5804SOL     OW29047   1.059   0.245   3.071  0.1382  0.8842 -0.0090
 5804SOL    HW129048   1.052   0.222   3.163 -2.1602  2.0225  0.0946
 5804SOL    HW229049   1.036   0.163   3.026 -0.6446  0.7303  0.6712
 5805SOL     OW29050   2.521   4.415   6.859  0.1838  0.1440 -0.6120
 5805SOL    HW129051   2.552   4.466   6.934 -0.7768  0.4967 -0.4505
 5805SOL    HW229052   2.516   4.484   6.793 -0.4789 -0.5943 -1.3334
 5806SOL     OW29053   2.593   2.483  13.469 -0.0874 -0.3036  0.6890
 5806SOL    HW129054   2.635   2.494  13.554  1.0734 -0.1690  0.0892
 5806SOL    HW229055   2.669   2.454  13.419 -0.2919 -1.8379  1.2708
 5807SOL     OW29056   3.516   1.506   5.970 -0.5954 -0.6462 -0.2252
 5807SOL    HW129057   3.441   1.564   5.983 -1.2015 -1.4341 -0.1954
 5807SOL    HW229058   3.558   1.558   5.901 -0.3744 -0.5494 -0.0196
 5808SOL     OW29059   3.455   4.047   5.362 -0.3812  0.9519 -0.5548
 5808SOL    HW129060   3.514   3.996   5.418  0.4628  0.4965 -1.8563
 5808SOL    HW229061   3.510   4.093   5.300 -0.2553  0.1097 -1.0697
 5809SOL     OW29062   4.037   1.893   8.192 -0.7865 -0.4103  0.2429
 5809SOL    HW129063   4.081   1.859   8.270 -0.6876 -0.9141 -0.0350
 5809SOL    HW229064   3.982   1.818   8.169 -0.1143 -1.1473  1.0938
 5810SOL     OW29065   0.772   1.817   3.250 -0.0441 -0.0416  0.3223
 5810SOL    HW129066   0.775   1.842   3.158  1.9390 -0.3973  0.2849
 5810SOL    HW229067   0.867   1.818   3.261  0.1222 -2.7893 -0.7477
 5811SOL     OW29068   0.170   4.687   9.723  0.1589  0.4315 -0.3679
 5811SOL    HW129069   0.074   4.682   9.720  0.2526 -2.6760  1.2501
 5811SOL    HW229070   0.181   0.041   9.748 -1.8786  0.0172  2.0414
 5812SOL     OW29071   2.387   0.070   7.387  0.0096 -0.0766 -0.2387
 5812SOL    HW129072   2.467   0.027   7.417 -1.5933 -2.0154  1.1821
 5812SOL    HW229073   2.430   0.147   7.348  2.0160 -2.1118 -2.0868
 5813SOL     OW29074   1.322   2.646   5.581  0.1780  0.1228 -0.1278
 5813SOL    HW129075   1.411   2.644   5.545  0.0678 -0.4975 -0.3700
 5813SOL    HW229076   1.317   2.555   5.611  1.8813  0.0226 -0.1728
 5814SOL     OW29077   3.674   1.144   9.118 -0.1671 -0.1594  0.7124
 5814SOL    HW129078   3.659   1.131   9.025 -0.4661 -0.8160  0.8502
 5814SOL    HW229079   3.751   1.201   9.112  0.7513 -1.5655 -0.7370
 5815SOL     OW29080   3.311   4.210   1.487 -0.5231  0.8364  0.4866
 5815SOL    HW129081   3.225   4.178   1.460 -1.3524  0.3762  3.6870
 5815SOL    HW229082   3.298   4.243   1.576  2.4365 -0.3772  1.3658
 5816SOL     OW29083   0.909   3.147   9.097  0.1380 -0.2240  0.2940
 5816SOL    HW129084   0.922   3.085   9.169 -1.3160  0.7867  1.4185
 5816SOL    HW229085   0.864   3.219   9.140  0.4546  0.5979 -0.7362
 5817SOL     OW29086   1.137   0.319   8.546  0.6257  0.0069  0.2783
 5817SOL    HW129087   1.146   0.279   8.632 -0.6229 -0.6159  0.1271
 5817SOL    HW229088   1.045   0.345   8.549  0.4014 -0.8993  1.4359
 5818SOL     OW29089   0.330   1.491   3.199 -0.3447 -0.0929  0.2447
 5818SOL    HW129090   0.320   1.434   3.123 -3.4618 -0.8447  1.2609
 5818SOL    HW229091   0.244   1.484   3.240  0.0737  2.5799  1.6286
 5819SOL     OW29092   3.685   2.964   9.168 -0.2376  0.3134  0.0030
 5819SOL    HW129093   3.766   3.014   9.172 -0.5371  0.9027 -1.7133
 5819SOL    HW229094   3.658   2.981   9.258  1.2423  0.5615  0.4095
 5820SOL     OW29095   3.228   0.881  10.928 -0.2404  0.2130 -0.3158
 5820SOL    HW129096   3.177   0.800  10.922 -0.1516 -0.0089  1.7931
 5820SOL    HW229097   3.271   0.877  11.014 -0.1567 -0.6910 -0.4032
 5821SOL     OW29098   4.354   2.790  13.102 -0.3527 -0.1099  0.0828
 5821SOL    HW129099   4.313   2.742  13.174  1.5649  0.2346  1.4067
 5821SOL    HW229100   4.289   2.852  13.068  2.6657  1.3723 -2.9481
 5822SOL     OW29101   4.007   3.459   9.658 -0.2974  0.1804  0.3147
 5822SOL    HW129102   3.966   3.418   9.581  3.5691  0.8921 -2.1112
 5822SOL    HW229103   4.074   3.504   9.608 -1.1953  1.2381  0.0613
 5823SOL     OW29104   1.618   4.059   6.033 -0.5851  0.2016  0.1520
 5823SOL    HW129105   1.643   4.047   5.941  0.4263  0.6291  0.3694
 5823SOL    HW229106   1.526   4.034   6.029 -0.0556 -1.5276 -1.3434
 5824SOL     OW29107   2.674   1.921   2.384  0.0405 -0.0081  0.0934
 5824SOL    HW129108   2.601   1.982   2.381 -0.0164 -0.0840 -0.0908
 5824SOL    HW229109   2.692   1.924   2.478 -0.8631  1.3411  0.2116
 5825SOL     OW29110   4.301   3.547   8.316 -0.4484  0.3441 -0.6823
 5825SOL    HW129111   4.268   3.571   8.230 -0.5764 -0.0522 -0.7444
 5825SOL    HW229112   4.358   3.622   8.337 -0.1346 -0.1773  0.3414
 5826SOL     OW29113   0.552   4.147   1.287  0.1338  0.3656  0.2325
 5826SOL    HW129114   0.491   4.112   1.353 -1.3239 -2.5121 -2.6696
 5826SOL    HW229115   0.627   4.166   1.344 -0.0239 -1.2443  0.9578
 5827SOL     OW29116   2.716   2.766   7.580 -0.0661  0.0959 -0.1078
 5827SOL    HW129117   2.798   2.763   7.629 -0.8388 -0.0140  1.1800
 5827SOL    HW229118   2.753   2.729   7.500 -0.0618 -2.1606  0.9203
 5828SOL     OW29119   0.205   4.439   4.288  0.2132  0.7720  0.1451
 5828SOL    HW129120   0.249   4.479   4.363  0.6932 -0.4142  0.4912
 5828SOL    HW229121   0.174   4.517   4.243 -0.4908  0.1584 -0.4267
 5829SOL     OW29122   2.563   2.154   6.041  0.9632 -0.2558  0.0292
 5829SOL    HW129123   2.631   2.197   5.989 -0.7073 -2.2227 -3.8054
 5829SOL    HW229124   2.503   2.141   5.967  0.0894  0.5323  0.6003
 5830SOL     OW29125   1.182   2.887   6.622  0.2484 -0.3533  0.1055
 5830SOL    HW129126   1.110   2.833   6.591 -2.6215  3.1899  0.5534
 5830SOL    HW229127   1.184   2.952   6.552 -2.7950 -0.5499 -0.1598
 5831SOL     OW29128   2.658   1.536   6.312  0.4118 -0.5571  0.4172
 5831SOL    HW129129   2.667   1.446   6.340  1.1254 -0.4092  0.6573
 5831SOL    HW229130   2.603   1.527   6.234  2.7791 -1.0191 -1.1803
 5832SOL     OW29131   1.645   3.956  11.402 -0.4340 -0.2452 -0.0167
 5832SOL    HW129132   1.590   3.909  11.465 -0.4010  1.6613  1.4029
 5832SOL    HW229133   1.588   4.032  11.392 -0.4510 -0.2607 -0.0390
 5833SOL     OW29134   2.138   0.989   8.623 -0.2272  0.3590 -0.0129
 5833SOL    HW129135   2.175   1.058   8.678  2.1892 -0.9108 -0.0282
 5833SOL    HW229136   2.214   0.979   8.566 -1.1992  0.8205 -1.3959
 5834SOL     OW29137   2.332   4.120   5.363  0.4445 -0.0512  0.1961
 5834SOL    HW129138   2.363   4.210   5.373  0.7277 -0.3059  1.6931
 5834SOL    HW229139   2.258   4.121   5.425 -0.5654  3.9744 -1.1262
 5835SOL     OW29140   0.970   4.736   4.716  0.0868  0.0642  0.1249
 5835SOL    HW129141   0.939   0.076   4.669 -0.5733 -0.1327  0.2364
 5835SOL    HW229142   1.053   0.030   4.752  0.2715  0.6893 -0.8446
 5836SOL     OW29143   1.035   4.304   9.039  0.4312  0.3290  0.2542
 5836SOL    HW129144   1.099   4.278   9.106  0.6065  0.0203 -0.0365
 5836SOL    HW229145   1.085   4.376   9.001  0.3891  0.7460  0.9750
 5837SOL     OW29146   0.305   1.467   6.536 -0.1351  0.2362  0.6328
 5837SOL    HW129147   0.225   1.514   6.557  0.5420  1.1911  1.0464
 5837SOL    HW229148   0.356   1.524   6.593  0.0947  1.5335 -0.8911
 5838SOL     OW29149   1.451   3.721  12.514 -0.4017  0.3280  0.1076
 5838SOL    HW129150   1.366   3.748  12.478 -1.7252 -3.1949  0.5054
 5838SOL    HW229151   1.478   3.802  12.557  0.6073  1.7668 -3.2791
 5839SOL     OW29152   1.573   3.762   1.119  0.4967 -0.0933 -0.0826
 5839SOL    HW129153   1.617   3.815   1.053 -1.9004  1.2800 -0.5787
 5839SOL    HW229154   1.524   3.827   1.170  0.3072 -1.8183  1.9228
 5840SOL     OW29155   3.840   1.542   6.045  0.4378 -0.7026  0.2554
 5840SOL    HW129156   3.776   1.500   6.102  0.8081 -0.7362  0.6548
 5840SOL    HW229157   3.795   1.627   6.045  1.6098 -0.0734  1.8378
 5841SOL     OW29158   2.823   4.437   1.967  0.2248  0.0234 -0.2061
 5841SOL    HW129159   2.911   4.411   1.939  0.6027  0.4091  0.6439
 5841SOL    HW229160   2.768   4.370   1.927 -1.4199  1.6558 -0.6579
 5842SOL     OW29161   2.313   3.638  15.046  0.2467  0.0137 -0.3059
 5842SOL    HW129162   2.358   3.722  15.037 -0.3986  0.5785  1.7107
 5842SOL    HW229163   2.392   3.585  15.053  0.9603  1.0220 -0.6609
 5843SOL     OW29164   1.687   4.302   3.734  0.3253  0.6438  0.3779
 5843SOL    HW129165   1.650   4.308   3.646 -2.1496  0.6578  1.4332
 5843SOL    HW229166   1.608   4.293   3.788 -0.5865  0.9327 -0.9165
 5844SOL     OW29167   0.897   4.609   1.844 -0.0449  0.2244 -0.7956
 5844SOL    HW129168   0.927   4.575   1.760  1.2670 -0.4071 -0.0577
 5844SOL    HW229169   0.897   4.701   1.820 -0.2373  0.6638  0.8804
 5845SOL     OW29170   1.800   2.616   9.005 -0.3153  0.1275 -0.9803
 5845SOL    HW129171   1.720   2.600   9.055 -0.7419  1.1187 -1.3486
 5845SOL    HW229172   1.829   2.706   9.012  0.7779 -0.0027 -3.8987
 5846SOL     OW29173   1.309   1.745   1.747 -0.0148  0.2059  0.1050
 5846SOL    HW129174   1.255   1.756   1.669  0.2138 -1.7760 -0.3341
 5846SOL    HW229175   1.394   1.711   1.719 -0.7662 -0.3502 -1.4919
 5847SOL     OW29176   2.145   2.617   1.732  0.6103  0.3546  0.4196
 5847SOL    HW129177   2.054   2.644   1.741  0.3779 -0.5888  0.8098
 5847SOL    HW229178   2.137   2.573   1.647 -1.0963 -1.1983  1.3807
 5848SOL     OW29179   3.074   1.886   9.299 -0.0201 -0.2893 -0.1312
 5848SOL    HW129180   3.143   1.843   9.350 -0.1980 -1.6583 -1.0431
 5848SOL    HW229181   3.029   1.933   9.369 -1.7440 -2.4153  0.1940
 5849SOL     OW29182   2.188   4.120  16.172 -0.1484  0.7037  0.2942
 5849SOL    HW129183   2.158   4.072  16.095 -0.1785 -1.5981  1.7435
 5849SOL    HW229184   2.115   4.105  16.234 -0.1407  0.7174  0.3067
 5850SOL     OW29185   2.642   2.416   5.039  0.1532  0.0211  0.1725
 5850SOL    HW129186   2.724   2.368   5.047 -0.3069 -0.6966  0.5912
 5850SOL    HW229187   2.634   2.437   5.132 -0.5344  0.1198  0.0980
 5851SOL     OW29188   3.696   4.615   0.991  0.3614 -0.4659  0.0809
 5851SOL    HW129189   3.767   4.576   0.940 -0.3144  0.8975 -1.9113
 5851SOL    HW229190   3.645   4.637   0.913  0.5516 -0.1348  0.0507
 5852SOL     OW29191   3.586   4.133   5.121 -0.0745  0.0901  0.4335
 5852SOL    HW129192   3.496   4.165   5.124 -0.1948 -0.0257 -1.8642
 5852SOL    HW229193   3.596   4.090   5.036  0.3695  0.1549  0.4503
 5853SOL     OW29194   3.348   4.347   6.841  0.2157 -0.2291 -0.0387
 5853SOL    HW129195   3.339   4.272   6.783  0.4787 -0.4992  0.2705
 5853SOL    HW229196   3.273   4.403   6.819 -0.0241 -0.5327  0.0041
 5854SOL     OW29197   1.476   2.818   3.884 -0.0507 -0.0109 -0.1899
 5854SOL    HW129198   1.394   2.830   3.837  1.3437  0.6876 -2.4572
 5854SOL    HW229199   1.520   2.784   3.806 -0.8173  1.4315 -1.2430
 5855SOL     OW29200   3.119   3.564   5.210 -0.1068 -0.1770 -0.2973
 5855SOL    HW129201   3.039   3.567   5.263  0.5037 -0.2538  0.6336
 5855SOL    HW229202   3.133   3.656   5.188  0.7452  0.0365  1.1292
 5856SOL     OW29203   3.228   4.151   6.286 -0.2255  0.1592 -0.5888
 5856SOL    HW129204   3.210   4.118   6.374 -2.5834  1.7557 -0.4620
 5856SOL    HW229205   3.304   4.097   6.266  1.0022  2.2815 -1.6038
 5857SOL     OW29206   4.542   3.560   2.665  0.4009  0.0307  0.5425
 5857SOL    HW129207   4.599   3.507   2.721  1.3327 -1.1427 -1.5209
 5857SOL    HW229208   4.476   3.491   2.648  0.4448  0.9316 -3.2498
 5858SOL     OW29209   3.603   0.561   5.072 -0.2019 -0.1155  0.5996
 5858SOL    HW129210   3.609   0.482   5.126  0.8706 -0.0946  0.5201
 5858SOL    HW229211   3.691   0.598   5.070  0.1605 -1.0492 -0.6659
 5859SOL     OW29212   3.824   0.081  13.610  0.8216  0.2391 -0.1617
 5859SOL    HW129213   3.790   0.135  13.539  0.7898 -1.4915 -1.4806
 5859SOL    HW229214   3.756   0.015  13.622  0.2201  1.1426  1.3302
 5860SOL     OW29215   4.112   2.514  12.456  0.4889  0.2432 -0.3964
 5860SOL    HW129216   4.186   2.461  12.426 -0.3260 -1.0329 -0.1759
 5860SOL    HW229217   4.150   2.542  12.539  0.0002 -1.9864  0.5917
 5861SOL     OW29218   4.623   4.681   4.616  0.4712  0.0542  0.2065
 5861SOL    HW129219   4.703   4.647   4.656  2.2978  1.4310 -2.2416
 5861SOL    HW229220   4.555   4.636   4.666  0.8219  0.4912  1.0750
 5862SOL     OW29221   0.349   0.501   6.417  0.0120 -0.3024  0.7507
 5862SOL    HW129222   0.285   0.441   6.456 -0.1387  0.2305  1.3141
 5862SOL    HW229223   0.347   0.470   6.326  1.7725  1.1806  0.2136
 5863SOL     OW29224   1.551   1.541   8.949 -0.6005 -0.4568  0.1816
 5863SOL    HW129225   1.482   1.505   8.893 -1.8838 -0.3031  1.6387
 5863SOL    HW229226   1.627   1.539   8.892 -0.3434 -0.7120  0.5378
 5864SOL     OW29227   3.472   0.634   2.325 -0.5427  0.0440 -0.4496
 5864SOL    HW129228   3.549   0.690   2.336  1.1553 -2.7040  1.8391
 5864SOL    HW229229   3.426   0.653   2.408  2.4759 -0.5361  1.3429
 5865SOL     OW29230   0.021   4.677   0.199 -0.3539  0.5522 -0.3892
 5865SOL    HW129231   0.028   0.035   0.204  1.1350  0.3434  1.3949
 5865SOL    HW229232   0.113   4.661   0.179 -0.7533 -1.1698 -0.9061
 5866SOL     OW29233   0.826   2.963   5.425  0.3599  0.1690 -0.0239
 5866SOL    HW129234   0.760   2.982   5.358  0.5495  0.2619 -0.1835
 5866SOL    HW229235   0.862   2.879   5.396  0.6900  0.1332  0.4829
 5867SOL     OW29236   2.415   0.264  15.478 -0.1205  0.0020  0.5610
 5867SOL    HW129237   2.445   0.226  15.396 -0.1217 -0.8133  0.9416
 5867SOL    HW229238   2.423   0.187  15.534  1.5711 -1.2672 -1.4223
 5868SOL     OW29239   3.618   4.006   4.896 -0.0995  0.2117 -0.3659
 5868SOL    HW129240   3.654   3.917   4.896  1.6187  0.8962 -0.2237
 5868SOL    HW229241   3.640   4.046   4.812  0.0784 -0.4019 -0.6146
 5869SOL     OW29242   2.982   2.573   7.254 -0.0909 -0.1612  0.2717
 5869SOL    HW129243   3.052   2.630   7.224 -0.2503  0.5123  1.1900
 5869SOL    HW229244   2.997   2.574   7.348 -1.4136 -0.4077  0.4873
 5870SOL     OW29245   2.799   1.934   9.764 -0.8217 -0.1626 -0.0916
 5870SOL    HW129246   2.837   1.981   9.838 -1.2664  0.9669 -0.5854
 5870SOL    HW229247   2.795   2.004   9.699  0.5056 -0.2655 -0.2850
 5871SOL     OW29248   1.612   2.428   9.826  0.0700  0.1256 -0.2467
 5871SOL    HW129249   1.664   2.481   9.887  1.2164 -1.0701 -0.1717
 5871SOL    HW229250   1.584   2.362   9.889  0.0130  0.3529 -0.0315
 5872SOL     OW29251   2.549   3.755   2.745  0.4816 -0.2975  0.1670
 5872SOL    HW129252   2.483   3.783   2.682  2.8862 -0.5458 -2.4475
 5872SOL    HW229253   2.503   3.771   2.827 -2.0479 -1.3026 -1.0553
 5873SOL     OW29254   2.989   1.646   7.853  0.3586 -0.2739 -0.2682
 5873SOL    HW129255   3.029   1.643   7.940 -0.0394  1.9029 -0.0168
 5873SOL    HW229256   3.058   1.693   7.808 -0.9057  0.9483 -0.9375
 5874SOL     OW29257   1.552   4.372  12.742 -0.1951 -0.8321  0.4520
 5874SOL    HW129258   1.535   4.401  12.652  1.2485 -1.0003  0.1201
 5874SOL    HW229259   1.647   4.363  12.729  0.1747  0.4222  2.3351
 5875SOL     OW29260   1.183   0.804   5.297 -0.4149 -0.2458 -0.0247
 5875SOL    HW129261   1.126   0.872   5.260 -1.2343  0.4757  2.5965
 5875SOL    HW229262   1.134   0.725   5.277  2.4111 -2.0489  0.1197
 5876SOL     OW29263   2.021   4.469   3.435  0.7393 -0.2266 -0.0476
 5876SOL    HW129264   2.026   4.404   3.505  1.9964 -0.1398 -0.0583
 5876SOL    HW229265   2.006   4.547   3.489 -1.2764 -0.4574 -0.2628
 5877SOL     OW29266   1.683   0.988  17.468 -0.0482 -0.1485  0.5065
 5877SOL    HW129267   1.652   1.060  17.523  0.8889 -0.1029  0.9777
 5877SOL    HW229268   1.734   1.032  17.400  0.5996  1.3074  1.9444
 5878SOL     OW29269   2.170   0.169  13.393 -0.4608  0.3265 -0.3313
 5878SOL    HW129270   2.167   0.133  13.482  1.9070 -0.4694 -0.5752
 5878SOL    HW229271   2.233   0.241  13.389 -0.4763  0.2763 -1.5909
 5879SOL     OW29272   4.444   4.495  17.206  0.1780  0.1575  0.7117
 5879SOL    HW129273   4.366   4.448  17.178 -0.3962  1.2850  0.4062
 5879SOL    HW229274   4.494   4.511  17.126 -0.4307  2.5847  0.8022
 5880SOL     OW29275   4.153   1.404   6.268  0.3719 -0.1994  0.3247
 5880SOL    HW129276   4.143   1.450   6.185  1.3062  0.3923  0.5415
 5880SOL    HW229277   4.246   1.378   6.269 -0.1965 -2.1019  2.2613
 5881SOL     OW29278   0.114   1.870   4.838 -0.2767 -0.4452  0.0408
 5881SOL    HW129279   0.045   1.927   4.804  1.5716  2.0943  0.5456
 5881SOL    HW229280   0.191   1.925   4.825  0.1170 -0.9563  0.1885
 5882SOL     OW29281   0.183   0.201  16.047 -0.4478 -0.2401  0.2956
 5882SOL    HW129282   0.188   0.287  16.089  0.0559  0.4828 -1.2103
 5882SOL    HW229283   0.236   0.217  15.968 -1.9264  0.5330 -0.5435
 5883SOL     OW29284   4.193   3.256   8.097 -0.0734  0.1442 -0.0587
 5883SOL    HW129285   4.264   3.202   8.062 -0.0337  1.9631 -2.7213
 5883SOL    HW229286   4.137   3.197   8.148  2.5085  0.0490  2.6622
 5884SOL     OW29287   1.969   1.936   0.492  0.0021  0.6117 -0.1743
 5884SOL    HW129288   1.876   1.914   0.501 -0.2901  1.5331 -0.8847
 5884SOL    HW229289   1.999   1.867   0.433 -4.5233 -0.7191 -0.9272
 5885SOL     OW29290   4.044   2.059   5.708  0.3713  0.1466 -0.1769
 5885SOL    HW129291   4.104   2.038   5.637  1.4764  3.2916 -0.1515
 5885SOL    HW229292   4.036   2.152   5.690  1.5358  0.1275 -0.7928
 5886SOL     OW29293   0.180   4.665   4.163  0.6707  0.2799 -0.3829
 5886SOL    HW129294   0.097   4.713   4.162 -0.1122 -1.0995 -1.5113
 5886SOL    HW229295   0.229   4.725   4.107  0.4771 -0.8886 -1.8190
 5887SOL     OW29296   2.410   0.543  11.785  0.1984  0.3282  0.4875
 5887SOL    HW129297   2.316   0.558  11.779  0.3026  0.3114 -1.2308
 5887SOL    HW229298   2.415   0.451  11.762  0.0937  0.3917  0.2036
 5888SOL     OW29299   4.526   0.470   4.080 -0.4857  0.0045 -0.2680
 5888SOL    HW129300   4.515   0.379   4.106  1.5958  0.1678  1.2033
 5888SOL    HW229301   4.542   0.474   3.985  3.1456 -0.5556  0.3274
 5889SOL     OW29302   4.151   0.051   5.996  0.2429 -0.5366  0.2118
 5889SOL    HW129303   4.086   4.724   6.027 -1.5572  0.2379 -2.0381
 5889SOL    HW229304   4.126   0.073   5.907 -1.0453  2.0418  1.2107
 5890SOL     OW29305   2.042   0.591   3.005 -0.5870  0.5120  0.5610
 5890SOL    HW129306   2.054   0.587   2.910  0.1074  1.1470  0.6271
 5890SOL    HW229307   1.957   0.549   3.020  1.4198 -2.6528  2.8822
 5891SOL     OW29308   1.866   0.046   1.790 -0.2069 -0.3556 -0.2532
 5891SOL    HW129309   1.775   0.020   1.799 -0.0827 -0.4077  0.8652
 5891SOL    HW229310   1.848   0.110   1.721 -2.2262 -0.8279 -0.1589
 5892SOL     OW29311   2.460   4.063   0.468  0.0048  0.6871  0.3439
 5892SOL    HW129312   2.535   4.037   0.413  0.9958 -2.0843  3.0372
 5892SOL    HW229313   2.467   4.159   0.460 -0.9740  0.7147 -0.1118
 5893SOL     OW29314   3.567   0.962  13.829  0.2332  0.0070  0.3435
 5893SOL    HW129315   3.584   0.963  13.735 -0.9003 -2.8248  0.1163
 5893SOL    HW229316   3.472   0.975  13.831  0.1874 -0.0597 -2.1091
 5894SOL     OW29317   3.673   3.907  12.006 -0.0552 -0.4746  0.2759
 5894SOL    HW129318   3.632   3.984  11.968 -2.4386 -1.6010  0.5335
 5894SOL    HW229319   3.727   3.879  11.932 -2.0654 -0.3015 -1.2627
 5895SOL     OW29320   0.262   4.510   8.896 -0.1616  0.0762  0.1396
 5895SOL    HW129321   0.220   4.585   8.938 -0.5013 -0.1011  0.1148
 5895SOL    HW229322   0.198   4.440   8.913 -0.6895  0.6164  0.3499
 5896SOL     OW29323   0.841   4.495   8.233 -0.1105 -0.4286  0.6358
 5896SOL    HW129324   0.923   4.544   8.240 -0.8126  1.0579 -1.3801
 5896SOL    HW229325   0.836   4.493   8.137 -1.2472  3.3025  0.6184
 5897SOL     OW29326   0.173   3.531   3.238 -0.4860  0.4091  0.8726
 5897SOL    HW129327   0.166   3.624   3.258 -1.9108  0.4909  0.0097
 5897SOL    HW229328   0.268   3.529   3.234 -0.4834  0.8456  0.7776
 5898SOL     OW29329   1.901   1.448   1.235  0.0518  0.6067 -0.4363
 5898SOL    HW129330   1.862   1.379   1.288 -1.0515 -0.4244 -2.6004
 5898SOL    HW229331   1.944   1.500   1.304 -1.2901 -0.0060  0.8595
 5899SOL     OW29332   3.143   2.628   2.442 -0.1042 -0.1816 -0.5315
 5899SOL    HW129333   3.158   2.650   2.350  1.4964  1.6166  0.1493
 5899SOL    HW229334   3.062   2.580   2.429 -1.2401  1.4703  0.4290
 5900SOL     OW29335   2.934   3.086   2.982  0.8038 -0.2179 -0.2294
 5900SOL    HW129336   2.957   3.005   2.936 -1.3364  1.1774 -3.7026
 5900SOL    HW229337   2.843   3.078   3.009  0.7722 -0.7789 -0.4979
 5901SOL     OW29338   4.619   3.704   6.404  0.1536  0.1145  0.7081
 5901SOL    HW129339   4.686   3.742   6.462 -0.2604  0.3413  1.0407
 5901SOL    HW229340   4.676   3.645   6.355 -0.3483  1.7482 -1.8147
 5902SOL     OW29341   1.163   2.572   9.112 -0.5223 -0.1608 -0.1807
 5902SOL    HW129342   1.091   2.573   9.175  0.1510  0.5224  0.5786
 5902SOL    HW229343   1.128   2.510   9.049  0.5198 -2.4551  1.4889
 5903SOL     OW29344   1.434   2.382   9.633 -0.1581 -0.2358  0.2721
 5903SOL    HW129345   1.494   2.386   9.707  0.3884  0.3400 -0.2012
 5903SOL    HW229346   1.432   2.287   9.616  1.4130 -0.1442 -0.3922
 5904SOL     OW29347   0.042   3.782   0.514  0.1431  0.1904  0.8611
 5904SOL    HW129348   0.046   3.770   0.419  3.4869 -1.4077  1.2145
 5904SOL    HW229349   0.033   3.877   0.522 -1.6512  0.0978  0.0861
 5905SOL     OW29350   0.469   1.501  13.928 -0.3902  0.1700 -0.4189
 5905SOL    HW129351   0.445   1.408  13.932  0.3373  0.0688  1.4923
 5905SOL    HW229352   0.453   1.523  13.836 -1.6421  1.3117  0.0817
 5906SOL     OW29353   0.697   3.757   4.135  0.3575  0.1421 -0.4741
 5906SOL    HW129354   0.629   3.769   4.068 -2.3067  2.1121  2.5772
 5906SOL    HW229355   0.706   3.662   4.136  0.6799  0.1937  0.8917
 5907SOL     OW29356   0.454   4.066   5.857 -0.5800 -0.5106  0.3846
 5907SOL    HW129357   0.516   4.049   5.927  0.1485 -0.3360 -0.2152
 5907SOL    HW229358   0.376   4.070   5.912 -1.6792  1.5119 -1.3068
 5908SOL     OW29359   2.049   0.130   0.593 -0.4584 -0.1652 -0.1660
 5908SOL    HW129360   1.978   0.072   0.619  1.1350 -1.9328  0.2101
 5908SOL    HW229361   2.116   0.089   0.647 -1.4903 -0.9712  0.4965
 5909SOL     OW29362   0.663   1.774   8.228  0.2337 -0.0926  0.2930
 5909SOL    HW129363   0.717   1.851   8.213 -3.1706  2.0110 -1.1720
 5909SOL    HW229364   0.700   1.711   8.166 -1.5733  0.0192 -0.8961
 5910SOL     OW29365   0.338   1.212  12.509 -0.0918  0.1878  0.2265
 5910SOL    HW129366   0.375   1.155  12.442  0.4404  1.8504 -0.9085
 5910SOL    HW229367   0.340   1.304  12.481 -0.8828  0.4714  1.0847
 5911SOL     OW29368   3.066   0.814   8.819 -0.5985 -0.1156 -0.1088
 5911SOL    HW129369   3.062   0.893   8.873 -0.1627  0.0811 -0.3677
 5911SOL    HW229370   2.974   0.794   8.839 -0.7879  1.4015  0.5482
 5912SOL     OW29371   4.078   2.017   5.229 -0.3059 -0.1219  0.2474
 5912SOL    HW129372   4.001   2.073   5.220  0.6316  0.6674 -2.8681
 5912SOL    HW229373   4.051   1.933   5.191 -1.1535  0.4215 -0.3475
 5913SOL     OW29374   2.363   2.718   0.862  0.2126 -0.3450 -0.1477
 5913SOL    HW129375   2.381   2.810   0.882  1.6893 -1.1998  2.4805
 5913SOL    HW229376   2.356   2.683   0.951 -2.9733  0.0360 -0.2452
 5914SOL     OW29377   1.251   0.975   4.454 -0.4085 -0.1547 -0.3361
 5914SOL    HW129378   1.285   1.057   4.490 -0.4637  0.1420 -0.9637
 5914SOL    HW229379   1.196   1.018   4.388 -2.7969  1.4105  2.6805
 5915SOL     OW29380   2.632   2.851  10.753  0.3930 -0.5617  0.3875
 5915SOL    HW129381   2.625   2.767  10.709 -0.1255 -1.5387  2.3420
 5915SOL    HW229382   2.604   2.824  10.840 -1.0660  0.4104  0.2371
 5916SOL     OW29383   3.149   3.341   3.767 -0.0163  0.2829  0.1939
 5916SOL    HW129384   3.100   3.259   3.756 -1.4468  1.0274  0.9925
 5916SOL    HW229385   3.078   3.397   3.799 -2.1335 -3.8907  3.0243
 5917SOL     OW29386   3.438   0.203   7.425  0.7801 -0.0081  0.5154
 5917SOL    HW129387   3.412   0.190   7.516  0.7107  0.5750  0.5765
 5917SOL    HW229388   3.479   0.289   7.417 -0.1495  0.2503 -1.4211
 5918SOL     OW29389   0.989   0.393  13.631  0.2715 -0.0400 -0.5978
 5918SOL    HW129390   1.043   0.314  13.629 -0.2494 -0.4075 -0.4849
 5918SOL    HW229391   0.928   0.357  13.696 -1.3423 -0.0779 -2.1303
 5919SOL     OW29392   0.895   2.959   9.671 -0.1620  0.7795  0.6371
 5919SOL    HW129393   0.982   2.998   9.674 -0.7295  2.1570 -0.8818
 5919SOL    HW229394   0.850   3.040   9.646 -1.8916 -0.7183 -1.0716
 5920SOL     OW29395   2.537   2.589   7.692 -0.1215 -0.1348  0.1689
 5920SOL    HW129396   2.474   2.592   7.619  0.4934  0.0423 -0.3564
 5920SOL    HW229397   2.598   2.655   7.658 -1.5627  1.6908  1.0705
 5921SOL     OW29398   4.533   2.092  10.986 -0.8261 -0.4092  0.2742
 5921SOL    HW129399   4.523   2.008  10.942 -0.7196  0.3663 -1.2370
 5921SOL    HW229400   4.523   2.079  11.081  3.0139  2.1619  1.0007
 5922SOL     OW29401   4.409   3.415   0.952  0.0290  0.0416 -0.1030
 5922SOL    HW129402   4.334   3.474   0.948  1.4396  1.8814  0.1648
 5922SOL    HW229403   4.379   3.343   1.007 -0.1404 -2.3156 -3.3243
 5923SOL     OW29404   1.011   1.888  15.019  0.5335  0.3807  0.3662
 5923SOL    HW129405   1.003   1.897  15.114 -1.7310  0.5667  0.1697
 5923SOL    HW229406   1.081   1.823  15.007 -1.4074 -1.1379 -2.7621
 5924SOL     OW29407   2.789   2.231   1.264  0.2559 -0.5342 -0.0728
 5924SOL    HW129408   2.813   2.319   1.232 -3.3525  1.2258  2.1603
 5924SOL    HW229409   2.869   2.210   1.313 -0.3586 -1.3144  0.5743
 5925SOL     OW29410   1.586   3.381   5.520 -0.0694 -0.0172  0.2148
 5925SOL    HW129411   1.606   3.419   5.605  2.3219  0.9300 -0.7614
 5925SOL    HW229412   1.612   3.290   5.539 -0.4614 -0.1724  0.0071
 5926SOL     OW29413   2.251   2.246   4.566  0.6127  0.3687  0.0133
 5926SOL    HW129414   2.260   2.304   4.642  1.1807  1.1847 -0.6768
 5926SOL    HW229415   2.171   2.201   4.592  1.4470 -0.2630  1.5369
 5927SOL     OW29416   0.187   0.479   3.666  0.1613 -0.4841 -0.0676
 5927SOL    HW129417   0.232   0.552   3.622 -0.1194 -1.6398 -2.2885
 5927SOL    HW229418   0.153   0.424   3.596  1.9250 -0.2042 -1.1490
 5928SOL     OW29419   2.960   0.854   8.500 -0.6760  0.0188 -0.2344
 5928SOL    HW129420   3.045   0.889   8.474 -0.8047  1.4227  1.1804
 5928SOL    HW229421   2.925   0.922   8.559  0.0042  2.2695 -2.4345
 5929SOL     OW29422   0.691   0.616   5.636 -0.6517  0.2780 -0.2499
 5929SOL    HW129423   0.771   0.590   5.682 -1.3824  2.9554  2.5460
 5929SOL    HW229424   0.626   0.562   5.681  1.1130 -0.4697  1.4071
 5930SOL     OW29425   4.469   4.215   8.355  0.2581 -0.3681  0.0304
 5930SOL    HW129426   4.459   4.120   8.363  0.1520 -0.4348 -0.8483
 5930SOL    HW229427   4.429   4.251   8.434 -1.7219  2.4049 -2.2414
 5931SOL     OW29428   4.542   4.462   6.054  0.1885 -0.0107  0.0657
 5931SOL    HW129429   4.479   4.522   6.016 -0.6941 -0.6705  0.4906
 5931SOL    HW229430   4.498   4.436   6.134  0.8030 -1.1275  0.0482
 5932SOL     OW29431   0.060   4.400   2.093  0.2487 -0.1213  0.3234
 5932SOL    HW129432   0.009   4.323   2.066  0.2483 -0.1506  0.4090
 5932SOL    HW229433   0.031   4.459   2.024 -0.7192  1.1720  1.8476
 5933SOL     OW29434   1.095   3.273   8.960 -0.1236  0.2860 -0.8962
 5933SOL    HW129435   1.023   3.218   8.993  0.8768 -1.8118 -2.2492
 5933SOL    HW229436   1.147   3.273   9.040  0.2219 -0.8497 -1.1269
 5934SOL     OW29437   4.526   4.330   1.782 -0.3214 -0.6698  0.0451
 5934SOL    HW129438   4.548   4.236   1.779  2.9004  0.0956 -0.0180
 5934SOL    HW229439   4.431   4.329   1.783 -0.2939  0.3514  2.2756
 5935SOL     OW29440   0.231   0.330   7.018  0.3579  0.6155  0.2946
 5935SOL    HW129441   0.168   0.287   7.077  0.4436  0.4647  0.2728
 5935SOL    HW229442   0.308   0.294   7.061  1.0728 -1.0856 -2.4378
 5936SOL     OW29443   0.533   0.704   4.986  0.3118  0.2585  0.2003
 5936SOL    HW129444   0.517   0.631   4.926 -2.5731 -0.3401  1.7251
 5936SOL    HW229445   0.442   0.734   4.987  0.2829  0.2588 -1.8692
 5937SOL     OW29446   4.096   2.027   2.023  0.3632  0.1633  0.1395
 5937SOL    HW129447   4.088   2.074   1.940 -0.2414 -1.0892 -0.5070
 5937SOL    HW229448   4.138   2.091   2.080 -1.7019  0.4376  1.3703
 5938SOL     OW29449   4.457   0.894   7.355  0.5333  0.1727 -0.1628
 5938SOL    HW129450   4.498   0.979   7.336 -0.8778  0.7257 -0.7811
 5938SOL    HW229451   4.374   0.907   7.309  0.6240  0.5125 -0.2343
 5939SOL     OW29452   2.747   0.109  13.379  0.9176 -0.0879 -0.3622
 5939SOL    HW129453   2.836   0.082  13.359  0.8613  0.2046 -0.9908
 5939SOL    HW229454   2.771   0.195  13.412  2.5787  0.4793 -3.0956
 5940SOL     OW29455   1.062   0.686   6.811  0.5727  0.1080  0.2099
 5940SOL    HW129456   1.044   0.706   6.903 -0.3495 -1.4675  0.3737
 5940SOL    HW229457   1.004   0.610   6.798  0.3938  0.0477  1.3490
 5941SOL     OW29458   3.159   3.194   6.308  0.2513  0.7186  0.2936
 5941SOL    HW129459   3.074   3.151   6.320  0.2801  0.6151  0.1178
 5941SOL    HW229460   3.182   3.175   6.217 -1.4483 -1.3782  0.2939
 5942SOL     OW29461   4.503   4.275  15.084  0.0744 -0.0687  0.0111
 5942SOL    HW129462   4.447   4.292  15.008  1.2628  1.6741 -0.4757
 5942SOL    HW229463   4.441   4.277  15.158  0.6521 -1.7184  0.5197
 5943SOL     OW29464   2.044   1.982   4.333 -0.2911  0.3788 -0.1427
 5943SOL    HW129465   2.069   1.897   4.369 -1.0114 -0.0698 -0.7140
 5943SOL    HW229466   2.128   2.012   4.298 -0.5063 -0.3668 -1.2949
 5944SOL     OW29467   4.480   0.805   6.817  0.0454  0.2437 -0.1523
 5944SOL    HW129468   4.488   0.900   6.810  0.0049  0.3510  1.3936
 5944SOL    HW229469   4.407   0.777   6.761  0.5984 -1.5315 -0.0131
 5945SOL     OW29470   2.035   3.641   4.329  0.5345 -0.0469  0.1755
 5945SOL    HW129471   1.989   3.559   4.348  0.2669 -0.0592 -0.5480
 5945SOL    HW229472   1.959   3.698   4.340  0.4506 -0.3600  1.2518
 5946SOL     OW29473   4.191   0.586   3.445  0.2698  0.0069 -0.1071
 5946SOL    HW129474   4.193   0.555   3.354  0.4557  2.6124 -1.0230
 5946SOL    HW229475   4.100   0.581   3.474  0.6612 -2.1435  0.7082
 5947SOL     OW29476   2.481   3.587   6.676  0.3631  0.0868  0.4117
 5947SOL    HW129477   2.541   3.631   6.616  0.1285  1.3480  1.0928
 5947SOL    HW229478   2.536   3.604   6.752  1.2748  1.2173 -0.5040
 5948SOL     OW29479   1.815   3.808   9.654  0.3688  0.3763 -0.4068
 5948SOL    HW129480   1.775   3.894   9.667  0.4329  0.5565 -1.4098
 5948SOL    HW229481   1.781   3.778   9.569 -1.8515  0.1658  0.5500
 5949SOL     OW29482   1.744   4.511   2.822  0.1363  0.0131  0.8470
 5949SOL    HW129483   1.749   4.476   2.734  1.1992  1.9147  0.1593
 5949SOL    HW229484   1.758   4.605   2.808 -1.3697 -0.0956 -1.2467
 5950SOL     OW29485   4.286   2.943   8.406  0.3819  0.6070  0.2485
 5950SOL    HW129486   4.195   2.941   8.434  0.7866  0.9851  1.6007
 5950SOL    HW229487   4.310   2.861   8.450  1.1882  0.3841 -0.6082
 5951SOL     OW29488   4.685   2.223   2.948 -0.4883  0.3560 -0.2524
 5951SOL    HW129489   4.714   2.132   2.948 -1.1307  0.1530 -0.3217
 5951SOL    HW229490   0.032   2.268   2.938 -0.8457  0.7488 -1.5268
 5952SOL     OW29491   4.092   4.450   4.309 -0.4756  0.0407  0.1883
 5952SOL    HW129492   4.097   4.363   4.349  0.9138 -0.3234 -0.7770
 5952SOL    HW229493   3.999   4.449   4.286 -0.2834 -1.2909 -0.5265
 5953SOL     OW29494   4.678   4.668  10.261 -0.0395  0.6200 -0.0273
 5953SOL    HW129495   0.003   4.598  10.282 -1.2179 -1.0653 -2.0402
 5953SOL    HW229496   4.728   0.008  10.287  2.5044 -0.8454 -0.6200
 5954SOL     OW29497   4.454   1.869   1.997 -0.1017 -0.2082 -0.4042
 5954SOL    HW129498   4.492   1.860   1.909  1.0745 -0.2268  0.0994
 5954SOL    HW229499   4.492   1.953   2.022 -0.9162  0.1628 -0.4146
 5955SOL     OW29500   4.605   0.753   7.535  0.0905  0.3465  0.2266
 5955SOL    HW129501   4.670   0.821   7.520 -0.3671  0.5950 -0.5732
 5955SOL    HW229502   4.536   0.790   7.481 -1.6294 -1.0253  1.4771
 5956SOL     OW29503   2.320   2.402  13.393 -0.4601  0.3328  0.2516
 5956SOL    HW129504   2.404   2.441  13.420 -0.4894  1.0360 -0.6764
 5956SOL    HW229505   2.271   2.482  13.373 -1.8140 -1.5887 -4.0663
 5957SOL     OW29506   1.155   3.329  13.645 -0.1340  0.6036 -0.5136
 5957SOL    HW129507   1.073   3.336  13.695 -1.0730 -1.3811 -1.7945
 5957SOL    HW229508   1.137   3.270  13.572  0.7066 -1.9238  1.3430
 5958SOL     OW29509   0.901   0.125   1.758 -0.4682 -0.0739 -0.6583
 5958SOL    HW129510   0.874   0.195   1.817 -0.4013  0.0262 -0.7475
 5958SOL    HW229511   0.956   0.174   1.697  0.6722  1.3112  1.4677
 5959SOL     OW29512   3.966   2.338  11.376 -0.1976  0.2201  0.4217
 5959SOL    HW129513   4.008   2.289  11.305 -0.7130  0.5906 -0.1447
 5959SOL    HW229514   4.042   2.395  11.388  0.0693  0.1223 -0.8063
 5960SOL     OW29515   0.120   4.166  16.051 -0.2618 -0.1536 -0.6768
 5960SOL    HW129516   0.158   4.249  16.022 -0.7767 -0.1336 -1.2772
 5960SOL    HW229517   0.188   4.108  16.019 -0.1649  0.0131 -0.7724
 5961SOL     OW29518   3.520   2.085   6.998 -0.0726  0.2600  0.0805
 5961SOL    HW129519   3.467   2.105   6.921  1.6588  1.5285 -0.7874
 5961SOL    HW229520   3.497   1.993   7.008  1.1042 -0.2682 -2.2025
 5962SOL     OW29521   1.283   2.950   2.137  0.1528 -0.2231 -0.3205
 5962SOL    HW129522   1.244   2.871   2.101 -1.8190  0.6037 -0.0126
 5962SOL    HW229523   1.212   3.014   2.129  1.5088  1.3072 -0.1129
 5963SOL     OW29524   3.860   2.793   5.332 -0.1322  0.1556 -0.6004
 5963SOL    HW129525   3.924   2.863   5.347  0.7140 -1.0401  1.3063
 5963SOL    HW229526   3.775   2.821   5.367 -1.0452 -2.0645 -1.0585
 5964SOL     OW29527   4.130   3.437  15.123 -0.2511  0.5387  0.2758
 5964SOL    HW129528   4.200   3.434  15.058 -0.1316 -0.1659  0.4323
 5964SOL    HW229529   4.132   3.343  15.145  1.0437  0.3610 -0.5399
 5965SOL     OW29530   2.473   2.444   2.795  0.3485 -0.0103 -0.0146
 5965SOL    HW129531   2.410   2.497   2.844  1.1071 -0.2661  1.2642
 5965SOL    HW229532   2.454   2.451   2.702  0.4513 -0.6997 -0.0859
 5966SOL     OW29533   2.749   3.723   5.822 -0.4085 -0.2159  0.4355
 5966SOL    HW129534   2.790   3.757   5.902 -2.2462  0.2449  1.1719
 5966SOL    HW229535   2.768   3.630   5.836 -1.6247 -0.6323 -0.7002
 5967SOL     OW29536   1.207   2.014  14.807 -0.2785 -0.1439 -0.9630
 5967SOL    HW129537   1.191   2.014  14.901  1.9256  0.0685 -0.5790
 5967SOL    HW229538   1.285   2.070  14.807  0.9069 -1.7791  0.1563
 5968SOL     OW29539   2.594   4.169   4.628  0.0479 -0.0856  0.1497
 5968SOL    HW129540   2.626   4.114   4.557  1.9320 -0.5808  1.3935
 5968SOL    HW229541   2.634   4.123   4.703  3.6971  1.6262 -0.7871
 5969SOL     OW29542   0.027   2.033   8.946  0.0737  0.1128  0.1907
 5969SOL    HW129543   4.699   2.047   9.015 -3.2177 -0.8777 -2.6735
 5969SOL    HW229544   0.082   2.111   8.945  0.1502  0.0563 -0.4114
 5970SOL     OW29545   1.240   2.363   2.872 -0.5944  0.1347 -0.3923
 5970SOL    HW129546   1.314   2.423   2.864 -0.9054  0.3452 -1.7857
 5970SOL    HW229547   1.173   2.427   2.895 -1.6736 -0.7096 -1.1824
 5971SOL     OW29548   4.700   3.455   7.446 -0.0017  0.2920  0.0350
 5971SOL    HW129549   0.018   3.451   7.368 -1.3461  2.8055 -1.0456
 5971SOL    HW229550   4.707   3.550   7.447  1.2646  0.2029 -0.2807
 5972SOL     OW29551   0.402   2.345  16.466 -0.3219 -0.2787 -0.1737
 5972SOL    HW129552   0.400   2.386  16.379 -0.5864  0.9823  0.4443
 5972SOL    HW229553   0.323   2.291  16.462 -0.4340 -0.0519 -1.0447
 5973SOL     OW29554   1.403   0.249   7.287 -0.2199 -0.3199 -0.0162
 5973SOL    HW129555   1.485   0.279   7.247  1.5973 -0.5803  3.4828
 5973SOL    HW229556   1.428   0.188   7.356 -0.6451 -0.3679  0.0958
 5974SOL     OW29557   0.576   1.275   5.335 -0.0032  0.1792  0.4760
 5974SOL    HW129558   0.625   1.218   5.276  0.4834  1.0779  0.0150
 5974SOL    HW229559   0.643   1.269   5.403 -1.2726 -3.5271  1.4544
 5975SOL     OW29560   3.822   2.276   5.947  0.1764 -0.1691 -0.4239
 5975SOL    HW129561   3.832   2.324   6.029 -1.8289  1.2338 -1.0029
 5975SOL    HW229562   3.731   2.299   5.927  0.3001  1.2727  0.6570
 5976SOL     OW29563   1.612   0.137  12.277  0.3551  0.1600  0.2369
 5976SOL    HW129564   1.652   0.070  12.333  0.7997 -0.0768 -0.3532
 5976SOL    HW229565   1.634   0.091  12.195 -1.6242 -0.9443  0.3361
 5977SOL     OW29566   0.189   3.177  16.840 -0.0498  0.2772  0.4763
 5977SOL    HW129567   0.161   3.112  16.905 -0.8246  1.5856  1.4644
 5977SOL    HW229568   0.110   3.231  16.839  0.0115  0.3869  1.2887
 5978SOL     OW29569   0.463   4.225   3.729 -0.1756  0.1533  0.3764
 5978SOL    HW129570   0.382   4.228   3.781 -0.5759  1.5484 -0.3365
 5978SOL    HW229571   0.518   4.168   3.783 -0.1517 -1.5943 -1.4882
 5979SOL     OW29572   3.499   4.357   0.780  0.3320 -0.5428 -0.1031
 5979SOL    HW129573   3.540   4.322   0.701 -0.6956 -0.9072 -0.4786
 5979SOL    HW229574   3.409   4.328   0.769  0.2679 -0.5677  0.5093
 5980SOL     OW29575   2.980   3.200   4.174 -0.3733 -0.4603 -0.0017
 5980SOL    HW129576   3.036   3.192   4.251 -0.3700 -0.2326  0.0184
 5980SOL    HW229577   3.020   3.135   4.116 -1.0661 -0.4912 -0.4500
 5981SOL     OW29578   0.555   1.776   4.071 -0.3385 -0.1059  0.2305
 5981SOL    HW129579   0.511   1.703   4.028  0.4506 -0.0994 -0.5936
 5981SOL    HW229580   0.487   1.831   4.110 -0.0888  0.0850  0.3985
 5982SOL     OW29581   4.605   2.690   3.055 -0.1687 -0.2921  0.0716
 5982SOL    HW129582   4.694   2.660   3.036  0.4529  0.9708  0.9968
 5982SOL    HW229583   4.599   2.668   3.149  0.9173 -1.4293 -0.1247
 5983SOL     OW29584   4.627   0.546  13.618 -0.2801  0.2716 -0.1839
 5983SOL    HW129585   4.699   0.511  13.671  0.0305 -0.2998 -0.9787
 5983SOL    HW229586   4.628   0.488  13.542  0.3722 -0.6051  0.4885
 5984SOL     OW29587   0.524   2.358   7.184 -0.1008 -0.1282  0.1574
 5984SOL    HW129588   0.463   2.387   7.117  1.0032  2.3726  0.2205
 5984SOL    HW229589   0.449   2.340   7.241 -1.0207  2.2739 -0.3078
 5985SOL     OW29590   2.918   0.063   8.281  0.1389  0.6350  0.1390
 5985SOL    HW129591   2.957   0.140   8.322  0.4679  0.4748  0.1315
 5985SOL    HW229592   2.906   0.001   8.353 -1.2439 -0.1206 -0.7347
 5986SOL     OW29593   4.450   3.861   5.909 -0.0418 -0.3389 -0.7320
 5986SOL    HW129594   4.482   3.797   5.972 -1.0441 -1.5572 -1.4725
 5986SOL    HW229595   4.411   3.802   5.845 -1.1235 -1.9973  1.4901
 5987SOL     OW29596   0.444   0.862   7.106 -0.0021  0.5109  0.5593
 5987SOL    HW129597   0.423   0.769   7.096  1.0370  0.6321 -2.6697
 5987SOL    HW229598   0.428   0.879   7.199 -1.6832 -1.9163  0.7082
 5988SOL     OW29599   1.452   3.032   4.476 -0.1106 -0.1061 -0.2418
 5988SOL    HW129600   1.436   3.016   4.569  1.3013  1.9718  0.3346
 5988SOL    HW229601   1.391   2.970   4.435 -0.1732 -0.8907  1.0303
 5989SOL     OW29602   4.585   1.450   4.740  0.2447  0.0155  0.2694
 5989SOL    HW129603   4.638   1.519   4.701 -1.3586  0.5273 -1.0240
 5989SOL    HW229604   4.649   1.397   4.787  0.6577 -0.2250 -0.5640
 5990SOL     OW29605   0.005   2.626   8.558 -0.0977 -1.0216  0.1803
 5990SOL    HW129606   4.686   2.593   8.627  0.0543 -1.8612 -0.0940
 5990SOL    HW229607   0.082   2.637   8.614 -0.1745 -0.1767  0.1153
 5991SOL     OW29608   2.518   0.957  11.444 -0.4043 -0.0437 -0.1541
 5991SOL    HW129609   2.563   0.980  11.525 -1.0618  0.6438  0.0152
 5991SOL    HW229610   2.492   0.865  11.447  0.8813 -0.3509  1.3224
 5992SOL     OW29611   2.706   3.476  12.789  0.0754  0.2146  0.7653
 5992SOL    HW129612   2.671   3.400  12.834  0.6566 -1.0183 -0.8639
 5992SOL    HW229613   2.753   3.522  12.859 -0.8225 -1.1319  2.2269
 5993SOL     OW29614   0.952   4.338  11.936  0.4670  0.1689  0.3322
 5993SOL    HW129615   0.952   4.398  11.862  0.6853  1.3913  1.3303
 5993SOL    HW229616   0.884   4.377  11.992 -1.0763 -0.1610 -1.3147
 5994SOL     OW29617   2.036   2.373   6.383  0.5545 -0.0235  0.2840
 5994SOL    HW129618   2.004   2.312   6.449  2.1666 -0.5830  0.5457
 5994SOL    HW229619   1.971   2.355   6.315  0.4965  1.1957  0.0181
 5995SOL     OW29620   4.216   2.790   8.988  0.4036 -0.0244  0.0821
 5995SOL    HW129621   4.294   2.824   9.032 -0.5992  0.5496  1.4082
 5995SOL    HW229622   4.231   2.697   9.004 -0.4076  0.1429  1.7659
 5996SOL     OW29623   2.027   4.394   6.156 -0.3224 -0.3863  0.1982
 5996SOL    HW129624   2.090   4.323   6.161 -1.6448 -1.8469 -3.4935
 5996SOL    HW229625   1.975   4.371   6.233  0.0338  1.2651  0.9298
 5997SOL     OW29626   3.151   4.038   4.406 -0.1407  0.6372  0.5157
 5997SOL    HW129627   3.145   4.023   4.312  1.3908  0.7507  0.3949
 5997SOL    HW229628   3.103   3.963   4.440 -1.1440  1.2401  0.4124
 5998SOL     OW29629   3.970   3.662  11.130 -0.5830 -0.0565 -0.4529
 5998SOL    HW129630   3.894   3.718  11.116  1.1667  2.0495 -1.5165
 5998SOL    HW229631   4.022   3.719  11.186 -0.9619 -1.8822  1.7600
 5999SOL     OW29632   2.255   4.291   5.076  0.3259 -0.1002 -0.5260
 5999SOL    HW129633   2.324   4.226   5.061  0.3281 -0.0372 -0.7924
 5999SOL    HW229634   2.279   4.375   5.039  0.1084  0.1468 -0.1064
 6000SOL     OW29635   2.232   3.388   6.167  0.0484  0.5288  0.4492
 6000SOL    HW129636   2.262   3.395   6.257  0.9256  1.4115  0.0918
 6000SOL    HW229637   2.314   3.379   6.118  0.2959  1.4810  0.6857
 6001SOL     OW29638   3.748   3.036  13.310  0.1084 -0.0942  0.2796
 6001SOL    HW129639   3.803   2.958  13.314 -1.3507 -1.2191 -1.1771
 6001SOL    HW229640   3.694   3.028  13.388  0.5332 -1.2701  0.4498
 6002SOL     OW29641   3.742   3.574   8.977  0.3564  0.5672  0.1449
 6002SOL    HW129642   3.797   3.497   8.990 -1.8892 -1.4050 -1.8925
 6002SOL    HW229643   3.763   3.632   9.049  1.0047 -0.2244  0.5952
 6003SOL     OW29644   0.469   1.423   4.073  0.2296  0.5562 -0.2407
 6003SOL    HW129645   0.464   1.448   3.981  1.5830  0.4805 -0.3428
 6003SOL    HW229646   0.377   1.412   4.095 -0.2968  1.3697 -2.0341
 6004SOL     OW29647   4.656   1.177   2.549  0.0842 -0.3547 -0.2841
 6004SOL    HW129648   4.581   1.141   2.501 -0.2373  1.1900 -0.9232
 6004SOL    HW229649   4.722   1.177   2.479  1.7492  2.5724  1.3023
 6005SOL     OW29650   1.672   1.692   1.259 -0.2214  0.5907 -0.6641
 6005SOL    HW129651   1.715   1.711   1.343 -1.1361  0.5374 -0.1777
 6005SOL    HW229652   1.738   1.701   1.191  2.1202 -1.3579  1.3762
 6006SOL     OW29653   2.822   0.263   7.843 -0.6941 -0.0087  0.2665
 6006SOL    HW129654   2.830   0.177   7.884 -5.1344  0.6843  2.5317
 6006SOL    HW229655   2.833   0.326   7.915 -1.8171 -0.1313  0.5302
 6007SOL     OW29656   0.936   3.567   8.712 -0.1594 -0.2782 -0.3868
 6007SOL    HW129657   1.016   3.586   8.760  0.8253 -2.5199 -1.1649
 6007SOL    HW229658   0.918   3.650   8.668 -0.4656  0.4006  1.0032
 6008SOL     OW29659   1.678   2.718   7.584 -0.6770  0.7093  0.2867
 6008SOL    HW129660   1.609   2.724   7.650 -1.6688 -0.6620 -0.6210
 6008SOL    HW229661   1.665   2.625   7.564 -1.6989  1.1448 -1.0605
 6009SOL     OW29662   3.129   2.944   7.782  0.1153 -0.2517  0.3424
 6009SOL    HW129663   3.112   2.921   7.691 -0.7684  1.1519  0.1463
 6009SOL    HW229664   3.119   3.039   7.772 -0.5279 -0.4206 -0.5984
 6010SOL     OW29665   3.078   2.744   2.229 -0.3250  0.0087  0.4247
 6010SOL    HW129666   2.987   2.714   2.235 -0.8318  1.3610 -0.4037
 6010SOL    HW229667   3.065   2.839   2.230  0.3268  0.0905  0.7509
 6011SOL     OW29668   0.919   0.437   5.364 -0.1209 -0.3717 -0.2099
 6011SOL    HW129669   0.926   0.495   5.288  1.4936 -1.1144 -0.6245
 6011SOL    HW229670   0.979   0.490   5.417  1.2034  0.0410 -2.1254
 6012SOL     OW29671   2.072   1.254   0.922  0.1615 -0.0994 -0.9820
 6012SOL    HW129672   2.023   1.173   0.908 -0.2133 -0.4485  2.4471
 6012SOL    HW229673   2.088   1.279   0.831 -1.8526 -0.2155 -1.3663
 6013SOL     OW29674   2.947   0.174  11.716 -0.2390 -0.9084 -0.0955
 6013SOL    HW129675   2.993   0.205  11.639 -0.9503 -0.4416 -0.3357
 6013SOL    HW229676   2.997   0.092  11.723  1.4781  0.2035  0.5521
 6014SOL     OW29677   3.168   2.281   5.735 -0.0631  0.7222 -0.1028
 6014SOL    HW129678   3.235   2.332   5.781 -2.0235  1.1739  2.2947
 6014SOL    HW229679   3.099   2.265   5.800  0.5423  0.2089  0.4175
 6015SOL     OW29680   1.388   4.518   3.557  0.5349  0.0294  0.3194
 6015SOL    HW129681   1.445   4.544   3.629  0.4382  1.8850 -0.2748
 6015SOL    HW229682   1.342   4.438   3.583 -0.4292  1.3308  2.6517
 6016SOL     OW29683   2.898   2.316  13.060  0.2898  0.2710 -0.1580
 6016SOL    HW129684   2.926   2.241  13.007 -1.9948 -1.8949  1.7295
 6016SOL    HW229685   2.969   2.306  13.123 -0.9802 -0.6950  1.1064
 6017SOL     OW29686   1.988   3.389   4.897 -0.5812  0.5993 -0.3424
 6017SOL    HW129687   1.987   3.326   4.969 -0.7346 -0.0947 -0.9531
 6017SOL    HW229688   2.081   3.387   4.873 -0.1586 -3.0808  1.6601
 6018SOL     OW29689   1.665   0.584   6.700  0.2354 -0.1363  0.8029
 6018SOL    HW129690   1.655   0.504   6.648 -1.4364  0.0902  0.7573
 6018SOL    HW229691   1.736   0.563   6.761  0.0295  0.8739  1.3999
 6019SOL     OW29692   3.426   3.284   7.288 -0.5074 -0.1623 -0.2174
 6019SOL    HW129693   3.511   3.329   7.287 -1.2563  1.2834  1.4227
 6019SOL    HW229694   3.444   3.202   7.334 -0.1592 -0.5598 -1.0704
 6020SOL     OW29695   1.004   4.624   4.208  0.0368 -0.5005 -0.7428
 6020SOL    HW129696   0.953   4.583   4.278  1.6021  0.0511  0.7261
 6020SOL    HW229697   0.996   4.718   4.220 -0.2719 -0.7702  1.0641
 6021SOL     OW29698   4.638   0.241   0.925  0.0223 -0.0954  0.1272
 6021SOL    HW129699   4.711   0.255   0.865 -0.4590 -0.9702 -0.6611
 6021SOL    HW229700   4.593   0.171   0.879 -1.2298  1.9233 -1.7089
 6022SOL     OW29701   4.316   4.546   7.789  0.1692 -0.0219 -0.0946
 6022SOL    HW129702   4.266   4.591   7.721  1.3495 -0.3212 -1.1653
 6022SOL    HW229703   4.322   4.626   7.840  0.1307 -0.8013  1.1343
 6023SOL     OW29704   1.978   0.492  10.108 -0.1650 -0.0077  0.5143
 6023SOL    HW129705   1.988   0.401  10.133 -0.6704 -0.5481 -1.2454
 6023SOL    HW229706   1.920   0.473  10.034 -1.4826  1.1879  1.2329
 6024SOL     OW29707   0.250   1.927   6.906  0.4512  0.4083 -0.3336
 6024SOL    HW129708   0.281   1.855   6.851 -2.0113  0.0600 -1.2538
 6024SOL    HW229709   0.333   1.960   6.939  0.9280 -0.4199 -0.7053
 6025SOL     OW29710   1.947   4.162   7.350  0.4513 -0.0535 -0.0549
 6025SOL    HW129711   1.974   4.074   7.377  0.4085 -0.1870 -0.4445
 6025SOL    HW229712   2.025   4.202   7.312 -0.4175 -0.4562 -2.2815
 6026SOL     OW29713   2.038   1.090  15.412 -0.1595  0.1430  0.4137
 6026SOL    HW129714   1.963   1.118  15.464  0.1775  1.4378  0.2027
 6026SOL    HW229715   2.024   1.126  15.324  0.7725 -0.2290  0.1111
 6027SOL     OW29716   4.111   2.610  14.965 -0.0445 -0.2906 -0.0803
 6027SOL    HW129717   4.056   2.571  15.033 -1.2670  0.2415 -0.7762
 6027SOL    HW229718   4.185   2.549  14.963 -1.2692 -1.8183  0.7796
 6028SOL     OW29719   1.496   2.014   0.290  0.4515  0.2730  0.5655
 6028SOL    HW129720   1.582   2.055   0.283  1.1616 -1.0756  1.4059
 6028SOL    HW229721   1.444   2.086   0.254 -1.8410  0.4455  4.2448
 6029SOL     OW29722   2.826   2.770   2.295 -0.4907  0.2366  0.5384
 6029SOL    HW129723   2.777   2.710   2.352 -1.1788  0.7692  0.5070
 6029SOL    HW229724   2.804   2.850   2.342  0.3177 -0.4967  2.1610
 6030SOL     OW29725   1.460   2.213   5.866  0.4116 -0.2312 -0.0021
 6030SOL    HW129726   1.481   2.122   5.886  0.5686  0.4375  2.8583
 6030SOL    HW229727   1.365   2.217   5.881  0.1844  1.1236 -1.8921
 6031SOL     OW29728   4.165   1.715  16.675  0.7369  0.4303 -0.2436
 6031SOL    HW129729   4.193   1.665  16.599 -0.3455  0.6555 -0.7904
 6031SOL    HW229730   4.089   1.755  16.633 -0.0480 -3.1664 -2.1704
 6032SOL     OW29731   3.787   2.994   7.724  0.4998  0.2672 -0.3860
 6032SOL    HW129732   3.802   2.967   7.633 -1.1964 -2.2352  0.0598
 6032SOL    HW229733   3.756   3.083   7.709 -1.0916 -0.1066  0.6683
 6033SOL     OW29734   1.451   2.528   9.052  0.0723  0.2716  0.3036
 6033SOL    HW129735   1.375   2.557   9.101 -1.1927  1.3510 -2.3325
 6033SOL    HW229736   1.423   2.437   9.040  1.9613 -0.3450  0.4233
 6034SOL     OW29737   3.867   4.590   0.776  0.3613  0.5316 -0.3752
 6034SOL    HW129738   3.915   4.660   0.821 -0.3346 -0.1436  1.4481
 6034SOL    HW229739   3.935   4.558   0.717 -1.0855 -2.3115 -0.5102
 6035SOL     OW29740   0.727   0.903   6.466 -0.2480  0.3500  0.0048
 6035SOL    HW129741   0.644   0.908   6.512 -0.1201 -2.6143  0.5536
 6035SOL    HW229742   0.795   0.900   6.534 -0.7623 -1.2264  0.4418
 6036SOL     OW29743   1.665   1.019   7.954 -0.3804  1.2243  0.3458
 6036SOL    HW129744   1.666   0.928   7.927  1.2255  0.6950  2.1879
 6036SOL    HW229745   1.717   1.062   7.886  0.2661 -0.2170 -0.0652
 6037SOL     OW29746   0.158   3.429   3.829 -0.2865 -0.1563 -0.0219
 6037SOL    HW129747   0.184   3.397   3.743 -0.1449  0.2221 -0.1204
 6037SOL    HW229748   0.063   3.417   3.827 -0.4688  1.6505 -1.5497
 6038SOL     OW29749   2.122   4.394   8.648 -0.0050 -0.1997 -0.5803
 6038SOL    HW129750   2.105   4.311   8.693  0.9138 -0.0796 -0.0151
 6038SOL    HW229751   2.130   4.370   8.556 -0.3984 -1.9325 -0.1605
 6039SOL     OW29752   0.887   0.316   3.417 -0.3776  0.2696  0.1299
 6039SOL    HW129753   0.834   0.396   3.408 -1.3922 -0.3859  0.3013
 6039SOL    HW229754   0.842   0.267   3.348  2.1277 -1.1841 -0.4795
 6040SOL     OW29755   1.058   0.363  16.974  0.5464  0.1772 -0.0445
 6040SOL    HW129756   1.153   0.375  16.976  0.5657 -0.1846  0.8808
 6040SOL    HW229757   1.043   0.279  16.930  0.6674 -0.6110  1.4500
 6041SOL     OW29758   4.128   0.099   2.380 -0.4479  0.1621 -0.7067
 6041SOL    HW129759   4.043   0.061   2.403 -0.2691  0.3043  0.2031
 6041SOL    HW229760   4.178   0.041   2.438 -2.0572  0.6257  1.1145
 6042SOL     OW29761   4.413   4.037   7.421 -0.5734 -0.4321 -0.7075
 6042SOL    HW129762   4.422   4.103   7.489 -2.0991  0.4002 -1.3006
 6042SOL    HW229763   4.442   4.088   7.345  1.9167  0.7378  1.0285
 6043SOL     OW29764   3.870   1.557  16.523 -0.4531 -0.7201  0.4310
 6043SOL    HW129765   3.840   1.511  16.445 -0.8393 -0.4353  0.4103
 6043SOL    HW229766   3.955   1.514  16.521 -1.3074 -2.4164  0.7103
 6044SOL     OW29767   3.238   2.433   9.376 -0.2869  0.1727 -0.1552
 6044SOL    HW129768   3.294   2.386   9.438 -0.1806  0.1225 -0.2887
 6044SOL    HW229769   3.306   2.482   9.330 -1.5162 -0.7931 -2.9832
 6045SOL     OW29770   1.225   2.417   3.261  0.6984  0.6446 -0.6330
 6045SOL    HW129771   1.319   2.411   3.278  0.2287  0.9932  2.0894
 6045SOL    HW229772   1.201   2.476   3.333 -1.4826 -0.4563 -0.4758
 6046SOL     OW29773   2.946   3.876   4.071 -0.0505 -0.0013  0.0592
 6046SOL    HW129774   2.949   3.820   3.993 -2.2728  0.1691 -0.1423
 6046SOL    HW229775   2.861   3.919   4.060 -0.2056 -0.0795  0.9427
 6047SOL     OW29776   2.970   3.674   1.582  0.0685  0.3026  0.3464
 6047SOL    HW129777   3.008   3.594   1.547  1.3106  0.8068  0.5352
 6047SOL    HW229778   2.966   3.650   1.675 -0.6017 -1.2001 -0.0766
 6048SOL     OW29779   0.656   3.898   2.191 -0.2840  0.8551  0.2619
 6048SOL    HW129780   0.601   3.975   2.206  1.0471  1.8808 -0.1643
 6048SOL    HW229781   0.743   3.932   2.213  0.9608 -0.0344 -3.4529
 6049SOL     OW29782   2.538   3.478   8.596 -0.0196  0.1792  0.2931
 6049SOL    HW129783   2.622   3.523   8.592 -0.1538  0.5267  1.3107
 6049SOL    HW229784   2.580   3.392   8.593 -1.6345 -0.6037  0.2769
 6050SOL     OW29785   1.640   3.586   4.924  0.1473  0.7442  0.3582
 6050SOL    HW129786   1.680   3.653   4.868 -1.0145 -0.1505 -1.5239
 6050SOL    HW229787   1.643   3.635   5.007 -0.6824  1.6227 -0.1213
 6051SOL     OW29788   0.147   4.276   7.792 -0.1904  0.6395  0.2972
 6051SOL    HW129789   0.151   4.369   7.768 -0.4613  0.3307 -0.9378
 6051SOL    HW229790   0.159   4.230   7.709  1.2922  1.2424  0.1679
 6052SOL     OW29791   2.602   0.696   0.817  0.2937 -0.2594  0.2773
 6052SOL    HW129792   2.676   0.751   0.842  0.0772  0.7015 -1.2251
 6052SOL    HW229793   2.534   0.756   0.850  0.9892 -0.4552  2.1033
 6053SOL     OW29794   0.967   4.124   8.458  0.0102  0.2601  0.2856
 6053SOL    HW129795   0.879   4.086   8.455  1.0376 -2.0497 -0.1153
 6053SOL    HW229796   1.013   4.055   8.506 -1.1327 -0.8775 -0.2442
 6054SOL     OW29797   1.813   0.465   3.088 -0.3850  0.0485  0.0110
 6054SOL    HW129798   1.753   0.501   3.153 -1.8992  0.7989 -1.8152
 6054SOL    HW229799   1.748   0.421   3.033 -0.6510  0.4594 -0.0021
 6055SOL     OW29800   1.356   1.255  16.168  0.9611  0.1877 -0.0570
 6055SOL    HW129801   1.363   1.159  16.172 -0.5532  0.0638 -0.2789
 6055SOL    HW229802   1.397   1.275  16.084 -0.0055 -0.4722 -0.6913
 6056SOL     OW29803   0.752   2.849  16.038  0.8640 -0.6257 -0.0967
 6056SOL    HW129804   0.786   2.934  16.007  0.5582 -0.8073 -0.9364
 6056SOL    HW229805   0.805   2.783  15.994  0.6386 -0.8232 -0.0746
 6057SOL     OW29806   3.966   3.019   5.943  0.9243 -0.4588  0.0630
 6057SOL    HW129807   3.992   3.099   5.989 -1.5271 -1.1488  2.5903
 6057SOL    HW229808   3.896   2.997   6.004 -0.1340  1.4875 -0.4493
 6058SOL     OW29809   1.356   0.958   8.133  0.3072 -0.1293 -0.5558
 6058SOL    HW129810   1.308   0.987   8.211  1.5239  2.5741 -0.7923
 6058SOL    HW229811   1.443   0.993   8.149  0.0473 -0.9224  2.5899
 6059SOL     OW29812   1.910   2.952   2.589  0.1811  0.1662 -0.2832
 6059SOL    HW129813   1.853   2.910   2.654  0.2761 -0.9331 -0.9152
 6059SOL    HW229814   1.846   2.946   2.518 -0.2020 -0.7216  0.1393
 6060SOL     OW29815   1.947   1.974   2.099  0.3890 -0.0022 -0.3144
 6060SOL    HW129816   1.943   1.878   2.109  2.7361 -0.2384 -1.7201
 6060SOL    HW229817   1.855   1.985   2.075  0.2276 -1.6244 -0.4548
 6061SOL     OW29818   1.969   2.129  13.494  0.0133 -0.2559 -0.0397
 6061SOL    HW129819   1.986   2.191  13.565  1.3378 -0.0041 -0.5791
 6061SOL    HW229820   2.054   2.090  13.472  0.8454  1.9650 -0.7182
 6062SOL     OW29821   1.630   4.237   6.541  0.1440 -0.8608 -0.4257
 6062SOL    HW129822   1.687   4.252   6.465  1.7543  1.4038  1.2381
 6062SOL    HW229823   1.612   4.145   6.520  2.1734 -1.5038  0.6499
 6063SOL     OW29824   3.412   2.974  11.267  0.3791 -0.5159  0.0768
 6063SOL    HW129825   3.341   2.966  11.331  0.2504  0.1374  0.0144
 6063SOL    HW229826   3.487   2.982  11.325 -0.6603  0.4722  1.2879
 6064SOL     OW29827   2.769   2.439   2.195  0.0711  0.3150 -0.5363
 6064SOL    HW129828   2.739   2.357   2.156 -0.3466  1.1877 -2.0263
 6064SOL    HW229829   2.695   2.492   2.166  0.6570  2.7314  2.3231
 6065SOL     OW29830   3.627   0.765   9.761  0.5475  0.2482  0.0211
 6065SOL    HW129831   3.655   0.716   9.838  0.2533  0.0931  0.0303
 6065SOL    HW229832   3.675   0.846   9.776  0.2581  0.4669 -0.2218
 6066SOL     OW29833   4.421   1.279   4.922  0.4095 -0.0930  0.1884
 6066SOL    HW129834   4.456   1.345   4.982  0.0493 -0.4525  0.7863
 6066SOL    HW229835   4.393   1.330   4.846  0.3321  1.1237  1.0294
 6067SOL     OW29836   2.443   0.695  11.417  0.3275  0.4521 -0.4318
 6067SOL    HW129837   2.391   0.635  11.471  0.7370  1.8761  1.5309
 6067SOL    HW229838   2.384   0.721  11.346  0.7639  0.1365 -0.9086
 6068SOL     OW29839   1.973   2.128  16.493  0.1738 -0.0377  0.1085
 6068SOL    HW129840   1.904   2.190  16.519  2.5271  1.4065  2.8367
 6068SOL    HW229841   2.043   2.159  16.551 -0.6045 -0.3129  1.1955
 6069SOL     OW29842   2.393   0.332  13.492  0.4573  0.2444 -0.4586
 6069SOL    HW129843   2.454   0.279  13.542 -3.8092 -1.7864  2.5389
 6069SOL    HW229844   2.340   0.371  13.560 -0.6102  2.0169 -2.2964
 6070SOL     OW29845   4.079   1.621   4.307  0.1727 -0.5707 -0.1416
 6070SOL    HW129846   4.106   1.600   4.397 -1.3843  0.6074  0.5897
 6070SOL    HW229847   4.164   1.632   4.263  0.8491  0.5473  1.4320
 6071SOL     OW29848   0.630   3.992   1.520 -0.2568 -0.4278 -0.7951
 6071SOL    HW129849   0.723   3.989   1.541 -0.5325  2.7648  0.9904
 6071SOL    HW229850   0.621   3.918   1.461 -0.3655 -1.2596  0.2681
 6072SOL     OW29851   2.560   4.312   3.872 -0.2112  0.2624 -0.0635
 6072SOL    HW129852   2.496   4.273   3.813 -0.7748  0.7142  0.2454
 6072SOL    HW229853   2.638   4.258   3.860 -0.4828 -0.5468  1.8174
 6073SOL     OW29854   4.625   1.670   5.594 -0.7173  0.5656  0.3634
 6073SOL    HW129855   4.617   1.766   5.593 -1.2204  0.5395  1.2064
 6073SOL    HW229856   4.698   1.670   5.656 -1.0331  0.0110  0.7370
 6074SOL     OW29857   2.950   3.697   7.746  0.1656  0.0924 -0.5791
 6074SOL    HW129858   3.027   3.750   7.728  1.6248 -2.2543 -1.2426
 6074SOL    HW229859   2.980   3.656   7.826 -3.9214  3.1250  2.5025
 6075SOL     OW29860   1.358   3.684   7.968 -0.2444  0.0748  0.3873
 6075SOL    HW129861   1.304   3.756   7.936 -0.1700 -0.2149 -0.3956
 6075SOL    HW229862   1.304   3.666   8.044  0.2004 -1.0351  0.4350
 6076SOL     OW29863   2.808   0.850   0.893  0.9131 -0.7001  0.5195
 6076SOL    HW129864   2.804   0.893   0.978  0.8410 -2.2334  1.3088
 6076SOL    HW229865   2.903   0.834   0.893  0.7871 -1.4616 -1.9590
 6077SOL     OW29866   0.782   4.335  12.999  0.8132 -0.2361  0.5996
 6077SOL    HW129867   0.804   4.245  13.023 -2.9175 -1.6372 -1.4014
 6077SOL    HW229868   0.867   4.376  12.980 -0.7380  1.7789 -1.8640
 6078SOL     OW29869   0.516   1.003   8.085 -0.2182  0.8279  0.6166
 6078SOL    HW129870   0.581   1.056   8.040  0.3283 -0.3030  0.0712
 6078SOL    HW229871   0.471   1.066   8.141 -0.4170  1.4724 -0.2685
 6079SOL     OW29872   4.611   1.109  11.473  0.3095  0.8279  0.0155
 6079SOL    HW129873   4.682   1.078  11.417  1.6088  1.0313  1.5680
 6079SOL    HW229874   4.544   1.081  11.410  3.6437 -0.1761 -3.0422
 6080SOL     OW29875   2.966   2.319   5.928  0.2186  0.1531 -0.4108
 6080SOL    HW129876   2.911   2.315   6.007 -0.9116 -1.5298 -1.2705
 6080SOL    HW229877   2.901   2.330   5.859  1.0158  0.4140 -1.1104
 6081SOL     OW29878   2.941   0.302   8.738 -0.7321 -0.1944 -0.0581
 6081SOL    HW129879   2.941   0.314   8.833 -0.1545 -0.4395 -0.0223
 6081SOL    HW229880   2.960   0.391   8.709  1.3356 -0.3649  0.7444
 6082SOL     OW29881   4.723   3.684  15.475 -0.1276  0.5759  0.2002
 6082SOL    HW129882   4.709   3.778  15.467  0.9792  0.6327 -1.0920
 6082SOL    HW229883   4.640   3.656  15.437 -0.8148  1.6302  0.9310
 6083SOL     OW29884   0.274   1.377  10.581 -0.5662 -0.3111 -0.5338
 6083SOL    HW129885   0.368   1.381  10.565 -0.7749  3.4422 -0.8515
 6083SOL    HW229886   0.258   1.469  10.563 -0.5173 -0.1743  0.1180
 6084SOL     OW29887   1.265   3.562  14.947  0.0761 -0.5309 -0.1567
 6084SOL    HW129888   1.224   3.497  14.891 -0.0534  0.1882 -0.8995
 6084SOL    HW229889   1.290   3.518  15.029  1.9819  0.7867 -0.0319
 6085SOL     OW29890   4.454   3.451   0.485  0.0548  0.7356  0.0131
 6085SOL    HW129891   4.410   3.401   0.554  1.4548  0.0577  0.4118
 6085SOL    HW229892   4.382   3.512   0.467 -2.6254 -2.3298  0.1957
 6086SOL     OW29893   2.489   3.480   2.870 -0.2471 -0.2344 -0.1850
 6086SOL    HW129894   2.476   3.562   2.822  0.1548  0.2227  0.4725
 6086SOL    HW229895   2.577   3.453   2.845 -0.9858 -0.5636 -2.4288
 6087SOL     OW29896   4.662   4.595   8.123  0.3359 -0.8637 -0.5308
 6087SOL    HW129897   4.595   4.528   8.138 -1.4300  1.5590  2.4095
 6087SOL    HW229898   4.718   4.573   8.198  0.9046  3.3755  0.3311
 6088SOL     OW29899   3.140   1.081  16.400 -0.3610  0.1533  0.1227
 6088SOL    HW129900   3.158   1.164  16.356  0.0618 -0.0064 -0.0010
 6088SOL    HW229901   3.169   1.002  16.355 -0.4456 -1.3038  2.5945
 6089SOL     OW29902   3.459   3.202   6.522  0.0819 -0.3858  0.1295
 6089SOL    HW129903   3.499   3.284   6.492 -2.0270  1.0826  1.3197
 6089SOL    HW229904   3.403   3.181   6.447  1.0917  1.7710 -1.2503
 6090SOL     OW29905   0.653   2.572   7.028 -0.0250 -0.0380 -0.4248
 6090SOL    HW129906   0.623   2.657   7.061 -0.5006  0.0462 -1.0719
 6090SOL    HW229907   0.612   2.506   7.084  2.3402 -1.0379  0.1000
 6091SOL     OW29908   2.300   2.800  17.496  0.5167 -0.1913 -0.5364
 6091SOL    HW129909   2.288   2.778  17.404 -1.3266 -1.9410  0.1380
 6091SOL    HW229910   2.278   2.893  17.497  1.1121 -0.0262 -2.3655
 6092SOL     OW29911   2.732   2.931   3.994 -0.2705  0.2840  0.2955
 6092SOL    HW129912   2.642   2.907   4.016 -0.7180  0.8662 -0.9570
 6092SOL    HW229913   2.725   3.026   3.994  0.4912  0.3370  0.2150
 6093SOL     OW29914   4.205   0.526   5.115  0.5100 -0.7913  0.2853
 6093SOL    HW129915   4.261   0.592   5.156  1.0060  0.1793 -1.9597
 6093SOL    HW229916   4.272   0.457   5.124  0.5745 -0.7237  0.3196
 6094SOL     OW29917   1.164   3.029   7.912 -0.2942  0.3418  0.1270
 6094SOL    HW129918   1.255   3.023   7.883 -0.8898  1.8156 -2.0870
 6094SOL    HW229919   1.144   2.936   7.926  0.4521 -0.2450 -2.7140
 6095SOL     OW29920   1.273   4.403   4.562  0.2940 -0.1165  0.2623
 6095SOL    HW129921   1.234   4.414   4.648  2.8951 -2.6788  1.7379
 6095SOL    HW229922   1.205   4.373   4.502  1.2796  1.1873 -1.5193
 6096SOL     OW29923   4.301   2.075   5.496 -0.7011  0.1656 -0.0772
 6096SOL    HW129924   4.298   1.986   5.461 -1.0250 -0.1056  0.6322
 6096SOL    HW229925   4.286   2.126   5.417  0.2153 -0.1208 -0.4390
 6097SOL     OW29926   4.210   3.356   9.838  0.3624 -0.0677 -0.4282
 6097SOL    HW129927   4.130   3.407   9.827 -0.0149 -0.7799 -1.0463
 6097SOL    HW229928   4.223   3.321   9.750  2.3909 -0.7641  0.1512
 6098SOL     OW29929   0.175   3.823  10.998  0.3272 -0.0840 -0.0406
 6098SOL    HW129930   0.190   3.780  11.082  1.5278  0.7721  0.1926
 6098SOL    HW229931   0.083   3.845  11.015  0.6855  2.0268 -0.7702
 6099SOL     OW29932   2.336   2.736   0.448 -0.0647  0.6660 -0.3396
 6099SOL    HW129933   2.384   2.809   0.486  0.4542 -0.1773  0.6054
 6099SOL    HW229934   2.251   2.779   0.435 -0.5762 -0.0169  0.7718
 6100SOL     OW29935   0.910   1.448   7.499  0.3289 -0.2680  0.5041
 6100SOL    HW129936   0.930   1.376   7.440 -0.5432  0.1876 -0.3418
 6100SOL    HW229937   0.817   1.465   7.487  0.2756 -0.7600  0.2193
 6101SOL     OW29938   2.037   4.538   4.519  0.1667  0.7492  0.1311
 6101SOL    HW129939   1.962   4.487   4.551 -0.0748  0.3011 -1.1535
 6101SOL    HW229940   2.007   4.577   4.437  3.0902 -0.8164 -1.6803
 6102SOL     OW29941   3.492   3.246   4.054  0.6452 -0.3208  0.5320
 6102SOL    HW129942   3.488   3.284   4.141  0.1376  0.6914  0.0631
 6102SOL    HW229943   3.405   3.211   4.033  0.7493  0.3317 -0.9920
 6103SOL     OW29944   1.588   3.320   9.895 -0.1242 -0.2070  0.1820
 6103SOL    HW129945   1.629   3.359   9.818  0.3026 -0.7348  0.1365
 6103SOL    HW229946   1.555   3.398   9.940  1.4229  0.3472  0.3378
 6104SOL     OW29947   2.462   2.351  15.189 -0.0683 -0.0373  0.4622
 6104SOL    HW129948   2.444   2.307  15.272 -1.1383 -0.7229 -0.1187
 6104SOL    HW229949   2.516   2.422  15.222  2.0536 -1.4675  0.0517
 6105SOL     OW29950   0.408   4.615   5.207 -0.1495  0.1626 -0.1649
 6105SOL    HW129951   0.409   4.542   5.146  0.9470 -0.6454  0.8244
 6105SOL    HW229952   0.375   4.576   5.288 -1.3063 -0.9311 -1.1634
 6106SOL     OW29953   3.633   1.720   2.657  0.4266  0.4709 -0.0526
 6106SOL    HW129954   3.593   1.784   2.716 -1.7659  0.0129 -1.0645
 6106SOL    HW229955   3.724   1.714   2.687  0.2122 -0.1382  0.4936
 6107SOL     OW29956   4.561   1.501   5.413 -0.5589  0.6520 -0.7293
 6107SOL    HW129957   4.469   1.483   5.430  0.4156 -1.6343  2.1857
 6107SOL    HW229958   4.580   1.565   5.483  1.9499  0.3824 -1.1613
 6108SOL     OW29959   2.766   4.156   2.314 -0.5333 -0.0723  0.9023
 6108SOL    HW129960   2.853   4.163   2.353  0.1251  0.5094 -0.6582
 6108SOL    HW229961   2.745   4.072   2.355 -0.1466 -1.3155 -1.4359
 6109SOL     OW29962   0.251   3.655  13.180 -0.1496  0.0246 -0.3456
 6109SOL    HW129963   0.245   3.725  13.245  0.4013 -0.5733  0.3501
 6109SOL    HW229964   0.163   3.619  13.191  0.2358 -1.0381 -0.7471
 6110SOL     OW29965   4.326   0.505  13.425 -0.0349  0.4544 -0.6995
 6110SOL    HW129966   4.255   0.446  13.399  0.4621  0.6039 -2.4076
 6110SOL    HW229967   4.405   0.454  13.411 -0.2255  0.0998 -0.4715
 6111SOL     OW29968   3.469   3.261   6.928  0.4993 -0.2809 -0.2449
 6111SOL    HW129969   3.397   3.273   6.990 -0.6393 -3.1990 -1.0146
 6111SOL    HW229970   3.455   3.167   6.914 -0.5735 -0.2573  0.6477
 6112SOL     OW29971   2.972   1.683   6.982 -0.2410  0.1518 -0.4577
 6112SOL    HW129972   2.943   1.772   7.001 -1.7804 -0.5999  0.7222
 6112SOL    HW229973   3.058   1.692   6.942 -0.3258  0.5582 -0.5412
 6113SOL     OW29974   2.940   2.916  15.957  0.5830  0.2488 -0.2757
 6113SOL    HW129975   3.009   2.925  15.891  1.0868 -0.7644  0.1220
 6113SOL    HW229976   2.911   2.825  15.949  1.5552  0.0037 -1.0630
 6114SOL     OW29977   2.695   2.493   3.795 -0.1872  0.2498 -0.1585
 6114SOL    HW129978   2.693   2.538   3.710  1.7531 -0.5391 -0.6248
 6114SOL    HW229979   2.603   2.480   3.817  0.1995 -0.5287  0.9728
 6115SOL     OW29980   1.719   0.483   1.309  0.4768  0.0937 -0.0793
 6115SOL    HW129981   1.663   0.481   1.386 -2.2690 -1.5626 -2.1576
 6115SOL    HW229982   1.790   0.436   1.352  0.1986  1.0707  1.4478
 6116SOL     OW29983   1.150   2.310   2.073  0.6132  0.4682  0.1822
 6116SOL    HW129984   1.214   2.363   2.024 -0.7998  1.0024 -1.0742
 6116SOL    HW229985   1.206   2.236   2.096 -0.2045  0.8597  3.4112
 6117SOL     OW29986   0.202   4.320  10.649  0.0256 -0.1310  0.1303
 6117SOL    HW129987   0.190   4.344  10.557 -1.1856  0.3323  0.4177
 6117SOL    HW229988   0.167   4.400  10.689  0.5434  1.4294 -2.5240
 6118SOL     OW29989   0.269   0.405   8.816 -0.0373  0.3630  0.1423
 6118SOL    HW129990   0.250   0.483   8.867  1.0646  0.1394  0.8956
 6118SOL    HW229991   0.185   0.377   8.779 -0.0915  1.9875 -0.9231
 6119SOL     OW29992   4.025   0.100  13.810 -0.5233 -0.4439 -0.1738
 6119SOL    HW129993   3.948   0.090  13.754 -0.4336  2.3354 -0.7833
 6119SOL    HW229994   4.069   0.178  13.776 -1.4966 -0.1072 -0.6567
 6120SOL     OW29995   3.816   1.986   6.793 -0.3213 -0.0092 -0.1876
 6120SOL    HW129996   3.902   2.001   6.753  1.2223 -3.0445  1.9932
 6120SOL    HW229997   3.760   1.949   6.726  1.4070  3.0649 -3.3409
 6121SOL     OW29998   0.174   4.697  13.226 -0.4549  0.1398 -0.0924
 6121SOL    HW129999   0.135   4.616  13.257 -1.9629  1.5973  1.7679
 6121SOL    HW230000   0.266   4.673  13.216 -1.2692 -2.3527 -1.6690
 6122SOL     OW30001   4.351   1.272   7.489  0.4260 -0.2550 -0.0923
 6122SOL    HW130002   4.305   1.267   7.405 -0.0965 -1.0897  0.2388
 6122SOL    HW230003   4.378   1.363   7.481 -0.8828  0.1954  0.5862
 6123SOL     OW30004   2.343   0.799   7.421  0.1846 -0.3128  0.8440
 6123SOL    HW130005   2.401   0.874   7.429 -0.1658  0.0707 -0.1786
 6123SOL    HW230006   2.329   0.764   7.509 -0.6608  0.7287  1.1196
 6124SOL     OW30007   3.865   0.921  11.211 -0.2136 -0.4428 -0.1151
 6124SOL    HW130008   3.830   0.937  11.298  2.0385  2.1862  0.3057
 6124SOL    HW230009   3.804   0.968  11.154 -2.1632  0.5316  2.7730
 6125SOL     OW30010   0.551   3.153   3.991  0.0778 -0.0904 -0.2240
 6125SOL    HW130011   0.485   3.137   3.924  0.0314 -0.4856 -0.0813
 6125SOL    HW230012   0.594   3.225   3.945  2.2289 -2.5439 -2.0513
 6126SOL     OW30013   2.461   1.140   9.838  0.4961 -0.3808  0.3363
 6126SOL    HW130014   2.535   1.100   9.793  1.5856  2.5163 -0.4332
 6126SOL    HW230015   2.455   1.217   9.781 -0.8192 -1.7061 -1.3144
 6127SOL     OW30016   3.820   1.971   5.854 -0.0782 -0.0089 -0.0600
 6127SOL    HW130017   3.906   1.988   5.816 -0.3187 -1.3950 -1.1983
 6127SOL    HW230018   3.798   2.051   5.902  0.6346  0.2925 -0.2382
 6128SOL     OW30019   0.483   1.529  13.638 -0.0532  0.0642  0.6625
 6128SOL    HW130020   0.516   1.463  13.577 -1.2190  0.3940 -0.3305
 6128SOL    HW230021   0.509   1.611  13.596  0.6993 -0.9298 -0.8230
 6129SOL     OW30022   1.442   3.717   3.524  0.0857  0.2652 -0.6790
 6129SOL    HW130023   1.492   3.782   3.474  1.4021  0.1325  0.4772
 6129SOL    HW230024   1.504   3.648   3.502  1.3000  0.9355  0.6648
 6130SOL     OW30025   0.664   1.274   8.037  0.4306  0.6821  0.1041
 6130SOL    HW130026   0.758   1.275   8.058  0.5706 -1.8342 -0.4815
 6130SOL    HW230027   0.659   1.297   7.944 -2.5730 -3.3982 -0.7240
 6131SOL     OW30028   2.125   2.096   5.923  0.2004 -1.0913  0.1005
 6131SOL    HW130029   2.088   2.043   5.853  0.2155  0.3164 -0.9879
 6131SOL    HW230030   2.217   2.099   5.897 -0.0164 -1.0922 -0.6569
 6132SOL     OW30031   3.688   2.903   3.546  0.4547  0.1191 -0.2292
 6132SOL    HW130032   3.714   2.818   3.511 -0.2725  0.1602 -0.8717
 6132SOL    HW230033   3.612   2.928   3.493  0.4179 -1.8286 -1.1006
 6133SOL     OW30034   4.370   3.142   6.017 -0.1962 -0.1402 -0.1200
 6133SOL    HW130035   4.383   3.077   6.086 -0.5349 -0.9557 -0.8243
 6133SOL    HW230036   4.298   3.099   5.971 -0.6869  1.5251 -0.9040
 6134SOL     OW30037   3.698   3.592   0.345 -0.9601 -0.3426 -0.1192
 6134SOL    HW130038   3.647   3.561   0.270  1.2465  2.4207 -2.7126
 6134SOL    HW230039   3.705   3.522   0.410 -0.8956 -0.5867 -0.3897
 6135SOL     OW30040   4.287   3.714   2.316  0.6833  0.3352 -0.3160
 6135SOL    HW130041   4.195   3.720   2.340  0.3393  0.5542 -1.6725
 6135SOL    HW230042   4.328   3.673   2.392 -0.3344 -0.8931 -0.4240
 6136SOL     OW30043   3.552   4.304   2.358  0.6850 -0.3915  0.0852
 6136SOL    HW130044   3.573   4.375   2.298 -0.8806  1.5078  1.7651
 6136SOL    HW230045   3.510   4.241   2.299 -2.4728  1.9869 -0.2605
 6137SOL     OW30046   0.453   4.116   3.082 -0.3724 -0.2209  0.3341
 6137SOL    HW130047   0.443   4.134   2.988  1.8181  0.2981  0.1953
 6137SOL    HW230048   0.416   4.195   3.120  0.1121  0.7142 -1.1340
 6138SOL     OW30049   3.954   1.589  13.133  0.2258 -0.4706 -0.3459
 6138SOL    HW130050   3.944   1.504  13.175 -0.9541 -1.1380 -1.9630
 6138SOL    HW230051   4.033   1.581  13.080  1.1267 -2.5200  1.3355
 6139SOL     OW30052   0.235   1.667   7.608  0.8481 -0.6048  0.1525
 6139SOL    HW130053   0.178   1.728   7.655  0.4292 -1.6774  1.0267
 6139SOL    HW230054   0.253   1.715   7.526  1.7797  0.1720  0.8060
 6140SOL     OW30055   0.904   4.208  13.332 -0.0548 -0.0901 -0.0212
 6140SOL    HW130056   0.910   4.304  13.333 -0.0943 -0.0980  1.2368
 6140SOL    HW230057   0.812   4.189  13.313  0.0464 -1.6345  1.0517
 6141SOL     OW30058   3.117   2.013  17.636  0.3881 -0.3821 -0.1296
 6141SOL    HW130059   3.191   1.992  17.578  0.1563  1.4311 -1.0694
 6141SOL    HW230060   3.084   1.925  17.655 -0.5743 -0.0518 -0.2803
 6142SOL     OW30061   3.544   4.621   8.555 -0.2427 -0.2167 -0.3116
 6142SOL    HW130062   3.506   4.629   8.642  0.3072  0.7825 -0.1560
 6142SOL    HW230063   3.483   4.567   8.506  0.0297 -1.5162  0.8030
 6143SOL     OW30064   1.274   1.535   6.048  0.0070 -0.5441  0.2480
 6143SOL    HW130065   1.325   1.493   6.117  1.9816 -0.2094 -1.0112
 6143SOL    HW230066   1.208   1.580   6.100  1.3429  0.9807  0.6442
 6144SOL     OW30067   1.714   2.803  13.918  0.6692 -0.4771 -0.5042
 6144SOL    HW130068   1.683   2.881  13.872  0.1447  0.1562  0.9523
 6144SOL    HW230069   1.648   2.738  13.895  1.0541 -0.7187 -0.9226
 6145SOL     OW30070   4.290   1.324  10.277 -0.4342  0.6478  0.0013
 6145SOL    HW130071   4.382   1.301  10.273 -0.0588  2.4762 -2.2312
 6145SOL    HW230072   4.281   1.418  10.292  0.5535  1.0003 -1.5853
 6146SOL     OW30073   2.723   0.672  11.663  0.2150  0.3037  0.0249
 6146SOL    HW130074   2.766   0.630  11.588 -1.1545 -1.5556  0.2705
 6146SOL    HW230075   2.634   0.667  11.628 -0.0939 -0.1445  0.8683
 6147SOL     OW30076   0.348   4.384   3.111 -0.1064 -0.0139 -0.4528
 6147SOL    HW130077   0.342   4.478   3.092  0.1344 -0.0496 -0.7123
 6147SOL    HW230078   0.315   4.386   3.201  1.5630  0.9713  0.1499
 6148SOL     OW30079   3.816   4.179   6.968 -0.4910  0.4391  0.7555
 6148SOL    HW130080   3.786   4.266   6.941  1.7443  0.3128 -2.1384
 6148SOL    HW230081   3.804   4.178   7.063 -0.0149  2.5893  0.8400
 6149SOL     OW30082   2.097   3.026   9.001  0.4255 -0.0624 -0.5246
 6149SOL    HW130083   2.183   2.992   8.977 -0.4798 -1.4493 -1.8555
 6149SOL    HW230084   2.106   3.062   9.090  0.8205  0.0390 -0.6082
 6150SOL     OW30085   4.717   1.541   3.515  0.0534  0.1874  0.8721
 6150SOL    HW130086   4.692   1.629   3.544  1.2492  0.2690  1.6757
 6150SOL    HW230087   4.656   1.483   3.560 -1.1025  0.7568  0.0446
 6151SOL     OW30088   1.261   0.742  17.544  0.1187  0.1104  0.5963
 6151SOL    HW130089   1.321   0.701  17.606 -0.9699  1.1527  2.3460
 6151SOL    HW230090   1.188   0.755  17.605 -0.1251 -0.1390  0.3617
 6152SOL     OW30091   0.386   2.846   9.329 -0.1835 -0.5712 -0.2488
 6152SOL    HW130092   0.313   2.891   9.372  0.1855 -1.3807  1.2298
 6152SOL    HW230093   0.445   2.915   9.298  0.6596 -1.1864 -0.0206
 6153SOL     OW30094   1.476   1.741   3.950  0.4897  0.4598 -0.3209
 6153SOL    HW130095   1.412   1.673   3.930  0.1405  0.6392  0.2048
 6153SOL    HW230096   1.520   1.706   4.028 -1.4963  0.4869  0.7924
 6154SOL     OW30097   1.537   0.314  13.137 -0.4312 -0.6802 -0.5403
 6154SOL    HW130098   1.586   0.345  13.213 -0.8636 -0.5509 -0.3172
 6154SOL    HW230099   1.603   0.256  13.099 -0.2599 -0.8205 -0.0239
 6155SOL     OW30100   0.742   3.925  17.522 -0.2356 -0.6255  0.1057
 6155SOL    HW130101   0.668   3.951  17.467 -2.1031 -2.3729  1.7799
 6155SOL    HW230102   0.690   3.908  17.601  0.6815  2.9060  1.4595
 6156SOL     OW30103   2.983   0.516   3.693  0.5517 -0.0155  0.0612
 6156SOL    HW130104   3.076   0.502   3.713  0.4256 -1.1098 -0.1097
 6156SOL    HW230105   2.963   0.452   3.625  3.1180 -0.5756 -0.1724
 6157SOL     OW30106   2.224   2.455   5.310 -0.4528 -0.3001  0.2245
 6157SOL    HW130107   2.290   2.419   5.251 -0.6065  2.3835 -1.5881
 6157SOL    HW230108   2.157   2.490   5.252  0.6854 -0.4629 -1.2090
 6158SOL     OW30109   1.606   3.648   5.410  0.1598  0.4911  0.6040
 6158SOL    HW130110   1.576   3.565   5.447 -0.7624  0.6795  0.2909
 6158SOL    HW230111   1.674   3.662   5.476 -0.4233  2.1560  0.8433
 6159SOL     OW30112   0.637   1.836  10.755 -0.6257 -0.3973  0.1541
 6159SOL    HW130113   0.656   1.873  10.841 -3.0947  2.5811 -0.5495
 6159SOL    HW230114   0.573   1.898  10.718  1.0132  1.0606 -0.2479
 6160SOL     OW30115   1.874   1.972   8.746  0.6624 -0.3044  0.2472
 6160SOL    HW130116   1.818   1.925   8.685 -0.2225  2.8659 -1.3794
 6160SOL    HW230117   1.844   1.931   8.827  2.3193 -2.4819 -0.2585
 6161SOL     OW30118   1.820   0.367   1.692 -0.8026  0.2780 -0.1479
 6161SOL    HW130119   1.770   0.422   1.752 -2.0786  1.6277 -2.4299
 6161SOL    HW230120   1.891   0.339   1.750 -2.7781 -2.2148  1.0288
 6162SOL     OW30121   3.967   1.733   3.550 -0.3435  0.0977  0.7057
 6162SOL    HW130122   3.872   1.739   3.559 -0.2316  0.5437  1.5786
 6162SOL    HW230123   3.999   1.822   3.564 -0.4123  0.0306  1.2817
 6163SOL     OW30124   3.692   4.540   2.214 -0.1628  0.3882 -0.2904
 6163SOL    HW130125   3.656   4.599   2.148  0.1072 -0.4253 -1.1519
 6163SOL    HW230126   3.680   4.595   2.292 -1.5063 -0.1618 -0.1124
 6164SOL     OW30127   2.749   4.406   4.595  0.2032  0.5895 -0.0626
 6164SOL    HW130128   2.662   4.368   4.607  0.7943 -0.6392  0.3114
 6164SOL    HW230129   2.797   4.336   4.551  0.6645  0.5265  0.5360
 6165SOL     OW30130   4.095   1.930  15.767 -0.0724 -0.0318  0.3805
 6165SOL    HW130131   4.119   1.842  15.739 -0.0343  0.8424 -2.2866
 6165SOL    HW230132   4.002   1.916  15.786 -0.1890 -1.5230 -1.3200
 6166SOL     OW30133   2.893   3.099   9.713  0.1700  0.4031 -0.1778
 6166SOL    HW130134   2.878   3.022   9.767 -0.6371 -0.3123 -1.4322
 6166SOL    HW230135   2.871   3.177   9.765  0.9007  1.0144 -0.7733
 6167SOL     OW30136   1.003   1.823  14.715  0.4044 -0.4922 -0.6050
 6167SOL    HW130137   1.080   1.868  14.748 -0.5578 -0.2072  1.2049
 6167SOL    HW230138   0.934   1.889  14.719  1.9884  0.9788  2.2724
 6168SOL     OW30139   0.191   3.466  15.364 -0.3841  0.1454 -0.3286
 6168SOL    HW130140   0.196   3.464  15.460  3.0175 -2.3461 -0.5928
 6168SOL    HW230141   0.281   3.484  15.338 -1.6947 -0.3469 -5.2958
 6169SOL     OW30142   0.109   3.756   6.188 -0.0843 -0.0531  0.1097
 6169SOL    HW130143   0.048   3.800   6.129  0.1137  1.4521  1.0514
 6169SOL    HW230144   0.119   3.671   6.145  1.7160 -0.5178  1.4606
 6170SOL     OW30145   1.866   3.498  14.335  0.2117 -0.0443 -0.0807
 6170SOL    HW130146   1.849   3.505  14.242  0.7134 -3.0166 -0.3873
 6170SOL    HW230147   1.961   3.500  14.351  0.2136 -0.5475 -0.0252
 6171SOL     OW30148   0.916   0.684   1.470  0.3023 -0.2463  0.0581
 6171SOL    HW130149   0.829   0.660   1.438  1.0976 -1.6246 -1.0277
 6171SOL    HW230150   0.910   0.666   1.564  0.8690  0.4212  0.2221
 6172SOL     OW30151   2.328   3.104   9.810 -0.6102  0.0156 -0.0604
 6172SOL    HW130152   2.325   3.015   9.774 -0.0392  0.1711 -0.5081
 6172SOL    HW230153   2.262   3.144   9.754 -0.8994 -1.7944 -1.0180
 6173SOL     OW30154   4.663   1.225   5.579 -0.2163  0.4425  0.2566
 6173SOL    HW130155   4.642   1.309   5.538 -1.4153 -1.3127 -2.7007
 6173SOL    HW230156   4.735   1.198   5.522 -0.3486 -0.5960  0.5955
 6174SOL     OW30157   1.677   2.087   4.647  0.3060 -0.5358 -0.1404
 6174SOL    HW130158   1.598   2.090   4.700  1.0425  0.9614  0.8813
 6174SOL    HW230159   1.699   2.180   4.650  0.9281 -0.7052  0.6316
 6175SOL     OW30160   0.373   0.957   3.613  0.5558 -0.2152  0.1978
 6175SOL    HW130161   0.297   0.983   3.561 -0.1740  1.5242  2.1510
 6175SOL    HW230162   0.405   1.039   3.650  0.6392 -1.0180  1.9158
 6176SOL     OW30163   4.442   4.074   2.876 -0.2400  0.5515 -0.1951
 6176SOL    HW130164   4.378   4.067   2.804 -0.9439 -2.2501  0.7277
 6176SOL    HW230165   4.525   4.055   2.832 -1.2401  0.7408 -2.1977
 6177SOL     OW30166   0.561   3.064   9.279  0.1284  0.2636 -0.6228
 6177SOL    HW130167   0.517   3.149   9.278  2.6709  1.5526 -2.6473
 6177SOL    HW230168   0.636   3.084   9.223  1.3461 -1.1322  0.5296
 6178SOL     OW30169   2.922   1.632   8.990  0.4743  0.1793  0.0463
 6178SOL    HW130170   2.865   1.676   9.055 -1.3349  0.1779 -1.5371
 6178SOL    HW230171   3.010   1.651   9.023  0.7111  0.3814 -0.7023
 6179SOL     OW30172   4.284   1.240   3.732 -0.4851  0.5479  0.0967
 6179SOL    HW130173   4.344   1.168   3.715 -0.7831  0.1613  0.6823
 6179SOL    HW230174   4.343   1.311   3.708  0.7561  0.3055  2.4516
 6180SOL     OW30175   1.012   4.260   0.380 -0.0454  0.4129  0.2609
 6180SOL    HW130176   0.927   4.296   0.406  0.2090  0.9577  0.3364
 6180SOL    HW230177   0.994   4.168   0.400  0.1273  0.6602  1.5971
 6181SOL     OW30178   4.708   3.849   6.704  0.2806 -0.0240  0.2077
 6181SOL    HW130179   4.672   3.777   6.756  1.0264 -1.0464 -0.6702
 6181SOL    HW230180   4.627   3.890   6.676  0.8233  1.3656  0.6852
 6182SOL     OW30181   1.597   0.306  16.723 -0.4298  0.0008 -0.3008
 6182SOL    HW130182   1.665   0.372  16.734  0.8830 -1.2573 -0.7264
 6182SOL    HW230183   1.563   0.306  16.633  0.4340 -0.2088 -0.6358
 6183SOL     OW30184   1.607   1.083   8.204 -0.2960 -0.3190 -0.2300
 6183SOL    HW130185   1.628   1.061   8.113  1.0545 -1.4089  0.3395
 6183SOL    HW230186   1.635   1.003   8.248 -1.1028 -0.3561  0.2035
 6184SOL     OW30187   3.300   4.608  17.465 -0.0567 -0.0154  0.0005
 6184SOL    HW130188   3.326   4.679  17.524  0.5469 -0.5503  0.3891
 6184SOL    HW230189   3.319   4.626  17.373  2.2155 -1.8560  0.0892
 6185SOL     OW30190   4.254   3.562  14.418 -0.3020  0.8764 -0.0740
 6185SOL    HW130191   4.184   3.608  14.372  0.0794 -1.3105 -2.8552
 6185SOL    HW230192   4.241   3.583  14.511  1.1996  1.0599  0.1090
 6186SOL     OW30193   0.977   1.159   5.739 -0.1807 -0.7513 -0.1899
 6186SOL    HW130194   0.966   1.254   5.739  1.6537 -0.5229 -0.0482
 6186SOL    HW230195   0.996   1.143   5.646 -0.2397  0.0683 -0.3424
 6187SOL     OW30196   1.425   0.401   9.221 -0.5065 -0.0366 -0.4047
 6187SOL    HW130197   1.352   0.461   9.209 -0.2982  0.3801  0.4805
 6187SOL    HW230198   1.417   0.374   9.312  2.1419  1.4099  0.2369
 6188SOL     OW30199   1.807   1.649  16.671 -0.0608  0.3467  0.0104
 6188SOL    HW130200   1.745   1.680  16.605 -0.6464 -0.3053  0.2492
 6188SOL    HW230201   1.763   1.679  16.751  0.4865 -0.2035  0.5188
 6189SOL     OW30202   4.235   3.486   1.985 -0.6392  0.2093  0.6944
 6189SOL    HW130203   4.232   3.391   1.996  1.8396  0.0515 -0.0869
 6189SOL    HW230204   4.155   3.511   1.938 -1.0422  1.6149  2.1125
 6190SOL     OW30205   2.136   3.995   2.677  0.0891  0.2902 -0.0112
 6190SOL    HW130206   2.080   4.067   2.645 -0.0867 -0.6014 -1.7155
 6190SOL    HW230207   2.153   4.029   2.765  2.1616  0.9523 -0.6722
 6191SOL     OW30208   3.445   4.661   6.070 -0.0724  0.0603  0.4583
 6191SOL    HW130209   3.437   4.592   6.135  0.6280  0.6543  1.1731
 6191SOL    HW230210   3.533   4.654   6.033  1.1380 -0.6714  3.4948
 6192SOL     OW30211   4.570   2.573   3.392 -1.0091 -0.7695 -0.2112
 6192SOL    HW130212   4.483   2.545   3.366 -1.5614 -0.4686  1.3250
 6192SOL    HW230213   4.540   2.633   3.459  0.0917  1.3976 -1.6782
 6193SOL     OW30214   2.536   3.950   6.678 -0.0689  0.3597  0.8703
 6193SOL    HW130215   2.572   3.928   6.592  0.0235 -1.8777  1.4898
 6193SOL    HW230216   2.480   4.025   6.656 -1.7133 -1.5356 -1.4377
 6194SOL     OW30217   3.829   3.708  15.923 -0.0460  0.5562 -0.3955
 6194SOL    HW130218   3.902   3.661  15.882  0.5732 -0.4434  1.7960
 6194SOL    HW230219   3.844   3.681  16.014  1.5299 -0.0795 -0.8488
 6195SOL     OW30220   1.296   3.766  11.107  0.0715 -0.2250 -0.3227
 6195SOL    HW130221   1.374   3.722  11.139 -0.9621 -0.5067  1.8541
 6195SOL    HW230222   1.279   3.820  11.184 -0.4585 -0.5838 -0.1875
 6196SOL     OW30223   1.750   0.938   3.717  0.2879 -0.2087  0.6492
 6196SOL    HW130224   1.816   0.996   3.681  1.7853 -2.5448 -0.3570
 6196SOL    HW230225   1.670   0.991   3.717  1.8012  2.0727 -1.2776
 6197SOL     OW30226   0.259   3.616   7.860 -0.6779  0.3852 -0.3018
 6197SOL    HW130227   0.345   3.576   7.874  0.0703  1.7229 -1.1381
 6197SOL    HW230228   0.233   3.638   7.949 -2.1678  2.1990 -1.2118
 6198SOL     OW30229   1.049   2.389   6.929 -0.5652  0.0125  0.6021
 6198SOL    HW130230   1.137   2.425   6.914 -1.0914  1.6399  1.4253
 6198SOL    HW230231   1.064   2.305   6.973  0.2957 -0.3613 -0.4060
 6199SOL     OW30232   1.896   4.017   1.929  0.1612 -0.3284 -0.1629
 6199SOL    HW130233   1.866   3.927   1.941 -1.1207  0.3083  1.4518
 6199SOL    HW230234   1.990   4.002   1.935  0.3999  1.5019  0.9517
 6200SOL     OW30235   3.369   2.321   4.620 -0.2297 -0.1482 -0.2580
 6200SOL    HW130236   3.297   2.266   4.650 -0.0800  0.0247  0.4100
 6200SOL    HW230237   3.379   2.276   4.537  0.7703  0.9614 -0.7359
 6201SOL     OW30238   1.357   2.238   6.943 -0.2138  0.3844 -0.1512
 6201SOL    HW130239   1.421   2.309   6.950 -0.1840  0.2012  1.4902
 6201SOL    HW230240   1.377   2.210   6.854  2.6050  2.8355 -0.2938
 6202SOL     OW30241   3.301   2.417   6.977 -0.6918  0.6862 -0.2646
 6202SOL    HW130242   3.208   2.426   6.957 -0.9627 -0.6218  0.4049
 6202SOL    HW230243   3.342   2.498   6.946  1.4481 -0.8988 -1.5748
 6203SOL     OW30244   1.473   0.593   0.925 -0.3341  0.6325 -0.1549
 6203SOL    HW130245   1.378   0.605   0.914 -0.9010 -3.0476  0.6817
 6203SOL    HW230246   1.498   0.644   1.002 -0.7562 -0.7984  0.9312
 6204SOL     OW30247   4.416   1.896   4.052 -0.5969  0.1727 -0.1934
 6204SOL    HW130248   4.351   1.925   3.988 -0.3856 -0.1530 -0.5615
 6204SOL    HW230249   4.395   1.803   4.057 -0.8769  0.3567  2.0152
 6205SOL     OW30250   1.568   2.161   6.337  0.7834 -0.3000  0.5005
 6205SOL    HW130251   1.623   2.091   6.303 -0.0941  0.4901 -2.6001
 6205SOL    HW230252   1.630   2.231   6.356 -0.2647  0.8281 -0.2292
 6206SOL     OW30253   1.626   3.657   7.259  0.1743 -0.1615 -0.6809
 6206SOL    HW130254   1.591   3.592   7.198 -1.9327 -0.0806  0.4794
 6206SOL    HW230255   1.715   3.675   7.227  1.3232 -2.6660  1.0918
 6207SOL     OW30256   0.625   4.546   7.054 -0.8690 -0.1326  0.0759
 6207SOL    HW130257   0.617   4.628   7.004  0.2932 -0.4202 -0.5655
 6207SOL    HW230258   0.612   4.467   7.002  1.4759  0.6770 -1.7190
 6208SOL     OW30259   0.988   3.302   0.858 -0.1332  0.9045  0.2550
 6208SOL    HW130260   0.899   3.338   0.863 -0.5086 -0.0658  0.5218
 6208SOL    HW230261   0.977   3.208   0.868  2.7465  0.4512 -0.9041
 6209SOL     OW30262   1.009   4.063  12.022  0.0429  0.1167  0.0764
 6209SOL    HW130263   0.974   4.047  12.110  0.5151 -1.2535  0.0151
 6209SOL    HW230264   0.936   4.106  11.977 -0.2565  0.7310  1.1291
 6210SOL     OW30265   4.666   0.471   5.586 -0.0965  0.7013  0.0084
 6210SOL    HW130266   4.647   0.473   5.680 -2.8444  0.4687 -0.5607
 6210SOL    HW230267   4.578   0.473   5.549 -0.4256 -0.3710  0.7417
 6211SOL     OW30268   0.352   3.446   5.091  0.3440 -0.0064 -0.3729
 6211SOL    HW130269   0.302   3.366   5.075  2.6820 -1.9358  2.0278
 6211SOL    HW230270   0.285   3.511   5.071 -0.0493 -0.4320 -0.4271
 6212SOL     OW30271   2.489   0.507   4.821 -0.3171 -0.3094 -0.0210
 6212SOL    HW130272   2.440   0.512   4.903 -1.5296 -0.8230 -0.7130
 6212SOL    HW230273   2.556   0.444   4.845 -1.7005 -2.0623 -0.7610
 6213SOL     OW30274   1.776   2.089   8.095 -0.1191  0.0216 -0.1893
 6213SOL    HW130275   1.801   2.016   8.040  0.1154  0.2305 -0.3599
 6213SOL    HW230276   1.786   2.042   8.178 -1.8431 -1.2629 -0.7077
 6214SOL     OW30277   1.417   4.653   6.584  0.8719  0.2753  0.3808
 6214SOL    HW130278   1.445   4.561   6.578  0.6622  0.1689  1.0261
 6214SOL    HW230279   1.323   4.644   6.572  0.4982  0.8401  2.9444
 6215SOL     OW30280   0.281   4.264   3.955  0.5971  0.3015  0.0529
 6215SOL    HW130281   0.266   4.241   4.046  1.3067  0.7425  0.2823
 6215SOL    HW230282   0.341   4.338   3.969  0.3096  0.3534  0.9751
 6216SOL     OW30283   0.684   0.843   8.510  0.2566  0.4515 -0.6737
 6216SOL    HW130284   0.593   0.838   8.483  0.1275 -1.3396  0.1459
 6216SOL    HW230285   0.732   0.861   8.428  2.1624  0.1991  0.3789
 6217SOL     OW30286   1.512   2.824   0.782 -0.2509  0.1506 -0.8133
 6217SOL    HW130287   1.534   2.731   0.781  0.8631  0.4010  0.5583
 6217SOL    HW230288   1.505   2.831   0.687  0.8803  0.0795 -0.9024
 6218SOL     OW30289   4.655   3.982   3.983  0.6686 -0.2635  0.1757
 6218SOL    HW130290   4.617   3.901   3.949 -0.1799  0.6560 -1.0573
 6218SOL    HW230291   4.721   3.990   3.915  0.8531  1.5073  0.5618
 6219SOL     OW30292   0.242   4.279   9.938 -0.3712 -0.5522  0.0801
 6219SOL    HW130293   0.158   4.291   9.983 -1.8432 -4.3311 -1.6319
 6219SOL    HW230294   0.291   4.211   9.984  1.1715 -0.2540 -1.1371
 6220SOL     OW30295   3.245   2.934  11.485 -0.4551 -0.0636 -0.1006
 6220SOL    HW130296   3.319   2.925  11.546 -0.1589 -2.1897 -0.7860
 6220SOL    HW230297   3.175   2.918  11.548  1.0303 -0.6277  1.3983
 6221SOL     OW30298   3.784   4.434   5.222  0.1848  0.2203 -0.3050
 6221SOL    HW130299   3.691   4.452   5.234  0.9201  4.2396 -0.3696
 6221SOL    HW230300   3.787   4.350   5.267 -1.4632 -0.6899 -1.9040
 6222SOL     OW30301   3.981   3.873   3.774  0.2848  0.2139 -0.1822
 6222SOL    HW130302   3.960   3.932   3.847  0.0046 -0.8306  0.5768
 6222SOL    HW230303   3.924   3.901   3.703 -1.1704  0.5361  1.0999
 6223SOL     OW30304   4.611   2.515   8.802 -0.4463 -0.4115  0.1834
 6223SOL    HW130305   4.586   2.539   8.891 -1.3850  0.2381 -0.2500
 6223SOL    HW230306   4.522   2.505   8.767  0.1782 -1.3669 -1.1191
 6224SOL     OW30307   4.371   1.371  16.193 -0.5672 -0.0312 -0.3691
 6224SOL    HW130308   4.405   1.287  16.225  0.1357  0.2461 -0.3945
 6224SOL    HW230309   4.444   1.419  16.155  0.0384 -1.5933 -1.1846
 6225SOL     OW30310   1.988   4.507  15.511  0.2067 -0.4170  0.1555
 6225SOL    HW130311   1.930   4.534  15.582  0.1055  0.4282 -0.2449
 6225SOL    HW230312   1.946   4.542  15.432 -1.3663 -0.4941  0.9496
 6226SOL     OW30313   1.183   3.695   0.274 -0.2513 -0.1186 -0.1787
 6226SOL    HW130314   1.131   3.774   0.259 -1.6260 -1.0734 -0.4968
 6226SOL    HW230315   1.170   3.681   0.368 -1.4162  2.1091 -0.0127
 6227SOL     OW30316   3.455   4.390   8.413  0.4266 -0.5698 -0.0238
 6227SOL    HW130317   3.378   4.381   8.356 -0.7064 -0.0213  1.4183
 6227SOL    HW230318   3.460   4.314   8.470  1.9977  1.9988  3.2422
 6228SOL     OW30319   4.182   1.950   3.143 -0.5176  0.4972 -0.6101
 6228SOL    HW130320   4.275   1.938   3.123  0.2920  2.9937  1.5844
 6228SOL    HW230321   4.154   1.859   3.136  0.5350  0.2443 -1.5262
 6229SOL     OW30322   1.968   4.579  11.915 -0.2684  0.0311 -0.4375
 6229SOL    HW130323   2.053   4.624  11.913 -0.1955 -0.0334  1.4894
 6229SOL    HW230324   1.991   4.525  11.839  0.1839 -1.4624  0.7629
 6230SOL     OW30325   0.119   2.427  10.932 -0.4085 -0.5520 -0.0773
 6230SOL    HW130326   0.070   2.413  10.851 -0.3094  1.0365 -0.4088
 6230SOL    HW230327   0.090   2.513  10.963 -1.7035 -1.0098 -0.0397
 6231SOL     OW30328   1.731   0.977   8.936 -0.4430 -0.3290 -0.0768
 6231SOL    HW130329   1.639   0.956   8.921 -0.5974 -0.1880  0.6664
 6231SOL    HW230330   1.759   0.988   8.846  2.4784 -1.0056  0.7427
 6232SOL     OW30331   4.367   3.942   8.357 -0.0254 -0.4187  0.4876
 6232SOL    HW130332   4.403   3.860   8.389 -1.0995 -0.7029  0.9601
 6232SOL    HW230333   4.293   3.961   8.415  0.5205  2.2354  0.3038
 6233SOL     OW30334   4.012   3.878   2.249  0.0179  0.0932 -0.0080
 6233SOL    HW130335   3.939   3.938   2.267  0.3966  0.8081 -0.8470
 6233SOL    HW230336   4.063   3.926   2.184  0.3514 -0.2086  0.0330
 6234SOL     OW30337   4.520   3.218   9.096 -0.6891  0.4852  0.5689
 6234SOL    HW130338   4.569   3.258   9.024 -2.0818 -1.2084 -1.3038
 6234SOL    HW230339   4.496   3.300   9.140  2.8596  0.3821  2.7282
 6235SOL     OW30340   1.460   3.024   2.340  0.0970 -0.1250 -0.4968
 6235SOL    HW130341   1.409   2.975   2.277  0.0894  1.2335 -1.5425
 6235SOL    HW230342   1.464   3.108   2.295 -0.2501  0.5674  0.7631
 6236SOL     OW30343   2.627   0.656   5.440 -0.4285  0.3112  0.3362
 6236SOL    HW130344   2.626   0.604   5.520  1.5079  0.3759  0.3931
 6236SOL    HW230345   2.556   0.714   5.465 -0.2707  0.3063  0.7861
 6237SOL     OW30346   1.573   1.367   9.976  0.2056  0.2913  0.3365
 6237SOL    HW130347   1.625   1.290   9.998 -1.2262 -1.2789 -1.8067
 6237SOL    HW230348   1.625   1.398   9.902 -3.0130 -1.1936 -2.5124
 6238SOL     OW30349   3.005   1.514   4.853  0.0937  0.6155 -0.1580
 6238SOL    HW130350   3.024   1.549   4.940 -2.7103  0.4359  0.5001
 6238SOL    HW230351   3.027   1.587   4.796 -0.5918  2.1665  1.5576
 6239SOL     OW30352   2.881   1.595   2.269  0.3725  0.1821 -0.2133
 6239SOL    HW130353   2.862   1.549   2.351 -2.7483 -0.6379 -1.3888
 6239SOL    HW230354   2.973   1.569   2.257  1.2748  3.0780  0.5296
 6240SOL     OW30355   0.645   2.679  14.984  0.0406 -0.5093 -0.1953
 6240SOL    HW130356   0.715   2.723  15.033 -0.9961  0.4945  0.3982
 6240SOL    HW230357   0.682   2.592  14.977 -1.0921 -0.9321 -0.9616
 6241SOL     OW30358   3.812   1.015   6.996 -0.4983 -0.1430  0.7574
 6241SOL    HW130359   3.839   0.926   6.971  2.1929  1.1081 -0.8633
 6241SOL    HW230360   3.719   1.016   6.977 -0.2330 -0.6132 -0.6018
 6242SOL     OW30361   3.570   2.341   3.770  0.3650 -0.1640  0.0002
 6242SOL    HW130362   3.637   2.314   3.833  0.3807  2.8769  1.2512
 6242SOL    HW230363   3.632   2.367   3.701  0.0438  2.0283  0.5453
 6243SOL     OW30364   1.235   4.633   5.032 -0.1099 -0.3235  0.2380
 6243SOL    HW130365   1.207   4.547   5.061 -0.7653 -0.3811 -0.5609
 6243SOL    HW230366   1.238   4.677   5.117  0.6690  2.6794 -1.3559
 6244SOL     OW30367   3.668   4.206  15.925 -0.0603  0.3025  0.2815
 6244SOL    HW130368   3.671   4.116  15.959  0.0722  0.3217  0.3195
 6244SOL    HW230369   3.756   4.215  15.890  0.4181 -0.6224  1.2135
 6245SOL     OW30370   0.805   4.345  14.855 -0.2226 -0.1119 -0.1464
 6245SOL    HW130371   0.803   4.302  14.940  1.7090 -2.1229 -1.1153
 6245SOL    HW230372   0.735   4.410  14.862 -0.5110 -0.6867  2.4417
 6246SOL     OW30373   2.879   4.434  11.199  0.3036 -1.1440 -0.1201
 6246SOL    HW130374   2.853   4.359  11.146 -2.5071 -0.7516  0.7324
 6246SOL    HW230375   2.920   4.493  11.136  1.4587 -1.1685  0.6096
 6247SOL     OW30376   1.738   0.682   3.637  0.0849  1.0165 -0.3816
 6247SOL    HW130377   1.774   0.768   3.658  0.1020  0.5872  1.3431
 6247SOL    HW230378   1.799   0.651   3.570  1.2838  0.9124  0.7535
 6248SOL     OW30379   3.333   1.724   5.996  0.0180  0.2742 -0.8669
 6248SOL    HW130380   3.247   1.702   6.032 -0.4650 -0.2585 -2.3613
 6248SOL    HW230381   3.316   1.733   5.902 -0.8251  1.5122 -0.5998
 6249SOL     OW30382   2.195   0.693   2.199  0.5005 -0.0735  0.1224
 6249SOL    HW130383   2.264   0.629   2.215  2.1481  1.4504 -0.9587
 6249SOL    HW230384   2.194   0.739   2.283 -2.1116  0.9807 -0.4954
 6250SOL     OW30385   3.931   4.410   0.010  0.6240 -0.0818 -0.4252
 6250SOL    HW130386   4.007   4.412   0.069  1.1026  0.6506 -1.0689
 6250SOL    HW230387   3.969   4.387  17.672 -1.6754 -2.3668 -0.8246
 6251SOL     OW30388   0.792   4.252   6.758 -0.4424 -0.0973 -0.3134
 6251SOL    HW130389   0.827   4.341   6.759  0.5573 -0.5181  1.7347
 6251SOL    HW230390   0.705   4.268   6.796  0.0212 -0.7539  1.0106
 6252SOL     OW30391   3.446   2.587  16.324  0.1525  0.0707  0.0021
 6252SOL    HW130392   3.516   2.637  16.367  0.8808  0.4494 -1.6012
 6252SOL    HW230393   3.380   2.592  16.393  0.5987 -0.0920  0.4449
 6253SOL     OW30394   3.169   1.118   7.673  0.3733  0.3726 -0.1685
 6253SOL    HW130395   3.108   1.120   7.599  1.5137  0.3660 -1.1293
 6253SOL    HW230396   3.232   1.187   7.650  0.9033 -0.0511  0.0230
 6254SOL     OW30397   1.518   3.309   3.074  0.1828 -0.3197 -0.3462
 6254SOL    HW130398   1.482   3.226   3.041 -1.9350  0.1417  0.7617
 6254SOL    HW230399   1.546   3.278   3.160 -3.4473 -1.7222  0.3702
 6255SOL     OW30400   3.956   3.388   4.097  0.4423 -1.1558 -0.0825
 6255SOL    HW130401   3.860   3.393   4.099  0.4183 -1.5773 -0.2715
 6255SOL    HW230402   3.970   3.338   4.177  1.9702  0.7377  0.8322
 6256SOL     OW30403   4.518   0.801   3.214 -0.4453 -0.4555  0.9586
 6256SOL    HW130404   4.482   0.852   3.142 -0.1083 -1.2562  0.2119
 6256SOL    HW230405   4.452   0.828   3.278  0.9371  3.2514  0.7963
 6257SOL     OW30406   1.073   3.490   5.996  0.2385 -0.1446 -0.6384
 6257SOL    HW130407   1.117   3.575   5.996  0.3126 -0.1853 -1.1061
 6257SOL    HW230408   1.080   3.474   5.902 -0.7219  0.7696 -0.8667
 6258SOL     OW30409   2.706   0.571   9.450  0.3691  0.0076 -0.1388
 6258SOL    HW130410   2.770   0.500   9.451  0.5643  0.1615 -1.5985
 6258SOL    HW230411   2.744   0.650   9.489  1.2307 -0.3469 -0.2430
 6259SOL     OW30412   0.045   3.386  10.946  0.1891 -0.7514 -0.2058
 6259SOL    HW130413   0.121   3.331  10.931  0.3713 -0.1960 -1.3284
 6259SOL    HW230414   0.077   3.470  10.913 -4.0015 -0.7121 -4.1613
 6260SOL     OW30415   2.348   4.299   0.920 -0.0267  0.0251 -0.5906
 6260SOL    HW130416   2.278   4.323   0.981  1.5172 -0.1308  1.2659
 6260SOL    HW230417   2.328   4.206   0.929 -0.6229 -0.0458 -2.7988
 6261SOL     OW30418   2.741   2.376   6.461  0.3267  0.1939  0.2378
 6261SOL    HW130419   2.688   2.455   6.455 -0.2277 -0.3092 -1.4099
 6261SOL    HW230420   2.724   2.317   6.388  2.2175  0.1759 -0.2049
 6262SOL     OW30421   1.817   2.462   6.878  0.3791 -0.0926 -0.3476
 6262SOL    HW130422   1.740   2.514   6.897  2.0519  2.0369  0.5139
 6262SOL    HW230423   1.837   2.412   6.957  0.3661 -0.4584 -0.5748
 6263SOL     OW30424   1.599   0.423   1.969  0.0927 -0.2190 -0.1292
 6263SOL    HW130425   1.632   0.405   2.057 -2.2186 -1.7136  0.4257
 6263SOL    HW230426   1.521   0.368   1.968  0.3584 -0.6002  0.2298
 6264SOL     OW30427   3.755   1.479   7.474 -0.5432  0.1009  0.2277
 6264SOL    HW130428   3.805   1.452   7.552 -0.0029 -0.2414 -0.2339
 6264SOL    HW230429   3.822   1.493   7.407 -0.3889 -0.1213  0.3357
 6265SOL     OW30430   3.364   0.222   9.009  0.2413 -0.4950 -0.1718
 6265SOL    HW130431   3.341   0.295   9.066 -0.0598 -1.7493  1.2949
 6265SOL    HW230432   3.357   0.146   9.066  0.3032  0.1771  0.7427
 6266SOL     OW30433   2.466   4.447   2.309  0.8025  0.2103 -0.0758
 6266SOL    HW130434   2.556   4.432   2.279  0.1490 -4.5309  0.3856
 6266SOL    HW230435   2.468   4.448   2.404 -0.7586  1.2602 -0.0547
 6267SOL     OW30436   3.276   1.815  11.206  0.0202  0.3780  0.0163
 6267SOL    HW130437   3.226   1.735  11.219  0.7775 -0.6438 -3.1919
 6267SOL    HW230438   3.260   1.828  11.113 -1.4235  0.3995  0.2787
 6268SOL     OW30439   2.701   0.656   8.713  0.8148  0.3542  0.0001
 6268SOL    HW130440   2.750   0.684   8.790 -0.6408  0.6731  0.8142
 6268SOL    HW230441   2.674   0.736   8.669  2.4205  0.0225 -1.5483
 6269SOL     OW30442   2.618   1.809   1.967  0.3939 -0.2623  0.2498
 6269SOL    HW130443   2.580   1.735   2.014  1.4869 -0.8680  0.1905
 6269SOL    HW230444   2.688   1.837   2.027  0.6195 -3.1243  1.2982
 6270SOL     OW30445   3.763   2.269   6.634 -0.2098  0.2596 -0.4791
 6270SOL    HW130446   3.735   2.352   6.596  0.9135  0.4477 -0.8763
 6270SOL    HW230447   3.732   2.199   6.576 -0.7097 -2.3680  2.9413
 6271SOL     OW30448   1.756   0.037   5.071 -0.0248 -0.3553  0.3489
 6271SOL    HW130449   1.764   0.054   4.977 -0.0096  0.7097  0.5373
 6271SOL    HW230450   1.850   0.033   5.092  0.1877 -1.8887 -0.9360
 6272SOL     OW30451   4.036   4.448  16.101 -0.0261 -0.0100 -0.2129
 6272SOL    HW130452   4.129   4.432  16.088 -0.1345 -2.1545  1.7314
 6272SOL    HW230453   4.042   4.543  16.093  0.1377  0.1801  2.0197
 6273SOL     OW30454   3.104   1.415   2.129  0.0119  0.0137 -0.4922
 6273SOL    HW130455   3.134   1.380   2.045  3.3559  1.9833 -0.1243
 6273SOL    HW230456   3.089   1.505   2.102 -1.1182 -0.2972 -0.8753
 6274SOL     OW30457   1.193   0.072  16.278 -0.2707 -0.2738  0.4487
 6274SOL    HW130458   1.104   0.050  16.251 -0.6633  1.6186  0.2033
 6274SOL    HW230459   1.168   0.091  16.368  1.2292 -2.5925  1.3451
 6275SOL     OW30460   2.877   2.765   9.764  0.6582  0.1115  0.1646
 6275SOL    HW130461   2.898   2.780   9.856 -2.0121 -1.3889  1.0203
 6275SOL    HW230462   2.957   2.718   9.743 -0.0475 -1.4658  1.0135
 6276SOL     OW30463   0.116   0.901   4.206  0.0416  0.4437 -0.2036
 6276SOL    HW130464   0.134   0.823   4.258  1.1507 -0.0059 -1.2694
 6276SOL    HW230465   0.032   0.889   4.161 -0.4756  0.2041  0.8022
 6277SOL     OW30466   1.333   4.269   9.138  0.2896  0.3629  0.0148
 6277SOL    HW130467   1.419   4.244   9.104  1.0660  1.8868  0.8416
 6277SOL    HW230468   1.308   4.203   9.203  0.5993 -0.4069 -0.6533
 6278SOL     OW30469   0.162   0.944  17.508  0.9185  0.1403 -0.0756
 6278SOL    HW130470   0.228   1.008  17.534  1.7477 -1.4106  1.6835
 6278SOL    HW230471   0.193   0.898  17.429 -0.9241 -0.2543 -0.5618
 6279SOL     OW30472   0.165   1.555  17.204  0.4192 -0.1089  0.5989
 6279SOL    HW130473   0.157   1.467  17.167  2.8552 -0.5599  1.1501
 6279SOL    HW230474   0.254   1.549  17.237 -0.3087 -1.4465  2.3465
 6280SOL     OW30475   4.671   1.522  10.136 -0.1605 -0.3616 -0.0367
 6280SOL    HW130476   0.009   1.506  10.193 -0.5886  2.3613  1.2551
 6280SOL    HW230477   4.685   1.612  10.107 -0.0125 -0.3663  0.0184
 6281SOL     OW30478   1.903   1.193   5.544 -0.2913  0.6016 -0.2517
 6281SOL    HW130479   1.921   1.278   5.583 -1.5178  0.0763  1.4722
 6281SOL    HW230480   1.914   1.203   5.450  1.0457 -0.6461 -0.2453
 6282SOL     OW30481   0.412   1.124   9.501 -0.7754 -0.4473 -0.3205
 6282SOL    HW130482   0.490   1.179   9.495 -0.9709 -0.0912  0.3624
 6282SOL    HW230483   0.405   1.105   9.407  1.1153  1.8224 -0.9191
 6283SOL     OW30484   2.806   0.872   5.352  0.4902 -0.1829 -0.4038
 6283SOL    HW130485   2.774   0.784   5.371  0.7492 -0.0070  0.8425
 6283SOL    HW230486   2.737   0.903   5.293 -0.1969 -0.6760  0.1417
 6284SOL     OW30487   2.603   2.205   6.310  0.1221  0.0920 -0.6148
 6284SOL    HW130488   2.518   2.194   6.354 -0.5236 -1.3141 -2.2368
 6284SOL    HW230489   2.576   2.194   6.219  0.7100 -0.8296 -0.6790
 6285SOL     OW30490   1.424   1.985   8.110 -0.1012  0.0647 -0.1271
 6285SOL    HW130491   1.457   1.959   8.023 -0.1769  1.0580 -0.4527
 6285SOL    HW230492   1.440   1.901   8.153 -0.5999 -0.2990 -0.6550
 6286SOL     OW30493   3.027   3.193   3.507  0.0151 -0.5331  0.1781
 6286SOL    HW130494   2.955   3.220   3.450 -0.4118  4.7622  3.1745
 6286SOL    HW230495   3.082   3.269   3.486 -0.1226 -0.8567 -1.3301
 6287SOL     OW30496   2.948   2.963   9.490 -0.0375  0.2763 -0.2156
 6287SOL    HW130497   2.873   2.907   9.510  0.9395 -0.2764  1.9227
 6287SOL    HW230498   2.945   3.021   9.566  1.8269 -0.8416  0.7282
 6288SOL     OW30499   4.505   2.423   9.561  0.0572  0.4946  0.2518
 6288SOL    HW130500   4.522   2.474   9.640  0.7819  1.3392 -0.4555
 6288SOL    HW230501   4.593   2.394   9.539  0.1384  0.7142  0.2920
 6289SOL     OW30502   1.342   1.462  10.139  0.6802 -0.2412 -0.2914
 6289SOL    HW130503   1.284   1.461  10.063  1.0823  0.7465 -0.6169
 6289SOL    HW230504   1.422   1.426  10.101  1.0382  1.9929 -1.6948
 6290SOL     OW30505   3.194   1.897   6.259 -0.1159 -0.6415  0.2317
 6290SOL    HW130506   3.236   1.864   6.339 -0.7198 -0.2515  0.7081
 6290SOL    HW230507   3.103   1.872   6.272  0.5278 -0.9429  4.1241
 6291SOL     OW30508   2.514   4.134   6.986  0.5123  0.6620 -0.0537
 6291SOL    HW130509   2.596   4.098   6.953 -0.4288  1.0381 -2.7923
 6291SOL    HW230510   2.526   4.225   6.957 -1.7450  0.8738 -0.3555
 6292SOL     OW30511   3.256   0.559  10.613  0.4323  0.2647 -0.1733
 6292SOL    HW130512   3.351   0.558  10.629  0.2857 -1.9864  0.5211
 6292SOL    HW230513   3.224   0.630  10.669  0.0088 -0.9416  1.1146
 6293SOL     OW30514   3.310   4.680   0.824 -0.3041 -0.1832 -0.3418
 6293SOL    HW130515   3.300   4.733   0.744  2.4913 -2.5551 -2.2496
 6293SOL    HW230516   3.403   4.660   0.807  0.7249  2.9133  1.5468
 6294SOL     OW30517   1.838   0.488   4.664  0.1527 -0.1119  0.4655
 6294SOL    HW130518   1.873   0.427   4.729  0.8003 -0.5197 -0.2762
 6294SOL    HW230519   1.827   0.574   4.706 -0.0564  0.0159  0.1456
 6295SOL     OW30520   0.394   4.344   7.057  0.5262  0.5999 -0.1626
 6295SOL    HW130521   0.456   4.310   7.122 -1.9935 -2.0313  0.8648
 6295SOL    HW230522   0.444   4.327   6.978  0.7192  0.0331  0.0812
 6296SOL     OW30523   1.421   0.396   3.780  0.0992 -0.3588  0.1705
 6296SOL    HW130524   1.389   0.372   3.693 -0.8708 -0.1208  0.4688
 6296SOL    HW230525   1.488   0.460   3.758 -3.1674  2.7523 -0.6089
 6297SOL     OW30526   0.509   2.632   4.516  0.4253 -0.0296 -0.0635
 6297SOL    HW130527   0.569   2.585   4.458  0.9103  1.1452 -0.4977
 6297SOL    HW230528   0.560   2.712   4.518  1.6163 -0.8602  2.3798
 6298SOL     OW30529   0.101   1.044   6.423 -0.6209  0.2156  0.8262
 6298SOL    HW130530   0.146   0.960   6.435 -1.3513 -0.3651 -0.5359
 6298SOL    HW230531   0.018   1.021   6.381  0.0325 -1.9789  0.7135
 6299SOL     OW30532   4.339   1.787  14.204 -0.1948  0.4187 -0.9401
 6299SOL    HW130533   4.354   1.852  14.273  3.3315 -1.1851 -0.2064
 6299SOL    HW230534   4.332   1.704  14.252 -1.3434  1.1103  0.0661
 6300SOL     OW30535   1.542   1.440   9.216  0.0338 -0.5580  0.1899
 6300SOL    HW130536   1.598   1.463   9.142 -0.9339 -1.3499 -0.7792
 6300SOL    HW230537   1.497   1.362   9.185  1.1735 -0.5778 -1.4204
 6301SOL     OW30538   3.177   3.301   9.666  0.5981 -0.3871  0.0943
 6301SOL    HW130539   3.176   3.321   9.572  0.5131 -1.1616 -0.0701
 6301SOL    HW230540   3.086   3.322   9.685  0.9711 -0.3066  1.8233
 6302SOL     OW30541   3.029   3.400   2.573  0.7128  0.3467 -0.0113
 6302SOL    HW130542   2.945   3.419   2.531  1.1418 -0.4057 -1.2163
 6302SOL    HW230543   3.008   3.386   2.665  1.2124  0.2203  0.0802
 6303SOL     OW30544   0.828   0.884   7.108 -0.6931  0.3467 -0.4915
 6303SOL    HW130545   0.860   0.794   7.099  1.5823  1.0788  0.2017
 6303SOL    HW230546   0.764   0.864   7.176 -0.3323  1.3754  0.1616
 6304SOL     OW30547   3.074   4.234  17.564 -0.2071  0.6460  0.1019
 6304SOL    HW130548   3.014   4.244  17.490 -0.8893 -2.6282  0.1863
 6304SOL    HW230549   3.067   4.141  17.585 -0.8058  0.9723  1.3526
 6305SOL     OW30550   2.580   0.336  11.901  0.3997  0.3273 -0.0216
 6305SOL    HW130551   2.636   0.317  11.976  0.9107  0.4943 -0.3590
 6305SOL    HW230552   2.539   0.417  11.931 -0.4055 -0.2870  0.5445
 6306SOL     OW30553   4.486   0.246   2.197  0.1379 -0.3426  0.3792
 6306SOL    HW130554   4.505   0.164   2.152  2.1189  1.3559 -1.8979
 6306SOL    HW230555   4.574   0.283   2.207  0.4806 -0.6043 -1.6938
 6307SOL     OW30556   3.869   2.118  17.293  0.0792 -0.1782  0.1829
 6307SOL    HW130557   3.914   2.196  17.261 -3.8397  1.6113 -0.9913
 6307SOL    HW230558   3.786   2.138  17.338  0.6246 -2.5366  2.2148
 6308SOL     OW30559   1.664   1.034   6.352  0.1448 -0.4591  0.0072
 6308SOL    HW130560   1.628   0.981   6.424  0.0342  0.7889  0.8771
 6308SOL    HW230561   1.582   1.063   6.312 -0.6274 -1.8890  0.5510
 6309SOL     OW30562   0.411   0.940  11.626  0.1082  0.2503  0.4717
 6309SOL    HW130563   0.323   0.904  11.629  0.8874 -1.7467 -0.7967
 6309SOL    HW230564   0.435   0.924  11.535  3.5825  3.5049  0.7998
 6310SOL     OW30565   4.391   4.582  17.621 -0.2072 -0.1545  0.5484
 6310SOL    HW130566   4.372   4.625  17.704  0.7228 -0.0189  0.6904
 6310SOL    HW230567   4.460   4.522  17.651 -0.5367 -0.2833  1.0409
 6311SOL     OW30568   1.252   3.789   3.892 -0.8823 -0.3430 -0.3663
 6311SOL    HW130569   1.224   3.778   3.801 -1.1620 -1.7781 -0.0982
 6311SOL    HW230570   1.336   3.834   3.878 -0.2540 -1.4875 -0.2940
 6312SOL     OW30571   2.762   1.087   3.018 -0.0907  0.1352 -0.2214
 6312SOL    HW130572   2.781   0.998   2.988 -3.2488 -0.2679 -1.0739
 6312SOL    HW230573   2.793   1.139   2.943 -1.2851 -0.6326 -1.2482
 6313SOL     OW30574   3.509   3.530  10.181  0.8317  0.0299 -0.2474
 6313SOL    HW130575   3.435   3.470  10.178  0.3234  0.6465 -0.1238
 6313SOL    HW230576   3.571   3.467  10.218  0.6952 -0.2994 -0.5731
 6314SOL     OW30577   0.650   1.548   6.297  0.6763 -0.1554 -0.4765
 6314SOL    HW130578   0.714   1.478   6.287  1.6352  0.8041 -0.9641
 6314SOL    HW230579   0.579   1.514   6.243 -1.3150 -0.5844  2.4160
 6315SOL     OW30580   2.248   3.753   4.866  0.3207 -0.2974 -0.0435
 6315SOL    HW130581   2.216   3.735   4.777 -1.4963 -2.3488  1.0513
 6315SOL    HW230582   2.168   3.780   4.911  1.2659 -1.7006  2.4580
 6316SOL     OW30583   4.273   3.588  14.116  0.9336 -0.1293 -0.0847
 6316SOL    HW130584   4.269   3.636  14.199  1.0085 -1.0659  0.4589
 6316SOL    HW230585   4.365   3.567  14.105  0.8771 -1.1297  1.4301
 6317SOL     OW30586   3.849   3.724   3.978  0.0984  0.3070 -0.1754
 6317SOL    HW130587   3.873   3.721   4.071 -2.1943  0.2083  0.4164
 6317SOL    HW230588   3.923   3.777   3.948  0.6623 -0.1294  0.4392
 6318SOL     OW30589   1.300   2.533  10.060 -0.2650  0.0308  0.0857
 6318SOL    HW130590   1.317   2.492   9.976  0.6793  0.8327 -0.1186
 6318SOL    HW230591   1.382   2.519  10.108 -0.4155  0.2067  0.3995
 6319SOL     OW30592   3.893   2.379   9.217 -0.1919 -0.1664  0.1374
 6319SOL    HW130593   3.887   2.325   9.295 -2.2962  0.1264  0.1919
 6319SOL    HW230594   3.902   2.468   9.251 -0.4775 -1.3691  3.3005
 6320SOL     OW30595   2.285   0.488   5.903  0.2697 -0.7053  0.9668
 6320SOL    HW130596   2.328   0.573   5.891  0.6003 -1.4705 -3.4375
 6320SOL    HW230597   2.261   0.488   5.995 -1.7450 -1.9035  0.4365
 6321SOL     OW30598   0.721   3.179   9.961  0.1614  0.6448  0.3968
 6321SOL    HW130599   0.626   3.181   9.949  0.0769  1.0665  1.1421
 6321SOL    HW230600   0.748   3.261  10.003  0.7941  1.7522 -2.1567
 6322SOL     OW30601   1.731   2.408  11.198  0.3095 -0.0648 -0.4205
 6322SOL    HW130602   1.733   2.477  11.131 -3.5667 -2.2559 -2.7295
 6322SOL    HW230603   1.663   2.358  11.155  1.0871 -0.5578 -1.0803
 6323SOL     OW30604   2.415   3.840   2.390 -0.5451  0.1274  0.8542
 6323SOL    HW130605   2.360   3.787   2.447  0.3131 -2.4107 -0.7079
 6323SOL    HW230606   2.351   3.867   2.324 -1.3062 -0.1195  1.4905
 6324SOL     OW30607   1.590   0.157   3.414  0.1621  0.1318  0.2629
 6324SOL    HW130608   1.658   0.152   3.347  0.4006  0.6572  0.4635
 6324SOL    HW230609   1.569   0.064   3.413  1.3272 -0.1234 -1.7190
 6325SOL     OW30610   1.330   1.716  15.871 -0.3131  0.0887  0.5964
 6325SOL    HW130611   1.323   1.807  15.839 -0.3500 -0.4483 -0.9300
 6325SOL    HW230612   1.278   1.676  15.802 -0.8281  0.9633  0.4745
 6326SOL     OW30613   0.635   2.529  12.627  0.4209  0.0080  0.4964
 6326SOL    HW130614   0.731   2.534  12.628  0.4526 -0.5503 -1.0681
 6326SOL    HW230615   0.620   2.510  12.720 -2.1789  1.1908  0.3233
 6327SOL     OW30616   0.407   3.469   6.141 -0.1880  0.1857  0.0316
 6327SOL    HW130617   0.403   3.467   6.237 -1.3883  1.6527  0.0086
 6327SOL    HW230618   0.417   3.562   6.123  0.4630  0.2914  0.9423
 6328SOL     OW30619   3.664   1.119   5.356  0.2101  0.0517  0.0374
 6328SOL    HW130620   3.585   1.080   5.393  0.5229  0.6911  1.3589
 6328SOL    HW230621   3.710   1.038   5.337  0.2184 -0.0253  0.3848
 6329SOL     OW30622   0.220   0.230   2.716  0.8813 -0.3398 -0.2244
 6329SOL    HW130623   0.299   0.176   2.722  0.3161 -1.1286  0.0897
 6329SOL    HW230624   0.223   0.294   2.787  2.0302 -1.6503  0.9115
 6330SOL     OW30625   4.213   1.004   9.111 -0.1299  0.6803  0.2671
 6330SOL    HW130626   4.286   0.976   9.057 -0.8071 -1.9388  0.6986
 6330SOL    HW230627   4.154   0.940   9.072  0.5630 -1.4393  2.6760
 6331SOL     OW30628   3.306   3.855   3.966  0.3845 -0.2071  0.3444
 6331SOL    HW130629   3.398   3.880   3.965 -0.4282  2.8458  2.4905
 6331SOL    HW230630   3.287   3.806   4.046  0.3152  0.7630  0.9316
 6332SOL     OW30631   1.685   0.161  13.494 -0.0723  0.5501  0.6261
 6332SOL    HW130632   1.769   0.194  13.524 -1.1946  2.1655  1.9630
 6332SOL    HW230633   1.676   0.072  13.530 -1.4476 -0.1363 -1.4321
 6333SOL     OW30634   4.345   4.731   0.098 -0.0063  0.4164 -0.2411
 6333SOL    HW130635   4.292   4.718   0.176 -0.0056 -0.0456 -0.3196
 6333SOL    HW230636   4.430   4.730   0.142  0.7489  0.0575 -1.6878
 6334SOL     OW30637   1.593   0.718   2.951  0.5862  0.3837 -0.3594
 6334SOL    HW130638   1.633   0.778   3.014 -0.0074  2.5616 -2.0884
 6334SOL    HW230639   1.633   0.759   2.875  2.1180  1.1508  0.8494
 6335SOL     OW30640   1.797   3.322   5.246 -0.2199 -0.5110 -0.0579
 6335SOL    HW130641   1.790   3.417   5.256 -1.0198 -0.2461 -3.1087
 6335SOL    HW230642   1.892   3.312   5.251 -0.1177 -0.1677 -1.2193
 6336SOL     OW30643   4.038   2.742   9.632  0.6740 -0.7759  0.0729
 6336SOL    HW130644   4.024   2.789   9.550 -1.7508  0.2941  1.0973
 6336SOL    HW230645   4.030   2.818   9.689 -1.9428 -0.3429 -0.8838
 6337SOL     OW30646   3.657   3.935  15.957  0.0954  0.2530 -0.3014
 6337SOL    HW130647   3.711   3.860  15.933  0.7314  0.0833  1.5954
 6337SOL    HW230648   3.567   3.904  15.957  0.1841 -0.0034 -1.5906
 6338SOL     OW30649   4.518   0.403   4.396  0.2941 -0.3368  0.2002
 6338SOL    HW130650   4.540   0.313   4.371  1.7034  0.6201 -1.9468
 6338SOL    HW230651   4.598   0.427   4.442 -1.2634  2.9695  1.2266
 6339SOL     OW30652   3.080   3.367   0.148 -0.0264 -0.0516  0.4024
 6339SOL    HW130653   3.071   3.393   0.240 -0.5594  0.3060  0.2481
 6339SOL    HW230654   3.149   3.414   0.101 -0.2951  0.0331  0.0982
 6340SOL     OW30655   0.097   3.131  10.704 -0.2280 -0.4760  0.3635
 6340SOL    HW130656   0.106   3.073  10.780 -1.4756 -1.1262  0.0159
 6340SOL    HW230657   0.138   3.207  10.744 -1.2179 -0.0732  0.6000
 6341SOL     OW30658   1.072   1.807   1.549  0.3241 -0.3315  0.3618
 6341SOL    HW130659   0.977   1.817   1.535  0.3533  0.2835  0.6003
 6341SOL    HW230660   1.096   1.765   1.467 -1.4675  1.1566 -0.9515
 6342SOL     OW30661   0.354   0.210   8.468  0.0866  0.5545 -0.5965
 6342SOL    HW130662   0.387   0.121   8.453  2.1064  0.7977  2.3376
 6342SOL    HW230663   0.362   0.257   8.385  1.2032  1.3717 -0.0315
 6343SOL     OW30664   2.398   2.749   1.691  0.1751  0.0794  0.1565
 6343SOL    HW130665   2.317   2.705   1.716  1.6261 -2.2392  0.7513
 6343SOL    HW230666   2.378   2.832   1.734  1.0547  0.6566 -0.5393
 6344SOL     OW30667   0.216   3.249   7.821 -0.4522  0.6784  0.3973
 6344SOL    HW130668   0.309   3.227   7.813 -0.5242  0.8787 -0.8808
 6344SOL    HW230669   0.169   3.168   7.800  1.9448 -0.5002 -0.4875
 6345SOL     OW30670   3.608   0.487   9.957  0.6356 -0.0231  0.0224
 6345SOL    HW130671   3.581   0.403   9.920  0.0794  0.5130 -0.7718
 6345SOL    HW230672   3.539   0.487  10.023  1.3477  0.0054  0.7638
 6346SOL     OW30673   4.572   4.040  10.436 -0.4827 -0.7252  0.1461
 6346SOL    HW130674   4.527   3.993  10.506 -0.9897 -0.8890 -0.2905
 6346SOL    HW230675   4.653   3.989  10.427 -0.9946 -2.4889  5.4639
 6347SOL     OW30676   4.405   2.162   9.472 -0.0982 -0.2939 -0.0045
 6347SOL    HW130677   4.412   2.252   9.504 -0.5298 -0.3044  0.1202
 6347SOL    HW230678   4.384   2.183   9.381  0.2295  0.6792  0.1530
 6348SOL     OW30679   1.881   2.790  10.657 -0.3516  0.0048 -0.0501
 6348SOL    HW130680   1.956   2.829  10.702  0.8942 -0.4211 -1.7673
 6348SOL    HW230681   1.929   2.742  10.590  0.7671 -1.5208  1.8258
 6349SOL     OW30682   3.055   2.857   4.311  0.5661 -0.1368  0.2068
 6349SOL    HW130683   3.027   2.770   4.342  0.7149 -0.7696 -1.4407
 6349SOL    HW230684   3.008   2.863   4.228  1.3915 -2.1150 -0.4083
 6350SOL     OW30685   0.257   0.267   3.918  0.1523  0.6559 -0.0376
 6350SOL    HW130686   0.239   0.333   3.985 -1.4950  0.7636 -0.5860
 6350SOL    HW230687   0.300   0.322   3.853  1.2720  0.7032  0.7405
 6351SOL     OW30688   1.063   2.591   3.702  0.2784 -0.0073  0.5629
 6351SOL    HW130689   0.981   2.638   3.693 -0.3577 -1.3805 -0.8867
 6351SOL    HW230690   1.038   2.502   3.727 -0.1242 -0.6977 -2.2409
 6352SOL     OW30691   1.105   1.916   4.896  0.5541 -0.2750  0.2720
 6352SOL    HW130692   1.037   1.983   4.897  0.4820 -0.3294 -1.3445
 6352SOL    HW230693   1.077   1.862   4.970  0.2348  0.7656  0.9147
 6353SOL     OW30694   0.548   0.900   6.663  0.8416 -0.3332 -0.1615
 6353SOL    HW130695   0.509   0.813   6.673 -0.3101  0.0202 -1.6149
 6353SOL    HW230696   0.590   0.895   6.749 -0.5860  1.6715  0.6288
 6354SOL     OW30697   0.119   3.261   4.637  0.3236 -0.2097 -0.2504
 6354SOL    HW130698   0.048   3.244   4.700  0.9879  0.0294  0.5653
 6354SOL    HW230699   0.187   3.199   4.664  1.4316  1.5500  1.0001
 6355SOL     OW30700   4.693   3.562   9.449  0.1624  0.0064  0.3003
 6355SOL    HW130701   4.716   3.501   9.519 -1.7449 -0.5052  0.4825
 6355SOL    HW230702   4.602   3.583   9.469  0.2175  2.5346 -2.1435
 6356SOL     OW30703   3.210   0.474  17.165 -0.6433 -0.5285 -0.3285
 6356SOL    HW130704   3.229   0.541  17.230 -0.7112  0.8927 -1.7798
 6356SOL    HW230705   3.253   0.397  17.202  0.0806 -0.0914 -0.2418
 6357SOL     OW30706   1.944   3.462   9.702  0.2964 -0.0571  0.5370
 6357SOL    HW130707   1.970   3.419   9.783  0.2311 -1.0813  0.0057
 6357SOL    HW230708   1.855   3.434   9.682  0.1279 -1.5192  3.3183
 6358SOL     OW30709   3.392   2.254   9.529  0.3927  0.0259  0.1663
 6358SOL    HW130710   3.461   2.311   9.564 -0.7302 -0.1754  2.7818
 6358SOL    HW230711   3.377   2.194   9.603  2.2875 -0.1715  0.3871
 6359SOL     OW30712   4.700   3.921  12.686 -0.0940  0.2432  0.4925
 6359SOL    HW130713   4.649   3.998  12.660  2.1525  1.9809  1.2553
 6359SOL    HW230714   0.038   3.959  12.731  1.2194 -0.6096 -1.0006
 6360SOL     OW30715   1.401   2.704   3.603 -1.0551 -0.1828  0.4173
 6360SOL    HW130716   1.349   2.650   3.543  1.0837 -2.6042  0.7402
 6360SOL    HW230717   1.402   2.651   3.682 -0.8966  2.9089  2.5101
 6361SOL     OW30718   4.638   1.670  16.658  0.0389 -0.3192  0.2760
 6361SOL    HW130719   4.602   1.634  16.578  1.1144  1.0787 -0.8351
 6361SOL    HW230720   4.672   1.756  16.630  2.3291 -1.2548  0.1382
 6362SOL     OW30721   1.468   2.416   1.613  0.2867 -0.1978 -0.6290
 6362SOL    HW130722   1.516   2.336   1.591  1.6914  0.3258  0.5566
 6362SOL    HW230723   1.446   2.448   1.525  0.6654  2.3349  0.1917
 6363SOL     OW30724   1.840   1.033  17.268 -0.4849  0.0637 -0.5277
 6363SOL    HW130725   1.846   0.952  17.218  0.1926 -0.2728  0.0837
 6363SOL    HW230726   1.856   1.095  17.197  1.0161  0.2586 -0.0302
 6364SOL     OW30727   2.757   4.017   1.155  0.1883  0.1215 -0.1637
 6364SOL    HW130728   2.804   4.081   1.208 -1.3626  0.1011  1.2439
 6364SOL    HW230729   2.729   4.074   1.083  0.3070  1.8626  1.1811
 6365SOL     OW30730   3.236   0.552   2.188  0.1921 -0.3066 -0.2296
 6365SOL    HW130731   3.255   0.465   2.153  1.0629 -0.8424  1.5756
 6365SOL    HW230732   3.324   0.575   2.217  0.1237  4.0753 -3.4583
 6366SOL     OW30733   0.951   4.110   5.515  0.3720 -0.0437 -0.4114
 6366SOL    HW130734   1.031   4.064   5.491  0.2096 -1.5130  1.8548
 6366SOL    HW230735   0.975   4.157   5.595 -0.4420  0.5559 -0.5152
 6367SOL     OW30736   4.009   3.066   5.101  0.0519  0.0356 -0.1193
 6367SOL    HW130737   4.031   3.097   5.014  0.0975 -2.0553 -0.8470
 6367SOL    HW230738   4.001   2.972   5.090  0.9144 -0.2247  1.4108
 6368SOL     OW30739   3.722   3.875   8.662 -0.5450 -0.2004  0.0298
 6368SOL    HW130740   3.706   3.961   8.624  2.8098  0.4490  0.0859
 6368SOL    HW230741   3.694   3.884   8.754 -2.4047  3.0519 -0.8633
 6369SOL     OW30742   3.813   3.118   6.408 -0.1185 -0.2423  0.2991
 6369SOL    HW130743   3.859   3.062   6.346 -0.7919  0.3441 -0.7323
 6369SOL    HW230744   3.756   3.162   6.344 -0.3762  1.7593  1.8815
 6370SOL     OW30745   2.839   0.816   1.593  0.1273  0.6715  0.5739
 6370SOL    HW130746   2.819   0.795   1.685 -1.6763 -1.5074 -0.3179
 6370SOL    HW230747   2.926   0.855   1.598 -0.4306  2.2326 -1.9248
 6371SOL     OW30748   1.811   2.898   7.390 -0.0402 -0.0769 -0.0096
 6371SOL    HW130749   1.779   2.841   7.460 -0.8923  1.1639  0.5961
 6371SOL    HW230750   1.759   2.976   7.409 -1.2444 -0.1704 -2.9800
 6372SOL     OW30751   0.190   2.187   9.205 -0.4895  0.0785 -0.1497
 6372SOL    HW130752   0.213   2.094   9.195 -0.8899  0.2218 -2.3879
 6372SOL    HW230753   0.234   2.222   9.128 -0.1288 -1.1487 -0.5011
 6373SOL     OW30754   1.969   0.218   5.984 -0.6493  0.1758  0.1817
 6373SOL    HW130755   2.041   0.154   5.991  0.3985  1.4666  1.1757
 6373SOL    HW230756   1.899   0.165   6.022 -0.6412 -0.8363 -1.1821
 6374SOL     OW30757   1.012   1.264  11.892  0.2740  0.3467 -0.3069
 6374SOL    HW130758   1.080   1.250  11.826  2.6932 -0.8950  2.4300
 6374SOL    HW230759   0.938   1.222  11.848 -0.8501  1.0345  0.9196
 6375SOL     OW30760   2.524   3.536   2.400  0.3909 -0.4497  0.9106
 6375SOL    HW130761   2.486   3.622   2.384 -0.3809 -0.5551  2.1912
 6375SOL    HW230762   2.446   3.490   2.429  0.8558 -1.9062 -0.1306
 6376SOL     OW30763   1.592   1.100   2.383  0.0701  0.6352 -0.2237
 6376SOL    HW130764   1.544   1.179   2.411 -1.7518 -1.9198  3.9180
 6376SOL    HW230765   1.536   1.023   2.388 -0.3809  0.9267 -0.8210
 6377SOL     OW30766   4.464   3.701   9.529 -0.0476 -0.0906 -0.0631
 6377SOL    HW130767   4.519   3.779   9.518 -1.8237  1.2071  0.3727
 6377SOL    HW230768   4.377   3.734   9.506 -0.7364 -1.8866  0.0113
 6378SOL     OW30769   1.753   0.749  17.363 -0.4753  0.0365 -0.5519
 6378SOL    HW130770   1.716   0.835  17.383 -1.7263 -0.4171 -0.9391
 6378SOL    HW230771   1.838   0.769  17.325 -0.6318 -0.7311 -1.3164
 6379SOL     OW30772   2.303   0.060   3.317  0.7268  0.3297  0.2496
 6379SOL    HW130773   2.210   0.065   3.294  0.6855 -0.4412  0.2317
 6379SOL    HW230774   2.307   0.069   3.412 -0.2294  0.9899  0.2295
 6380SOL     OW30775   2.468   2.567  17.051 -0.7053  0.2932 -0.3586
 6380SOL    HW130776   2.460   2.476  17.080  1.3691  0.2311  0.0611
 6380SOL    HW230777   2.542   2.567  16.989 -0.0231 -1.1767  0.4532
 6381SOL     OW30778   0.297   0.466  17.022 -0.1102  0.2105 -0.5488
 6381SOL    HW130779   0.364   0.487  16.956  1.6912  0.3660  1.3174
 6381SOL    HW230780   0.225   0.455  16.960  3.1821 -2.3905 -3.9680
 6382SOL     OW30781   1.865   2.257  16.880  0.1072 -0.2740  0.4841
 6382SOL    HW130782   1.924   2.311  16.932  0.0767  0.8428 -0.6385
 6382SOL    HW230783   1.812   2.318  16.829  0.3173 -0.4203  0.0795
 6383SOL     OW30784   1.264   3.931  12.663  0.8254  0.0171  0.4377
 6383SOL    HW130785   1.245   3.961  12.752  3.0907 -2.4353  1.7476
 6383SOL    HW230786   1.286   4.016  12.623  0.7708  0.0992  0.5814
 6384SOL     OW30787   0.520   3.028  11.137 -0.3410  0.7541  0.1040
 6384SOL    HW130788   0.517   3.056  11.229 -0.5602  1.6601 -0.1875
 6384SOL    HW230789   0.448   3.072  11.092 -2.0095 -1.1130  0.9461
 6385SOL     OW30790   1.910   2.630  12.317  0.7974  0.0281  0.6321
 6385SOL    HW130791   1.951   2.607  12.234 -1.2024  0.1547 -0.3705
 6385SOL    HW230792   1.861   2.707  12.289 -0.9275 -1.9027 -1.5740
 6386SOL     OW30793   3.157   0.932   6.733  0.3789  0.0900 -0.4067
 6386SOL    HW130794   3.136   0.896   6.647 -1.7721 -1.3452  0.7153
 6386SOL    HW230795   3.233   0.985   6.707 -0.3582  0.5927 -1.5392
 6387SOL     OW30796   4.454   3.043  10.946 -0.5938 -0.2567  0.1278
 6387SOL    HW130797   4.360   3.055  10.938 -0.5401  0.1887  0.1653
 6387SOL    HW230798   4.473   2.997  10.864  0.9191 -0.4877  0.6082
 6388SOL     OW30799   2.398   1.847   6.831  0.0475  0.2257  0.1684
 6388SOL    HW130800   2.358   1.809   6.910  0.7620  1.0568  0.9321
 6388SOL    HW230801   2.358   1.783   6.773 -1.0158  0.0636  1.0735
 6389SOL     OW30802   1.362   3.187   3.918  0.5009  0.4362  0.0134
 6389SOL    HW130803   1.374   3.281   3.931  0.7099  0.7210 -2.4150
 6389SOL    HW230804   1.340   3.152   4.005 -1.6328  0.4578 -0.5181
 6390SOL     OW30805   0.720   2.373  14.977  0.4527 -0.2992  0.0914
 6390SOL    HW130806   0.708   2.409  15.064  1.4321 -0.2802  0.2203
 6390SOL    HW230807   0.708   2.280  14.999  1.0425 -0.4417 -0.1706
 6391SOL     OW30808   1.987   2.202   6.687 -0.4534 -0.0803  0.2450
 6391SOL    HW130809   1.897   2.171   6.679 -0.7108  0.2657  1.7671
 6391SOL    HW230810   2.000   2.205   6.782 -0.5653 -0.4468  0.2725
 6392SOL     OW30811   3.086   2.271   8.832  0.4711 -0.0648  0.2563
 6392SOL    HW130812   3.042   2.329   8.893  0.6348 -0.0384  0.3485
 6392SOL    HW230813   3.120   2.325   8.760  1.0123 -3.1511 -1.8560
 6393SOL     OW30814   2.666   1.678   6.781 -0.1549 -0.5009  0.4702
 6393SOL    HW130815   2.734   1.734   6.743  0.1593 -0.5901  0.9088
 6393SOL    HW230816   2.720   1.611   6.823  0.8428 -1.2560 -1.9825
 6394SOL     OW30817   3.639   4.136   8.584 -0.2438  0.1923  0.6140
 6394SOL    HW130818   3.670   4.220   8.619 -0.6123  0.8538 -0.6570
 6394SOL    HW230819   3.546   4.139   8.562  0.3788 -0.6121 -2.1094
 6395SOL     OW30820   1.270   3.247  16.647  0.0811  0.1144 -0.0582
 6395SOL    HW130821   1.219   3.320  16.684 -0.3292 -0.5903  0.7633
 6395SOL    HW230822   1.333   3.235  16.718  0.8077  2.9580 -0.2079
 6396SOL     OW30823   4.211   4.338  17.135 -0.1329  0.2528  0.3887
 6396SOL    HW130824   4.118   4.343  17.156  0.2749  2.1130  1.7953
 6396SOL    HW230825   4.208   4.299  17.048  1.2599  2.8133 -0.8275
 6397SOL     OW30826   0.164   0.689   0.099  0.3751  0.3056  0.1042
 6397SOL    HW130827   0.108   0.755   0.057 -0.8744 -1.5266 -1.1333
 6397SOL    HW230828   0.218   0.667   0.022  2.0018 -1.4423  1.7452
 6398SOL     OW30829   0.922   2.075  16.454  0.6803 -0.2906  0.8921
 6398SOL    HW130830   0.911   2.164  16.487 -0.1472 -0.1507  0.2380
 6398SOL    HW230831   0.835   2.047  16.484  1.0250 -1.2491  0.9919
 6399SOL     OW30832   4.045   3.017  17.653  0.3322  0.6025  0.3246
 6399SOL    HW130833   3.980   3.023  17.723  0.3920  0.4356  0.3930
 6399SOL    HW230834   4.050   2.922  17.650  2.9963  0.7300  0.8875
 6400SOL     OW30835   0.366   1.004   7.804 -0.2321  0.1581 -0.2552
 6400SOL    HW130836   0.288   0.965   7.844  1.0344 -0.7901  1.3296
 6400SOL    HW230837   0.359   1.095   7.832 -2.1180  0.3843 -1.5192
 6401SOL     OW30838   1.990   1.282  13.387 -0.7083 -0.3410  0.1229
 6401SOL    HW130839   1.976   1.372  13.359  2.5099  0.1397  0.0218
 6401SOL    HW230840   2.061   1.291  13.450  0.8343  2.0805 -1.9259
 6402SOL     OW30841   4.731   0.154   7.618  0.2205 -0.0348 -0.7423
 6402SOL    HW130842   4.707   0.089   7.552 -0.2148  0.5313 -1.1432
 6402SOL    HW230843   0.071   0.184   7.572  0.0911 -0.4928 -1.2617
 6403SOL     OW30844   1.404   0.619   8.886 -0.2815  0.0492  0.1575
 6403SOL    HW130845   1.486   0.633   8.932  0.6755  0.4267 -1.6843
 6403SOL    HW230846   1.354   0.558   8.941 -2.1130  1.4331  0.0555
 6404SOL     OW30847   0.486   1.557  15.699 -0.1875  0.0318 -0.6700
 6404SOL    HW130848   0.533   1.602  15.629  0.7432 -1.9735 -1.3308
 6404SOL    HW230849   0.399   1.594  15.686 -1.2869 -1.2776  2.7059
 6405SOL     OW30850   0.042   2.309  15.305 -0.6160  0.0355  0.2409
 6405SOL    HW130851   0.076   2.292  15.218  0.4379  1.5170  0.3567
 6405SOL    HW230852   0.087   2.391  15.326 -1.3270  0.7786 -1.1593
 6406SOL     OW30853   2.392   0.275  16.757 -0.8321  0.4100 -0.4182
 6406SOL    HW130854   2.410   0.205  16.695 -0.3718  0.9924 -0.9471
 6406SOL    HW230855   2.443   0.237  16.828 -1.1661 -1.1045 -0.9925
 6407SOL     OW30856   1.443   2.378   2.338  0.2251 -0.4559 -0.1624
 6407SOL    HW130857   1.359   2.355   2.300 -0.0673 -0.1183  0.2665
 6407SOL    HW230858   1.456   2.319   2.412  1.6911  0.4393  0.2844
 6408SOL     OW30859   1.131   4.215  11.104 -0.4188 -0.0415 -0.1605
 6408SOL    HW130860   1.159   4.260  11.184 -2.1074  0.9907 -0.1269
 6408SOL    HW230861   1.118   4.287  11.042 -0.5978  1.2044  1.3080
 6409SOL     OW30862   1.307   3.397   6.633  0.6120 -0.3523 -0.2988
 6409SOL    HW130863   1.293   3.492   6.628  0.2349 -0.4585 -1.4728
 6409SOL    HW230864   1.259   3.379   6.552  2.3973  0.8468 -1.6119
 6410SOL     OW30865   2.952   0.909   2.415 -0.3058 -0.3917 -0.5180
 6410SOL    HW130866   2.877   0.917   2.357 -2.0014 -0.2312  1.7182
 6410SOL    HW230867   2.992   0.825   2.395 -0.2034 -0.3934 -0.3034
 6411SOL     OW30868   1.781   1.739   3.659 -0.3072 -0.2692 -0.7172
 6411SOL    HW130869   1.712   1.787   3.613 -0.8389  0.5783  0.9624
 6411SOL    HW230870   1.856   1.789   3.625  0.6081 -1.0590  0.1256
 6412SOL     OW30871   3.142   4.027   4.143  0.1954 -0.2017  0.1202
 6412SOL    HW130872   3.069   3.965   4.138  0.3128 -0.4813  1.8420
 6412SOL    HW230873   3.189   3.992   4.068 -1.3593  2.0191 -1.8828
 6413SOL     OW30874   3.810   0.078  15.752 -0.1504  0.2192 -0.3917
 6413SOL    HW130875   3.893   0.110  15.717  0.3713 -1.0204 -0.3102
 6413SOL    HW230876   3.804   4.722  15.729 -0.0683  0.8289 -2.9094
 6414SOL     OW30877   3.986   2.405   3.340  0.7678 -0.1461 -0.3886
 6414SOL    HW130878   3.990   2.411   3.245 -0.9037 -0.5002 -0.4849
 6414SOL    HW230879   4.041   2.327   3.352  1.4438  0.6464  1.5600
 6415SOL     OW30880   2.404   4.363   5.502  0.3996 -0.2661  0.4583
 6415SOL    HW130881   2.446   4.383   5.585 -3.9730  0.0657  2.5788
 6415SOL    HW230882   2.383   4.447   5.462  3.4191  1.0102  1.5736
 6416SOL     OW30883   0.391   0.794   8.419  0.1996 -0.8101 -0.3834
 6416SOL    HW130884   0.368   0.741   8.494  1.3600 -0.0551  0.5095
 6416SOL    HW230885   0.376   0.885   8.444  2.8030 -0.2571 -0.7845
 6417SOL     OW30886   0.803   3.338  11.745 -0.4433  0.1079  0.0386
 6417SOL    HW130887   0.812   3.243  11.750 -1.4234  0.1533  2.7085
 6417SOL    HW230888   0.709   3.353  11.756 -0.3611  0.9435 -0.4122
 6418SOL     OW30889   2.872   1.703   7.256  0.7286 -0.1562 -0.3662
 6418SOL    HW130890   2.902   1.692   7.166  1.2768 -1.6082 -0.0075
 6418SOL    HW230891   2.896   1.792   7.281 -1.3268  0.2607  0.1367
 6419SOL     OW30892   3.352   3.524   4.341 -0.6917  0.4321  0.6868
 6419SOL    HW130893   3.447   3.536   4.343 -0.7384  1.1948 -1.3391
 6419SOL    HW230894   3.323   3.481   4.421 -1.7334 -0.7026 -0.3022
 6420SOL     OW30895   3.996   1.868  13.181  0.7139  0.0350  0.0186
 6420SOL    HW130896   3.984   1.916  13.099  1.0918  0.7967  0.4027
 6420SOL    HW230897   3.956   1.784  13.158  0.7910  0.1169 -0.4112
 6421SOL     OW30898   2.581   0.898   0.438 -0.5970 -0.2364  0.3977
 6421SOL    HW130899   2.534   0.954   0.376  0.9215  0.5299 -0.0482
 6421SOL    HW230900   2.542   0.938   0.516  2.2180  1.0482  1.1287
 6422SOL     OW30901   1.701   1.331   4.785 -0.2103 -0.2129 -0.0989
 6422SOL    HW130902   1.738   1.299   4.703  0.1414  3.4557 -1.3485
 6422SOL    HW230903   1.763   1.404   4.797 -1.9219  1.4641 -1.5054
 6423SOL     OW30904   0.920   4.358   5.162  0.1129  0.3275 -0.0613
 6423SOL    HW130905   0.993   4.338   5.103 -0.4721  2.7754 -1.6226
 6423SOL    HW230906   0.890   4.430   5.107  0.1685 -0.0483 -0.5926
 6424SOL     OW30907   2.791   3.097  16.672  0.0181 -0.5829 -0.6124
 6424SOL    HW130908   2.750   3.172  16.716  1.3440 -0.1569 -0.1247
 6424SOL    HW230909   2.825   3.046  16.745 -0.3567 -1.1158 -0.8068
 6425SOL     OW30910   1.923   2.855   8.424  0.5415 -0.2872  0.2307
 6425SOL    HW130911   1.963   2.817   8.502  3.3553  1.1609 -0.4867
 6425SOL    HW230912   1.985   2.818   8.360  1.5071  0.4452  0.7441
 6426SOL     OW30913   2.114   3.453  12.476 -0.5735  0.1032 -0.0944
 6426SOL    HW130914   2.032   3.503  12.468 -0.0736  1.0392  0.6946
 6426SOL    HW230915   2.151   3.482  12.559 -2.9460 -2.8274  1.9706
 6427SOL     OW30916   0.730   2.489   7.334 -0.4065  0.2557 -0.2361
 6427SOL    HW130917   0.640   2.478   7.303 -1.1972 -1.7338  2.8814
 6427SOL    HW230918   0.718   2.535   7.417  0.4689  0.5145 -0.2497
 6428SOL     OW30919   1.034   3.396   4.609 -0.1739  0.6818 -0.6601
 6428SOL    HW130920   1.084   3.344   4.547  1.9319 -0.1244  1.7369
 6428SOL    HW230921   1.066   3.346   4.684  0.0655  2.3859  0.3671
 6429SOL     OW30922   3.356   0.210   7.677  0.0772  0.4847 -0.2873
 6429SOL    HW130923   3.273   0.251   7.702 -0.5049 -1.5795  1.2057
 6429SOL    HW230924   3.355   0.131   7.732 -2.2068  1.1905  0.6797
 6430SOL     OW30925   2.646   2.201   6.693 -0.3000  0.0712 -0.1723
 6430SOL    HW130926   2.688   2.266   6.636  1.7546  0.2493  1.5506
 6430SOL    HW230927   2.659   2.122   6.642  1.2325  0.7568 -0.8290
 6431SOL     OW30928   0.283   2.821   4.010  0.0061  0.2025 -1.1394
 6431SOL    HW130929   0.334   2.853   3.935 -0.3082  0.5849 -1.1851
 6431SOL    HW230930   0.346   2.830   4.082 -1.2958 -0.0638  0.0365
 6432SOL     OW30931   2.159   4.387   7.304 -0.3501  0.0859 -0.1691
 6432SOL    HW130932   2.082   4.438   7.279  0.2469  1.8109  1.5222
 6432SOL    HW230933   2.229   4.451   7.317 -0.4182 -0.3095  2.1647
 6433SOL     OW30934   2.488   0.039  11.529 -0.0216  0.2830  0.5646
 6433SOL    HW130935   2.455   4.699  11.576 -2.2840  0.4387 -0.7722
 6433SOL    HW230936   2.544   0.081  11.595  0.0553 -0.6784  1.1168
 6434SOL     OW30937   3.899   0.126   8.319  0.2120 -0.1271  0.1948
 6434SOL    HW130938   3.888   0.119   8.224 -0.1307 -0.0766  0.2320
 6434SOL    HW230939   3.903   0.031   8.335  1.2163  0.2858  2.3540
 6435SOL     OW30940   0.785   0.599   4.840 -0.1925 -0.1024  0.2835
 6435SOL    HW130941   0.797   0.596   4.745  0.9394  1.5897  0.3686
 6435SOL    HW230942   0.864   0.651   4.859 -0.0613  0.2433 -1.1935
 6436SOL     OW30943   2.393   4.479   8.411 -0.3002 -0.6014  0.0856
 6436SOL    HW130944   2.446   4.551   8.378 -1.2138  0.7309  1.5140
 6436SOL    HW230945   2.404   4.416   8.340 -0.7938 -1.6338  0.9155
 6437SOL     OW30946   4.668   2.016   4.711  0.8465 -0.4132  0.8502
 6437SOL    HW130947   4.685   2.089   4.652  0.2660 -0.0621  1.1160
 6437SOL    HW230948   4.574   2.031   4.720  1.0508  0.8779  0.8470
 6438SOL     OW30949   0.381   2.274  13.150  0.0207  0.1948  0.0194
 6438SOL    HW130950   0.360   2.262  13.243  1.3264  3.3615  0.7117
 6438SOL    HW230951   0.452   2.338  13.148  0.9449 -0.8430 -0.1878
 6439SOL     OW30952   4.575   3.513   4.015 -0.2874  0.0501  0.1653
 6439SOL    HW130953   4.521   3.451   4.063 -1.1374 -0.0919 -0.9815
 6439SOL    HW230954   4.652   3.518   4.072  0.3190 -2.3800 -0.4212
 6440SOL     OW30955   1.330   0.101   4.592 -0.0437 -0.1598 -0.6061
 6440SOL    HW130956   1.319   0.081   4.685  1.6615 -0.8619 -0.5490
 6440SOL    HW230957   1.293   0.186   4.569 -0.8268 -1.0027 -2.5538
 6441SOL     OW30958   2.767   2.191   0.973 -0.1563 -0.5906  0.5681
 6441SOL    HW130959   2.674   2.181   0.992  0.4988 -1.2501  3.3574
 6441SOL    HW230960   2.771   2.283   0.948  0.8838 -0.9958 -0.7675
 6442SOL     OW30961   3.675   0.635  15.945  0.3238  0.0360 -0.3595
 6442SOL    HW130962   3.635   0.696  15.883 -0.3665  2.0241  2.0611
 6442SOL    HW230963   3.603   0.586  15.985  1.6957 -0.6548  1.3107
 6443SOL     OW30964   2.874   2.806   6.710  0.2715  0.0841 -0.0787
 6443SOL    HW130965   2.878   2.891   6.667  2.1482  0.3391  0.5765
 6443SOL    HW230966   2.793   2.777   6.670 -0.2353  3.3480 -1.4085
 6444SOL     OW30967   2.257   1.040  15.617 -0.4731  0.2017  0.2039
 6444SOL    HW130968   2.216   0.985  15.683 -2.5310  1.1866 -0.2582
 6444SOL    HW230969   2.185   1.062  15.557 -0.3647  2.1162  0.7801
 6445SOL     OW30970   1.209   2.898   5.900  0.1073 -0.4572  0.4553
 6445SOL    HW130971   1.180   2.961   5.966 -0.4767 -0.6906  0.4230
 6445SOL    HW230972   1.279   2.845   5.938 -0.5333 -0.5277  1.5526
 6446SOL     OW30973   0.982   1.163   4.978 -0.1143 -0.0251 -0.5510
 6446SOL    HW130974   1.036   1.240   4.997 -1.5068  0.0844  3.0927
 6446SOL    HW230975   0.950   1.179   4.890  0.4039 -2.4250 -1.1778
 6447SOL     OW30976   1.937   3.744   1.402 -0.1001  0.0827 -0.2231
 6447SOL    HW130977   1.902   3.781   1.483 -0.8774 -1.0948 -0.0366
 6447SOL    HW230978   1.855   3.753   1.355 -0.2111 -0.3144 -0.0996
 6448SOL     OW30979   4.179   0.922   7.323  0.1920  0.2214  0.1775
 6448SOL    HW130980   4.143   0.932   7.411  0.3841  0.1188  0.2670
 6448SOL    HW230981   4.130   0.984   7.269  0.6577  1.4011  1.1065
 6449SOL     OW30982   0.503   2.876  14.839  0.2089 -0.2665 -0.0533
 6449SOL    HW130983   0.528   2.802  14.894 -1.2469 -0.7156  0.0183
 6449SOL    HW230984   0.579   2.864  14.783  0.6257  1.8048  0.0511
 6450SOL     OW30985   3.479   2.137   5.529  0.6377 -0.1230  0.0021
 6450SOL    HW130986   3.557   2.180   5.563 -0.0616 -2.0067  3.9119
 6450SOL    HW230987   3.487   2.052   5.573  0.5626 -1.1068 -1.8584
 6451SOL     OW30988   4.642   3.786  11.060  0.3293  0.1461  0.3680
 6451SOL    HW130989   4.555   3.824  11.070  0.5841  0.9526 -0.6169
 6451SOL    HW230990   4.672   3.781  11.151 -0.0088  1.4580  0.5532
 6452SOL     OW30991   0.040   2.975  13.315  0.0587  0.2527  0.0470
 6452SOL    HW130992   0.126   3.018  13.321 -0.4575  1.1634  0.9358
 6452SOL    HW230993   4.718   3.045  13.287 -0.1722 -0.2167 -0.6357
 6453SOL     OW30994   1.908   1.693   7.416 -0.0128  0.4526 -0.0397
 6453SOL    HW130995   2.001   1.715   7.419 -0.0123  0.4022  0.2776
 6453SOL    HW230996   1.868   1.779   7.398 -0.7664 -0.1613 -1.3503
 6454SOL     OW30997   2.285   0.679   4.306 -0.2629 -0.0673 -0.4065
 6454SOL    HW130998   2.295   0.591   4.344 -0.9707  0.6407  1.3850
 6454SOL    HW230999   2.327   0.730   4.375 -1.1895 -0.4178  0.4315
 6455SOL     OW31000   4.535   3.044   9.357 -0.2416 -0.3306  0.0509
 6455SOL    HW131001   4.620   3.035   9.401  0.1183 -1.4138 -0.8673
 6455SOL    HW231002   4.548   3.103   9.283  1.2981 -0.2830  0.3466
 6456SOL     OW31003   2.534   0.465   2.854  0.3251 -0.6764 -0.0606
 6456SOL    HW131004   2.574   0.458   2.941  0.9924 -0.1944 -0.3303
 6456SOL    HW231005   2.617   0.451   2.809  0.8094  0.3877  0.5175
 6457SOL     OW31006   3.110   0.971   5.907  0.1521  0.1981 -0.0865
 6457SOL    HW131007   3.144   0.999   5.822 -2.3240 -2.3737 -1.9223
 6457SOL    HW231008   3.106   1.054   5.954  3.4283  0.1402  0.2807
 6458SOL     OW31009   2.591   2.628   2.032 -0.3292  0.1132  0.1509
 6458SOL    HW131010   2.503   2.617   1.996  0.2994  1.0816 -1.6737
 6458SOL    HW231011   2.641   2.650   1.954  0.3357 -3.6726 -0.4955
 6459SOL     OW31012   0.442   0.611   9.645 -0.8307  0.2501  0.0942
 6459SOL    HW131013   0.480   0.592   9.560  1.3590 -1.6237  1.5054
 6459SOL    HW231014   0.493   0.559   9.707 -0.2005  0.1691 -0.4956
 6460SOL     OW31015   0.008   0.124   3.843 -0.0536  0.0204 -0.0644
 6460SOL    HW131016   4.692   0.138   3.921  0.1282  0.5727 -0.0376
 6460SOL    HW231017   0.081   0.185   3.860 -1.6546  1.4956  1.4461
 6461SOL     OW31018   3.750   2.717   9.052 -0.0558  0.4754 -0.2688
 6461SOL    HW131019   3.843   2.733   9.067  0.5391 -2.9340 -0.4246
 6461SOL    HW231020   3.718   2.804   9.074 -0.3591  0.4982 -0.7903
 6462SOL     OW31021   3.097   0.850  17.584 -0.1077 -0.5551  0.6616
 6462SOL    HW131022   3.149   0.912  17.635 -2.0708  0.2466  1.6969
 6462SOL    HW231023   3.040   0.917  17.546 -0.4463 -1.2609 -0.0731
 6463SOL     OW31024   2.774   2.152   3.728 -1.0082  0.4137 -0.1337
 6463SOL    HW131025   2.746   2.077   3.781 -2.9279  1.8321  0.8388
 6463SOL    HW231026   2.796   2.218   3.794 -1.0125  0.4900 -0.2079
 6464SOL     OW31027   2.341   2.835   0.192  0.2408  0.5603  0.5944
 6464SOL    HW131028   2.330   2.797   0.280  1.5296 -0.0381  0.5029
 6464SOL    HW231029   2.271   2.900   0.197 -0.7435 -0.4094 -0.5384
 6465SOL     OW31030   1.183   3.787   3.623  0.0358 -0.4176 -0.0865
 6465SOL    HW131031   1.124   3.745   3.561 -1.8283  1.2208  0.5773
 6465SOL    HW231032   1.262   3.746   3.588  0.6008  0.3425  0.3097
 6466SOL     OW31033   2.129   4.263   2.546 -0.0061 -0.2156 -0.0041
 6466SOL    HW131034   2.178   4.341   2.523 -0.8983  0.6403  1.0065
 6466SOL    HW231035   2.196   4.194   2.539 -0.1845 -0.3280 -0.6286
 6467SOL     OW31036   1.027   1.081   9.212  0.3156  0.5421  0.6913
 6467SOL    HW131037   1.014   1.046   9.124  0.0869  1.9783  0.1497
 6467SOL    HW231038   0.939   1.110   9.235 -0.2425 -0.2857 -0.3895
 6468SOL     OW31039   2.927   4.467   0.531 -0.2847  0.0785  0.4006
 6468SOL    HW131040   2.931   4.436   0.440  1.3203 -2.8379  1.4676
 6468SOL    HW231041   3.014   4.437   0.555 -0.4269 -1.4534 -0.9617
 6469SOL     OW31042   0.617   0.473   2.768 -0.3232 -0.3165 -0.6860
 6469SOL    HW131043   0.559   0.410   2.812  1.4671 -0.4030  1.5546
 6469SOL    HW231044   0.631   0.526   2.846  1.4267  1.1793 -2.0333
 6470SOL     OW31045   2.232   0.052   4.234 -0.3452 -0.2778 -0.4993
 6470SOL    HW131046   2.299   0.018   4.176 -0.1320  0.6636 -0.8161
 6470SOL    HW231047   2.280   0.076   4.313 -1.4791  0.0398  0.0988
 6471SOL     OW31048   2.973   1.028   7.142 -0.7936  0.0790 -0.7138
 6471SOL    HW131049   2.919   1.092   7.095  0.9656  2.9813  1.2572
 6471SOL    HW231050   3.059   1.069   7.141 -0.4498 -0.5891  1.7762
 6472SOL     OW31051   1.050   1.819   3.371 -0.2660 -0.3485 -0.1751
 6472SOL    HW131052   1.061   1.725   3.385 -1.3662 -0.2566  1.2620
 6472SOL    HW231053   1.070   1.849   3.460  0.0670 -0.1387 -0.3180
 6473SOL     OW31054   4.090   4.283   6.156 -0.4618 -0.0473 -0.0425
 6473SOL    HW131055   4.101   4.356   6.216 -2.3923 -0.7155  1.1206
 6473SOL    HW231056   4.077   4.326   6.072 -1.4631  1.6629  1.0013
 6474SOL     OW31057   0.663   3.898   6.055  0.0623 -0.1261 -0.0081
 6474SOL    HW131058   0.679   3.821   6.109  0.5882 -2.4019 -3.4521
 6474SOL    HW231059   0.680   3.972   6.113  0.0993 -1.2653  1.4309
 6475SOL     OW31060   4.047   4.351   8.361 -0.0854  0.0826  0.0341
 6475SOL    HW131061   3.978   4.285   8.354  0.1390 -0.0692 -0.8164
 6475SOL    HW231062   4.120   4.314   8.310  0.7077  1.5093  0.1091
 6476SOL     OW31063   0.333   2.806  16.300  0.6618 -0.5205 -0.1653
 6476SOL    HW131064   0.388   2.736  16.265  0.6404  0.0959 -1.4228
 6476SOL    HW231065   0.399   2.869  16.273  0.9422 -0.9131 -0.3929
 6477SOL     OW31066   3.718   0.344   6.580 -0.2987 -0.1996 -0.1222
 6477SOL    HW131067   3.763   0.367   6.499  1.3387  0.8259  1.0874
 6477SOL    HW231068   3.642   0.401   6.587 -0.3956 -0.2358 -0.8967
 6478SOL     OW31069   3.376   2.145   4.376 -0.6471  0.1062  0.2546
 6478SOL    HW131070   3.293   2.102   4.356  0.9867 -1.9448 -1.9930
 6478SOL    HW231071   3.372   2.203   4.299  2.0748  1.4502  1.1377
 6479SOL     OW31072   2.307   4.501   3.026 -0.1499 -0.2562 -0.3913
 6479SOL    HW131073   2.391   4.501   3.073  1.0508  0.5148 -2.5444
 6479SOL    HW231074   2.284   4.591   3.002  1.5246 -0.2633 -2.0223
 6480SOL     OW31075   3.825   0.432   2.478 -0.0513  0.3313 -0.2033
 6480SOL    HW131076   3.888   0.413   2.408 -1.3778 -2.3583 -0.6599
 6480SOL    HW231077   3.842   0.524   2.496  2.5763 -0.1139 -0.3655
 6481SOL     OW31078   0.510   0.316   1.280 -0.1428  0.1332 -0.2683
 6481SOL    HW131079   0.458   0.303   1.201 -0.4638  0.5279 -0.1221
 6481SOL    HW231080   0.595   0.340   1.243  0.0289 -0.9786 -0.5974
 6482SOL     OW31081   2.687   0.164   5.585 -0.2436  0.3121 -0.8226
 6482SOL    HW131082   2.592   0.166   5.594 -0.0876  0.2437  0.7863
 6482SOL    HW231083   2.723   0.238   5.633 -1.0395  1.1394 -1.4991
 6483SOL     OW31084   1.679   1.480   5.775 -0.2862  0.1274  0.7482
 6483SOL    HW131085   1.712   1.480   5.865  3.4402  1.0112 -0.6147
 6483SOL    HW231086   1.619   1.407   5.786  1.5318 -1.6928 -1.6360
 6484SOL     OW31087   2.335   4.019  17.454  0.1103  0.3086  0.0077
 6484SOL    HW131088   2.421   3.986  17.429  0.2652 -0.6129  1.7079
 6484SOL    HW231089   2.281   3.976  17.387 -0.1792  1.5063 -0.5199
 6485SOL     OW31090   3.766   0.446   0.235 -0.3438 -0.7893 -0.5660
 6485SOL    HW131091   3.748   0.526   0.185 -0.4354 -0.2116  0.3767
 6485SOL    HW231092   3.802   0.396   0.162  0.4227  0.8150 -1.2812
 6486SOL     OW31093   1.642   0.758   1.317 -0.4440 -0.2670  0.1045
 6486SOL    HW131094   1.657   0.674   1.274  0.2331 -1.1571  2.0758
 6486SOL    HW231095   1.603   0.804   1.242  0.5001  0.6277  0.1589
 6487SOL     OW31096   2.379   4.085   7.686  0.7456  0.2081  0.1867
 6487SOL    HW131097   2.398   4.160   7.743 -0.5953  0.0670  0.8338
 6487SOL    HW231098   2.286   4.077   7.710  0.7753 -0.7006 -0.0044
 6488SOL     OW31099   2.028   4.606   3.993  0.4467  0.2535 -0.1562
 6488SOL    HW131100   2.122   4.595   4.009  0.1818  0.1236  1.3810
 6488SOL    HW231101   1.997   4.515   3.986  0.8635  0.3986 -3.4985
 6489SOL     OW31102   0.459   3.949   9.123  0.1692 -0.8199 -0.0113
 6489SOL    HW131103   0.521   3.985   9.187  0.4384 -0.3391 -0.5466
 6489SOL    HW231104   0.404   4.024   9.103  0.2304 -1.4611 -2.5737
 6490SOL     OW31105   2.552   3.081   6.615  0.3162  0.7330  0.0163
 6490SOL    HW131106   2.460   3.081   6.589  0.3631  0.2188 -0.1376
 6490SOL    HW231107   2.550   3.011   6.681 -0.1974  1.9368  1.2931
 6491SOL     OW31108   2.301   2.851   8.865 -0.1686  0.3216  0.5169
 6491SOL    HW131109   2.362   2.829   8.935 -0.5874  2.5060  1.5651
 6491SOL    HW231110   2.257   2.765   8.865 -0.3133  0.4091 -2.2806
 6492SOL     OW31111   4.245   2.079   8.159  0.2486  0.1486  0.0497
 6492SOL    HW131112   4.171   2.019   8.161  0.4266 -0.0115  1.8635
 6492SOL    HW231113   4.198   2.160   8.176  0.7547  0.8519 -1.8193
 6493SOL     OW31114   3.314   0.826   4.591  0.4037 -0.6389 -0.3418
 6493SOL    HW131115   3.227   0.863   4.577  0.6285  0.8520  2.2521
 6493SOL    HW231116   3.369   0.859   4.519  0.2608  0.9093  0.2513
 6494SOL     OW31117   0.714   4.094   3.805 -0.6872 -0.0585 -0.1544
 6494SOL    HW131118   0.757   4.128   3.727  1.1699 -1.8065  0.1088
 6494SOL    HW231119   0.777   4.032   3.842  1.6315  2.1905 -0.3170
 6495SOL     OW31120   4.599   0.781   8.882  0.0120 -0.3900 -0.3522
 6495SOL    HW131121   4.664   0.724   8.841 -0.8928 -0.7238 -1.3040
 6495SOL    HW231122   4.647   0.863   8.869 -4.0638  1.7437 -1.8924
 6496SOL     OW31123   3.202   0.835  11.755  0.4525 -0.4240 -0.0108
 6496SOL    HW131124   3.149   0.853  11.833 -2.5279 -1.6561 -1.7181
 6496SOL    HW231125   3.284   0.797  11.787  0.5905  0.4725  0.6967
 6497SOL     OW31126   1.049   2.020  17.402 -0.2317 -0.4150 -0.2289
 6497SOL    HW131127   1.024   2.018  17.494  0.7488  0.1079  0.0457
 6497SOL    HW231128   1.001   2.100  17.380  0.0006  0.0424  0.9480
 6498SOL     OW31129   3.954   4.463  12.437 -0.2078  0.0066 -0.2674
 6498SOL    HW131130   4.028   4.411  12.406  0.6715  0.1266  1.5819
 6498SOL    HW231131   3.937   4.520  12.362 -1.1394 -0.6999 -0.5977
 6499SOL     OW31132   1.413   2.223   4.565  0.2400 -0.1467  0.5761
 6499SOL    HW131133   1.470   2.240   4.490  0.8492 -1.1212  0.8068
 6499SOL    HW231134   1.402   2.315   4.587  0.1808  0.0341 -0.2130
 6500SOL     OW31135   3.451   2.959   8.961  0.4310  0.1002 -0.0170
 6500SOL    HW131136   3.452   2.864   8.953 -0.3364  0.0435  0.5656
 6500SOL    HW231137   3.528   2.969   9.016  0.4972  0.1701 -0.1231
 6501SOL     OW31138   1.377   1.200   0.791 -0.9129 -0.2238  0.2775
 6501SOL    HW131139   1.290   1.239   0.798 -0.6747  0.2606  0.5827
 6501SOL    HW231140   1.407   1.233   0.706 -0.3303  1.8632  1.2999
 6502SOL     OW31141   0.456   0.452  17.288  0.0777  0.2243  0.1110
 6502SOL    HW131142   0.519   0.489  17.226  1.3862  0.9561  1.8945
 6502SOL    HW231143   0.379   0.459  17.231 -0.3318 -0.3288  0.6027
 6503SOL     OW31144   0.837   0.996   0.807  0.6761 -0.5578 -0.1609
 6503SOL    HW131145   0.769   0.954   0.754 -0.7779 -1.6752  2.6017
 6503SOL    HW231146   0.815   0.947   0.886  0.3986  0.0852  0.1561
 6504SOL     OW31147   2.049   2.144  13.046  0.5498  0.0264 -0.2082
 6504SOL    HW131148   2.118   2.181  13.100 -0.3181 -0.0412  0.9531
 6504SOL    HW231149   2.035   2.200  12.970 -0.3181  2.5889  1.8287
 6505SOL     OW31150   3.999   0.215  11.982  0.6375  0.4580 -0.3139
 6505SOL    HW131151   4.013   0.309  11.969 -0.7932  0.7091 -0.0250
 6505SOL    HW231152   3.927   0.193  11.924  2.0852 -1.3455 -1.4151
 6506SOL     OW31153   4.213   0.880   4.929 -0.2946  0.1533  0.5003
 6506SOL    HW131154   4.158   0.953   4.956  0.4596  0.9397 -0.0567
 6506SOL    HW231155   4.187   0.808   4.985  0.5441 -0.2539  0.3744
 6507SOL     OW31156   2.513   2.943   1.441 -0.2957  0.4171 -0.0966
 6507SOL    HW131157   2.418   2.953   1.452 -0.3869  0.1497 -0.6426
 6507SOL    HW231158   2.541   2.959   1.530 -1.5887 -1.0631  0.5816
 6508SOL     OW31159   2.383   1.353   2.021 -0.2693 -0.1197 -0.1251
 6508SOL    HW131160   2.296   1.345   2.060  0.0664 -2.7121  0.0663
 6508SOL    HW231161   2.407   1.441   2.049 -1.3420  0.1835 -0.1465
 6509SOL     OW31162   1.708   3.615   8.064  0.2000  0.2835 -0.1922
 6509SOL    HW131163   1.699   3.529   8.106 -1.3664 -0.1467 -1.4038
 6509SOL    HW231164   1.735   3.581   7.979 -0.1989  1.4670 -0.7872
 6510SOL     OW31165   0.318   1.261   7.886 -0.0304 -0.4961 -0.2971
 6510SOL    HW131166   0.401   1.304   7.907 -1.7292  2.5979  0.1689
 6510SOL    HW231167   0.279   1.232   7.969  0.9512  0.1972  0.4121
 6511SOL     OW31168   0.604   1.618  16.231 -0.2243  0.2769 -0.0171
 6511SOL    HW131169   0.671   1.638  16.296 -2.4243  0.3954  2.2363
 6511SOL    HW231170   0.635   1.538  16.190 -0.3841  0.7640 -1.0835
 6512SOL     OW31171   2.079   4.637  13.698 -0.2583 -0.2475  0.3083
 6512SOL    HW131172   2.106   4.558  13.745  1.5663 -0.8381 -1.7413
 6512SOL    HW231173   2.134   4.637  13.620  1.0341  2.3030  1.1968
 6513SOL     OW31174   4.248   2.610   0.696  0.0589 -0.4412  0.5106
 6513SOL    HW131175   4.195   2.667   0.641  1.7667 -1.6189 -2.3618
 6513SOL    HW231176   4.297   2.560   0.631 -0.2141 -0.7230  0.5188
 6514SOL     OW31177   0.766   1.438   2.320  0.1850 -0.2449 -0.4426
 6514SOL    HW131178   0.815   1.368   2.362 -2.0340 -2.7976 -2.1260
 6514SOL    HW231179   0.814   1.427   2.239 -0.9746  0.9794 -1.2995
 6515SOL     OW31180   2.386   2.312   2.268  0.0312  0.3291  0.1565
 6515SOL    HW131181   2.389   2.286   2.176 -0.7104 -0.1908  0.2757
 6515SOL    HW231182   2.290   2.317   2.267 -0.0761 -1.6099  0.5703
 6516SOL     OW31183   1.644   3.128   2.812 -0.2196  0.3266 -0.7433
 6516SOL    HW131184   1.572   3.101   2.869  0.5857  1.5895  0.9056
 6516SOL    HW231185   1.686   3.042   2.805 -2.8907 -1.1689  1.4682
 6517SOL     OW31186   0.582   0.518   7.247  0.1927 -0.0439  0.1966
 6517SOL    HW131187   0.573   0.475   7.332  0.7375  3.8199  2.2243
 6517SOL    HW231188   0.545   0.603   7.272 -1.9892 -0.6538 -1.0195
 6518SOL     OW31189   0.445   1.213   6.769 -0.3210 -0.0365 -0.0484
 6518SOL    HW131190   0.402   1.216   6.684 -0.0234  2.0222 -0.1212
 6518SOL    HW231191   0.393   1.141   6.806 -2.1410  1.6640  0.7327
 6519SOL     OW31192   2.412   1.350   9.688  0.0631 -0.5904 -0.8589
 6519SOL    HW131193   2.436   1.386   9.602  2.1238 -0.5370 -0.2538
 6519SOL    HW231194   2.325   1.385   9.708 -0.9889 -3.6805 -0.0908
 6520SOL     OW31195   1.379   3.233   4.981  0.1133  0.2302  0.3689
 6520SOL    HW131196   1.379   3.261   5.073 -0.2591  0.9350  0.1585
 6520SOL    HW231197   1.463   3.190   4.969 -0.7038 -1.3797  0.4162
 6521SOL     OW31198   0.273   3.660   7.533 -0.2624 -0.1197  0.5747
 6521SOL    HW131199   0.226   3.656   7.616  0.7030 -1.1531  1.0799
 6521SOL    HW231200   0.223   3.719   7.477 -0.0207 -0.4676  0.0031
 6522SOL     OW31201   0.872   4.213   4.244  0.2723 -0.7079 -0.4024
 6522SOL    HW131202   0.863   4.216   4.149  2.3645  1.0897 -0.5268
 6522SOL    HW231203   0.778   4.204   4.259  0.3350 -0.6971  0.0071
 6523SOL     OW31204   1.847   3.600   9.354 -0.6701  0.0036  0.0955
 6523SOL    HW131205   1.888   3.685   9.338 -0.5084 -0.1663 -0.3915
 6523SOL    HW231206   1.844   3.555   9.270 -1.9508 -0.3929  0.3522
 6524SOL     OW31207   1.805   4.013   2.744  0.3677  0.0318  0.2584
 6524SOL    HW131208   1.771   3.924   2.753 -0.0204 -0.0425 -1.7894
 6524SOL    HW231209   1.791   4.053   2.829  1.2214  1.0387 -0.0636
 6525SOL     OW31210   1.119   3.085   8.205 -1.2119 -0.1365  0.3505
 6525SOL    HW131211   1.167   3.009   8.239 -1.7645 -0.0752  1.2643
 6525SOL    HW231212   1.140   3.083   8.112  1.3815 -1.0737  0.9386
 6526SOL     OW31213   3.890   2.948   7.979  0.1183  0.0472 -0.5403
 6526SOL    HW131214   3.859   2.969   7.891  1.4174  1.8834 -0.5627
 6526SOL    HW231215   3.819   2.985   8.032  1.7472 -0.0117  1.6999
 6527SOL     OW31216   0.256   3.775   2.612 -0.4137 -0.3898 -0.1586
 6527SOL    HW131217   0.186   3.770   2.678  1.3611  0.8791  1.8296
 6527SOL    HW231218   0.202   3.789   2.535 -0.7193  0.9955  0.3049
 6528SOL     OW31219   0.897   0.014   8.531  0.2019 -0.2223  0.5357
 6528SOL    HW131220   0.967   4.687   8.514  0.1996 -0.1364  0.2076
 6528SOL    HW231221   0.846   4.692   8.586  1.3381  1.0845  2.9696
 6529SOL     OW31222   0.054   0.831   6.680 -0.4239 -0.1052 -0.1224
 6529SOL    HW131223   0.127   0.882   6.715 -0.3920  0.6483 -1.3074
 6529SOL    HW231224   0.088   0.811   6.593 -0.9357 -0.9708 -0.1191
 6530SOL     OW31225   2.907   1.050   4.919 -0.5770 -0.7893 -0.5093
 6530SOL    HW131226   2.813   1.036   4.907 -0.6358  0.0410 -0.9867
 6530SOL    HW231227   2.919   1.138   4.886  0.1952 -1.0611 -0.9459
 6531SOL     OW31228   0.365   3.633   6.854  0.0803  0.5027  0.5105
 6531SOL    HW131229   0.358   3.702   6.920  0.5658  0.0348  1.0532
 6531SOL    HW231230   0.273   3.607   6.859  0.0609  0.7212  1.2612
 6532SOL     OW31231   3.170   1.971   2.819  0.4146 -0.0898 -0.1177
 6532SOL    HW131232   3.225   2.035   2.773  0.1067  0.8204  0.7819
 6532SOL    HW231233   3.116   1.957   2.741 -0.1433  0.2476  0.2135
 6533SOL     OW31234   2.920   1.411   9.957  0.1807 -0.3025 -0.4732
 6533SOL    HW131235   2.873   1.360   9.891  0.0910 -0.2382 -0.4596
 6533SOL    HW231236   2.851   1.473   9.978  1.8122  1.0692  0.8652
 6534SOL     OW31237   4.378   3.522   3.273 -0.1620  0.4138  0.0441
 6534SOL    HW131238   4.345   3.562   3.193 -1.4917  0.5444  0.6473
 6534SOL    HW231239   4.451   3.472   3.238 -0.9530 -0.3161 -0.5751
 6535SOL     OW31240   3.285   0.300   8.416  0.3185  0.3034  0.2037
 6535SOL    HW131241   3.338   0.308   8.337 -0.4273  0.5624 -0.2663
 6535SOL    HW231242   3.350   0.299   8.486  0.9627  3.2759 -0.3664
 6536SOL     OW31243   1.759   0.139   8.472  0.2927 -0.2432  0.5356
 6536SOL    HW131244   1.789   0.228   8.451  0.6738 -0.7740 -1.2111
 6536SOL    HW231245   1.729   0.163   8.559 -0.8604 -0.1437  0.1114
 6537SOL     OW31246   2.709   2.564   6.985  0.4579  0.0159 -0.0340
 6537SOL    HW131247   2.797   2.593   6.962  0.4021 -1.3992 -2.1503
 6537SOL    HW231248   2.695   2.483   6.935 -0.3929  0.8239 -1.1193
 6538SOL     OW31249   2.697   3.600   3.966  0.7971 -0.1293  0.1585
 6538SOL    HW131250   2.686   3.539   4.039 -1.1155  0.1152  0.0603
 6538SOL    HW231251   2.649   3.674   4.002 -0.9466 -1.1624 -0.0387
 6539SOL     OW31252   0.345   3.600   4.401 -0.2562 -0.4517 -0.5361
 6539SOL    HW131253   0.314   3.688   4.381  1.2173 -0.0547 -1.0163
 6539SOL    HW231254   0.414   3.626   4.462 -1.6959  0.5468  0.6805
 6540SOL     OW31255   3.251   2.023   2.197 -0.3327  0.4887  0.5258
 6540SOL    HW131256   3.305   2.050   2.122 -3.0398  2.1460 -0.8646
 6540SOL    HW231257   3.164   2.061   2.183 -0.5671  0.3666  1.6686
 6541SOL     OW31258   1.356   3.509   7.394  0.1673  0.8242  0.0477
 6541SOL    HW131259   1.419   3.580   7.399  0.7580  0.3007  0.1110
 6541SOL    HW231260   1.322   3.512   7.305  1.2469  2.8175 -0.2860
 6542SOL     OW31261   4.505   3.429   9.703  0.5203  0.3785  0.5148
 6542SOL    HW131262   4.443   3.370   9.660  0.2916  0.5372  0.6267
 6542SOL    HW231263   4.447   3.489   9.751 -2.2188 -0.5219 -1.6536
 6543SOL     OW31264   3.588   4.637   1.250 -0.2394  0.0841 -0.1539
 6543SOL    HW131265   3.508   4.596   1.218 -0.6766  0.8360 -0.0126
 6543SOL    HW231266   3.647   4.633   1.174 -1.4963 -1.3070 -1.0536
 6544SOL     OW31267   3.097   4.381   2.644  0.2684 -0.1143  0.5017
 6544SOL    HW131268   3.151   4.386   2.723 -2.1033 -2.4385  2.2742
 6544SOL    HW231269   3.027   4.323   2.675  1.1323 -0.9267  0.9206
 6545SOL     OW31270   1.547   0.603   1.761 -0.8061 -0.3720  0.0262
 6545SOL    HW131271   1.462   0.638   1.787  0.7173  2.8894  0.6786
 6545SOL    HW231272   1.564   0.554   1.841  0.8441 -0.1619 -0.1772
 6546SOL     OW31273   0.062   0.993   1.914  0.6755  0.1296  0.5166
 6546SOL    HW131274   0.094   1.022   2.000 -2.4747 -0.5855  1.9362
 6546SOL    HW231275   0.007   0.925   1.953  1.5216 -0.7452  0.1822
 6547SOL     OW31276   1.355   1.046  15.336  0.5447 -0.2522  0.4533
 6547SOL    HW131277   1.325   1.088  15.417 -0.5013 -0.8784  0.3909
 6547SOL    HW231278   1.360   0.956  15.368 -0.0380 -0.1484  0.8397
 6548SOL     OW31279   0.383   2.952   8.853  0.2805 -0.1815 -0.8389
 6548SOL    HW131280   0.430   2.894   8.914  1.4852  1.6843  0.0173
 6548SOL    HW231281   0.347   3.008   8.922 -0.7656 -1.9116  0.0177
 6549SOL     OW31282   1.503   4.234   2.215 -0.6041 -0.0798 -0.2775
 6549SOL    HW131283   1.593   4.201   2.210 -0.7878 -0.5254 -0.7286
 6549SOL    HW231284   1.476   4.208   2.303 -1.6567 -0.6670 -0.7718
 6550SOL     OW31285   1.038   0.491   6.283 -0.2965 -0.1865 -0.1645
 6550SOL    HW131286   0.963   0.451   6.328  0.7666 -0.8639  0.9809
 6550SOL    HW231287   1.073   0.549   6.351 -0.3766  0.0329 -0.3080
 6551SOL     OW31288   2.283   3.587   5.462 -0.0445 -0.4183 -0.4319
 6551SOL    HW131289   2.343   3.661   5.475 -1.1813  0.2753  0.9956
 6551SOL    HW231290   2.268   3.592   5.368 -0.1794  0.1653 -0.3791
 6552SOL     OW31291   1.920   4.708   6.797 -0.5373 -0.2378 -0.1152
 6552SOL    HW131292   1.910   0.059   6.762 -2.7315  0.4927  2.3080
 6552SOL    HW231293   1.855   4.702   6.868  0.2687 -3.3840  0.3428
 6553SOL     OW31294   4.161   2.544   4.067  0.6178  0.0667  0.6806
 6553SOL    HW131295   4.212   2.473   4.106  0.3076 -1.0818 -0.9998
 6553SOL    HW231296   4.124   2.499   3.991  2.6566  0.4270 -0.4985
 6554SOL     OW31297   0.441   2.832   4.275 -0.8132 -0.2562 -1.1194
 6554SOL    HW131298   0.449   2.921   4.307  1.3779  0.0197 -2.4627
 6554SOL    HW231299   0.382   2.798   4.342  0.8251  2.3412  1.6306
 6555SOL     OW31300   1.834   2.761   3.954 -0.1960  0.3219  0.1981
 6555SOL    HW131301   1.800   2.672   3.958 -0.0728  0.1978 -1.4054
 6555SOL    HW231302   1.813   2.782   3.863 -0.9194  2.5188  0.8621
 6556SOL     OW31303   2.342   2.918   8.308  0.9118  0.8743 -0.0521
 6556SOL    HW131304   2.360   2.826   8.327  1.9103  1.2330  0.6923
 6556SOL    HW231305   2.426   2.949   8.273  0.8386 -1.6439 -2.4861
 6557SOL     OW31306   3.442   0.443   1.911 -0.2540  0.0172  0.4887
 6557SOL    HW131307   3.417   0.487   1.830 -1.1746 -1.7555 -0.1763
 6557SOL    HW231308   3.491   0.514   1.953 -0.1278 -0.6476  1.4678
 6558SOL     OW31309   1.789   1.933  15.463 -0.6687  0.3260  0.0811
 6558SOL    HW131310   1.818   2.022  15.444  1.8609 -0.6000 -0.4046
 6558SOL    HW231311   1.826   1.914  15.549  1.3576 -0.7066 -1.0068
 6559SOL     OW31312   3.344   3.708   6.733  0.9327  0.0026 -0.2820
 6559SOL    HW131313   3.417   3.763   6.705  0.3860  0.9427  0.1555
 6559SOL    HW231314   3.399   3.635   6.762 -1.2667 -1.8592 -0.7443
 6560SOL     OW31315   0.667   0.549  11.727  0.4423  0.3052 -0.2537
 6560SOL    HW131316   0.606   0.491  11.772 -0.1322 -0.8892 -2.5778
 6560SOL    HW231317   0.602   0.601  11.679  1.5979  2.1010  0.1306
 6561SOL     OW31318   2.717   0.263   7.157 -0.0135  0.2088  0.5581
 6561SOL    HW131319   2.634   0.275   7.203 -0.6400 -1.1570 -0.2000
 6561SOL    HW231320   2.686   0.270   7.067  2.0040 -0.8293 -0.2285
 6562SOL     OW31321   3.317   3.240   4.505  0.3872 -0.7085  0.2771
 6562SOL    HW131322   3.230   3.268   4.474  1.3647  1.0552 -0.8834
 6562SOL    HW231323   3.309   3.191   4.586  2.0016  1.3405  1.6515
 6563SOL     OW31324   3.185   0.830   2.962  0.4832  0.2248  0.3297
 6563SOL    HW131325   3.240   0.785   2.899  0.0652 -1.2463  1.0211
 6563SOL    HW231326   3.239   0.909   2.972 -0.5392  1.1569 -1.6592
 6564SOL     OW31327   3.472   2.210   8.340 -0.1405  0.0363  0.1391
 6564SOL    HW131328   3.448   2.229   8.431 -0.6506 -2.3854  0.5101
 6564SOL    HW231329   3.554   2.260   8.342 -0.1158  0.0719 -2.1224
 6565SOL     OW31330   1.209   4.288  10.811 -0.3089 -0.2098  0.2881
 6565SOL    HW131331   1.188   4.197  10.830  1.2625 -0.8203 -0.9199
 6565SOL    HW231332   1.149   4.295  10.736 -1.6473  1.3085  1.4882
 6566SOL     OW31333   1.178   3.576   5.511 -0.4002  0.4388 -0.2449
 6566SOL    HW131334   1.236   3.626   5.568  0.7059 -0.2102 -0.8171
 6566SOL    HW231335   1.123   3.528   5.574  1.0709 -1.3505 -0.3348
 6567SOL     OW31336   3.979   0.308   2.261  0.2290  0.1824  0.1483
 6567SOL    HW131337   4.030   0.330   2.183 -0.7177  1.3919 -0.1268
 6567SOL    HW231338   4.045   0.252   2.303 -0.5019 -0.2397  0.7278
 6568SOL     OW31339   1.427   4.033   2.688  0.3631  0.0371  0.2235
 6568SOL    HW131340   1.433   3.941   2.714  2.1032  1.0723  3.4264
 6568SOL    HW231341   1.446   4.081   2.768 -0.8783  0.6293  0.1629
 6569SOL     OW31342   3.295   2.485   5.193 -0.2951  0.0615 -0.1127
 6569SOL    HW131343   3.321   2.457   5.281 -2.9327 -1.1931  0.2969
 6569SOL    HW231344   3.377   2.493   5.145 -0.5299 -0.7595 -0.6653
 6570SOL     OW31345   1.639   4.608  16.506 -0.2096  0.4811 -0.3155
 6570SOL    HW131346   1.703   4.538  16.518  0.3818  1.5161  2.6867
 6570SOL    HW231347   1.701   4.679  16.489 -0.9994  1.2087 -0.1371
 6571SOL     OW31348   2.033   0.348   8.242 -0.6132 -0.2172 -0.3031
 6571SOL    HW131349   2.095   0.308   8.181  0.0425 -0.1379  0.3102
 6571SOL    HW231350   2.050   0.295   8.320 -0.2317  0.2423 -0.0813
 6572SOL     OW31351   3.958   2.082   6.271  0.2472  0.6293 -0.1381
 6572SOL    HW131352   3.961   2.177   6.273 -1.2029  0.6730  0.2890
 6572SOL    HW231353   4.047   2.056   6.294 -0.0671 -1.3507 -1.1596
 6573SOL     OW31354   0.477   2.689  12.124 -0.0483 -0.0994 -0.1638
 6573SOL    HW131355   0.463   2.758  12.059 -0.3207 -1.2625 -1.3437
 6573SOL    HW231356   0.562   2.664  12.090  0.2013 -0.6736  0.8948
 6574SOL     OW31357   1.322   2.465   6.099 -0.7806 -0.5430 -0.6043
 6574SOL    HW131358   1.310   2.380   6.141  1.0620 -0.0814  0.8162
 6574SOL    HW231359   1.237   2.470   6.055 -0.5264 -0.2449 -1.0645
 6575SOL     OW31360   4.513   2.450   8.100 -0.3381  0.0311 -0.1730
 6575SOL    HW131361   4.451   2.441   8.028 -0.2442 -0.8953 -0.1356
 6575SOL    HW231362   4.521   2.543   8.121  0.9203  0.1457 -1.1490
 6576SOL     OW31363   2.918   2.676  14.406  0.1722  0.0375 -0.5373
 6576SOL    HW131364   2.991   2.673  14.467  1.1124  1.2884 -1.5847
 6576SOL    HW231365   2.845   2.684  14.467 -0.8605 -3.2190 -1.3402
 6577SOL     OW31366   3.767   4.011  10.249 -0.1949  0.5070 -0.1598
 6577SOL    HW131367   3.700   4.036  10.313 -0.4022  0.4734 -0.3674
 6577SOL    HW231368   3.728   3.932  10.210  1.7859 -0.6972  0.2914
 6578SOL     OW31369   2.309   2.511   4.711 -0.1385  0.1742 -0.3286
 6578SOL    HW131370   2.402   2.488   4.712 -0.0553  0.5314  0.7985
 6578SOL    HW231371   2.302   2.548   4.624  1.7410  0.8636 -0.1780
 6579SOL     OW31372   2.899   2.450  10.894  0.1399 -0.1187  0.0959
 6579SOL    HW131373   2.946   2.373  10.925  0.1598 -1.4685 -3.2522
 6579SOL    HW231374   2.972   2.508  10.917  0.3992  0.2307 -1.5608
 6580SOL     OW31375   3.760   4.058   1.763 -0.1662 -0.5299 -0.3633
 6580SOL    HW131376   3.696   3.993   1.733  2.6384 -2.4200 -2.2186
 6580SOL    HW231377   3.823   4.067   1.692  0.4727 -1.0753  0.1371
 6581SOL     OW31378   4.432   3.131   6.574  0.2334  0.0016 -0.1359
 6581SOL    HW131379   4.374   3.201   6.545  1.5467  2.0637  2.2638
 6581SOL    HW231380   4.478   3.103   6.495 -0.0721  1.4747 -0.8202
 6582SOL     OW31381   4.380   2.016   4.756 -0.1721  1.0709  0.4369
 6582SOL    HW131382   4.310   1.951   4.763  1.2802 -0.4228  0.9607
 6582SOL    HW231383   4.334   2.100   4.746 -2.0075  0.5634  4.3295
 6583SOL     OW31384   3.622   4.375   4.366  0.3029  0.0677 -0.1566
 6583SOL    HW131385   3.536   4.340   4.343 -0.4039  0.9267  1.2198
 6583SOL    HW231386   3.615   4.419   4.450  0.1507  0.9174 -0.6066
 6584SOL     OW31387   3.696   0.770   5.984 -0.3617 -0.1808  0.0551
 6584SOL    HW131388   3.700   0.863   6.005  0.4865 -0.2731  0.3052
 6584SOL    HW231389   3.788   0.751   6.003  0.0783  1.2436 -0.6671
 6585SOL     OW31390   1.528   2.262  11.069 -0.1321 -0.1784  0.1102
 6585SOL    HW131391   1.439   2.284  11.042  0.6454  0.3718 -1.9807
 6585SOL    HW231392   1.545   2.182  11.020  1.6908 -0.9732  2.0195
 6586SOL     OW31393   1.413   2.907   9.075  0.1115 -0.6370  0.1725
 6586SOL    HW131394   1.357   2.955   9.015  0.6457  0.5224  0.5998
 6586SOL    HW231395   1.467   2.869   9.005  0.9478 -1.3911  1.2225
 6587SOL     OW31396   3.132   3.885   2.898 -0.8447  0.4830 -0.0030
 6587SOL    HW131397   3.219   3.885   2.857 -1.7678 -2.3072 -2.0447
 6587SOL    HW231398   3.098   3.814   2.843  0.3573  0.4288 -0.6734
 6588SOL     OW31399   4.698   0.726  14.708  0.2723  0.7069 -0.0070
 6588SOL    HW131400   0.030   0.741  14.643  1.9045  0.9750  1.7956
 6588SOL    HW231401   4.727   0.643  14.746  0.6922  0.1404 -1.5264
 6589SOL     OW31402   1.058   3.950   8.664 -0.2810 -0.2354 -0.0045
 6589SOL    HW131403   1.152   3.951   8.681 -0.6922 -0.3922  2.2691
 6589SOL    HW231404   1.032   3.907   8.746  0.9423 -1.9588 -0.5124
 6590SOL     OW31405   2.347   0.817   4.557 -0.2929 -0.2432  0.1064
 6590SOL    HW131406   2.422   0.782   4.605  1.4356  0.3316 -2.1686
 6590SOL    HW231407   2.289   0.779   4.623 -0.5591 -0.8661 -0.4884
 6591SOL     OW31408   2.522   1.510   2.456 -0.2339 -0.6669 -0.5342
 6591SOL    HW131409   2.539   1.542   2.367  1.3375 -0.1262 -0.0372
 6591SOL    HW231410   2.601   1.466   2.488  1.0523  2.1107  0.0540
 6592SOL     OW31411   0.506   1.204   3.554  0.1780 -0.0016 -0.2715
 6592SOL    HW131412   0.448   1.210   3.477 -0.9469 -1.8464  0.4430
 6592SOL    HW231413   0.589   1.214   3.508 -0.2530 -3.8861 -1.9017
 6593SOL     OW31414   3.702   0.592   3.978 -0.2133  0.4598  0.2407
 6593SOL    HW131415   3.739   0.634   4.056 -0.1677  1.2618 -0.2063
 6593SOL    HW231416   3.719   0.500   3.999  0.8961  0.3182 -1.2770
 6594SOL     OW31417   4.619   0.745   4.149  0.0469 -0.9083  0.0609
 6594SOL    HW131418   4.644   0.667   4.197  0.1447 -1.0077 -0.1527
 6594SOL    HW231419   4.569   0.771   4.226 -0.5577  0.2065 -0.6963
 6595SOL     OW31420   0.551   1.614   6.569 -1.0947 -0.2903 -0.4316
 6595SOL    HW131421   0.589   1.701   6.557  1.9672 -1.9501 -2.9105
 6595SOL    HW231422   0.579   1.575   6.486  0.0068 -0.7245  0.1423
 6596SOL     OW31423   1.308   4.001   9.621 -0.7918  0.0582 -0.7968
 6596SOL    HW131424   1.254   4.081   9.621  0.1630  0.6993  0.6092
 6596SOL    HW231425   1.320   3.994   9.716 -0.0916 -2.3141 -1.0807
 6597SOL     OW31426   1.799   1.111   3.436  0.5202 -0.1563 -0.1529
 6597SOL    HW131427   1.848   1.146   3.510 -0.6607 -0.1820  0.6454
 6597SOL    HW231428   1.768   1.199   3.413 -0.9253 -0.6836 -0.2109
 6598SOL     OW31429   0.658   3.999   9.321  0.2312  0.8680  0.2309
 6598SOL    HW131430   0.661   4.081   9.370 -2.2688 -1.1272  3.6815
 6598SOL    HW231431   0.682   3.936   9.389 -2.6352  0.5111  0.8998
 6599SOL     OW31432   2.100   1.226   6.863 -0.0665 -0.2830 -0.5105
 6599SOL    HW131433   2.144   1.288   6.806 -0.4433 -0.0851 -0.5905
 6599SOL    HW231434   2.012   1.244   6.830 -0.3690 -0.5610  0.1461
 6600SOL     OW31435   0.445   3.081   6.129 -0.0925 -0.6674  0.0338
 6600SOL    HW131436   0.418   3.029   6.053 -0.7119 -0.3668  0.0531
 6600SOL    HW231437   0.357   3.115   6.143 -0.2200 -0.8140 -0.4074
 6601SOL     OW31438   0.395   0.183   6.232 -0.0575  0.4068 -0.6085
 6601SOL    HW131439   0.366   0.268   6.198 -1.7632  0.5580  1.2048
 6601SOL    HW231440   0.334   0.144   6.295  1.5088 -0.4519  0.3637
 6602SOL     OW31441   3.731   2.608   3.739  0.4274 -0.1001  0.2926
 6602SOL    HW131442   3.641   2.634   3.720  0.2697 -1.1944 -0.4646
 6602SOL    HW231443   3.791   2.629   3.667  1.5277  0.3103  1.3329
 6603SOL     OW31444   4.716   0.993  13.350  0.5601 -0.1887  0.1633
 6603SOL    HW131445   4.698   0.917  13.404 -1.5969  0.5484  0.4905
 6603SOL    HW231446   4.634   1.036  13.373  0.2541 -0.6445 -0.0897
 6604SOL     OW31447   2.033   1.056   2.047 -0.4360 -0.7864 -0.6478
 6604SOL    HW131448   1.964   1.093   2.101  1.2982  1.7476 -0.1497
 6604SOL    HW231449   2.003   0.967   2.032 -1.0934 -1.0238  2.1337
 6605SOL     OW31450   1.678   4.542   3.508 -0.2557 -0.1342 -1.3388
 6605SOL    HW131451   1.757   4.595   3.493  0.5875 -0.8658  0.4070
 6605SOL    HW231452   1.643   4.580   3.589  0.9037  0.3783 -1.0626
 6606SOL     OW31453   1.530   4.030  15.214  0.0164  0.2003 -0.2218
 6606SOL    HW131454   1.505   3.943  15.183 -1.0623 -0.0509  1.3613
 6606SOL    HW231455   1.580   4.013  15.294  0.1747  0.4811 -0.2621
 6607SOL     OW31456   3.127   4.648   3.661  0.7467  1.2664  0.2258
 6607SOL    HW131457   3.134   4.604   3.576  0.1866 -0.5913  1.1418
 6607SOL    HW231458   3.110   4.571   3.716  0.4580 -0.4109 -2.2107
 6608SOL     OW31459   1.132   2.812   5.259 -0.3975  0.0790  0.6127
 6608SOL    HW131460   1.161   2.783   5.345  0.0010 -1.1027  0.0848
 6608SOL    HW231461   1.221   2.815   5.223 -0.9775  1.8653 -0.7164
 6609SOL     OW31462   3.561   2.561   5.593  0.3861  0.1147 -0.1812
 6609SOL    HW131463   3.549   2.651   5.622 -1.6333 -0.3564  0.4288
 6609SOL    HW231464   3.656   2.563   5.583  0.7280  0.0406  3.0971
 6610SOL     OW31465   3.483   1.664   2.171  0.2625 -0.3116  0.0068
 6610SOL    HW131466   3.458   1.652   2.263  0.2293 -1.5298 -0.1644
 6610SOL    HW231467   3.508   1.756   2.169  0.6876 -0.3647  1.9480
 6611SOL     OW31468   1.154   1.401   5.497 -0.2291 -0.5008 -0.3523
 6611SOL    HW131469   1.221   1.335   5.514 -0.6699 -1.4315 -2.2638
 6611SOL    HW231470   1.211   1.476   5.478 -1.7853  0.3737 -1.6404
 6612SOL     OW31471   0.435   4.265  14.714 -0.2670  0.3903 -0.1113
 6612SOL    HW131472   0.410   4.320  14.788 -1.1656 -0.3030  0.0973
 6612SOL    HW231473   0.472   4.189  14.758  0.1873  0.8814  0.3475
 6613SOL     OW31474   3.499   0.890   2.899 -0.1645 -0.1544  0.1397
 6613SOL    HW131475   3.562   0.897   2.827 -0.7709 -1.0246 -0.4906
 6613SOL    HW231476   3.455   0.975   2.893  0.4932  0.0736 -1.5659
 6614SOL     OW31477   0.627   0.299   7.801  0.2738  0.3021 -1.0547
 6614SOL    HW131478   0.702   0.244   7.825  0.1185  0.8582  0.6849
 6614SOL    HW231479   0.678   0.372   7.765  0.3650  0.7865  0.0386
 6615SOL     OW31480   2.766   3.030  13.966  0.3522  0.4773  0.1703
 6615SOL    HW131481   2.685   2.982  13.984 -0.8124  1.9813 -1.0249
 6615SOL    HW231482   2.733   3.117  13.941 -0.2127  0.4236  0.7305
 6616SOL     OW31483   3.028   2.770  17.408  0.3023  0.2538  0.6123
 6616SOL    HW131484   2.996   2.764  17.498 -1.0436 -4.6347 -0.2101
 6616SOL    HW231485   2.995   2.689  17.371 -0.9205  0.9771  0.1200
 6617SOL     OW31486   3.320   0.907  13.535 -0.2876  0.0597 -0.0640
 6617SOL    HW131487   3.389   0.880  13.475 -1.7856 -0.8809 -1.3620
 6617SOL    HW231488   3.346   0.853  13.609  1.7176  0.1055 -0.7339
 6618SOL     OW31489   2.417   0.317   3.717  0.3682  0.1996  0.0913
 6618SOL    HW131490   2.351   0.265   3.763  0.1686  1.6878  1.4493
 6618SOL    HW231491   2.421   0.267   3.635  0.3082 -1.8716  1.3447
 6619SOL     OW31492   0.411   1.337  14.169  0.0124  0.1963 -0.1032
 6619SOL    HW131493   0.379   1.302  14.085 -0.9874 -1.3318  0.9275
 6619SOL    HW231494   0.475   1.396  14.129 -2.2482  0.3286 -3.5645
 6620SOL     OW31495   0.083   1.074   4.880 -0.5560 -0.4751  0.7097
 6620SOL    HW131496   0.159   1.127   4.858  0.4198 -2.0737  0.2777
 6620SOL    HW231497   0.070   1.011   4.809  0.1181 -0.2251  0.3697
 6621SOL     OW31498   0.053   0.197  13.280  0.3302  0.6001 -0.7334
 6621SOL    HW131499   0.115   0.262  13.247  0.1037  0.9695 -0.4331
 6621SOL    HW231500   0.098   0.117  13.252  1.9124  0.6071  1.7642
 6622SOL     OW31501   4.678   3.804   1.112  0.1856 -0.7716 -0.6088
 6622SOL    HW131502   4.601   3.792   1.057 -1.2013 -0.7942  1.3529
 6622SOL    HW231503   4.732   3.855   1.050  1.8238 -0.3984  1.1466
 6623SOL     OW31504   0.278   1.920   9.255  0.2505 -0.3794  0.3388
 6623SOL    HW131505   0.350   1.862   9.281 -0.2610 -1.3147 -0.3494
 6623SOL    HW231506   0.246   1.919   9.346 -1.1689 -0.8187 -0.1634
 6624SOL     OW31507   3.840   3.395   2.057 -0.2110 -0.6368 -0.5728
 6624SOL    HW131508   3.878   3.308   2.049  1.2645 -0.2057  2.0430
 6624SOL    HW231509   3.819   3.404   2.150  0.6682  0.7154 -0.5039
 6625SOL     OW31510   2.462   2.463   5.846  0.8113 -0.1547  0.1204
 6625SOL    HW131511   2.437   2.518   5.772 -0.8529  0.2682  1.0036
 6625SOL    HW231512   2.441   2.531   5.910 -0.7795  1.0159 -1.6692
 6626SOL     OW31513   1.408   0.959   2.964 -0.3934 -0.3668  0.2565
 6626SOL    HW131514   1.492   0.972   2.920  0.1538 -2.5913  0.6725
 6626SOL    HW231515   1.385   0.867   2.954 -0.6176 -0.2606 -0.2251
 6627SOL     OW31516   3.051   3.134   5.839 -0.4716  0.1226  0.1375
 6627SOL    HW131517   3.017   3.215   5.878  0.9138  0.2037  1.2026
 6627SOL    HW231518   2.973   3.079   5.843 -0.0081 -0.6121 -0.7774
 6628SOL     OW31519   3.245   0.736   3.383  0.4327  0.0073 -0.2697
 6628SOL    HW131520   3.313   0.796   3.354  0.2498 -0.0785 -0.8646
 6628SOL    HW231521   3.239   0.686   3.302 -1.0822  0.6980 -0.5974
 6629SOL     OW31522   3.408   4.412   2.568  0.3827  0.1622 -0.1353
 6629SOL    HW131523   3.342   4.343   2.562 -0.4860  1.1021 -1.4265
 6629SOL    HW231524   3.463   4.379   2.498  0.0529  0.9347 -0.7586
 6630SOL     OW31525   4.540   3.595   3.748 -0.6180 -0.0560 -1.1031
 6630SOL    HW131526   4.574   3.512   3.715 -0.6745 -0.3866 -0.3292
 6630SOL    HW231527   4.524   3.563   3.837  1.3906  1.9492 -0.0322
 6631SOL     OW31528   0.215   3.136  11.181 -0.1873  0.3285  0.0225
 6631SOL    HW131529   0.226   3.074  11.254  2.4717  0.7993  0.0082
 6631SOL    HW231530   0.189   3.215  11.228 -0.7374 -0.0333  0.3238
 6632SOL     OW31531   2.297   3.282   7.205  0.8779 -0.0942  0.7757
 6632SOL    HW131532   2.238   3.210   7.227 -0.6662  2.0059  3.4102
 6632SOL    HW231533   2.229   3.348   7.192  0.1111 -0.6700  1.8523
 6633SOL     OW31534   4.373   0.302   6.367  0.1082  0.3761 -0.6526
 6633SOL    HW131535   4.366   0.371   6.433 -2.6666 -0.1794 -0.3752
 6633SOL    HW231536   4.298   0.327   6.313  1.2124  0.4689 -2.1623
 6634SOL     OW31537   1.381   3.921   6.130  0.1996 -0.1533 -0.4410
 6634SOL    HW131538   1.356   3.965   6.211  1.8687 -0.2569  0.1180
 6634SOL    HW231539   1.337   3.983   6.072  1.1073  0.8479 -0.0547
 6635SOL     OW31540   1.406   1.325   2.450  0.2956  0.1337  0.1305
 6635SOL    HW131541   1.376   1.409   2.485  0.0582  0.6944 -1.4097
 6635SOL    HW231542   1.324   1.278   2.433  0.1800  0.7247 -0.9153
 6636SOL     OW31543   3.188   3.415   4.955  0.1757 -0.3161 -0.1202
 6636SOL    HW131544   3.108   3.393   5.004  1.3288 -0.4207  1.7347
 6636SOL    HW231545   3.210   3.337   4.904  0.3281  1.2878 -2.4909
 6637SOL     OW31546   0.677   0.861   8.785 -0.2874 -0.4782  0.2803
 6637SOL    HW131547   0.689   0.866   8.690 -0.0633 -0.7397  0.2946
 6637SOL    HW231548   0.609   0.794   8.793 -0.4398 -0.1399  1.8042
 6638SOL     OW31549   1.560   2.056  10.896  0.3117  0.0660 -0.2554
 6638SOL    HW131550   1.647   2.030  10.865 -1.1787 -2.6570 -2.1783
 6638SOL    HW231551   1.525   2.106  10.823  1.2926  1.7884  0.4656
 6639SOL     OW31552   2.959   3.324  12.619  0.0295  0.0106  0.0139
 6639SOL    HW131553   2.953   3.415  12.646  1.0283 -0.2560  1.1827
 6639SOL    HW231554   2.990   3.280  12.698  0.9828  0.2839 -0.2050
 6640SOL     OW31555   2.301   1.839   5.050  0.3658 -0.1292 -0.2183
 6640SOL    HW131556   2.265   1.894   5.120  1.4757  1.0553 -0.5840
 6640SOL    HW231557   2.243   1.763   5.056 -0.7047  0.7420  0.5764
 6641SOL     OW31558   3.553   0.520   5.440 -0.2741 -0.1874  0.1168
 6641SOL    HW131559   3.474   0.566   5.414  1.3131  1.0804 -2.4496
 6641SOL    HW231560   3.597   0.589   5.489  1.3325 -0.0462 -1.5203
 6642SOL     OW31561   3.352   2.513   5.782  0.1278 -0.2786 -0.1137
 6642SOL    HW131562   3.402   2.592   5.802 -1.4262 -0.2598  3.5391
 6642SOL    HW231563   3.283   2.530   5.846 -0.1555  2.7950 -1.2242
 6643SOL     OW31564   3.982   1.399   5.159 -0.5944  0.4850  0.4520
 6643SOL    HW131565   4.060   1.454   5.157 -0.3964  0.2295  1.1502
 6643SOL    HW231566   4.010   1.309   5.143  1.5585  1.1995  0.3019
 6644SOL     OW31567   0.817   0.329   3.680 -0.2538  0.0481  0.3232
 6644SOL    HW131568   0.725   0.309   3.664  0.1843 -1.3440 -0.5143
 6644SOL    HW231569   0.856   0.325   3.593 -0.0152 -0.9544  0.4764
 6645SOL     OW31570   2.270   3.745   2.613 -0.5703 -0.4305  0.5339
 6645SOL    HW131571   2.207   3.673   2.615 -0.1035 -0.8265  0.9241
 6645SOL    HW231572   2.213   3.819   2.636  1.3448  0.7839  1.3805
 6646SOL     OW31573   0.973   0.649   5.182  0.2377  0.3190  0.0310
 6646SOL    HW131574   1.012   0.637   5.095  0.8664  1.8637  0.1105
 6646SOL    HW231575   0.882   0.660   5.156  0.5538 -0.5267 -1.4581
 6647SOL     OW31576   4.543   1.629  17.614 -0.0393 -0.3280 -0.4713
 6647SOL    HW131577   4.589   1.629  17.530 -0.5178  0.9685 -0.7393
 6647SOL    HW231578   4.554   1.535  17.628 -1.3898 -0.4279 -0.0396
 6648SOL     OW31579   2.013   1.420   3.182 -0.4626 -0.0788  0.2967
 6648SOL    HW131580   1.992   1.431   3.275 -0.3244 -2.1009  0.5617
 6648SOL    HW231581   1.968   1.340   3.156 -1.2787  0.5427 -0.2177
 6649SOL     OW31582   3.171   3.874  15.845  0.1009  0.0170 -0.1380
 6649SOL    HW131583   3.215   3.928  15.912 -1.6502  0.8514  0.3592
 6649SOL    HW231584   3.094   3.929  15.827 -1.5330 -2.9378 -2.0250
 6650SOL     OW31585   4.395   1.710   8.574  0.1222 -1.0717  0.0833
 6650SOL    HW131586   4.480   1.677   8.545 -0.1379 -0.6310 -1.1775
 6650SOL    HW231587   4.418   1.790   8.622 -1.2443 -0.3338 -0.5310
 6651SOL     OW31588   1.547   3.014   3.299  0.6755 -0.2083 -0.1638
 6651SOL    HW131589   1.551   3.107   3.318 -1.6190  0.4753 -2.9821
 6651SOL    HW231590   1.486   2.982   3.365  0.0488  2.3224  0.4751
 6652SOL     OW31591   0.143   4.074   5.088  0.2698  0.1770  0.1847
 6652SOL    HW131592   0.225   4.122   5.077  0.4916  0.0185  1.0932
 6652SOL    HW231593   0.144   4.051   5.181 -0.1708  1.7067  0.5654
 6653SOL     OW31594   2.908   1.570  16.298 -0.2162 -0.0397 -0.2635
 6653SOL    HW131595   2.905   1.586  16.392  3.1470 -0.4193 -0.0871
 6653SOL    HW231596   2.932   1.658  16.268  0.3078 -0.1195 -0.0792
 6654SOL     OW31597   0.663   1.205   5.829  0.2212 -0.6389  0.5029
 6654SOL    HW131598   0.715   1.236   5.755 -1.1910 -1.4078 -0.7925
 6654SOL    HW231599   0.646   1.118   5.793  0.9507 -0.6685  0.2193
 6655SOL     OW31600   0.532   2.645   3.341  0.1977 -0.0827 -0.2019
 6655SOL    HW131601   0.448   2.644   3.386  0.1474 -2.8861 -0.3425
 6655SOL    HW231602   0.558   2.737   3.344 -3.7567  1.0529 -1.6580
 6656SOL     OW31603   3.111   4.358  13.780  0.2486 -0.6373  0.2459
 6656SOL    HW131604   3.152   4.274  13.803  1.5822  0.1659  0.7834
 6656SOL    HW231605   3.020   4.343  13.805 -0.0626  0.3605 -0.3160
 6657SOL     OW31606   4.062   0.059  10.839  0.4254  0.3847  0.5495
 6657SOL    HW131607   4.000   0.106  10.895  0.9194 -1.1452  2.3903
 6657SOL    HW231608   4.138   0.115  10.854  0.5460  0.5099 -0.5369
 6658SOL     OW31609   1.760   0.837   4.369 -0.0579  0.2008  0.3768
 6658SOL    HW131610   1.792   0.901   4.305  0.2833 -0.6914 -0.3645
 6658SOL    HW231611   1.827   0.768   4.368  0.5927  0.8512 -1.1819
 6659SOL     OW31612   0.095   0.682  11.086  0.4793 -0.7384 -0.2518
 6659SOL    HW131613   0.012   0.667  11.039  0.6935  0.7537 -1.1018
 6659SOL    HW231614   0.081   0.634  11.168 -0.9477 -2.2765 -1.3795
 6660SOL     OW31615   4.547   1.204   2.239  0.2690 -0.3801 -0.1615
 6660SOL    HW131616   4.565   1.297   2.252 -0.8819 -0.0249 -1.1116
 6660SOL    HW231617   4.636   1.170   2.227  0.1143 -0.5697 -0.7639
 6661SOL     OW31618   3.068   1.890   0.243  0.2711  0.1334  0.3770
 6661SOL    HW131619   3.031   1.852   0.163  0.0985 -0.5343  0.7742
 6661SOL    HW231620   3.107   1.973   0.217  2.7964 -1.8028 -2.0550
 6662SOL     OW31621   4.466   4.033  16.988  0.3670  0.0346 -0.2676
 6662SOL    HW131622   4.528   4.077  16.929  1.5076 -0.4351  0.5803
 6662SOL    HW231623   4.397   4.011  16.925  1.0026  1.9204 -1.6070
 6663SOL     OW31624   2.387   2.831   5.464 -0.3456 -0.1473 -0.3284
 6663SOL    HW131625   2.301   2.804   5.430 -0.4693 -1.1636  0.7733
 6663SOL    HW231626   2.407   2.912   5.417 -3.2605 -0.1153 -1.4893
 6664SOL     OW31627   1.705   1.654   4.865 -0.2162 -0.3472 -0.6395
 6664SOL    HW131628   1.690   1.683   4.775  1.5358 -1.4927 -1.2796
 6664SOL    HW231629   1.657   1.716   4.920  0.0547 -0.4729 -0.2622
 6665SOL     OW31630   4.598   0.721   8.118 -0.9495 -0.3179  0.3099
 6665SOL    HW131631   4.590   0.816   8.131  1.5166  0.0826 -1.1452
 6665SOL    HW231632   4.619   0.717   8.025 -2.5857  1.8340 -0.1608
 6666SOL     OW31633   0.496   0.513   3.265  1.1439  0.4034  0.2677
 6666SOL    HW131634   0.451   0.540   3.344  1.5561  0.7625  0.3832
 6666SOL    HW231635   0.441   0.442   3.234  1.9657  0.0512 -0.4090
 6667SOL     OW31636   1.209   0.253   6.643  0.0793  0.0865 -0.1772
 6667SOL    HW131637   1.264   0.187   6.683 -0.1266  0.9369  1.4834
 6667SOL    HW231638   1.120   0.219   6.657  0.1207  0.8118  1.7259
 6668SOL     OW31639   2.691   3.064  15.957 -0.1482 -0.1972 -0.3132
 6668SOL    HW131640   2.774   3.022  15.932 -0.9599 -0.8619 -1.9389
 6668SOL    HW231641   2.693   3.072  16.052  0.2986 -1.8705 -0.1812
 6669SOL     OW31642   0.938   4.585   2.110 -0.3463 -0.5304  0.2314
 6669SOL    HW131643   0.844   4.570   2.126 -0.8764  1.1958 -1.2629
 6669SOL    HW231644   0.936   4.601   2.016 -0.5036  1.3893  0.5725
 6670SOL     OW31645   4.464   2.696   3.847  0.7233  0.6078 -0.6348
 6670SOL    HW131646   4.544   2.703   3.898  0.3471 -0.0523  0.0581
 6670SOL    HW231647   4.407   2.744   3.906  0.1068  1.8917 -2.2767
 6671SOL     OW31648   1.757   2.004  11.308  0.0489  0.2313  0.0232
 6671SOL    HW131649   1.728   1.975  11.395 -1.0293  1.4664  0.0740
 6671SOL    HW231650   1.689   1.956  11.260  0.2901 -1.1399  1.0293
 6672SOL     OW31651   3.838   2.956   1.889  0.2404  0.5520 -0.5305
 6672SOL    HW131652   3.751   2.995   1.896  0.1775 -0.0596  1.9207
 6672SOL    HW231653   3.881   2.995   1.965  1.1868 -2.0742  0.2540
 6673SOL     OW31654   1.698   0.120   2.754 -0.3231 -0.2506 -0.1213
 6673SOL    HW131655   1.614   0.157   2.728 -0.3389 -1.9260 -2.5198
 6673SOL    HW231656   1.751   0.117   2.674  0.2417 -1.5054  0.2974
 6674SOL     OW31657   2.783   3.057   5.788  0.4997 -0.4838  0.0455
 6674SOL    HW131658   2.786   2.962   5.776  0.9228 -0.5913  0.9639
 6674SOL    HW231659   2.698   3.073   5.828  0.7649 -0.8544  0.7618
 6675SOL     OW31660   2.902   0.435   8.012 -0.1380 -0.0332 -0.0717
 6675SOL    HW131661   2.951   0.396   8.084  1.2907  1.0701 -0.4404
 6675SOL    HW231662   2.962   0.506   7.989 -0.5231  0.4597  0.4543
 6676SOL     OW31663   0.796   3.921   5.820 -0.1731  0.2236  0.2938
 6676SOL    HW131664   0.737   3.898   5.892 -0.4418  1.0478  0.3474
 6676SOL    HW231665   0.844   3.990   5.866  1.9418 -2.0729  1.4441
 6677SOL     OW31666   0.413   0.093  11.948 -0.0896  0.2683 -0.6904
 6677SOL    HW131667   0.421   0.061  11.858  0.8700 -0.4238 -0.3499
 6677SOL    HW231668   0.441   0.183  11.930  0.8060  0.0695 -0.2463
 6678SOL     OW31669   1.053   1.212   3.861  0.2600  0.3582  0.5710
 6678SOL    HW131670   0.980   1.257   3.903  0.3974  1.2500 -0.1554
 6678SOL    HW231671   1.101   1.275   3.808  2.0712 -1.0952  0.4858
 6679SOL     OW31672   1.650   3.483  15.233  0.3369  0.2469  0.1105
 6679SOL    HW131673   1.719   3.511  15.174  0.7798 -0.3456  0.3353
 6679SOL    HW231674   1.698   3.508  15.312  0.7111  0.4493 -0.1843
 6680SOL     OW31675   0.959   4.051   0.775  0.2116 -0.0030  0.2616
 6680SOL    HW131676   0.991   3.975   0.726 -0.5587  0.7002 -1.3222
 6680SOL    HW231677   0.868   4.044   0.746 -0.7292  2.6021  2.5403
 6681SOL     OW31678   1.873   4.328  10.908 -0.1092 -0.1906  0.1688
 6681SOL    HW131679   1.924   4.400  10.944  1.5861 -1.4151  0.2017
 6681SOL    HW231680   1.931   4.295  10.839 -0.3942 -1.7248  0.6480
 6682SOL     OW31681   1.277   1.074  16.539 -0.1151  0.0434 -0.6033
 6682SOL    HW131682   1.259   1.167  16.524 -1.4921 -0.0829  0.3751
 6682SOL    HW231683   1.221   1.052  16.612  0.6933 -2.8046 -0.8575
 6683SOL     OW31684   0.750   3.338   6.926  0.2098  0.4642 -0.3230
 6683SOL    HW131685   0.715   3.249   6.927 -0.0928  0.6142  1.8156
 6683SOL    HW231686   0.686   3.381   6.982 -1.0342 -0.1096 -1.3281
 6684SOL     OW31687   2.266   2.045  13.405  0.0435 -0.1258 -0.3076
 6684SOL    HW131688   2.245   2.056  13.313 -0.7317  0.1276 -0.0959
 6684SOL    HW231689   2.353   2.005  13.408 -0.9226 -2.3197 -1.6319
 6685SOL     OW31690   2.503   3.734   4.109 -0.2415 -0.6643 -0.0331
 6685SOL    HW131691   2.453   3.685   4.175 -1.0197 -2.6230 -2.0847
 6685SOL    HW231692   2.430   3.777   4.064  1.4583  2.0462 -0.1754
 6686SOL     OW31693   4.414   2.689  12.844 -0.7039 -0.6027 -0.0213
 6686SOL    HW131694   4.388   2.763  12.789 -0.9073  0.3755  1.3815
 6686SOL    HW231695   4.409   2.725  12.932  1.4290 -0.8731  0.1964
 6687SOL     OW31696   0.101   4.520  17.117 -0.6447  0.3523 -0.0996
 6687SOL    HW131697   0.033   4.467  17.075  1.4245 -1.3145 -1.2990
 6687SOL    HW231698   0.058   4.590  17.166 -1.4534 -0.0700 -0.2026
 6688SOL     OW31699   4.495   3.381   8.420  0.1527  0.3042  0.2638
 6688SOL    HW131700   4.560   3.446   8.392  0.9335 -1.5345 -2.2281
 6688SOL    HW231701   4.418   3.413   8.374 -0.2057  0.7654  1.1922
 6689SOL     OW31702   1.416   3.135  15.149 -0.6249  0.4059 -0.0114
 6689SOL    HW131703   1.334   3.088  15.132  0.7683 -2.1162  0.2299
 6689SOL    HW231704   1.393   3.227  15.138 -0.1395  0.5122 -0.1539
 6690SOL     OW31705   2.222   2.501   9.593  0.0275  0.0277  0.4291
 6690SOL    HW131706   2.189   2.415   9.567  0.4745  0.0186 -0.1242
 6690SOL    HW231707   2.140   2.547   9.607  2.2673  4.6014 -1.5652
 6691SOL     OW31708   2.506   3.412   0.567  0.2412  0.4567  0.0783
 6691SOL    HW131709   2.472   3.482   0.622 -2.4627 -1.6189  1.0770
 6691SOL    HW231710   2.559   3.457   0.501  2.2222  0.1764  1.4860
 6692SOL     OW31711   4.016   0.699  16.952  0.1380  0.2284  0.5398
 6692SOL    HW131712   4.071   0.743  16.888 -2.2385  1.4792 -0.6193
 6692SOL    HW231713   3.937   0.708  16.899 -0.9430  3.2553  2.6491
 6693SOL     OW31714   2.841   2.195   5.042 -0.1601 -0.1248 -0.1789
 6693SOL    HW131715   2.894   2.236   5.110  0.5419  0.6262 -1.1771
 6693SOL    HW231716   2.799   2.120   5.086 -0.0390  0.1225  0.3617
 6694SOL     OW31717   1.562   2.684   8.621 -0.1000 -0.0331 -0.0103
 6694SOL    HW131718   1.523   2.766   8.589 -1.4519 -0.0985  1.4925
 6694SOL    HW231719   1.488   2.637   8.659  0.7596 -0.4126  1.2037
 6695SOL     OW31720   3.064   2.980   8.235  0.0586 -0.8211 -0.2063
 6695SOL    HW131721   3.014   2.899   8.223 -0.5189 -0.1822 -2.0554
 6695SOL    HW231722   3.063   3.000   8.329 -0.5803 -0.9351 -0.1922
 6696SOL     OW31723   0.245   1.090  13.375 -0.3314  0.4885 -0.1290
 6696SOL    HW131724   0.154   1.065  13.359 -0.1700  0.5609 -1.1758
 6696SOL    HW231725   0.298   1.011  13.362 -1.5031 -0.1899 -0.7936
 6697SOL     OW31726   1.220   1.489   9.007  0.0069  0.4618  0.1314
 6697SOL    HW131727   1.285   1.558   9.021  1.8233 -0.8275 -2.0086
 6697SOL    HW231728   1.260   1.412   9.049 -1.0233 -1.2432 -2.0018
 6698SOL     OW31729   4.397   0.354   7.590 -0.0082 -0.4070 -0.2685
 6698SOL    HW131730   4.488   0.364   7.618 -0.4114 -2.8304  1.8891
 6698SOL    HW231731   4.361   0.427   7.641 -0.9538 -0.8736 -0.2686
 6699SOL     OW31732   0.758   0.566   3.906  0.1214 -0.3919  0.3615
 6699SOL    HW131733   0.706   0.513   3.845 -0.2126 -0.4315  0.6797
 6699SOL    HW231734   0.823   0.500   3.930  0.0168 -0.1863  1.1954
 6700SOL     OW31735   0.602   0.334  10.803 -0.4523  0.4092  0.7733
 6700SOL    HW131736   0.586   0.240  10.815 -1.3874  0.7308  2.0942
 6700SOL    HW231737   0.624   0.352  10.895 -1.4839 -1.5653  1.4310
 6701SOL     OW31738   0.211   0.976   9.596  0.6529  0.5486 -0.4588
 6701SOL    HW131739   0.136   1.026   9.564  1.5711  1.0023 -1.9386
 6701SOL    HW231740   0.286   1.027   9.565  0.6485 -0.1716 -1.6536
 6702SOL     OW31741   4.172   3.679   3.857  0.0382 -0.3423 -0.0724
 6702SOL    HW131742   4.112   3.748   3.830 -0.1106  0.1030  1.4216
 6702SOL    HW231743   4.214   3.723   3.930  0.9847 -0.6394 -0.4293
 6703SOL     OW31744   1.590   0.857  14.067 -0.5192  0.1120 -0.2860
 6703SOL    HW131745   1.581   0.858  13.972  1.3174 -2.3422 -0.4951
 6703SOL    HW231746   1.505   0.877  14.106  0.0908  0.6117  0.7868
 6704SOL     OW31747   2.714   3.437   7.518 -0.0674  0.1642 -0.0507
 6704SOL    HW131748   2.683   3.352   7.488  0.4712 -0.1423  0.2602
 6704SOL    HW231749   2.641   3.474   7.567 -0.7474  1.2254 -1.8549
 6705SOL     OW31750   0.189   3.700   5.073  0.0886 -0.1897  0.5943
 6705SOL    HW131751   0.094   3.708   5.082 -0.1343 -1.2831 -0.6732
 6705SOL    HW231752   0.204   3.749   5.154  0.7806 -1.0321  0.9745
 6706SOL     OW31753   2.402   2.247   1.906 -0.3274  0.6191  0.2892
 6706SOL    HW131754   2.375   2.338   1.909  3.5389  1.7533  0.2714
 6706SOL    HW231755   2.405   2.228   1.812  0.7295  2.8159 -0.1189
 6707SOL     OW31756   0.767   3.444  10.076 -0.0947  0.2715  0.2094
 6707SOL    HW131757   0.684   3.426  10.122 -0.7354  1.0177 -0.6744
 6707SOL    HW231758   0.829   3.409  10.141 -1.4175 -1.0039  0.7883
 6708SOL     OW31759   3.462   3.107   7.730  0.4638 -0.0284 -0.0637
 6708SOL    HW131760   3.547   3.134   7.695  0.9675 -2.4625 -0.7124
 6708SOL    HW231761   3.455   3.017   7.699 -1.5200  0.2400 -0.3907
 6709SOL     OW31762   3.213   4.651  12.955  0.5620  0.2198 -0.6050
 6709SOL    HW131763   3.246   0.001  12.930  0.6805  0.9147  1.9853
 6709SOL    HW231764   3.289   4.598  12.981 -0.5071 -0.6529  0.7420
 6710SOL     OW31765   1.543   2.245   9.170  0.2797  0.4586 -0.4396
 6710SOL    HW131766   1.465   2.281   9.212 -0.0768 -1.4356  0.5014
 6710SOL    HW231767   1.611   2.283   9.225 -0.9826  3.5703 -1.0391
 6711SOL     OW31768   2.761   2.356   8.707  0.2132 -0.3947 -0.6714
 6711SOL    HW131769   2.800   2.393   8.787 -1.9222  1.4523 -0.4998
 6711SOL    HW231770   2.827   2.370   8.639  1.0902 -0.8555  0.0797
 6712SOL     OW31771   2.486   2.058   9.173 -0.0738 -0.2357  0.2725
 6712SOL    HW131772   2.521   2.084   9.088 -1.5597 -0.1653 -0.3027
 6712SOL    HW231773   2.431   2.132   9.197  0.6748  0.3871  0.0670
 6713SOL     OW31774   4.250   1.487   5.802  0.1668 -0.2430 -0.1154
 6713SOL    HW131775   4.260   1.524   5.890  0.4389 -2.9682  1.0039
 6713SOL    HW231776   4.204   1.554   5.752  0.3243 -0.5713 -0.6977
 6714SOL     OW31777   3.169   1.163  10.668 -0.1358  0.1437  0.6330
 6714SOL    HW131778   3.108   1.140  10.738 -0.8145 -1.7883 -0.5723
 6714SOL    HW231779   3.108   1.206  10.608 -0.7378 -0.1655  1.0199
 6715SOL     OW31780   1.873   1.926   4.079 -0.2130  0.9569  0.2855
 6715SOL    HW131781   1.889   1.967   4.164  1.6975  2.2755 -0.7109
 6715SOL    HW231782   1.893   1.834   4.094  1.6235  0.6422 -4.1463
 6716SOL     OW31783   0.352   3.897   7.718  0.0833 -0.0921 -0.3796
 6716SOL    HW131784   0.348   3.885   7.623  0.1715  0.2926 -0.4290
 6716SOL    HW231785   0.335   3.808   7.752  0.5812  0.1779  0.5780
 6717SOL     OW31786   1.873   4.237  13.365  0.0942 -0.1043  0.0742
 6717SOL    HW131787   1.887   4.155  13.412  1.6549  1.4224  2.2865
 6717SOL    HW231788   1.888   4.202  13.277  1.4499  1.6504 -0.3996
 6718SOL     OW31789   3.865   3.601   0.760  0.5918  0.0754  0.0242
 6718SOL    HW131790   3.877   3.564   0.672  1.4687 -2.9795  1.4288
 6718SOL    HW231791   3.775   3.575   0.781  0.9963 -0.5679  0.9032
 6719SOL     OW31792   1.410   1.074   7.224  0.0642 -0.1913  0.0799
 6719SOL    HW131793   1.441   1.076   7.134  0.7655 -0.1293  0.3210
 6719SOL    HW231794   1.449   0.991   7.254  1.6527  0.7908  0.7407
 6720SOL     OW31795   2.898   1.152   1.781  0.6398  0.0792  0.3236
 6720SOL    HW131796   2.895   1.165   1.686 -1.3786 -1.1876  0.2061
 6720SOL    HW231797   2.810   1.117   1.794  1.5400 -2.2285  0.2435
 6721SOL     OW31798   2.135   2.746  15.095  1.0705 -0.2777 -0.0966
 6721SOL    HW131799   2.213   2.782  15.053  1.2572  0.8867  1.2488
 6721SOL    HW231800   2.119   2.669  15.042  3.2138 -0.8542  0.0801
 6722SOL     OW31801   0.482   4.163   3.362 -0.0595  0.2279  0.1429
 6722SOL    HW131802   0.491   4.144   3.268  0.4978  2.3787 -0.2325
 6722SOL    HW231803   0.415   4.232   3.370 -2.7000 -2.0432 -2.0509
 6723SOL     OW31804   4.647   3.740   3.448 -0.2718 -0.7909  0.7618
 6723SOL    HW131805   0.001   3.730   3.475  0.1849 -0.2353 -0.5879
 6723SOL    HW231806   4.597   3.707   3.523 -1.6167  0.0380  0.2306
 6724SOL     OW31807   3.449   1.106  17.727  0.0643 -0.3970  0.5804
 6724SOL    HW131808   3.360   1.139  17.726  0.9596  2.0007  1.4280
 6724SOL    HW231809   3.466   1.099  17.633  0.1614  1.6828  0.4452
 6725SOL     OW31810   3.698   0.270   2.121 -0.2065 -0.2226  0.3279
 6725SOL    HW131811   3.782   0.276   2.167  0.2451 -0.2712 -0.4758
 6725SOL    HW231812   3.734   0.322   2.048 -1.8518 -1.1036 -1.1043
 6726SOL     OW31813   1.172   1.712  13.343 -0.1671 -0.2171  0.0513
 6726SOL    HW131814   1.148   1.676  13.258  1.9246 -0.7006 -0.3440
 6726SOL    HW231815   1.224   1.640  13.379  0.4242 -0.4802 -1.3323
 6727SOL     OW31816   3.005   0.161   4.955  0.2596  0.1013  0.3533
 6727SOL    HW131817   3.097   0.149   4.933  0.3552 -1.1153  1.4365
 6727SOL    HW231818   2.986   0.209   4.874  0.1124 -2.5317 -1.1720
 6728SOL     OW31819   1.227   1.872  12.261 -0.1413 -0.1565  0.0603
 6728SOL    HW131820   1.177   1.810  12.314  0.7174  0.1594  1.2422
 6728SOL    HW231821   1.162   1.935  12.228 -0.7161 -1.1699 -0.7372
 6729SOL     OW31822   1.909   2.744   7.701 -0.1034 -0.2527  0.3283
 6729SOL    HW131823   1.819   2.763   7.674  0.4393 -1.5965 -2.4530
 6729SOL    HW231824   1.902   2.793   7.783 -1.5957 -1.9779  1.2356
 6730SOL     OW31825   4.604   2.271   8.401  0.3546  0.1860 -0.4286
 6730SOL    HW131826   4.588   2.212   8.327 -2.1896 -1.4531  1.4011
 6730SOL    HW231827   4.643   2.216   8.470 -0.2790  1.5827  1.0275
 6731SOL     OW31828   4.000   1.986   3.562  0.2124 -0.1023  0.3219
 6731SOL    HW131829   3.951   2.031   3.492 -0.5569 -1.6669 -0.1430
 6731SOL    HW231830   4.084   2.031   3.573 -0.0074  0.4678 -0.3043
 6732SOL     OW31831   3.676   0.578   0.743  0.3350  0.0614  0.3115
 6732SOL    HW131832   3.635   0.580   0.656  0.7374 -1.4252  0.0930
 6732SOL    HW231833   3.717   0.492   0.742 -1.7140 -0.8617 -3.6382
 6733SOL     OW31834   0.356   0.635   3.929  0.6091 -0.4084 -0.4135
 6733SOL    HW131835   0.425   0.699   3.946 -0.4062  0.3856  0.7429
 6733SOL    HW231836   0.317   0.648   3.842 -0.7068  0.1933  0.2711
 6734SOL     OW31837   2.320   1.839   4.453  0.0777  0.4295 -0.1060
 6734SOL    HW131838   2.245   1.779   4.446 -0.5838  1.1995  0.4959
 6734SOL    HW231839   2.385   1.781   4.492  0.2369 -0.9127 -2.3384
 6735SOL     OW31840   0.737   1.567   9.155 -0.0636  0.2912  0.4434
 6735SOL    HW131841   0.671   1.606   9.211 -2.9994 -0.1945 -2.6687
 6735SOL    HW231842   0.751   1.638   9.093 -0.2422  0.1116  0.1967
 6736SOL     OW31843   2.021   0.598  16.844 -0.0896 -0.4437  0.0352
 6736SOL    HW131844   2.010   0.687  16.810  0.0393 -0.6748 -0.6183
 6736SOL    HW231845   2.091   0.559  16.792 -0.1634  1.2430 -1.3542
 6737SOL     OW31846   2.547   0.144   4.828  0.2965  0.1806 -0.3070
 6737SOL    HW131847   2.577   0.059   4.859 -1.6596  0.0431  1.2110
 6737SOL    HW231848   2.569   0.207   4.897  2.2759 -2.3954  1.4111
 6738SOL     OW31849   2.784   0.948  15.179  0.2320  0.5076 -0.1735
 6738SOL    HW131850   2.844   0.985  15.114 -0.7094  2.3276  0.0183
 6738SOL    HW231851   2.700   0.939  15.134 -0.2087  0.3153  0.6860
 6739SOL     OW31852   1.951   1.165   5.992 -0.0883  0.1267 -0.2192
 6739SOL    HW131853   1.941   1.247   6.041  0.1161  0.1991 -0.3011
 6739SOL    HW231854   1.945   1.098   6.059 -3.1358  0.4229 -0.1985
 6740SOL     OW31855   1.308   0.431   8.366 -0.3970  0.5708  0.2619
 6740SOL    HW131856   1.256   0.391   8.436 -2.5349 -1.2899 -2.3973
 6740SOL    HW231857   1.247   0.426   8.293 -0.0984  1.4796 -0.0402
 6741SOL     OW31858   2.387   4.624   1.483 -0.0378  0.4014 -0.5248
 6741SOL    HW131859   2.431   4.692   1.533 -2.9514  2.1412 -0.3461
 6741SOL    HW231860   2.393   4.672   1.401  2.3113 -1.2239 -1.3254
 6742SOL     OW31861   1.276   4.581   1.967 -0.3978 -0.3765  0.1264
 6742SOL    HW131862   1.256   4.593   1.874 -2.5625 -0.0792  0.6318
 6742SOL    HW231863   1.295   4.487   1.964  1.2335 -0.0275 -0.3471
 6743SOL     OW31864   2.836   4.731  13.038 -0.2823  0.5615  0.1469
 6743SOL    HW131865   2.796   0.034  13.115  0.1364  1.9583 -0.3593
 6743SOL    HW231866   2.866   4.649  13.077 -1.3096 -0.7888 -1.8986
 6744SOL     OW31867   3.969   3.614   2.197 -0.3299 -0.4377  0.2214
 6744SOL    HW131868   3.992   3.624   2.105 -2.7298  0.3124 -0.3034
 6744SOL    HW231869   3.972   3.709   2.206  0.8782 -0.3433 -1.1487
 6745SOL     OW31870   1.196   3.326  14.787 -0.3811 -0.3335  0.1400
 6745SOL    HW131871   1.232   3.238  14.773 -0.1068 -0.1283 -0.4495
 6745SOL    HW231872   1.102   3.308  14.776 -0.6250 -0.0674  1.7017
 6746SOL     OW31873   2.609   2.613   2.465 -0.1900  0.0151 -0.2302
 6746SOL    HW131874   2.542   2.545   2.470 -0.0102  0.0737  3.0653
 6746SOL    HW231875   2.603   2.650   2.553  0.0851  1.2649 -0.7465
 6747SOL     OW31876   3.162   3.710   1.832 -0.4206  0.5803 -1.0074
 6747SOL    HW131877   3.144   3.656   1.909  0.0991 -0.2867 -1.4880
 6747SOL    HW231878   3.156   3.797   1.871 -0.0007 -0.0295  0.4383
 6748SOL     OW31879   0.914   2.364  12.807  0.3316  0.2194  0.2492
 6748SOL    HW131880   0.934   2.428  12.738  2.4642 -1.0910 -0.3404
 6748SOL    HW231881   0.831   2.396  12.843 -0.0175 -0.8601  0.3965
 6749SOL     OW31882   2.066   2.041   7.726  0.6806 -0.1644  0.3900
 6749SOL    HW131883   2.118   2.097   7.783 -1.2518 -0.7273  2.7223
 6749SOL    HW231884   2.028   1.984   7.792 -1.2447 -1.0905 -1.4949
 6750SOL     OW31885   1.000   0.297   4.612 -0.4604 -0.0901 -0.4320
 6750SOL    HW131886   1.053   0.323   4.537  1.8494  2.1150  1.9571
 6750SOL    HW231887   1.063   0.322   4.679 -1.1818  0.5017  0.0249
 6751SOL     OW31888   0.200   1.369   4.601  0.6240 -0.5312  0.2642
 6751SOL    HW131889   0.178   1.290   4.553  0.1366 -0.7833  0.9130
 6751SOL    HW231890   0.231   1.334   4.685  3.1797  2.2629  0.4993
 6752SOL     OW31891   4.348   2.697   8.472  0.6937 -0.2229 -0.0401
 6752SOL    HW131892   4.296   2.644   8.412 -0.7007  1.7523 -0.5830
 6752SOL    HW231893   4.333   2.648   8.553  2.7157 -1.5044 -0.4493
 6753SOL     OW31894   4.609   2.189   3.951  0.1834  0.3412 -0.1503
 6753SOL    HW131895   4.569   2.150   4.029  0.7563 -2.1360 -1.0920
 6753SOL    HW231896   4.542   2.171   3.885  0.0035  3.6422 -0.8535
 6754SOL     OW31897   1.725   4.140   4.764 -0.3301  0.2532 -0.2454
 6754SOL    HW131898   1.773   4.129   4.682  1.8560 -0.3249  1.1049
 6754SOL    HW231899   1.645   4.188   4.742 -0.4014  0.2496  0.0003
 6755SOL     OW31900   3.122   0.480  13.414  0.1440  0.4233 -0.3585
 6755SOL    HW131901   3.196   0.540  13.411 -0.6847  1.3769 -1.4330
 6755SOL    HW231902   3.155   0.429  13.488 -3.3236 -0.8320  0.2841
 6756SOL     OW31903   2.978   3.140  14.794  0.5845  0.5931  0.8788
 6756SOL    HW131904   2.986   3.093  14.711 -0.1525 -0.4439  1.3984
 6756SOL    HW231905   3.060   3.106  14.831  1.1860 -0.2734 -1.2899
 6757SOL     OW31906   2.315   1.590   3.892 -0.2031 -0.3787 -0.7500
 6757SOL    HW131907   2.298   1.586   3.798 -1.7451 -0.8166 -0.4452
 6757SOL    HW231908   2.316   1.498   3.918 -1.6794  0.2416  1.4944
 6758SOL     OW31909   1.869   2.419  11.628 -0.1362  0.2264  0.0428
 6758SOL    HW131910   1.839   2.351  11.568 -3.3042  2.5639 -1.0663
 6758SOL    HW231911   1.945   2.378  11.668  1.9173  2.1370 -1.8763
 6759SOL     OW31912   2.780   3.616   4.747 -0.2439  0.1806  0.7574
 6759SOL    HW131913   2.872   3.639   4.757  0.2853 -2.6880  2.4564
 6759SOL    HW231914   2.782   3.553   4.819 -0.5905  0.9824  1.4692
 6760SOL     OW31915   3.635   1.019  11.067  0.4783 -0.3463 -0.0155
 6760SOL    HW131916   3.673   0.989  10.985 -2.4524 -0.6833 -1.2562
 6760SOL    HW231917   3.560   0.966  11.093  2.1930 -2.5152  0.5197
 6761SOL     OW31918   4.524   0.091   7.780 -0.2047  0.1010  0.4001
 6761SOL    HW131919   4.611   0.093   7.742 -0.3831 -2.5569 -0.1356
 6761SOL    HW231920   4.537   0.094   7.875  3.6733 -1.8939 -0.0737
 6762SOL     OW31921   4.360   1.540   4.269  0.3184  0.1293  0.5361
 6762SOL    HW131922   4.436   1.546   4.327  0.5457 -1.0992  0.3641
 6762SOL    HW231923   4.333   1.449   4.283  0.2539 -0.1047 -1.1246
 6763SOL     OW31924   1.327   0.924   2.332 -0.2562 -0.3837  0.0090
 6763SOL    HW131925   1.373   0.977   2.267 -3.2403 -0.8929 -2.5182
 6763SOL    HW231926   1.260   0.986   2.362  1.6111  1.1005  1.0848
 6764SOL     OW31927   0.847   3.472   5.572 -0.3394  0.3652  0.6642
 6764SOL    HW131928   0.841   3.559   5.612 -0.6198  1.7018 -2.2562
 6764SOL    HW231929   0.775   3.460   5.510  0.1639  0.4685  0.0603
 6765SOL     OW31930   0.225   0.082   7.399 -0.3907 -0.3173  0.2720
 6765SOL    HW131931   0.137   0.045   7.404  0.3105 -1.9974  0.0164
 6765SOL    HW231932   0.259   0.032   7.325 -0.9296  1.3903 -1.1268
 6766SOL     OW31933   1.052   2.710   9.496 -0.0791  0.8182 -0.1420
 6766SOL    HW131934   1.069   2.692   9.589 -1.1517 -0.0442 -0.1131
 6766SOL    HW231935   0.959   2.691   9.490 -0.1745  1.3986 -0.4913
 6767SOL     OW31936   3.572   3.187   1.739  0.0569 -0.2347  0.3286
 6767SOL    HW131937   3.527   3.267   1.766 -2.3557 -1.5608  0.2083
 6767SOL    HW231938   3.572   3.180   1.644  2.0712  0.4237  0.2668
 6768SOL     OW31939   1.116   3.301   0.612  0.5025 -0.1365 -0.1235
 6768SOL    HW131940   1.085   3.308   0.703  1.2291 -0.9808  0.1935
 6768SOL    HW231941   1.203   3.260   0.616  0.4587 -0.3457 -1.5317
 6769SOL     OW31942   1.528   4.350   7.181 -0.4100  0.0434 -0.2644
 6769SOL    HW131943   1.519   4.443   7.164 -3.5838 -0.4868 -1.3760
 6769SOL    HW231944   1.511   4.301   7.101 -1.2982 -0.4377  0.2185
 6770SOL     OW31945   1.985   2.196   2.524 -0.2970 -0.1248  0.0243
 6770SOL    HW131946   1.894   2.177   2.546 -0.1147 -0.8129  0.1865
 6770SOL    HW231947   2.012   2.129   2.461  0.0080 -2.1239  2.2852
 6771SOL     OW31948   0.010   3.946   1.888 -0.4958  0.8272 -0.4267
 6771SOL    HW131949   0.099   3.916   1.865 -1.6190 -2.1180 -0.8940
 6771SOL    HW231950   4.702   3.867   1.917  0.8059  0.3353  0.2872
 6772SOL     OW31951   4.223   0.222   2.137  0.0931 -0.5575 -0.2453
 6772SOL    HW131952   4.317   0.230   2.121  0.1164 -2.2595 -0.8959
 6772SOL    HW231953   4.229   0.195   2.228 -0.8862  0.0576  0.0015
 6773SOL     OW31954   3.599   1.621   6.760 -0.6049  0.3440 -0.4945
 6773SOL    HW131955   3.687   1.637   6.793 -1.2581  1.1828  0.8427
 6773SOL    HW231956   3.593   1.691   6.695 -2.4021  0.1577 -0.5358
 6774SOL     OW31957   3.723   1.860  16.087  0.3334 -0.0067  0.0681
 6774SOL    HW131958   3.668   1.788  16.118  1.3755 -0.8019  0.0719
 6774SOL    HW231959   3.786   1.863  16.159  1.7284 -2.1048 -1.0734
 6775SOL     OW31960   0.865   0.651   1.741  0.0346  0.3254  0.4734
 6775SOL    HW131961   0.808   0.715   1.784  0.0431  1.5568 -1.3916
 6775SOL    HW231962   0.916   0.620   1.816 -0.5640  1.0592  1.1861
 6776SOL     OW31963   1.541   3.326   8.806  0.2862  0.0392  0.6114
 6776SOL    HW131964   1.591   3.350   8.728 -3.2408  1.1728 -1.2808
 6776SOL    HW231965   1.499   3.249   8.769  2.2611 -0.7716  0.0423
 6777SOL     OW31966   2.303   0.674  10.931 -0.1919 -0.3171  0.5529
 6777SOL    HW131967   2.363   0.609  10.894 -0.1602  0.1862 -0.2702
 6777SOL    HW231968   2.320   0.752  10.878 -0.5440 -1.2098 -0.8397
 6778SOL     OW31969   3.278   2.767  16.505 -0.3384 -0.3008 -0.0378
 6778SOL    HW131970   3.248   2.745  16.417  0.9495 -2.5447  0.0733
 6778SOL    HW231971   3.292   2.861  16.501 -0.9967 -0.1753  0.6111
 6779SOL     OW31972   2.965   4.476   8.718  0.4200 -0.0296 -0.5106
 6779SOL    HW131973   2.892   4.418   8.739  1.5416 -1.1133  0.4519
 6779SOL    HW231974   3.004   4.422   8.649 -1.6378  0.6011 -2.1561
 6780SOL     OW31975   1.969   0.270   7.489 -0.6469 -0.1876  0.5577
 6780SOL    HW131976   1.945   0.222   7.409  1.4903 -1.6807  0.8282
 6780SOL    HW231977   2.039   0.215   7.524 -0.0252 -0.8929 -1.7655
 6781SOL     OW31978   2.692   2.470   4.372 -0.7861 -0.1498  0.1207
 6781SOL    HW131979   2.703   2.492   4.465  1.8822  3.5567 -1.0676
 6781SOL    HW231980   2.668   2.377   4.371 -0.7239 -0.1999  2.6586
 6782SOL     OW31981   4.458   0.048   1.142  0.3699 -0.2496 -0.1228
 6782SOL    HW131982   4.365   0.056   1.163  0.0827 -2.7984 -0.4201
 6782SOL    HW231983   4.454   0.019   1.051  0.9402 -0.8078  0.0258
 6783SOL     OW31984   4.609   3.054  15.321  0.1185 -0.0615  0.6025
 6783SOL    HW131985   4.550   3.030  15.249 -1.8962  3.9619  0.9258
 6783SOL    HW231986   4.653   3.132  15.288  2.6934 -1.0052  1.8144
 6784SOL     OW31987   4.398   3.678   9.794 -0.0970  0.6226  0.4237
 6784SOL    HW131988   4.448   3.665   9.713 -0.6134 -0.0197  0.2059
 6784SOL    HW231989   4.322   3.724   9.760  0.6174  0.7466 -1.0260
 6785SOL     OW31990   4.119   3.734   8.501  0.1327  0.4781  0.0228
 6785SOL    HW131991   4.101   3.650   8.542  3.0570 -0.3131 -0.3334
 6785SOL    HW231992   4.214   3.738   8.491  0.1372 -1.1353 -0.5466
 6786SOL     OW31993   3.961   3.139   5.656 -0.0348  0.5117 -0.3739
 6786SOL    HW131994   3.942   3.109   5.745  2.5757 -2.0123 -0.6411
 6786SOL    HW231995   3.876   3.140   5.613 -0.4771  0.4154  0.5165
 6787SOL     OW31996   3.700   3.496  11.278 -0.6166 -0.0301 -0.0893
 6787SOL    HW131997   3.606   3.485  11.268 -0.4711  0.3179 -1.9068
 6787SOL    HW231998   3.708   3.444  11.358  3.6905  0.8046  0.0236
 6788SOL     OW31999   3.440   1.556   0.549  1.0321  0.4278  0.3938
 6788SOL    HW132000   3.506   1.623   0.533  0.7306  0.7303  0.4234
 6788SOL    HW232001   3.450   1.504   0.469 -0.1872  2.2188 -0.9144
 6789SOL     OW32002   2.682   0.166   9.473 -0.3793  0.1363  0.1002
 6789SOL    HW132003   2.684   0.220   9.393  1.0409  1.9860  1.3647
 6789SOL    HW232004   2.647   0.224   9.541  2.3442 -1.5144  2.9082
 6790SOL     OW32005   3.327   2.275   6.330 -0.2554 -0.6550 -0.6107
 6790SOL    HW132006   3.250   2.319   6.294  0.8190  2.5811  1.0548
 6790SOL    HW232007   3.385   2.304   6.259  0.1192  0.8483  0.3214
 6791SOL     OW32008   2.788   1.223   9.759 -0.0321  0.5660 -0.8712
 6791SOL    HW132009   2.745   1.138   9.761  1.2230 -0.0397  0.4267
 6791SOL    HW232010   2.863   1.200   9.704 -0.3132 -4.2590  0.7480
 6792SOL     OW32011   1.307   4.331   6.413  0.0467 -0.1161 -0.4272
 6792SOL    HW132012   1.394   4.359   6.383 -0.9120  3.4041  0.1950
 6792SOL    HW232013   1.253   4.401   6.449 -2.1252 -1.5177 -0.9735
 6793SOL     OW32014   1.088   1.847  15.299  0.3508 -0.1569  0.0452
 6793SOL    HW132015   1.119   1.861  15.388 -0.9060  0.0803  0.4476
 6793SOL    HW232016   1.166   1.876  15.251  0.0916  1.6645  0.7289
 6794SOL     OW32017   0.465   2.332   4.982 -0.1486 -0.1594 -0.2678
 6794SOL    HW132018   0.490   2.414   4.939 -3.2575  1.2604  0.7079
 6794SOL    HW232019   0.440   2.279   4.906  1.4912  0.2184 -1.0913
 6795SOL     OW32020   0.862   3.743   2.412  0.5036  0.1028 -0.6162
 6795SOL    HW132021   0.928   3.746   2.344  0.1496 -3.3098 -1.1336
 6795SOL    HW232022   0.816   3.818   2.375  1.0466  1.6296  1.8212
 6796SOL     OW32023   1.012   1.090   2.043 -0.2366  0.1488  0.1964
 6796SOL    HW132024   1.002   1.172   1.994 -0.2070 -0.1450 -0.2944
 6796SOL    HW232025   1.001   1.030   1.970 -0.0085  1.3648 -0.8379
 6797SOL     OW32026   0.516   2.278  17.450 -0.7090 -0.0855  0.6838
 6797SOL    HW132027   0.575   2.287  17.524 -0.3840  0.4280  0.3655
 6797SOL    HW232028   0.494   2.371  17.436  0.7622 -0.2314 -2.7179
 6798SOL     OW32029   1.185   0.263   5.602 -0.3136  0.1848 -0.5755
 6798SOL    HW132030   1.138   0.206   5.541 -0.4327  0.1422 -0.4456
 6798SOL    HW232031   1.176   0.213   5.684  1.4345  0.8359  0.0123
 6799SOL     OW32032   0.916   0.174   2.031  0.0393 -0.1578  0.1362
 6799SOL    HW132033   1.003   0.169   2.070  0.5489 -1.0440 -1.1114
 6799SOL    HW232034   0.911   0.081   2.008 -0.0716 -0.3516  0.9617
 6800SOL     OW32035   4.298   3.245   8.874 -0.2695  1.1836 -0.9151
 6800SOL    HW132036   4.371   3.235   8.935 -0.7751  3.4639  0.0894
 6800SOL    HW232037   4.317   3.326   8.827 -1.9085  2.6273  0.8622
 6801SOL     OW32038   2.415   3.127   0.101 -0.5348  0.2556  0.7327
 6801SOL    HW132039   2.332   3.141   0.147 -1.3374 -1.8755 -0.0637
 6801SOL    HW232040   2.455   3.214   0.097 -0.6256  0.2368 -0.6362
 6802SOL     OW32041   4.733   4.671   6.399 -0.4735  0.2696  0.0401
 6802SOL    HW132042   4.683   4.598   6.364 -0.1750  0.8621 -1.6210
 6802SOL    HW232043   0.017   4.708   6.313  1.1484 -1.7185 -0.4235
 6803SOL     OW32044   2.363   4.629   5.418 -0.4865 -0.5719  0.7822
 6803SOL    HW132045   2.439   4.625   5.360 -1.7009 -2.6627 -0.6546
 6803SOL    HW232046   2.385   4.706   5.471  0.9114 -0.6080  0.2731
 6804SOL     OW32047   4.359   1.758   3.590 -0.1714  0.5710  0.0202
 6804SOL    HW132048   4.385   1.752   3.499  0.6194  0.8148  0.2293
 6804SOL    HW232049   4.280   1.812   3.587 -0.8438 -0.4082 -0.1415
 6805SOL     OW32050   1.720   0.145  17.614  0.4081 -0.5256 -0.2848
 6805SOL    HW132051   1.694   0.168  17.704 -1.6104 -1.4970 -0.6101
 6805SOL    HW232052   1.673   0.211  17.564 -1.9145 -1.8258  0.1480
 6806SOL     OW32053   2.383   1.277   3.870 -0.5651 -0.1413 -0.0723
 6806SOL    HW132054   2.338   1.229   3.940  1.3163 -1.9397 -0.0867
 6806SOL    HW232055   2.477   1.276   3.891 -0.2712  1.1546 -1.3364
 6807SOL     OW32056   1.597   1.834  12.176 -0.2619 -0.2922 -0.2276
 6807SOL    HW132057   1.577   1.927  12.187 -0.4897 -0.2459 -0.9967
 6807SOL    HW232058   1.549   1.789  12.245 -0.0658  0.2445  0.2541
 6808SOL     OW32059   1.025   2.335   2.304  0.2658 -0.1654  0.3510
 6808SOL    HW132060   0.966   2.260   2.303 -0.0871  0.1380 -1.7639
 6808SOL    HW232061   1.082   2.330   2.227  0.4297  0.5293  0.4283
 6809SOL     OW32062   2.007   0.693   4.324 -0.1597  0.0146  0.1597
 6809SOL    HW132063   2.102   0.694   4.337  0.1000 -1.1781 -1.6028
 6809SOL    HW232064   2.006   0.669   4.231 -0.6942  1.3865 -0.1866
 6810SOL     OW32065   2.448   1.946   7.231  0.5721  0.2881 -0.0623
 6810SOL    HW132066   2.495   2.025   7.205 -0.8124  0.8078 -0.9729
 6810SOL    HW232067   2.392   1.994   7.292  1.5691  1.7586 -0.2900
 6811SOL     OW32068   0.066   2.100   3.532 -0.2280 -0.4287  0.2340
 6811SOL    HW132069   0.096   2.184   3.498 -0.0401 -0.1246  1.1374
 6811SOL    HW232070   0.134   2.086   3.598  0.3428 -1.9591 -0.6976
 6812SOL     OW32071   4.505   3.132  16.940 -0.0217  0.1556  0.0566
 6812SOL    HW132072   4.580   3.087  16.902 -0.8345 -1.3779  0.2723
 6812SOL    HW232073   4.447   3.144  16.865 -1.0347  2.8120  1.2526
 6813SOL     OW32074   1.485   4.703   3.045  1.0217 -0.0094 -0.1617
 6813SOL    HW132075   1.512   0.054   3.071 -2.2734  0.7237  0.8068
 6813SOL    HW232076   1.460   4.671   3.132 -2.0350  1.1781 -0.5885
 6814SOL     OW32077   3.324   4.356  17.584  0.2504  0.5159 -0.0743
 6814SOL    HW132078   3.304   4.438  17.539 -1.5065  0.4461  0.5979
 6814SOL    HW232079   3.245   4.301  17.586 -1.3365  2.7927 -0.4308
 6815SOL     OW32080   0.737   3.322   9.231 -0.3404  0.1929 -0.1490
 6815SOL    HW132081   0.643   3.314   9.245 -0.6131  1.7616 -1.0185
 6815SOL    HW232082   0.758   3.387   9.298 -0.9020 -0.6316  0.8254
 6816SOL     OW32083   3.688   1.778   5.996 -0.5051  0.0848  0.2256
 6816SOL    HW132084   3.611   1.812   6.042 -0.4149  1.3747 -0.5937
 6816SOL    HW232085   3.738   1.852   5.962  1.8337 -1.8093 -0.4552
 6817SOL     OW32086   4.396   3.339   4.178 -0.2540  0.0838 -0.3811
 6817SOL    HW132087   4.445   3.303   4.252 -0.1359 -0.9002 -0.9360
 6817SOL    HW232088   4.312   3.294   4.191 -1.4882  2.5934  0.3902
 6818SOL     OW32089   2.796   2.613   7.967  0.6934  0.2368  0.7088
 6818SOL    HW132090   2.709   2.589   7.999 -0.0730 -1.5172 -2.6258
 6818SOL    HW232091   2.808   2.538   7.909  1.9251  0.6210  0.4583
 6819SOL     OW32092   4.446   4.687   4.956  0.0927 -0.3040 -0.5855
 6819SOL    HW132093   4.506   4.656   5.024  0.6714  3.7189  0.7351
 6819SOL    HW232094   4.490   0.026   4.918  0.5252 -0.3501 -0.1752
 6820SOL     OW32095   0.607   2.075   8.115 -0.3110 -0.3819 -0.3838
 6820SOL    HW132096   0.691   2.030   8.124 -0.0741 -0.2922 -2.1338
 6820SOL    HW232097   0.639   2.165   8.111 -0.8077 -0.1694  0.5087
 6821SOL     OW32098   4.131   2.925   2.795  0.3171  0.8242 -0.3116
 6821SOL    HW132099   4.101   2.920   2.705  2.2930  0.0387 -0.9284
 6821SOL    HW232100   4.068   2.985   2.836 -0.6324 -0.6401  0.3391
 6822SOL     OW32101   2.881   4.563  12.652 -0.0804 -0.0737 -0.2122
 6822SOL    HW132102   2.787   4.546  12.653  0.1082 -1.1950 -0.4539
 6822SOL    HW232103   2.884   4.570  12.557  1.4962 -0.1781 -0.1743
 6823SOL     OW32104   2.138   1.477   0.480 -0.4655  0.3973  0.2123
 6823SOL    HW132105   2.146   1.466   0.385 -0.9112 -3.1371  0.6231
 6823SOL    HW232106   2.203   1.415   0.514 -1.2404  0.6568  2.1621
 6824SOL     OW32107   1.721   1.753   9.351  0.3610 -0.0956 -0.3888
 6824SOL    HW132108   1.762   1.836   9.376  0.3986 -0.3561  0.4184
 6824SOL    HW232109   1.750   1.739   9.261 -2.0982  0.2639 -1.2348
 6825SOL     OW32110   2.203   2.663   4.905  0.5539  0.4977  0.2412
 6825SOL    HW132111   2.205   2.758   4.892 -2.8985  0.5379  0.0034
 6825SOL    HW232112   2.225   2.640   4.815 -0.5635 -1.6379  0.5238
 6826SOL     OW32113   0.660   3.727   0.376  0.0609  0.1484 -0.0555
 6826SOL    HW132114   0.582   3.696   0.422  0.9454 -1.8092  0.1162
 6826SOL    HW232115   0.728   3.686   0.430  1.0175  0.0623 -1.3314
 6827SOL     OW32116   3.021   0.627  13.173  0.2596 -0.3283 -0.5343
 6827SOL    HW132117   3.046   0.694  13.238  1.5054 -2.1849  0.8864
 6827SOL    HW232118   3.062   0.553  13.217 -0.0013 -0.8629 -1.2069
 6828SOL     OW32119   2.121   4.563   6.383 -0.3392 -0.1822 -0.0028
 6828SOL    HW132120   2.187   4.502   6.351  1.6655  1.3137  1.2317
 6828SOL    HW232121   2.058   4.509   6.431 -1.1837  1.6908  0.9947
 6829SOL     OW32122   2.069   3.628   3.216  0.2714 -0.0562 -0.4158
 6829SOL    HW132123   2.035   3.696   3.157 -0.0064  1.3893  1.4301
 6829SOL    HW232124   2.162   3.635   3.194  0.2396  0.1516 -0.4849
 6830SOL     OW32125   0.194   1.387   4.101 -0.0857  0.0761 -0.3726
 6830SOL    HW132126   0.142   1.409   4.025  0.2885  1.2114 -0.3056
 6830SOL    HW232127   0.177   1.293   4.100  1.0892 -0.1410 -0.1488
 6831SOL     OW32128   4.473   0.915   2.512 -0.6460  0.7341  0.5283
 6831SOL    HW132129   4.521   0.839   2.544  0.9778  0.7753 -1.8254
 6831SOL    HW232130   4.444   0.869   2.433  3.6713  2.4974 -2.0767
 6832SOL     OW32131   3.094   2.353   6.194 -0.2720 -0.3551 -0.5593
 6832SOL    HW132132   3.107   2.282   6.131 -0.5185 -2.2344  1.5222
 6832SOL    HW232133   3.066   2.308   6.273  0.0518  1.5093  0.6313
 6833SOL     OW32134   1.932   3.050  17.405  0.1862  0.2769  0.1283
 6833SOL    HW132135   1.858   2.991  17.419  0.4639 -0.0364  0.2686
 6833SOL    HW232136   1.996   3.003  17.459 -0.5415 -0.2428  0.5395
 6834SOL     OW32137   1.455   1.244   3.226 -0.4177  0.1094 -0.0229
 6834SOL    HW132138   1.401   1.282   3.157  0.4845  0.1368 -0.7231
 6834SOL    HW232139   1.539   1.223   3.184 -2.5729 -0.9967 -3.7583
 6835SOL     OW32140   2.253   1.816   2.184  0.5458  0.1198 -0.7211
 6835SOL    HW132141   2.209   1.871   2.249 -0.1760 -1.2509 -0.0331
 6835SOL    HW232142   2.313   1.880   2.145  0.5815  1.5490  1.6431
 6836SOL     OW32143   1.199   1.331   8.239 -0.0546  0.3223 -0.1264
 6836SOL    HW132144   1.291   1.341   8.216 -0.4160 -0.9939 -2.1217
 6836SOL    HW232145   1.208   1.273   8.315 -1.9985  0.1252 -0.0310
 6837SOL     OW32146   1.461   2.850   7.003 -0.2158 -0.0529 -0.7704
 6837SOL    HW132147   1.380   2.827   7.048 -0.4503 -0.0766 -1.2104
 6837SOL    HW232148   1.491   2.937   7.030 -0.0351 -0.3124 -0.1289
 6838SOL     OW32149   0.068   0.576   6.329  0.4443  0.3178 -0.4327
 6838SOL    HW132150   4.712   0.559   6.314  0.0258  1.1477  1.2694
 6838SOL    HW232151   0.094   0.552   6.240 -2.0272 -2.6925 -0.3509
 6839SOL     OW32152   3.328   1.456  13.985 -0.0887  0.3773 -0.2166
 6839SOL    HW132153   3.424   1.466  13.985  0.2374 -2.7661 -1.9014
 6839SOL    HW232154   3.316   1.366  14.015  2.0335 -0.5937 -2.2785
 6840SOL     OW32155   3.905   2.743   5.764 -0.0137  0.2595  0.7837
 6840SOL    HW132156   3.920   2.824   5.812 -0.2314 -1.0654  3.1368
 6840SOL    HW232157   3.947   2.687   5.830 -3.3014 -0.6402  2.1433
 6841SOL     OW32158   3.230   4.090  10.232 -0.9025 -0.3797  0.0528
 6841SOL    HW132159   3.317   4.051  10.243 -1.3413 -1.0891  1.0227
 6841SOL    HW232160   3.246   4.155  10.300  3.6170 -2.1656  0.6699
 6842SOL     OW32161   0.303   4.663  16.036 -0.2040 -0.3281  0.5665
 6842SOL    HW132162   0.243   0.000  16.023  3.0461  2.1894  0.0311
 6842SOL    HW232163   0.336   4.665  15.947 -2.1567 -0.5179 -0.1681
 6843SOL     OW32164   3.236   0.332   3.587  0.1337 -0.0261 -0.3721
 6843SOL    HW132165   3.183   0.287   3.653  0.1359  0.5618  0.0321
 6843SOL    HW232166   3.186   0.317   3.506 -1.5428  0.1623  0.6291
 6844SOL     OW32167   1.663   2.589   8.058 -0.3327 -0.0425  0.5161
 6844SOL    HW132168   1.705   2.589   8.144 -0.7840  1.5475  0.7249
 6844SOL    HW232169   1.671   2.496   8.034  0.8849  0.4133 -0.8152
 6845SOL     OW32170   1.630   4.003   7.443 -0.3369  0.0181 -0.0676
 6845SOL    HW132171   1.655   3.989   7.352 -2.0430  0.5919 -0.6301
 6845SOL    HW232172   1.632   4.098   7.454 -2.2082  0.0109  0.4213
 6846SOL     OW32173   0.760   1.398   6.519  0.0847 -0.2185 -0.4197
 6846SOL    HW132174   0.727   1.312   6.545  0.4946  0.0960  1.1150
 6846SOL    HW232175   0.697   1.453   6.565 -0.0682  0.4569 -1.4417
 6847SOL     OW32176   3.290   3.607   1.619 -0.4431  0.4596 -0.2975
 6847SOL    HW132177   3.257   3.636   1.703 -0.0346 -0.5080  0.1992
 6847SOL    HW232178   3.261   3.686   1.573 -0.3249  0.3028 -0.6428
 6848SOL     OW32179   0.233   0.636  13.357 -0.0159  0.1339  0.2403
 6848SOL    HW132180   0.254   0.729  13.345  0.7240  0.0547  0.8935
 6848SOL    HW232181   0.244   0.624  13.452  2.6871  1.3284  0.0873
 6849SOL     OW32182   3.166   1.586  12.693 -0.2207  0.5667  0.3075
 6849SOL    HW132183   3.183   1.675  12.723  0.4301  0.6395 -0.2809
 6849SOL    HW232184   3.249   1.549  12.662  0.7486  2.3049  0.8760
 6850SOL     OW32185   0.108   4.260   6.832 -1.1066 -0.3435  0.1087
 6850SOL    HW132186   0.154   4.262   6.915  1.9464  2.2555 -1.6489
 6850SOL    HW232187   0.153   4.200   6.773 -0.0729  1.6501 -1.1454
 6851SOL     OW32188   1.933   1.542   3.474  0.4503  0.1276  0.1163
 6851SOL    HW132189   2.025   1.562   3.457  0.3606  1.3843  1.1402
 6851SOL    HW232190   1.897   1.614   3.526  0.5728  0.0004  0.3760
 6852SOL     OW32191   3.872   0.506   8.624 -0.6004  0.7636 -0.7581
 6852SOL    HW132192   3.852   0.480   8.535  0.9602 -0.3813 -0.7770
 6852SOL    HW232193   3.940   0.441   8.642 -1.2899 -0.0820 -1.2717
 6853SOL     OW32194   4.065   3.154   4.845 -0.0827  0.3211 -0.1858
 6853SOL    HW132195   4.103   3.219   4.786 -2.3292  1.6365 -0.1522
 6853SOL    HW232196   4.111   3.072   4.824  0.9143  0.8797 -0.1503
 6854SOL     OW32197   0.793   3.091   2.521  0.1558 -0.0891  0.0712
 6854SOL    HW132198   0.856   3.153   2.557  0.4399  0.6001 -1.5821
 6854SOL    HW232199   0.815   3.089   2.428 -1.4295  0.2183 -0.3121
 6855SOL     OW32200   0.799   1.198   8.966 -0.1442  0.8492 -0.4276
 6855SOL    HW132201   0.890   1.227   8.962  0.1418  0.1379  0.8028
 6855SOL    HW232202   0.808   1.110   9.003  1.6387  0.7761 -1.0278
 6856SOL     OW32203   2.093   3.492   9.405  0.5068 -0.7739  0.5244
 6856SOL    HW132204   2.126   3.547   9.334 -0.1112 -0.8300  0.1992
 6856SOL    HW232205   2.016   3.544   9.428 -0.2691 -0.9518 -1.7189
 6857SOL     OW32206   1.321   2.948   4.756  0.2952  0.2367 -0.1800
 6857SOL    HW132207   1.410   2.939   4.790  0.1700 -1.2705 -0.2763
 6857SOL    HW232208   1.276   2.882   4.809 -0.4741  1.4579  0.7134
 6858SOL     OW32209   1.049   1.398  15.982 -0.1456  0.1040 -0.1623
 6858SOL    HW132210   1.027   1.418  16.073  1.7353 -2.2252  0.7755
 6858SOL    HW232211   0.994   1.463  15.938  1.4597 -0.1681 -2.5823
 6859SOL     OW32212   2.667   1.298   9.054  0.2875 -0.6290 -0.1635
 6859SOL    HW132213   2.577   1.330   9.054 -0.0684 -1.6390  0.0796
 6859SOL    HW232214   2.696   1.344   9.132  0.3716 -1.1479  0.1073
 6860SOL     OW32215   1.865   3.975   2.439  0.1288  0.2431 -0.0141
 6860SOL    HW132216   1.857   3.987   2.534 -0.3392  1.7902 -0.2502
 6860SOL    HW232217   1.796   3.918   2.406 -1.0514  2.3076 -1.1327
 6861SOL     OW32218   1.940   3.366   6.643  0.1722 -0.3336  0.0391
 6861SOL    HW132219   1.985   3.449   6.651 -0.4082 -0.1095  1.0113
 6861SOL    HW232220   1.914   3.380   6.552  0.4199  0.5198  0.1004
 6862SOL     OW32221   2.295   1.117   4.070  0.2616 -0.2711  0.0729
 6862SOL    HW132222   2.359   1.126   4.140  0.8392 -0.2334 -0.4587
 6862SOL    HW232223   2.258   1.031   4.089 -0.3302 -0.1766 -0.6664
 6863SOL     OW32224   1.623   0.857  11.784  0.0847  0.2295  0.1459
 6863SOL    HW132225   1.683   0.921  11.745  0.1538 -0.8973 -1.5851
 6863SOL    HW232226   1.581   0.904  11.857  1.7009  1.2920  0.3923
 6864SOL     OW32227   1.585   0.136   5.843 -0.2460  0.5542  0.4892
 6864SOL    HW132228   1.525   0.064   5.863  0.0817  0.1442 -0.0001
 6864SOL    HW232229   1.647   0.118   5.914 -0.1375  3.5096  1.1415
 6865SOL     OW32230   2.899   1.089   2.101  0.3020  0.3991 -0.6939
 6865SOL    HW132231   2.887   1.086   2.006  2.0747  2.5821 -1.0042
 6865SOL    HW232232   2.827   1.042   2.141  0.2633  0.5298 -0.6108
 6866SOL     OW32233   2.040   0.465   8.536  0.2253 -0.1052  0.3674
 6866SOL    HW132234   2.075   0.552   8.553 -0.1170  0.3082 -1.0335
 6866SOL    HW232235   2.062   0.426   8.620  0.8054 -0.0850  0.2239
 6867SOL     OW32236   3.735   0.357   4.105 -0.4218  0.3957 -0.1753
 6867SOL    HW132237   3.685   0.345   4.185  0.1151  2.2341  0.4287
 6867SOL    HW232238   3.695   0.290   4.050  2.7561 -1.8019  0.1686
 6868SOL     OW32239   3.050   0.122   0.772 -0.1802  0.2899 -0.5034
 6868SOL    HW132240   2.991   0.121   0.696  1.6157 -2.0834 -1.8634
 6868SOL    HW232241   3.125   0.172   0.740 -1.3630  2.2644 -0.2461
 6869SOL     OW32242   4.376   0.494  14.269 -0.3064 -0.1118 -0.2203
 6869SOL    HW132243   4.309   0.542  14.220 -0.5645  0.7224  0.9351
 6869SOL    HW232244   4.339   0.487  14.357 -0.1225  1.6402  0.0116
 6870SOL     OW32245   2.476   0.361  11.140  0.0065  0.5680  0.1223
 6870SOL    HW132246   2.455   0.270  11.118  2.7811  0.4863 -2.1960
 6870SOL    HW232247   2.525   0.342  11.220  1.2727 -0.6520 -0.9411
 6871SOL     OW32248   4.589   4.567   4.058  0.3302  0.7973  0.2599
 6871SOL    HW132249   4.507   4.525   4.085  1.7028 -0.3943  2.5140
 6871SOL    HW232250   4.615   4.620   4.133 -1.3827  2.2283 -0.1522
 6872SOL     OW32251   0.022   1.115   9.462 -0.2523 -0.3550 -0.7420
 6872SOL    HW132252   4.683   1.059   9.453  0.1458 -0.9014 -0.6923
 6872SOL    HW232253   4.727   1.199   9.429  0.5014  1.0569  2.1260
 6873SOL     OW32254   3.767   4.374  16.675 -0.1849 -0.0860 -0.2702
 6873SOL    HW132255   3.693   4.332  16.632  2.1305 -1.6687 -2.7519
 6873SOL    HW232256   3.793   4.307  16.738 -0.1092 -0.5501 -0.7946
 6874SOL     OW32257   2.789   0.585  14.716 -0.0544  0.0628 -0.0724
 6874SOL    HW132258   2.827   0.673  14.713  1.6939 -0.7203 -0.6528
 6874SOL    HW232259   2.756   0.582  14.806  1.4769 -1.1822  0.4509
 6875SOL     OW32260   1.076   3.590   5.153  0.0929 -0.0872 -0.0767
 6875SOL    HW132261   1.145   3.537   5.193  1.5297  1.8346 -0.0239
 6875SOL    HW232262   1.099   3.607   5.062  2.3410  1.6450  0.8250
 6876SOL     OW32263   4.482   4.545   4.406 -0.1739 -0.2391 -0.5947
 6876SOL    HW132264   4.443   4.524   4.491  0.2723 -4.0899 -1.3645
 6876SOL    HW232265   4.548   4.607   4.439  1.8903 -3.2585  0.8971
 6877SOL     OW32266   4.675   0.433   1.784 -1.1960 -0.2481  0.3118
 6877SOL    HW132267   4.691   0.353   1.833 -1.0237  0.2226  1.0361
 6877SOL    HW232268   4.726   0.416   1.705  0.4265 -0.4325  1.3913
 6878SOL     OW32269   1.463   1.393   9.555  0.0228 -0.1769 -0.0538
 6878SOL    HW132270   1.473   1.456   9.484 -0.8330  1.1789  1.0193
 6878SOL    HW232271   1.550   1.408   9.592 -0.5099 -0.2877  1.2277
 6879SOL     OW32272   0.760   2.474   9.127 -0.6407 -0.4741 -0.0475
 6879SOL    HW132273   0.728   2.405   9.069 -2.8794  1.6832 -1.3640
 6879SOL    HW232274   0.770   2.430   9.211 -0.9457  0.0786  0.2759
 6880SOL     OW32275   0.638   0.663   5.235 -0.3715 -0.0520 -0.4311
 6880SOL    HW132276   0.578   0.611   5.289  1.7402 -0.5545  1.4578
 6880SOL    HW232277   0.582   0.694   5.165 -1.3033  1.2432  0.8787
 6881SOL     OW32278   2.213   0.888   6.645  0.3257 -0.1036  0.1934
 6881SOL    HW132279   2.168   0.955   6.697  1.0035 -0.3629  1.1136
 6881SOL    HW232280   2.252   0.831   6.712 -2.5199 -2.9086 -0.5356
 6882SOL     OW32281   2.412   3.550   9.317  0.1605 -0.1138  0.1650
 6882SOL    HW132282   2.484   3.488   9.328  0.2257  0.1061  0.9928
 6882SOL    HW232283   2.388   3.585   9.403 -1.2237  0.6401 -0.5246
 6883SOL     OW32284   1.069   4.061   3.649 -0.4424  0.5380 -0.7159
 6883SOL    HW132285   1.103   4.082   3.736 -1.5989  0.6988 -0.2907
 6883SOL    HW232286   1.100   3.971   3.644 -0.6187  0.4507 -0.2775
 6884SOL     OW32287   3.807   3.207   3.503 -0.0660 -0.3880 -0.1744
 6884SOL    HW132288   3.800   3.150   3.579  0.9064  0.1320  0.3131
 6884SOL    HW232289   3.890   3.251   3.524 -0.3534 -0.0655  0.2757
 6885SOL     OW32290   2.481   2.439   7.261 -0.6526 -0.4620 -0.0126
 6885SOL    HW132291   2.417   2.474   7.323  0.9955 -0.6704  1.7771
 6885SOL    HW232292   2.466   2.494   7.184  1.7669 -0.8877 -0.7942
 6886SOL     OW32293   4.373   2.447  13.656  0.6945  0.5830  0.6911
 6886SOL    HW132294   4.451   2.394  13.639 -0.3061 -0.5810 -0.3124
 6886SOL    HW232295   4.376   2.510  13.585 -1.7554 -0.6569 -0.5273
 6887SOL     OW32296   0.181   1.864   6.075 -0.2451 -0.2752  0.4115
 6887SOL    HW132297   0.205   1.844   5.984  0.0926 -3.0288  1.1068
 6887SOL    HW232298   0.104   1.807   6.078  0.5715 -1.6267 -3.2806
 6888SOL     OW32299   1.486   4.642   7.166 -0.3252 -0.0294  0.2216
 6888SOL    HW132300   1.434   4.607   7.094  1.6020  0.3865 -1.3597
 6888SOL    HW232301   1.419   4.648   7.234  0.7772 -0.1080  1.3134
 6889SOL     OW32302   4.222   1.652  16.401 -0.1907 -0.0903 -0.2288
 6889SOL    HW132303   4.201   1.583  16.338  1.8756 -0.3482 -0.6371
 6889SOL    HW232304   4.245   1.727  16.347  1.5632  0.3232  1.0798
 6890SOL     OW32305   0.595   2.677   7.525  0.2171 -0.1019  0.1592
 6890SOL    HW132306   0.634   2.728   7.597  1.5591 -0.2935 -0.4327
 6890SOL    HW232307   0.549   2.604   7.567 -0.0860 -0.6445 -1.1173
 6891SOL     OW32308   3.888   2.254   7.595  0.6865 -0.3958  0.0372
 6891SOL    HW132309   3.929   2.211   7.670  2.1810 -1.5739 -1.4573
 6891SOL    HW232310   3.865   2.336   7.640 -0.0522  0.1509 -1.3504
 6892SOL     OW32311   3.854   0.909   4.837  0.0737 -0.2591  0.3254
 6892SOL    HW132312   3.847   1.005   4.832 -2.4187 -0.5450 -1.9256
 6892SOL    HW232313   3.769   0.884   4.800 -0.7979 -1.3872  3.1467
 6893SOL     OW32314   0.997   0.388   8.965 -0.3212  0.4507  0.2795
 6893SOL    HW132315   1.017   0.295   8.950  1.2076  0.8301 -0.0756
 6893SOL    HW232316   0.904   0.394   8.944  0.2856  0.2230 -2.4465
 6894SOL     OW32317   1.848   0.763   8.053  0.0052 -0.2875 -0.2524
 6894SOL    HW132318   1.832   0.669   8.049 -2.1267  0.0132  1.0597
 6894SOL    HW232319   1.754   0.783   8.057  0.2655  1.0321 -0.7659
 6895SOL     OW32320   4.668   1.511   2.790 -0.0670 -0.1448  0.6265
 6895SOL    HW132321   4.688   1.417   2.793  2.3208  0.3171 -0.5126
 6895SOL    HW232322   0.020   1.545   2.788  0.4442 -1.3790  1.9012
 6896SOL     OW32323   1.718   2.870  17.429  0.1447  0.4093  0.0314
 6896SOL    HW132324   1.646   2.862  17.492  0.7792 -2.8094  0.3410
 6896SOL    HW232325   1.704   2.790  17.379 -0.6383 -0.5121  1.7274
 6897SOL     OW32326   3.572   1.179  11.897  0.0863  0.2990 -0.1692
 6897SOL    HW132327   3.485   1.182  11.937 -0.4532  0.2655 -1.3698
 6897SOL    HW232328   3.619   1.144  11.974 -0.8860 -0.0653  0.2540
 6898SOL     OW32329   4.268   3.082   9.876  0.5978  0.2508 -0.8083
 6898SOL    HW132330   4.352   3.091   9.832  2.2950 -2.6890  1.7755
 6898SOL    HW232331   4.260   3.177   9.886  1.4992  0.2222  0.2683
 6899SOL     OW32332   4.452   1.976   7.971 -0.3054 -0.0938 -0.4364
 6899SOL    HW132333   4.516   2.040   8.001 -0.4516  0.3050 -0.9838
 6899SOL    HW232334   4.384   2.013   8.028  0.7196  1.4383 -0.2249
 6900SOL     OW32335   2.858   2.009   8.712 -0.0704  0.1215 -0.3510
 6900SOL    HW132336   2.923   2.020   8.642  2.6581 -1.7166  1.8912
 6900SOL    HW232337   2.829   2.100   8.720  1.6254  0.6045  0.3612
 6901SOL     OW32338   2.043   0.817   1.558  0.5623  0.9221  0.1317
 6901SOL    HW132339   1.966   0.803   1.612  0.6255 -0.3869 -0.1231
 6901SOL    HW232340   2.033   0.746   1.494  2.0440 -0.5104  1.4918
 6902SOL     OW32341   0.088   2.444   9.769 -0.2769 -0.3906 -0.7202
 6902SOL    HW132342   0.081   2.431   9.675  2.2082  0.8920 -1.0770
 6902SOL    HW232343   0.014   2.504   9.784 -0.5405 -1.0990  0.8941
 6903SOL     OW32344   4.710   0.622  13.269 -0.1403 -0.0786  0.4352
 6903SOL    HW132345   0.060   0.607  13.304  0.0257 -0.9809 -0.3458
 6903SOL    HW232346   4.666   0.652  13.349 -0.4811  0.5344  0.0169
 6904SOL     OW32347   3.535   2.520   4.465 -0.1307 -0.2817  0.5963
 6904SOL    HW132348   3.585   2.599   4.485  0.6482 -0.0914 -2.1466
 6904SOL    HW232349   3.492   2.491   4.546  2.4688 -0.5746  1.8630
 6905SOL     OW32350   2.037   0.095   5.058  0.4110 -0.3055  0.2681
 6905SOL    HW132351   2.103   0.129   4.998 -0.7854  2.1078  0.3246
 6905SOL    HW232352   2.083   0.038   5.119  0.9101  1.9956  2.0331
 6906SOL     OW32353   1.573   0.860   6.528  0.8108  0.1820  0.1600
 6906SOL    HW132354   1.540   0.819   6.608  1.1840 -1.4214 -0.4947
 6906SOL    HW232355   1.646   0.798   6.520  1.0232  1.1413 -5.1275
 6907SOL     OW32356   4.568   1.943   9.168 -0.2394  0.7324  0.6982
 6907SOL    HW132357   4.557   1.941   9.263 -1.4527  0.8163  0.5549
 6907SOL    HW232358   4.546   1.852   9.149 -1.4850  0.6837  2.4437
 6908SOL     OW32359   0.312   3.243   2.825 -0.4612  0.1725  0.0809
 6908SOL    HW132360   0.267   3.321   2.857 -0.4327  1.3025 -2.6044
 6908SOL    HW232361   0.392   3.276   2.784 -0.4806  1.6144  1.1923
 6909SOL     OW32362   2.526   2.000   8.015  0.5507  0.2434 -0.3762
 6909SOL    HW132363   2.557   1.910   8.013 -0.9036 -0.2664  0.4030
 6909SOL    HW232364   2.586   2.027   8.083  1.1942 -1.5172 -0.2452
 6910SOL     OW32365   3.143   1.614  14.855 -0.3356 -0.5745 -0.2512
 6910SOL    HW132366   3.083   1.548  14.891  1.1650 -3.0146 -2.2144
 6910SOL    HW232367   3.227   1.569  14.852  0.4113  1.1582 -4.5113
 6911SOL     OW32368   0.334   3.657   2.117  0.2020 -0.0114  0.1437
 6911SOL    HW132369   0.400   3.647   2.186 -1.5654 -1.4768  1.6080
 6911SOL    HW232370   0.382   3.711   2.055 -2.0814  1.6227 -0.2184
 6912SOL     OW32371   3.542   2.146   3.121  0.1382 -0.1681  0.3369
 6912SOL    HW132372   3.588   2.065   3.143  0.0770 -0.3466 -0.1949
 6912SOL    HW232373   3.566   2.153   3.029  0.6556  0.9795  0.5603
 6913SOL     OW32374   0.545   2.558  10.197 -0.5502  0.3586 -0.0964
 6913SOL    HW132375   0.494   2.478  10.212 -0.8377  0.2233 -1.8086
 6913SOL    HW232376   0.549   2.554  10.101 -1.4909 -0.8178 -0.0936
 6914SOL     OW32377   0.720   3.311   2.891 -0.0183 -0.4131 -0.1141
 6914SOL    HW132378   0.750   3.225   2.920 -0.7934 -0.5970  0.1558
 6914SOL    HW232379   0.723   3.366   2.970 -1.0883  1.0335 -1.0894
 6915SOL     OW32380   0.250   0.935   8.766  0.3286 -0.2170 -0.2851
 6915SOL    HW132381   0.294   0.852   8.748  0.7338  0.6300 -3.1537
 6915SOL    HW232382   0.307   0.976   8.831 -1.0413 -0.5287  1.1332
 6916SOL     OW32383   1.708   0.663   4.106 -0.3476 -0.9576 -0.1402
 6916SOL    HW132384   1.772   0.701   4.046 -0.8880 -2.1522 -1.4782
 6916SOL    HW232385   1.631   0.671   4.050 -2.1368 -2.4851  2.0798
 6917SOL     OW32386   1.072   1.374  13.411 -0.3549  0.2633  0.0872
 6917SOL    HW132387   1.139   1.419  13.462 -1.3825  0.2713  1.4234
 6917SOL    HW232388   1.130   1.327  13.351 -1.0042  0.4636 -0.6931
 6918SOL     OW32389   4.475   0.068   0.356 -0.3597 -0.0450  0.0544
 6918SOL    HW132390   4.455   0.126   0.430  0.7068 -1.8629  1.7713
 6918SOL    HW232391   4.552   0.108   0.315 -0.4547  0.3364  0.2465
 6919SOL     OW32392   4.685   2.921   9.704 -0.2232  0.2855  0.6418
 6919SOL    HW132393   4.625   2.993   9.685 -0.5356 -0.1269  0.0670
 6919SOL    HW232394   0.031   2.965   9.717  0.2286 -0.3758  0.0100
 6920SOL     OW32395   3.473   2.748   8.378 -0.3903  0.4576  0.4661
 6920SOL    HW132396   3.538   2.794   8.326 -1.0153  0.6361 -0.1478
 6920SOL    HW232397   3.418   2.702   8.314 -0.6513 -1.0886  1.7670
 6921SOL     OW32398   3.661   2.667  13.490 -0.7600  0.1969  0.6721
 6921SOL    HW132399   3.590   2.620  13.448  1.1918 -0.9872 -1.2937
 6921SOL    HW232400   3.713   2.692  13.414  1.3191 -2.0233  1.3526
 6922SOL     OW32401   4.015   1.325   3.824  0.2252  0.3016  0.2286
 6922SOL    HW132402   4.024   1.418   3.802 -0.4815  0.4588  0.5984
 6922SOL    HW232403   4.098   1.284   3.799  0.0808  0.7919 -1.0295
 6923SOL     OW32404   3.153   2.948  13.256  0.2129 -0.2797 -0.0420
 6923SOL    HW132405   3.171   2.860  13.290  1.1255 -0.3208 -0.6314
 6923SOL    HW232406   3.096   2.926  13.182  0.1063 -3.4976  0.9839
 6924SOL     OW32407   0.601   1.626   3.338  0.1329  0.0909  0.2844
 6924SOL    HW132408   0.517   1.673   3.333  0.9665  1.3790 -1.6194
 6924SOL    HW232409   0.669   1.692   3.327  1.5962 -1.5747 -0.5903
 6925SOL     OW32410   4.664   2.816  13.087  0.3635 -0.3397  0.3858
 6925SOL    HW132411   4.572   2.791  13.094 -0.1822  1.2376 -1.2319
 6925SOL    HW232412   4.670   2.903  13.127 -0.5026 -0.7671  1.4309
 6926SOL     OW32413   3.868   0.429   5.285 -0.1196 -0.0158  0.6790
 6926SOL    HW132414   3.810   0.354   5.288  0.5216 -0.4293  2.9053
 6926SOL    HW232415   3.896   0.444   5.376 -1.0521  0.6447  0.8499
 6927SOL     OW32416   2.700   4.256   9.054 -0.3424 -0.1321  0.6988
 6927SOL    HW132417   2.791   4.266   9.029 -1.3492  0.1587 -2.8562
 6927SOL    HW232418   2.705   4.323   9.122  1.6275  0.2591  0.1399
 6928SOL     OW32419   1.256   3.638   8.223  0.1509 -0.4916  0.4287
 6928SOL    HW132420   1.163   3.634   8.202  0.1591 -3.7482  1.0791
 6928SOL    HW232421   1.230   3.663   8.312  2.6123  1.1234  0.7135
 6929SOL     OW32422   2.361   4.244   3.686 -0.6309  0.4573 -0.6948
 6929SOL    HW132423   2.346   4.293   3.605  0.6395  0.0880 -1.1474
 6929SOL    HW232424   2.274   4.221   3.718 -0.0937  1.6634  1.6562
 6930SOL     OW32425   4.239   2.218   9.681 -0.4173 -0.5399 -0.1109
 6930SOL    HW132426   4.275   2.159   9.614 -1.4441 -1.2276 -0.0649
 6930SOL    HW232427   4.312   2.278   9.694 -2.5532  1.5488  2.2741
 6931SOL     OW32428   3.589   1.818   5.081  0.1685  0.1334 -0.3105
 6931SOL    HW132429   3.609   1.875   5.156 -0.3028  1.5695 -1.2647
 6931SOL    HW232430   3.659   1.753   5.083 -2.9338 -3.1168  2.3127
 6932SOL     OW32431   2.814   0.065   5.852 -0.2460 -0.2221  0.3685
 6932SOL    HW132432   2.769   0.071   5.768 -0.8848  0.4951  0.7529
 6932SOL    HW232433   2.889   0.020   5.815 -0.3994  0.8141 -1.1887
 6933SOL     OW32434   3.647   2.526   2.147 -0.1166  0.4082  0.5473
 6933SOL    HW132435   3.592   2.598   2.116  1.3711  0.2251 -2.4903
 6933SOL    HW232436   3.727   2.545   2.098  0.1284  1.4309  1.3311
 6934SOL     OW32437   0.906   0.116   2.561 -0.2155 -0.0027 -0.2448
 6934SOL    HW132438   0.878   0.205   2.582 -2.3571 -0.4360 -1.3048
 6934SOL    HW232439   0.983   0.127   2.504  0.5793  1.9993  1.2145
 6935SOL     OW32440   3.621   0.836  17.503 -0.1705 -0.2248 -0.1793
 6935SOL    HW132441   3.592   0.922  17.474 -0.8843 -0.4821 -0.2283
 6935SOL    HW232442   3.713   0.835  17.477 -0.4789  2.9110 -1.3983
 6936SOL     OW32443   1.199   0.506   4.700  0.3919 -0.0248 -0.0839
 6936SOL    HW132444   1.158   0.591   4.681  0.9496  0.6534  1.7240
 6936SOL    HW232445   1.290   0.520   4.673  0.7784 -0.1787  1.1514
 6937SOL     OW32446   2.898   4.014  11.090 -0.2394  0.7686 -0.5176
 6937SOL    HW132447   2.820   3.975  11.130  0.3919  0.1210  0.0743
 6937SOL    HW232448   2.943   3.930  11.079 -1.7117 -0.3668  2.1000
 6938SOL     OW32449   4.692   1.388   8.631 -0.0156  0.4399  0.0296
 6938SOL    HW132450   4.651   1.387   8.717  1.0055  1.4429  0.5266
 6938SOL    HW232451   4.640   1.453   8.583 -1.6141  1.7256  3.5031
 6939SOL     OW32452   0.212   0.955   6.093 -0.0828 -0.1321 -0.4219
 6939SOL    HW132453   0.175   1.017   6.030 -1.1269  1.8852  2.1673
 6939SOL    HW232454   0.274   1.015   6.134  1.0759 -1.1904 -0.6367
 6940SOL     OW32455   0.767   2.992  11.505 -0.1742 -0.6697  0.0233
 6940SOL    HW132456   0.847   3.038  11.481  0.7076 -1.1718  2.0047
 6940SOL    HW232457   0.797   2.902  11.492 -1.5441 -1.0713 -0.3914
 6941SOL     OW32458   3.030   2.861   2.597 -0.1143  0.4405 -0.1377
 6941SOL    HW132459   2.952   2.835   2.645 -0.4698 -0.3611 -1.1666
 6941SOL    HW232460   3.071   2.781   2.565  0.1330  0.4263  0.2086
 6942SOL     OW32461   2.691   0.924   1.376  0.6146 -0.3928 -0.9239
 6942SOL    HW132462   2.741   0.898   1.453 -1.5748 -0.3316  0.5121
 6942SOL    HW232463   2.624   0.980   1.414  1.4602  0.0970 -0.1519
 6943SOL     OW32464   3.264   2.633   3.022  0.6538  0.3924  0.0879
 6943SOL    HW132465   3.345   2.617   3.071 -0.0204 -0.0116  1.0520
 6943SOL    HW232466   3.278   2.726   3.005  1.0242  0.0824 -1.3160
 6944SOL     OW32467   2.951   4.109  12.891  0.5590  0.2219 -0.5993
 6944SOL    HW132468   3.044   4.090  12.899  0.4834  0.2838  0.5110
 6944SOL    HW232469   2.936   4.186  12.947 -1.4739  0.7675 -1.8614
 6945SOL     OW32470   1.233   0.932   0.154 -0.0388 -0.4997 -0.0520
 6945SOL    HW132471   1.196   0.966   0.072  2.0175  2.3417  0.1998
 6945SOL    HW232472   1.238   0.999   0.222 -1.0224  0.3863 -0.8587
 6946SOL     OW32473   0.713   0.938   6.098 -0.0578  0.1298  0.6940
 6946SOL    HW132474   0.689   0.870   6.036 -0.9409  1.9378 -0.9308
 6946SOL    HW232475   0.694   0.884   6.175  1.9451 -0.8966  0.4860
 6947SOL     OW32476   0.786   1.800   1.709 -0.4431  0.9424  0.0664
 6947SOL    HW132477   0.708   1.746   1.721  0.5847 -0.8099 -1.1113
 6947SOL    HW232478   0.783   1.862   1.782  3.2218  0.2707  0.8222
 6948SOL     OW32479   2.173   1.605   6.138  0.7743  0.1774  0.4018
 6948SOL    HW132480   2.146   1.697   6.145  0.3984  0.0535  0.5448
 6948SOL    HW232481   2.209   1.591   6.226  0.6857  0.5065  0.4911
 6949SOL     OW32482   4.597   2.710   6.355 -0.0647 -0.1329 -0.2118
 6949SOL    HW132483   4.539   2.686   6.282 -1.1219  0.0405  0.5641
 6949SOL    HW232484   4.653   2.632   6.351 -0.1232 -0.0616 -2.5100
 6950SOL     OW32485   1.030   0.737   0.992  0.5053  0.0369 -0.1198
 6950SOL    HW132486   1.067   0.825   0.986 -1.8543  0.8112 -2.9635
 6950SOL    HW232487   0.937   0.752   1.007  0.4525 -0.2449 -0.1642
 6951SOL     OW32488   1.844   0.037   1.166 -0.5071 -0.1116 -0.3442
 6951SOL    HW132489   1.761   0.056   1.122  0.0167  0.0096 -1.2724
 6951SOL    HW232490   1.820   0.059   1.256 -0.6725  0.9741 -0.6536
 6952SOL     OW32491   4.002   0.708   3.737  0.2252  0.4872  0.0917
 6952SOL    HW132492   4.030   0.777   3.677  2.2546 -1.8355 -1.6455
 6952SOL    HW232493   4.064   0.716   3.810  0.2495  0.7025  0.0466
 6953SOL     OW32494   3.567   2.364   5.892  0.3971 -0.2772  0.7440
 6953SOL    HW132495   3.532   2.275   5.895  0.4265 -0.2317  2.5488
 6953SOL    HW232496   3.546   2.387   5.802 -2.2998  1.9215  1.9205
 6954SOL     OW32497   1.847   1.888   9.010 -0.3091  0.3512 -0.5243
 6954SOL    HW132498   1.785   1.937   9.064  1.0499 -0.2897  1.6316
 6954SOL    HW232499   1.911   1.869   9.079 -1.7088  0.7272  0.8854
 6955SOL     OW32500   2.985   2.492   9.493 -0.0227  0.4664 -0.6844
 6955SOL    HW132501   3.066   2.480   9.443 -0.3555 -0.5002 -0.9878
 6955SOL    HW232502   2.962   2.404   9.525  1.2896  0.3926  0.0557
 6956SOL     OW32503   2.016   2.806  10.342 -0.3667  0.2255  0.1207
 6956SOL    HW132504   2.088   2.867  10.324 -0.5324  0.5162  0.4352
 6956SOL    HW232505   1.945   2.863  10.371 -0.1934  1.3111 -1.5786
 6957SOL     OW32506   1.098   2.292  17.256 -0.2905 -0.2084 -0.2391
 6957SOL    HW132507   1.191   2.272  17.254 -0.1510  0.0787  2.6410
 6957SOL    HW232508   1.104   2.387  17.264 -1.1729 -0.0176 -1.7812
 6958SOL     OW32509   1.139   0.259   2.439  0.7171  0.0218 -1.0492
 6958SOL    HW132510   1.147   0.350   2.468  3.5786 -0.9431  1.1846
 6958SOL    HW232511   1.227   0.228   2.418  1.3952 -0.1093  1.9748
 6959SOL     OW32512   1.206   2.125   4.396 -0.2862 -0.0232 -0.2080
 6959SOL    HW132513   1.284   2.110   4.449  0.2880  1.1417 -0.7219
 6959SOL    HW232514   1.192   2.219   4.407  0.6054  0.4426 -2.8961
 6960SOL     OW32515   4.308   1.232   0.262  0.4056 -0.0133  0.1667
 6960SOL    HW132516   4.370   1.176   0.309  0.7878 -1.0442 -1.5468
 6960SOL    HW232517   4.261   1.271   0.335 -0.3393  1.2059 -0.9711
 6961SOL     OW32518   2.663   2.850   9.583 -0.4109  0.7831  0.2856
 6961SOL    HW132519   2.723   2.786   9.621  1.0548  0.5394 -2.4432
 6961SOL    HW232520   2.632   2.896   9.661 -2.3896 -1.2862  0.7297
 6962SOL     OW32521   2.066   2.525   6.730  0.0240  0.3845  0.5479
 6962SOL    HW132522   1.982   2.481   6.739  1.1702 -2.0916 -0.9116
 6962SOL    HW232523   2.111   2.486   6.805 -2.0199 -2.3127  0.3819
 6963SOL     OW32524   2.933   1.151   5.586 -0.3504  0.4212  0.2712
 6963SOL    HW132525   2.966   1.069   5.622 -0.0472 -0.6168 -2.4048
 6963SOL    HW232526   2.926   1.137   5.492 -0.6103  0.1859  0.3259
 6964SOL     OW32527   0.924   3.295  14.734 -0.2325  0.5624  0.1680
 6964SOL    HW132528   0.861   3.291  14.662  0.1192 -0.4861 -0.0786
 6964SOL    HW232529   0.886   3.352  14.802  1.8387  1.1625  0.8242
 6965SOL     OW32530   3.334   0.671  11.999 -0.2302  0.2193 -0.1323
 6965SOL    HW132531   3.374   0.695  12.083  1.2036  1.0782 -1.0604
 6965SOL    HW232532   3.243   0.670  12.027  0.0075  1.3370  0.6904
 6966SOL     OW32533   2.639   3.005   3.554 -0.2259 -0.4043  0.0791
 6966SOL    HW132534   2.714   2.955   3.586  0.7963  1.9586  1.3918
 6966SOL    HW232535   2.641   2.982   3.461  0.8877  0.4712 -0.1193
 6967SOL     OW32536   3.774   2.593   7.624  0.2504 -0.2732 -0.0024
 6967SOL    HW132537   3.727   2.649   7.686 -0.6861  1.2780 -2.1096
 6967SOL    HW232538   3.862   2.624   7.645  0.4323 -0.2501 -0.8052
 6968SOL     OW32539   4.644   0.697  10.310 -0.6111  0.5005 -0.3803
 6968SOL    HW132540   4.712   0.756  10.278  1.0625 -1.0386  0.3277
 6968SOL    HW232541   4.662   0.612  10.270 -1.8057 -0.2632  0.7079
 6969SOL     OW32542   2.268   4.114   7.227  0.3969  0.2608 -0.1161
 6969SOL    HW132543   2.305   4.157   7.304  2.0273 -1.4628  0.0797
 6969SOL    HW232544   2.348   4.070   7.198  1.4693  1.2430  1.3500
 6970SOL     OW32545   2.974   0.217   1.665  0.0246  0.8220  0.0695
 6970SOL    HW132546   2.983   0.288   1.729 -0.4362 -1.0374  2.2094
 6970SOL    HW232547   2.900   0.166   1.699 -0.0649  1.9914  1.6238
 6971SOL     OW32548   4.622   3.678  14.506 -0.3120 -0.1974 -0.1209
 6971SOL    HW132549   4.706   3.690  14.550 -1.4686  1.1542  1.7489
 6971SOL    HW232550   4.620   3.584  14.489 -2.1279  0.0722 -1.4735
 6972SOL     OW32551   0.152   1.645   2.760  0.0120 -0.2743 -0.2731
 6972SOL    HW132552   0.118   1.730   2.788 -2.2412 -0.5814 -2.1239
 6972SOL    HW232553   0.247   1.652   2.748  0.2087  1.6366  2.4749
 6973SOL     OW32554   4.180   4.322   2.605 -0.0369  0.4158  0.3391
 6973SOL    HW132555   4.154   4.331   2.696  0.1750 -0.4900  0.4871
 6973SOL    HW232556   4.096   4.335   2.562  1.4276  0.3666 -2.5884
 6974SOL     OW32557   3.197   2.469   3.708 -0.3022  0.3611  0.5451
 6974SOL    HW132558   3.245   2.515   3.639 -0.4272  0.2909  0.4111
 6974SOL    HW232559   3.171   2.540   3.767 -0.6482  0.1498  0.6490
 6975SOL     OW32560   4.380   0.813   0.718  0.0064 -0.6173  0.3442
 6975SOL    HW132561   4.467   0.834   0.685 -0.6059  1.2045 -0.1114
 6975SOL    HW232562   4.322   0.836   0.645  1.6471  1.0619 -0.4188
 6976SOL     OW32563   3.771   1.416  16.315  0.1309 -0.0713 -0.4267
 6976SOL    HW132564   3.824   1.363  16.254  2.7715  1.3228  0.6726
 6976SOL    HW232565   3.718   1.462  16.250  0.7030  0.5305 -0.4682
 6977SOL     OW32566   2.446   3.331   9.700  0.0803  0.5933  0.4450
 6977SOL    HW132567   2.370   3.338   9.641  1.1490 -2.6905 -1.3446
 6977SOL    HW232568   2.415   3.277   9.773 -1.5765 -0.9261 -1.3729
 6978SOL     OW32569   4.507   3.502  13.992 -0.1751 -0.4603 -0.0982
 6978SOL    HW132570   4.477   3.412  13.983  1.6739 -0.9586 -1.2265
 6978SOL    HW232571   4.515   3.524  13.899  1.6013 -1.7380 -0.2582
 6979SOL     OW32572   3.631   2.214  12.101  0.5675  0.7461  0.1833
 6979SOL    HW132573   3.601   2.133  12.141  1.1364  0.6064  0.3329
 6979SOL    HW232574   3.641   2.182  12.012 -2.1406  2.1011 -0.6040
 6980SOL     OW32575   1.723   3.934   6.241  0.1231 -0.3772 -0.0860
 6980SOL    HW132576   1.797   3.879   6.216  0.7657  0.6324 -0.3915
 6980SOL    HW232577   1.685   3.970   6.162  0.2128 -0.1337 -0.0177
 6981SOL     OW32578   3.896   2.640   9.338  0.6502  0.8380 -0.1629
 6981SOL    HW132579   3.894   2.734   9.321  1.4627  0.7249 -0.8722
 6981SOL    HW232580   3.944   2.629   9.419 -0.1802  0.5598  0.2923
 6982SOL     OW32581   1.055   3.227   4.181 -0.7439  0.2581  0.5402
 6982SOL    HW132582   0.966   3.203   4.206 -0.4476  0.1509  1.5001
 6982SOL    HW232583   1.046   3.271   4.096 -0.3976 -1.5764 -0.4570
 6983SOL     OW32584   4.245   0.187   8.145 -0.5494 -0.6320  0.2198
 6983SOL    HW132585   4.242   0.100   8.184 -0.1777  0.3369  2.3723
 6983SOL    HW232586   4.321   0.234   8.178  1.1871 -1.3402 -2.7654
 6984SOL     OW32587   1.851   0.091   8.185 -0.3131  0.1131 -0.4863
 6984SOL    HW132588   1.867   0.030   8.112  1.0795 -2.1529  1.7372
 6984SOL    HW232589   1.854   0.176   8.142  0.2101  0.9431  1.2235
 6985SOL     OW32590   2.736   0.512   1.368 -1.1460  0.1520 -0.9021
 6985SOL    HW132591   2.700   0.472   1.447 -1.8393 -0.6169 -1.6035
 6985SOL    HW232592   2.667   0.578   1.355 -1.7515 -0.6175 -1.6122
 6986SOL     OW32593   1.791   4.712  14.508  0.5455  0.3614 -0.5062
 6986SOL    HW132594   1.864   0.020  14.465 -0.0641  1.7344 -0.1086
 6986SOL    HW232595   1.734   0.051  14.519 -0.2495 -0.2322 -0.5407
 6987SOL     OW32596   3.137   2.513   5.971  0.1846  0.0349  0.1332
 6987SOL    HW132597   3.062   2.466   5.935 -1.9354  3.0064  0.6423
 6987SOL    HW232598   3.132   2.490   6.063  3.0152  1.0702  0.5394
 6988SOL     OW32599   1.823   4.358   7.855  0.2998 -0.1344 -0.4946
 6988SOL    HW132600   1.769   4.406   7.917 -0.6462  0.0987 -1.5011
 6988SOL    HW232601   1.759   4.327   7.790 -0.1770  1.1277 -0.6316
 6989SOL     OW32602   4.166   2.690  14.462  0.4601 -0.0417 -0.0908
 6989SOL    HW132603   4.163   2.638  14.543 -0.1660  1.5977  0.9486
 6989SOL    HW232604   4.102   2.756  14.488  0.1721 -0.4036  0.1219
 6990SOL     OW32605   4.463   3.018  11.351 -0.5265  0.3857 -0.1513
 6990SOL    HW132606   4.533   2.990  11.291 -2.8600  0.7003 -3.0119
 6990SOL    HW232607   4.490   2.966  11.427 -1.8974  0.5613  0.4537
 6991SOL     OW32608   2.663   3.935   9.370 -0.1361  0.2248  0.2929
 6991SOL    HW132609   2.740   3.972   9.413  0.1423 -0.1623  0.1202
 6991SOL    HW232610   2.680   3.937   9.276 -1.3632 -1.4167  0.0441
 6992SOL     OW32611   1.891   3.001  12.652 -0.1606 -0.7856  0.1098
 6992SOL    HW132612   1.816   3.039  12.697  0.1416 -1.4820  1.2157
 6992SOL    HW232613   1.907   3.065  12.583 -0.2867  1.7837  2.4893
 6993SOL     OW32614   1.650   2.631   2.956  0.7022  0.1927  0.1235
 6993SOL    HW132615   1.689   2.690   3.021  2.6010  0.0752 -0.8965
 6993SOL    HW232616   1.656   2.545   2.998  1.6362  0.2067  0.0224
 6994SOL     OW32617   2.950   0.532   1.577  0.3489 -0.1469 -0.2617
 6994SOL    HW132618   2.940   0.589   1.653 -0.9106 -1.6077  0.6536
 6994SOL    HW232619   2.866   0.540   1.531 -0.9453 -0.6882  2.0262
 6995SOL     OW32620   2.045   0.181   1.037 -0.1839 -0.0262  0.0233
 6995SOL    HW132621   1.987   0.121   1.083  0.1744 -0.6643 -0.3560
 6995SOL    HW232622   2.129   0.153   1.071 -1.1315 -0.2824  2.1416
 6996SOL     OW32623   0.910   0.466   6.835  0.0643 -0.0011  0.1821
 6996SOL    HW132624   0.834   0.456   6.778  0.3321 -1.5007  0.0902
 6996SOL    HW232625   0.869   0.433   6.915  0.0234 -0.0218  0.1526
 6997SOL     OW32626   1.089   0.534   2.753  0.3502  1.0593  0.1267
 6997SOL    HW132627   1.009   0.491   2.725  0.0057  0.8752  1.4104
 6997SOL    HW232628   1.151   0.521   2.681  0.6973 -3.0635  1.1527
 6998SOL     OW32629   1.352   3.560  13.383  0.4174 -0.2064  0.0005
 6998SOL    HW132630   1.428   3.618  13.378 -0.1790  0.4006 -1.9574
 6998SOL    HW232631   1.306   3.580  13.465  0.4489  0.4106 -0.1361
 6999SOL     OW32632   4.042   1.883   2.752  0.2127  0.1843  0.4157
 6999SOL    HW132633   4.098   1.889   2.675 -0.9583 -0.3610 -0.4792
 6999SOL    HW232634   4.057   1.964   2.799 -0.7297 -0.3549  1.6415
 7000SOL     OW32635   3.624   0.171   5.212 -0.0212 -0.0090 -0.9253
 7000SOL    HW132636   3.607   0.226   5.135 -1.6937  0.1161 -0.4705
 7000SOL    HW232637   3.694   0.124   5.166 -0.2330 -1.0220 -0.2144
 7001SOL     OW32638   2.063   3.766   5.609  0.3319  0.5415  0.2657
 7001SOL    HW132639   2.118   3.713   5.551  1.4981  1.9630  0.0884
 7001SOL    HW232640   2.072   3.720   5.693  1.3173 -0.8897 -0.6311
 7002SOL     OW32641   4.443   0.049   7.514  0.0923 -0.4167  0.3782
 7002SOL    HW132642   4.452   0.060   7.608  2.4180  0.1051  0.1045
 7002SOL    HW232643   4.378   0.116   7.493  0.3187 -0.0220  0.9671
 7003SOL     OW32644   1.595   1.335  15.164 -0.2729  0.6423  0.2756
 7003SOL    HW132645   1.619   1.369  15.077  1.9716 -1.5262  0.0643
 7003SOL    HW232646   1.515   1.289  15.139  0.3702 -0.1996 -0.2319
 7004SOL     OW32647   4.015   0.861  14.195  0.4864  0.1401 -0.3126
 7004SOL    HW132648   4.086   0.911  14.156  0.7694  0.1456  0.2098
 7004SOL    HW232649   3.963   0.932  14.234 -2.6784 -2.6304  0.4833
 7005SOL     OW32650   4.359   3.599   2.953  0.2763  0.0788 -0.2278
 7005SOL    HW132651   4.344   3.687   2.919 -2.3970  0.3768  1.7033
 7005SOL    HW232652   4.436   3.571   2.905 -0.8144  0.7263 -2.3672
 7006SOL     OW32653   3.039   3.779  11.068 -0.5885 -0.4427 -0.2766
 7006SOL    HW132654   3.098   3.753  11.138  0.3824  0.6772 -0.6649
 7006SOL    HW232655   2.997   3.702  11.031  0.1758 -0.5564 -0.9136
 7007SOL     OW32656   2.141   3.117   7.986  0.1476  0.5471 -0.2599
 7007SOL    HW132657   2.163   3.194   7.933 -1.1069 -1.1057 -3.1911
 7007SOL    HW232658   2.215   3.065   7.955 -2.4168 -2.4570 -1.3600
 7008SOL     OW32659   1.511   2.197   7.514 -0.2285 -0.0497  0.9131
 7008SOL    HW132660   1.541   2.223   7.426  0.3734  2.2398  1.7846
 7008SOL    HW232661   1.454   2.123   7.493 -0.4836  1.3222 -3.2481
 7009SOL     OW32662   1.045   0.652   5.493  0.0866 -0.7192 -0.0177
 7009SOL    HW132663   1.016   0.712   5.425  1.8639 -1.5478 -1.5140
 7009SOL    HW232664   1.080   0.714   5.558 -1.9989 -2.7263  2.9920
 7010SOL     OW32665   0.645   4.438  15.405  0.1715 -0.3916 -0.2782
 7010SOL    HW132666   0.565   4.467  15.449  0.0058 -0.4115 -0.5693
 7010SOL    HW232667   0.713   4.475  15.461  0.5814 -0.4609 -0.7344
 7011SOL     OW32668   2.644   2.924   9.313 -0.4018 -0.1165  0.0247
 7011SOL    HW132669   2.649   3.020   9.309  0.2894 -0.1086  1.1041
 7011SOL    HW232670   2.656   2.914   9.408  3.5694 -2.3819 -0.6888
 7012SOL     OW32671   0.273   3.605   3.994 -0.3800  0.2833 -0.6319
 7012SOL    HW132672   0.239   3.556   3.919  1.9230 -0.7633 -0.9735
 7012SOL    HW232673   0.195   3.639   4.039 -0.7592  0.7891 -1.6646
 7013SOL     OW32674   2.599   4.141   2.104  0.4232  0.4634  0.1255
 7013SOL    HW132675   2.678   4.124   2.053 -0.1972  0.6424 -0.8840
 7013SOL    HW232676   2.650   4.136   2.185 -0.3892 -4.4109  0.3745
 7014SOL     OW32677   2.107   1.032  10.914 -0.1591  0.0599 -0.4262
 7014SOL    HW132678   2.186   0.978  10.916 -0.0017  0.3296  1.0687
 7014SOL    HW232679   2.128   1.088  10.989 -1.7905 -1.5431  1.2283
 7015SOL     OW32680   1.984   1.393   6.152 -0.3198 -0.2534  0.3309
 7015SOL    HW132681   2.029   1.344   6.221  0.6390 -3.5517 -2.5871
 7015SOL    HW232682   2.034   1.474   6.148 -1.5210  0.5220  1.1229
 7016SOL     OW32683   1.954   0.782  17.138 -0.4404  0.0113 -0.4762
 7016SOL    HW132684   1.969   0.691  17.112  1.4648 -0.3138  1.7874
 7016SOL    HW232685   1.988   0.827  17.060 -0.7823 -0.5654 -0.9557
 7017SOL     OW32686   4.033   4.233   3.520 -0.1854  0.2291 -0.3596
 7017SOL    HW132687   4.082   4.222   3.601  1.3242 -2.2778 -1.5886
 7017SOL    HW232688   3.988   4.311   3.551  0.1377 -0.0179  0.7017
 7018SOL     OW32689   1.965   0.332   3.772 -0.2700  0.1016 -0.2047
 7018SOL    HW132690   1.908   0.332   3.849  1.4040  3.0245  0.9818
 7018SOL    HW232691   1.893   0.319   3.710  1.2809 -1.2080 -1.7591
 7019SOL     OW32692   3.552   4.050   3.502  0.2348  0.2989 -0.1013
 7019SOL    HW132693   3.594   4.087   3.579 -1.3677  0.9365  0.4690
 7019SOL    HW232694   3.625   3.993   3.478  1.3298  0.6049  2.5472
 7020SOL     OW32695   1.615   3.557   9.478 -0.1248  0.1840  0.4915
 7020SOL    HW132696   1.582   3.646   9.464 -0.1875  0.2077  0.7795
 7020SOL    HW232697   1.705   3.555   9.445 -1.0566  0.4263 -2.0332
 7021SOL     OW32698   0.540   3.011   9.570 -0.3160  0.1606 -0.8373
 7021SOL    HW132699   0.557   2.923   9.601 -1.1353  0.8003  1.3887
 7021SOL    HW232700   0.537   2.987   9.477 -2.5712 -3.7706  0.2378
 7022SOL     OW32701   2.413   3.658  10.235  0.3914 -0.3089 -0.1825
 7022SOL    HW132702   2.446   3.628  10.150 -0.5166 -1.1025 -0.2594
 7022SOL    HW232703   2.470   3.732  10.255  0.9503 -0.3100 -1.7179
 7023SOL     OW32704   0.872   4.132  11.587  0.0509  0.2196  0.3380
 7023SOL    HW132705   0.908   4.209  11.543 -0.0715 -0.9490 -1.8238
 7023SOL    HW232706   0.923   4.065  11.540 -1.3842 -1.1001  0.6512
 7024SOL     OW32707   2.557   3.341  11.916  0.1292 -0.3986 -1.0582
 7024SOL    HW132708   2.536   3.285  11.991 -0.9027  1.2887 -0.1070
 7024SOL    HW232709   2.471   3.383  11.907  0.2484 -0.0193 -0.3925
 7025SOL     OW32710   3.451   3.260   0.232 -0.6105  0.5501 -0.1381
 7025SOL    HW132711   3.426   3.320   0.303 -1.3339  1.4051 -1.1104
 7025SOL    HW232712   3.447   3.313   0.153 -0.1146 -0.8650 -1.1106
 7026SOL     OW32713   1.319   3.074   4.158  0.1066  0.1456  0.1768
 7026SOL    HW132714   1.282   2.991   4.188 -0.3250  0.2172 -0.1600
 7026SOL    HW232715   1.246   3.132   4.180  1.6417  1.7901  0.9492
 7027SOL     OW32716   4.279   3.275   7.357 -0.2470  0.2383 -0.0711
 7027SOL    HW132717   4.188   3.305   7.365 -0.3683 -0.2304  0.2902
 7027SOL    HW232718   4.271   3.186   7.322  0.2931  0.0090  0.3858
 7028SOL     OW32719   2.375   4.599   7.186  0.4938  0.6126  0.0682
 7028SOL    HW132720   2.416   4.657   7.122  0.3949 -0.3004 -0.8186
 7028SOL    HW232721   2.388   4.655   7.262  2.3172  0.0920  0.1279
 7029SOL     OW32722   0.209   4.417   9.631 -0.0368  0.0470  0.1581
 7029SOL    HW132723   0.209   4.504   9.669  1.3471  0.2912 -0.4232
 7029SOL    HW232724   0.126   4.379   9.663  0.9912  0.4670  3.3093
 7030SOL     OW32725   3.195   4.080  16.685 -0.0257  0.4119  0.1640
 7030SOL    HW132726   3.268   4.032  16.724 -1.7315 -0.7379  1.8630
 7030SOL    HW232727   3.173   4.013  16.620 -0.3360  0.5184  0.1606
 7031SOL     OW32728   4.494   3.499  17.054  0.2979  0.2882 -0.2920
 7031SOL    HW132729   4.400   3.481  17.044 -0.1701  2.6123  0.1421
 7031SOL    HW232730   4.504   3.498  17.149 -1.8533 -0.8451 -0.0731
 7032SOL     OW32731   2.362   2.232  16.913  0.5285  0.2638 -0.1760
 7032SOL    HW132732   2.312   2.156  16.944 -0.3551  1.4264  1.2361
 7032SOL    HW232733   2.405   2.273  16.989  0.1198  0.7642 -0.2202
 7033SOL     OW32734   0.319   2.575   8.283  0.0522 -0.4515 -0.0430
 7033SOL    HW132735   0.298   2.668   8.274 -0.6972 -0.2652  3.6106
 7033SOL    HW232736   0.227   2.549   8.294  0.6887 -2.8930 -0.4878
 7034SOL     OW32737   0.587   1.952  13.277 -0.2106  0.1531  0.2409
 7034SOL    HW132738   0.526   2.018  13.310  0.5508  0.2691  1.4470
 7034SOL    HW232739   0.590   1.978  13.185  1.0260 -0.3751  0.1318
 7035SOL     OW32740   3.324   0.773   7.179  0.5541 -0.1425 -1.0131
 7035SOL    HW132741   3.328   0.799   7.088  2.0296  0.3616 -0.8013
 7035SOL    HW232742   3.392   0.823   7.225  1.1444 -1.3979 -0.4873
 7036SOL     OW32743   4.223   1.132  15.963 -0.3150 -0.1879 -0.0038
 7036SOL    HW132744   4.202   1.159  15.874 -0.5641  2.9989  1.0178
 7036SOL    HW232745   4.145   1.081  15.984 -1.4294  1.9079  0.9789
 7037SOL     OW32746   0.758   3.614   8.951 -0.3847  0.1194  0.2138
 7037SOL    HW132747   0.770   3.537   8.895  0.6081 -1.0959  2.1075
 7037SOL    HW232748   0.810   3.591   9.028  0.6044 -0.0777 -0.5062
 7038SOL     OW32749   2.248   0.877   8.978  0.6701  0.0524  0.2018
 7038SOL    HW132750   2.336   0.857   9.008  1.6020  1.0637 -1.8926
 7038SOL    HW232751   2.256   0.852   8.887 -4.5097 -3.0446  0.5958
 7039SOL     OW32752   2.202   0.503   1.597  0.0493  0.1147 -0.0299
 7039SOL    HW132753   2.203   0.410   1.572  1.3192  0.3479 -0.8761
 7039SOL    HW232754   2.128   0.535   1.545 -1.0923  0.4084  1.7908
 7040SOL     OW32755   0.502   0.679  14.606  0.1327  0.1248 -0.0507
 7040SOL    HW132756   0.513   0.701  14.514 -0.9136 -0.7364 -0.3797
 7040SOL    HW232757   0.446   0.602  14.597 -0.8975  1.0879 -1.8980
 7041SOL     OW32758   3.416   0.867   4.330  0.0482 -0.0228  0.0880
 7041SOL    HW132759   3.367   0.837   4.254  0.0660 -0.4775  0.2547
 7041SOL    HW232760   3.488   0.925   4.304 -0.7175  0.5976 -0.6572
 7042SOL     OW32761   4.169   1.895  12.931 -0.0630  0.1778 -0.0104
 7042SOL    HW132762   4.084   1.938  12.919  1.4417  2.9353 -0.6019
 7042SOL    HW232763   4.211   1.954  12.994  1.2616  1.1555 -1.8397
 7043SOL     OW32764   3.397   3.308   5.697 -0.0747  0.2667  0.1276
 7043SOL    HW132765   3.393   3.212   5.698  0.5965  0.2341  0.2637
 7043SOL    HW232766   3.417   3.332   5.787  1.2238 -1.4814  0.3188
 7044SOL     OW32767   3.544   0.372   9.270 -0.6546 -0.8785  0.2806
 7044SOL    HW132768   3.604   0.328   9.330  0.9150 -0.1037 -0.7089
 7044SOL    HW232769   3.467   0.317   9.284 -1.1840 -0.3008 -0.3510
 7045SOL     OW32770   1.522   1.901  11.450 -0.1459 -0.0718  0.4562
 7045SOL    HW132771   1.542   1.935  11.537  0.9994 -0.5715  0.3843
 7045SOL    HW232772   1.459   1.966  11.417  0.3508 -0.1519 -0.6328
 7046SOL     OW32773   3.405   0.180   6.894 -0.4553  0.1357  0.5120
 7046SOL    HW132774   3.332   0.159   6.952 -0.9843 -0.8541 -0.5181
 7046SOL    HW232775   3.374   0.158   6.806 -1.5709  0.4678  0.8210
 7047SOL     OW32776   2.314   1.272   5.420 -0.5026  0.2640 -0.1021
 7047SOL    HW132777   2.248   1.228   5.474 -2.0964 -1.1620 -3.2102
 7047SOL    HW232778   2.389   1.212   5.418 -1.6547 -1.0823 -2.5166
 7048SOL     OW32779   0.197   1.192   4.354 -0.7141  0.0716  0.2962
 7048SOL    HW132780   0.202   1.220   4.263  0.1250 -0.2575  0.2401
 7048SOL    HW232781   0.290   1.200   4.376 -1.2879  4.1676  1.1208
 7049SOL     OW32782   3.970   2.513   7.850  0.1866 -0.0155  0.4688
 7049SOL    HW132783   4.028   2.562   7.908 -1.0209  1.9197  0.0188
 7049SOL    HW232784   4.021   2.435   7.828 -1.0717 -0.7705  0.1946
 7050SOL     OW32785   0.289   0.438   6.155 -0.4417  0.7094  0.5044
 7050SOL    HW132786   0.313   0.510   6.097  0.8963  0.8638  1.2591
 7050SOL    HW232787   0.231   0.380   6.106 -1.2452  0.5985  1.5938
 7051SOL     OW32788   2.819   0.808  11.867 -0.0606  0.5000 -0.0303
 7051SOL    HW132789   2.735   0.831  11.908 -1.0170 -1.2231 -0.9969
 7051SOL    HW232790   2.797   0.758  11.788  2.3695  0.2574 -0.5339
 7052SOL     OW32791   1.155   0.206  12.364 -0.3135 -0.3543 -0.6020
 7052SOL    HW132792   1.126   0.272  12.301 -2.0041 -2.1305 -1.6763
 7052SOL    HW232793   1.198   0.257  12.433  2.2134 -2.9409 -0.2176
 7053SOL     OW32794   3.058   1.908   8.084 -0.3210  0.3991 -0.3791
 7053SOL    HW132795   3.050   1.815   8.104 -1.6123  0.8124  1.0754
 7053SOL    HW232796   3.147   1.918   8.050 -0.2951  1.5641  0.0155
 7054SOL     OW32797   1.846   1.659   2.413  0.0967  0.3318 -0.5019
 7054SOL    HW132798   1.867   1.567   2.431  0.6971  0.2532 -1.6530
 7054SOL    HW232799   1.755   1.650   2.386  0.0356  0.5540 -0.3699
 7055SOL     OW32800   2.185   2.109   5.442  0.3355 -0.0385 -0.5009
 7055SOL    HW132801   2.271   2.074   5.464 -0.4233 -0.7319  1.3659
 7055SOL    HW232802   2.163   2.073   5.356 -0.5225  3.1567 -1.6336
 7056SOL     OW32803   2.992   0.762   3.549  0.4307 -0.5110 -0.0348
 7056SOL    HW132804   3.068   0.743   3.493  0.2127  2.6097 -1.3540
 7056SOL    HW232805   2.993   0.685   3.607  1.2012 -1.6887 -1.5951
 7057SOL     OW32806   4.191   1.148   3.015 -0.0825  0.0286  0.2160
 7057SOL    HW132807   4.123   1.176   2.954  1.1912  1.6831 -0.4451
 7057SOL    HW232808   4.182   1.053   3.023 -2.4902  0.3035  0.7353
 7058SOL     OW32809   2.095   3.311   5.242 -0.0662  0.2455  0.6491
 7058SOL    HW132810   2.128   3.299   5.331 -2.1869  3.0118  1.7754
 7058SOL    HW232811   2.149   3.248   5.193 -0.8289  0.1034  0.0005
 7059SOL     OW32812   1.383   3.831   8.930 -0.4290 -0.5354  0.0723
 7059SOL    HW132813   1.335   3.820   9.012  0.4197  1.0694  0.7841
 7059SOL    HW232814   1.395   3.740   8.905 -3.4840 -1.2216  1.0891
 7060SOL     OW32815   3.616   0.145  13.873 -0.1669  0.3124  0.0165
 7060SOL    HW132816   3.657   0.227  13.847 -0.3329  0.2024 -0.5749
 7060SOL    HW232817   3.608   0.097  13.791 -1.3633 -0.3192  0.5085
 7061SOL     OW32818   4.531   3.116   0.959 -0.4583 -0.0827  0.3333
 7061SOL    HW132819   4.450   3.066   0.951 -1.1030  1.0356 -0.1170
 7061SOL    HW232820   4.526   3.150   0.870 -3.0023 -1.2481  0.0526
 7062SOL     OW32821   0.582   4.456   4.463  0.4372 -0.1610  0.0523
 7062SOL    HW132822   0.579   4.380   4.404  1.6814  0.4563 -0.7964
 7062SOL    HW232823   0.669   4.451   4.501  0.7430  0.8819 -0.5247
 7063SOL     OW32824   2.626   3.571  13.202  0.5274  0.0409  0.4416
 7063SOL    HW132825   2.573   3.612  13.133 -0.6463  0.3212  1.4993
 7063SOL    HW232826   2.717   3.560  13.175 -0.1992 -2.0042 -1.1008
 7064SOL     OW32827   2.905   4.689   3.259  0.3653  0.0714  0.1736
 7064SOL    HW132828   2.905   4.607   3.211 -0.1110 -0.1462  0.5543
 7064SOL    HW232829   2.902   4.663   3.351 -0.0801 -1.5971 -0.3185
 7065SOL     OW32830   0.445   3.326   9.271 -0.4230 -0.6293 -0.6239
 7065SOL    HW132831   0.351   3.318   9.255 -1.2289  0.2102  3.5136
 7065SOL    HW232832   0.475   3.387   9.204 -0.1519 -0.7471 -0.6082
 7066SOL     OW32833   2.380   1.216   5.971 -0.2424  0.0951  0.0475
 7066SOL    HW132834   2.344   1.132   5.944  1.2298 -0.7673  0.7875
 7066SOL    HW232835   2.439   1.180   6.036  0.1275 -1.1242 -0.9726
 7067SOL     OW32836   1.852   3.503   4.051 -0.3504 -0.1424 -0.7183
 7067SOL    HW132837   1.809   3.558   4.117  1.9159 -1.3488  1.7522
 7067SOL    HW232838   1.791   3.515   3.978  0.2038 -2.5838 -1.5671
 7068SOL     OW32839   4.627   2.628   9.762 -0.2256 -0.1732  0.5094
 7068SOL    HW132840   4.549   2.669   9.725  0.7136  0.9182 -0.2829
 7068SOL    HW232841   4.684   2.705   9.766 -0.3837  0.0356 -1.2944
 7069SOL     OW32842   2.657   2.801   5.549  0.7667  0.3938 -0.6027
 7069SOL    HW132843   2.640   2.724   5.495 -0.8631 -0.8819  1.6994
 7069SOL    HW232844   2.575   2.851   5.544  0.6574  0.2065 -0.6609
 7070SOL     OW32845   0.788   1.595   3.567 -0.0955 -0.3320 -0.4378
 7070SOL    HW132846   0.723   1.650   3.610  2.8347  3.1589 -0.4780
 7070SOL    HW232847   0.757   1.513   3.607 -1.1039  0.6405  0.7520
 7071SOL     OW32848   0.043   4.596   4.891 -0.4315 -0.0534  0.1010
 7071SOL    HW132849   0.026   4.653   4.965  1.6628  0.8107 -0.0761
 7071SOL    HW232850   0.057   4.518   4.945  1.0565 -0.2305 -0.5381
 7072SOL     OW32851   3.168   3.300   8.289 -0.0663 -0.3402  0.3335
 7072SOL    HW132852   3.199   3.300   8.380  1.2363 -1.0803 -0.1071
 7072SOL    HW232853   3.151   3.208   8.270 -0.5596 -0.5052  1.5745
 7073SOL     OW32854   1.910   4.071   6.471 -0.3736  0.2834 -0.1074
 7073SOL    HW132855   1.825   4.028   6.476 -0.8537  1.2871  0.2524
 7073SOL    HW232856   1.952   4.019   6.403 -0.8422 -0.6242  0.2996
 7074SOL     OW32857   3.413   4.306   7.115  0.2721  0.5908 -0.0099
 7074SOL    HW132858   3.469   4.380   7.092 -0.5671  1.4743  0.8225
 7074SOL    HW232859   3.370   4.308   7.030  0.2460 -1.0120 -0.0457
 7075SOL     OW32860   4.191   0.180   3.249 -0.2355 -0.9389 -1.0213
 7075SOL    HW132861   4.135   0.123   3.196 -0.4539 -0.7935 -0.9482
 7075SOL    HW232862   4.266   0.181   3.191 -0.6781 -2.4698 -1.6268
 7076SOL     OW32863   1.483   1.381   3.470  0.2597 -0.4835 -0.2543
 7076SOL    HW132864   1.442   1.342   3.393  1.9551  0.6425 -1.7245
 7076SOL    HW232865   1.572   1.356   3.448  0.4286 -1.2021  1.2002
 7077SOL     OW32866   3.048   3.628   8.918 -0.3157  0.0425 -0.9954
 7077SOL    HW132867   3.032   3.676   8.837 -0.9894  0.8022 -0.4034
 7077SOL    HW232868   2.959   3.592   8.925 -0.0680 -1.2595 -4.6228
 7078SOL     OW32869   1.884   0.908  10.837  0.0741  0.1559 -0.1173
 7078SOL    HW132870   1.952   0.961  10.878  1.9148 -2.0490 -0.3683
 7078SOL    HW232871   1.829   0.982  10.810 -1.4531 -1.1270 -0.4738
 7079SOL     OW32872   3.803   4.206  17.103  0.1173 -0.2015 -0.1239
 7079SOL    HW132873   3.874   4.143  17.099  1.2873  1.0759  0.5378
 7079SOL    HW232874   3.852   4.269  17.155  1.2424 -2.2678  1.2995
 7080SOL     OW32875   0.257   2.620   4.641 -0.1101 -0.4211 -0.3111
 7080SOL    HW132876   0.233   2.699   4.591 -0.7668 -0.0738  0.5512
 7080SOL    HW232877   0.342   2.604   4.600  1.2331 -0.0308  2.3152
 7081SOL     OW32878   3.550   3.250   8.391  0.1169 -0.0987 -0.1966
 7081SOL    HW132879   3.564   3.316   8.459  0.9913  1.3292 -1.7711
 7081SOL    HW232880   3.619   3.275   8.331 -1.5152  2.7039 -0.8883
 7082SOL     OW32881   4.583   2.983  10.243  0.6259  0.3526  0.1766
 7082SOL    HW132882   4.514   2.918  10.249  1.1176 -0.0858  1.0642
 7082SOL    HW232883   4.596   3.018  10.331  0.3052  0.0517  0.3444
 7083SOL     OW32884   3.298   1.544   2.690 -0.3299 -0.3697  0.4447
 7083SOL    HW132885   3.370   1.500   2.735  0.5119 -0.1427 -0.6668
 7083SOL    HW232886   3.304   1.627   2.737  1.8679 -0.3240  0.0905
 7084SOL     OW32887   2.262   1.125   4.436  0.3482 -0.0322  0.2094
 7084SOL    HW132888   2.310   1.043   4.445 -0.3397 -0.4587  0.0344
 7084SOL    HW232889   2.339   1.180   4.426 -0.1827  0.4821 -1.1091
 7085SOL     OW32890   4.735   2.609  12.770  0.2715 -0.1060 -0.4001
 7085SOL    HW132891   0.019   2.530  12.720 -0.8445 -0.3371 -0.5131
 7085SOL    HW232892   4.674   2.570  12.833 -0.9444  3.2671  0.4952
 7086SOL     OW32893   4.679   4.292   2.710  0.0069 -0.6192  0.2136
 7086SOL    HW132894   4.656   4.203   2.737 -1.6183 -0.4112 -0.4718
 7086SOL    HW232895   4.609   4.341   2.753  0.3872  0.3045 -0.2317
 7087SOL     OW32896   1.661   3.255   8.548 -0.1830 -0.3905 -0.1053
 7087SOL    HW132897   1.579   3.280   8.505 -0.5169 -0.7119  0.3561
 7087SOL    HW232898   1.683   3.169   8.513  0.2461  0.4482 -1.9369
 7088SOL     OW32899   3.852   2.471   4.977 -0.1267  0.0422  0.1943
 7088SOL    HW132900   3.824   2.466   4.886 -1.1132 -1.7477  0.5923
 7088SOL    HW232901   3.810   2.556   4.988  0.4911  0.0963  2.2554
 7089SOL     OW32902   0.527   0.383   5.127  0.1157  0.3010 -0.2058
 7089SOL    HW132903   0.543   0.303   5.177 -0.7577 -0.4110 -1.0835
 7089SOL    HW232904   0.460   0.431   5.176  2.5145  1.4534  1.9790
 7090SOL     OW32905   1.669   0.546  11.088  0.3873 -0.2487 -0.5663
 7090SOL    HW132906   1.672   0.555  10.992 -0.0527  3.3129 -0.2231
 7090SOL    HW232907   1.763   0.562  11.101  0.4808 -0.1008 -1.3728
 7091SOL     OW32908   4.437   0.390   3.093  0.0946  0.2570  0.4598
 7091SOL    HW132909   4.381   0.355   3.024  1.3055 -2.0935  0.6702
 7091SOL    HW232910   4.506   0.437   3.046 -1.6054  0.5830 -1.6823
 7092SOL     OW32911   4.315   2.490  12.657 -0.4952  0.1549  0.0736
 7092SOL    HW132912   4.342   2.542  12.733 -0.8356  1.8867 -0.9914
 7092SOL    HW232913   4.336   2.401  12.688  0.9484 -0.0914 -1.5672
 7093SOL     OW32914   1.326   4.124   0.208 -0.0977 -0.1918  0.0319
 7093SOL    HW132915   1.312   4.145   0.115  0.6285  2.5077  0.5294
 7093SOL    HW232916   1.385   4.050   0.197 -0.9382 -1.1574  2.2007
 7094SOL     OW32917   2.451   3.259   5.038 -0.4472  0.0364 -0.1286
 7094SOL    HW132918   2.498   3.204   4.975 -0.1243  0.7260 -0.4937
 7094SOL    HW232919   2.451   3.351   5.010  0.3037  0.5871  1.6601
 7095SOL     OW32920   2.370   2.907  10.048  0.6955 -0.3708  0.2893
 7095SOL    HW132921   2.371   2.907   9.952 -1.7584 -0.1199  0.2541
 7095SOL    HW232922   2.304   2.977  10.056  0.1893 -1.1124  2.7125
 7096SOL     OW32923   3.595   1.627   5.650 -0.5494  0.0005  0.4148
 7096SOL    HW132924   3.678   1.593   5.683 -0.5490  0.4238  0.8469
 7096SOL    HW232925   3.562   1.558   5.592  1.1890  0.5747 -1.2503
 7097SOL     OW32926   2.981   2.825   6.024 -0.2209  0.4025  0.1710
 7097SOL    HW132927   2.890   2.856   6.032 -0.3581  0.5965 -1.9131
 7097SOL    HW232928   2.975   2.794   5.933 -2.5981  1.5733 -0.0877
 7098SOL     OW32929   4.135   4.265   2.237  0.6390 -0.1040  0.4601
 7098SOL    HW132930   4.083   4.340   2.211  0.0199 -1.2123 -1.5055
 7098SOL    HW232931   4.123   4.204   2.164 -0.1602  1.8212 -0.9915
 7099SOL     OW32932   3.046   2.650  10.503 -0.1692  0.0820 -0.3639
 7099SOL    HW132933   2.980   2.710  10.540  0.4773 -0.4306  1.5778
 7099SOL    HW232934   3.125   2.703  10.503 -0.1593  0.0654 -0.2623
 7100SOL     OW32935   3.433   2.823   1.652 -0.4081 -0.2968  0.0205
 7100SOL    HW132936   3.377   2.761   1.606 -0.1188  0.5148 -1.4121
 7100SOL    HW232937   3.514   2.775   1.635  0.2030  0.2530  1.3092
 7101SOL     OW32938   1.882   0.874   4.711  0.4255  0.0335 -0.0292
 7101SOL    HW132939   1.942   0.910   4.645  1.1821  0.2094  0.7528
 7101SOL    HW232940   1.806   0.931   4.695 -0.1671 -0.1434  2.1479
 7102SOL     OW32941   0.543   0.756  17.364  0.6291  0.4273  0.3130
 7102SOL    HW132942   0.503   0.689  17.420 -1.2247  1.1255 -0.1598
 7102SOL    HW232943   0.591   0.803  17.431  2.1658 -0.0500 -0.4570
 7103SOL     OW32944   4.712   2.187   5.885 -0.1047 -0.0546 -0.1684
 7103SOL    HW132945   0.066   2.214   5.897 -0.0092 -0.2319 -0.4921
 7103SOL    HW232946   4.691   2.244   5.812  0.1991 -0.9837 -0.9818
 7104SOL     OW32947   0.987   3.283   7.261  0.0097 -0.0382 -0.1579
 7104SOL    HW132948   1.052   3.230   7.307 -0.4135 -0.4984 -0.0874
 7104SOL    HW232949   0.917   3.221   7.239 -1.7896  2.0404 -0.2232
 7105SOL     OW32950   1.725   2.988   8.549  0.2599 -0.0323 -0.1652
 7105SOL    HW132951   1.808   2.960   8.510 -0.8829 -1.5564 -1.4879
 7105SOL    HW232952   1.661   2.933   8.503  0.6970  0.8299 -1.7952
 7106SOL     OW32953   2.895   2.878   5.458  0.2150  0.7209  0.3231
 7106SOL    HW132954   2.955   2.804   5.459 -0.7775 -0.0724  1.3446
 7106SOL    HW232955   2.811   2.848   5.492 -0.3910 -0.4347 -2.1213
 7107SOL     OW32956   2.667   4.667   2.026 -0.5168  0.0721  0.5597
 7107SOL    HW132957   2.593   4.609   2.045 -1.9608  1.3649 -1.1061
 7107SOL    HW232958   2.714   4.600   1.977 -2.3873 -1.7035  1.2099
 7108SOL     OW32959   4.109   4.351   4.655 -0.2332  0.5308  0.9191
 7108SOL    HW132960   4.195   4.364   4.694 -0.6951 -0.7806  2.3680
 7108SOL    HW232961   4.139   4.296   4.583  0.8375 -0.1060  1.8732
 7109SOL     OW32962   0.046   0.872   5.076 -0.0272  0.6163 -0.5213
 7109SOL    HW132963   4.719   0.916   5.132 -0.8216 -0.7475 -0.3791
 7109SOL    HW232964   0.061   0.940   5.011 -1.2418  1.0109 -0.3824
 7110SOL     OW32965   0.193   0.056   5.637  0.2288 -0.0511  0.0205
 7110SOL    HW132966   0.185   0.138   5.589  0.9773  0.4528  0.7538
 7110SOL    HW232967   0.140   0.005   5.576  0.1760 -2.7443  2.3220
 7111SOL     OW32968   3.712   0.849   5.374 -0.6012  0.0588  0.4021
 7111SOL    HW132969   3.734   0.795   5.450 -1.4872 -1.4723 -0.4422
 7111SOL    HW232970   3.723   0.788   5.302 -0.6739 -1.6189  1.8241
 7112SOL     OW32971   4.505   3.325  10.869 -0.1076 -0.5913 -0.2614
 7112SOL    HW132972   4.597   3.325  10.894  0.0494 -2.0953 -0.8287
 7112SOL    HW232973   4.487   3.234  10.896  0.6383 -0.2884  1.2746
 7113SOL     OW32974   2.864   0.698   3.167  0.3674  0.3197 -0.1093
 7113SOL    HW132975   2.868   0.747   3.086 -0.9819 -0.0109 -0.3717
 7113SOL    HW232976   2.825   0.768   3.219  0.7904  0.4940 -0.0222
 7114SOL     OW32977   0.885   4.422  16.395 -0.4976  0.1308 -0.1373
 7114SOL    HW132978   0.822   4.492  16.413  0.7004  1.0149  0.6387
 7114SOL    HW232979   0.912   4.404  16.485 -0.6499 -0.3014 -0.1758
 7115SOL     OW32980   2.316   2.251   2.979 -0.2936 -0.2337  0.2612
 7115SOL    HW132981   2.324   2.310   2.904 -1.6848  0.4360  0.6428
 7115SOL    HW232982   2.263   2.184   2.935 -0.5046  0.0746  0.0491
 7116SOL     OW32983   3.134   0.453  12.401 -0.1205 -0.3041  0.4763
 7116SOL    HW132984   3.111   0.423  12.489  2.4128  2.2876  2.0485
 7116SOL    HW232985   3.218   0.415  12.377  0.0708 -0.8204  1.9648
 7117SOL     OW32986   1.982   3.679   1.809 -0.5056  0.5162  0.4315
 7117SOL    HW132987   1.996   3.728   1.890  1.9848  1.2766 -0.4689
 7117SOL    HW232988   1.927   3.743   1.763 -1.0759 -0.7273 -0.6042
 7118SOL     OW32989   1.388   4.646   2.510  0.4271 -0.4002  0.0078
 7118SOL    HW132990   1.417   4.646   2.601 -2.2180 -3.6424  0.8412
 7118SOL    HW232991   1.305   4.599   2.508 -0.0483  0.4604 -0.5867
 7119SOL     OW32992   3.835   4.512  14.862 -0.0695  0.1306  0.0729
 7119SOL    HW132993   3.764   4.568  14.829  0.6178 -0.6316 -2.7046
 7119SOL    HW232994   3.878   4.558  14.934 -0.6756  1.0708 -0.1575
 7120SOL     OW32995   1.140   3.768   7.562  0.2137 -0.2123  0.0795
 7120SOL    HW132996   1.194   3.750   7.485  0.8230  0.6805  0.3035
 7120SOL    HW232997   1.141   3.680   7.600 -1.4503 -0.3393 -0.1904
 7121SOL     OW32998   1.557   2.905   4.145 -0.1043 -0.1010 -0.2256
 7121SOL    HW132999   1.530   2.863   4.063  0.9873 -0.3004 -0.4851
 7121SOL    HW233000   1.485   2.968   4.155  0.3439  0.3358  0.2771
 7122SOL     OW33001   1.724   1.447   2.215 -0.1156  0.0401  0.4102
 7122SOL    HW133002   1.785   1.438   2.143  0.2876  0.7345  0.6655
 7122SOL    HW233003   1.665   1.511   2.175 -0.4399 -0.0779  0.6915
 7123SOL     OW33004   3.093   4.275   4.034  0.5063 -0.2192 -0.1419
 7123SOL    HW133005   3.074   4.187   4.066  1.0766 -0.6103 -0.9046
 7123SOL    HW233006   3.184   4.261   4.008  0.3128 -0.5026 -0.6675
 7124SOL     OW33007   2.317   3.631   5.197  0.0842  0.1491  0.0458
 7124SOL    HW133008   2.365   3.705   5.159  1.0264  0.1597  1.2620
 7124SOL    HW233009   2.353   3.568   5.134 -0.4362  1.1675 -1.2682
 7125SOL     OW33010   4.277   3.355   6.516 -0.7177  0.1809  0.1319
 7125SOL    HW133011   4.227   3.332   6.594 -2.4778  1.3349 -0.6671
 7125SOL    HW233012   4.221   3.314   6.451 -0.5264  0.9945 -0.5495
 7126SOL     OW33013   3.419   0.413  10.148  0.1377 -0.6659 -0.0332
 7126SOL    HW133014   3.328   0.403  10.176  0.2655  1.7926  1.2988
 7126SOL    HW233015   3.442   0.329  10.186  0.6172 -0.1085  0.9221
 7127SOL     OW33016   3.281   1.240  11.994  0.4841 -0.1208  0.2139
 7127SOL    HW133017   3.194   1.231  11.955  0.6081 -0.4542  0.0121
 7127SOL    HW233018   3.295   1.148  12.017 -1.8856  0.0055  2.2077
 7128SOL     OW33019   2.190   0.140   7.548 -0.4922 -0.2238 -0.6515
 7128SOL    HW133020   2.233   0.085   7.613 -0.1718  0.2663 -0.4472
 7128SOL    HW233021   2.244   0.130   7.470 -1.1824  0.0122 -1.1679
 7129SOL     OW33022   0.882   3.558  16.526 -0.0657 -0.4167 -0.2260
 7129SOL    HW133023   0.827   3.632  16.551  1.6670  0.9961 -0.6505
 7129SOL    HW233024   0.816   3.507  16.478 -0.0212 -1.1741  0.4989
 7130SOL     OW33025   0.778   2.017   8.555 -0.3260 -0.4396  0.4673
 7130SOL    HW133026   0.726   2.088   8.517  0.4801  0.9218  1.9272
 7130SOL    HW233027   0.862   2.061   8.570  0.7548 -0.7097 -4.5305
 7131SOL     OW33028   4.573   3.996   0.726 -0.1447  1.2183  0.3083
 7131SOL    HW133029   4.632   4.046   0.782  0.8284 -2.4030  2.5038
 7131SOL    HW233030   4.563   3.920   0.783 -0.2727 -0.3678 -1.8035
 7132SOL     OW33031   3.909   4.552  11.966  0.2506  0.4315  0.4595
 7132SOL    HW133032   3.816   4.542  11.985  0.6366 -1.6321  1.2577
 7132SOL    HW233033   3.948   4.472  12.002 -0.7319 -0.0798  0.3748
 7133SOL     OW33034   0.807   1.676   5.504  0.8018  0.0626  0.3731
 7133SOL    HW133035   0.757   1.739   5.452  0.9671  2.1123  2.6728
 7133SOL    HW233036   0.733   1.617   5.519 -0.6496  2.3065  2.0693
 7134SOL     OW33037   2.869   4.704   7.063  0.2310 -0.0979 -0.3575
 7134SOL    HW133038   2.800   4.696   7.130 -0.2155 -3.1950 -1.2055
 7134SOL    HW233039   2.931   4.643   7.103 -0.2475 -0.4080 -0.0845
 7135SOL     OW33040   1.606   1.538   5.516 -0.6421 -0.1450 -0.1130
 7135SOL    HW133041   1.588   1.632   5.518  1.0392  0.1872 -0.4380
 7135SOL    HW233042   1.595   1.516   5.609 -2.4367 -0.5055 -0.4194
 7136SOL     OW33043   3.408   4.429   3.210 -0.2259  0.1436 -0.0742
 7136SOL    HW133044   3.426   4.371   3.284  3.2219  0.2734 -0.8156
 7136SOL    HW233045   3.378   4.508   3.255 -1.6153  0.9798 -2.5088
 7137SOL     OW33046   2.530   3.222   9.952  0.1719 -0.7393 -0.0486
 7137SOL    HW133047   2.593   3.162   9.912  1.9849  0.6957  0.6674
 7137SOL    HW233048   2.454   3.167   9.933 -0.0637 -0.1170 -0.9012
 7138SOL     OW33049   2.141   2.717   5.420  0.2765  0.1385  0.0103
 7138SOL    HW133050   2.166   2.626   5.401 -1.2557  0.0014 -1.3410
 7138SOL    HW233051   2.053   2.713   5.458  0.1450  0.3635 -0.2745
 7139SOL     OW33052   1.512   2.639  13.956  0.2097  0.5528 -0.6236
 7139SOL    HW133053   1.475   2.711  14.006 -2.0029 -1.0324  0.0387
 7139SOL    HW233054   1.540   2.583  14.028  1.4047 -2.4163 -3.3764
 7140SOL     OW33055   1.820   3.598   3.723 -0.2643  0.7275 -0.2396
 7140SOL    HW133056   1.901   3.622   3.679  0.9226 -1.0763  0.9479
 7140SOL    HW233057   1.757   3.652   3.676 -1.1608  1.9373  2.3441
 7141SOL     OW33058   3.219   3.688   7.591 -0.4000  0.1265 -0.1352
 7141SOL    HW133059   3.253   3.766   7.635 -2.3988  0.7539  0.2843
 7141SOL    HW233060   3.271   3.624   7.641  0.1956  0.2725 -0.5777
 7142SOL     OW33061   2.680   1.300   7.451 -0.6556  0.4226 -0.4079
 7142SOL    HW133062   2.619   1.369   7.478  0.0934 -0.1452  2.7505
 7142SOL    HW233063   2.604   1.241   7.447 -1.7401  1.8440 -0.7385
 7143SOL     OW33064   1.835   4.064   7.670  0.4926 -0.1360 -0.0123
 7143SOL    HW133065   1.856   4.136   7.610 -2.7774  0.6109 -0.2555
 7143SOL    HW233066   1.745   4.078   7.698  0.0166 -1.0454 -1.0616
 7144SOL     OW33067   2.350   4.310   4.468  0.1358 -0.5631  0.3122
 7144SOL    HW133068   2.437   4.302   4.508 -0.0430 -0.4274  0.7295
 7144SOL    HW233069   2.292   4.296   4.543  0.9947 -0.6493  0.9610
 7145SOL     OW33070   0.904   3.063   7.825 -0.9146 -0.1988  0.0396
 7145SOL    HW133071   0.902   3.010   7.746 -0.8933  0.0568 -0.1317
 7145SOL    HW233072   0.983   3.032   7.870 -0.9696  2.5014  2.0111
 7146SOL     OW33073   0.598   0.057   2.892 -0.0215  0.6198 -0.3197
 7146SOL    HW133074   0.619   4.702   2.904 -1.4051  0.3710  0.1814
 7146SOL    HW233075   0.683   0.099   2.905 -1.2066  2.4337  1.4984
 7147SOL     OW33076   0.007   0.358   1.435  0.6641 -0.0507 -0.0193
 7147SOL    HW133077   4.669   0.412   1.462  1.4618 -0.1810  2.4636
 7147SOL    HW233078   4.711   0.327   1.351  0.3728 -0.0647  0.1011
 7148SOL     OW33079   3.692   0.692   5.628  0.6193  1.0196  0.7708
 7148SOL    HW133080   3.627   0.734   5.684  0.0200  1.1996 -0.0731
 7148SOL    HW233081   3.744   0.659   5.701  1.4458  0.3905 -0.0974
 7149SOL     OW33082   3.058   4.187  10.457  0.1174 -0.3733  0.0322
 7149SOL    HW133083   3.099   4.250  10.516  0.7030 -1.9359  1.2628
 7149SOL    HW233084   3.003   4.143  10.522  0.1428 -1.7686 -0.8953
 7150SOL     OW33085   0.522   3.724   7.103 -0.3292 -0.5282 -0.0305
 7150SOL    HW133086   0.508   3.812   7.070 -2.9989 -0.1006  2.2045
 7150SOL    HW233087   0.506   3.736   7.197 -1.4350 -1.9913 -0.0206
 7151SOL     OW33088   2.874   1.223   1.511 -0.1730 -0.4245 -0.8426
 7151SOL    HW133089   2.909   1.303   1.472  0.2857 -1.6694 -2.9623
 7151SOL    HW233090   2.790   1.214   1.465 -0.6735  1.0078 -0.2084
 7152SOL     OW33091   3.801   2.701   7.304  0.1890 -0.4206  0.6638
 7152SOL    HW133092   3.815   2.723   7.212 -0.5576 -2.1472  0.1482
 7152SOL    HW233093   3.850   2.620   7.317  0.3643 -0.2949  0.7946
 7153SOL     OW33094   1.433   0.843   2.566 -0.2764 -0.4748  0.1264
 7153SOL    HW133095   1.388   0.851   2.481 -2.1573 -1.7431  1.0148
 7153SOL    HW233096   1.407   0.928   2.604  0.7285  0.3880 -1.1173
 7154SOL     OW33097   0.965   0.122   8.950 -0.1766 -0.2761  0.4734
 7154SOL    HW133098   0.906   0.083   9.015  0.0254  0.7622  1.2867
 7154SOL    HW233099   0.916   0.121   8.868 -1.6900  1.5406  1.3566
 7155SOL     OW33100   2.466   1.821   3.544 -0.8488 -0.1198 -0.4514
 7155SOL    HW133101   2.528   1.860   3.482 -0.5815  1.2895  0.7201
 7155SOL    HW233102   2.521   1.748   3.572  2.6868  2.6835 -0.1041
 7156SOL     OW33103   0.728   1.598   9.489  0.4307  0.2575  0.2425
 7156SOL    HW133104   0.804   1.641   9.449  0.3475 -0.1587 -0.3626
 7156SOL    HW233105   0.768   1.582   9.575  0.9718 -1.3130 -0.3015
 7157SOL     OW33106   0.662   3.716  16.540  0.4165  0.8174  0.5854
 7157SOL    HW133107   0.655   3.664  16.460 -3.8588 -1.0820  2.1974
 7157SOL    HW233108   0.616   3.662  16.604  0.0746  1.8370  1.1967
 7158SOL     OW33109   0.086   3.892   4.893  0.7541 -0.0786 -0.3849
 7158SOL    HW133110   0.159   3.832   4.913  0.9716 -0.4175 -2.1831
 7158SOL    HW233111   0.100   3.964   4.954  0.4713  2.6176 -3.4812
 7159SOL     OW33112   1.739   1.568  13.085  0.0204 -0.3204  0.6901
 7159SOL    HW133113   1.789   1.490  13.107  0.0292 -0.8632 -1.2989
 7159SOL    HW233114   1.737   1.624  13.163  0.7883 -1.0338  1.2140
 7160SOL     OW33115   4.697   3.873  16.724  0.5912 -0.5559  0.5036
 7160SOL    HW133116   4.730   3.821  16.798  1.0930  0.4280  0.9717
 7160SOL    HW233117   4.606   3.844  16.731  0.9549 -2.1848 -1.3980
 7161SOL     OW33118   2.664   4.352  10.356  0.7282  0.2371  0.0840
 7161SOL    HW133119   2.721   4.369  10.431 -0.8186  1.5241  0.9870
 7161SOL    HW233120   2.728   4.330  10.288 -0.2443  2.2039 -1.4660
 7162SOL     OW33121   3.441   1.935  11.494  0.2621 -0.0790  0.2367
 7162SOL    HW133122   3.471   1.906  11.408 -0.2726 -0.9540  0.3455
 7162SOL    HW233123   3.393   1.861  11.532  1.1729  0.4424  2.4457
 7163SOL     OW33124   1.611   3.238  15.621 -0.2555 -0.6710 -0.8427
 7163SOL    HW133125   1.702   3.265  15.608 -0.2627  0.0961  0.6636
 7163SOL    HW233126   1.595   3.214  15.530  0.1537 -0.3693 -0.9956
 7164SOL     OW33127   2.942   3.820   3.410  0.1744 -0.6387 -0.1565
 7164SOL    HW133128   2.849   3.801   3.424 -0.2250  1.8726  0.6765
 7164SOL    HW233129   2.939   3.834   3.315  0.6480  1.5643  0.1462
 7165SOL     OW33130   3.414   3.587   4.971  0.0786 -0.7822  0.4828
 7165SOL    HW133131   3.405   3.655   5.038  1.7763  0.4928 -0.5908
 7165SOL    HW233132   3.336   3.533   4.981 -0.4103 -0.0629  0.5678
 7166SOL     OW33133   1.369   1.093   6.291  0.0133  0.3270  0.2736
 7166SOL    HW133134   1.289   1.131   6.326  0.1956  1.0380 -0.0783
 7166SOL    HW233135   1.342   1.002   6.304  2.9219 -1.0325 -3.1047
 7167SOL     OW33136   4.147   3.585  10.932 -0.2050  0.2603 -0.1027
 7167SOL    HW133137   4.088   3.604  11.005  0.8411 -0.1872  0.8637
 7167SOL    HW233138   4.200   3.664  10.922 -0.4227  0.4222  0.0206
 7168SOL     OW33139   4.269   3.771  15.627  0.1958 -0.1377  0.2640
 7168SOL    HW133140   4.275   3.863  15.650 -0.4413  0.7329 -3.1583
 7168SOL    HW233141   4.329   3.733  15.692  0.5475  1.0732  0.6382
 7169SOL     OW33142   3.758   2.319  12.591 -0.7339  0.2017 -0.2502
 7169SOL    HW133143   3.713   2.392  12.633  1.7559  1.5374  0.1033
 7169SOL    HW233144   3.795   2.359  12.512  0.4848  0.3792  0.4221
 7170SOL     OW33145   1.192   4.284   2.776  0.2106 -0.4368 -0.6868
 7170SOL    HW133146   1.211   4.199   2.816  0.7504 -0.0217 -0.0787
 7170SOL    HW233147   1.103   4.273   2.740 -0.5271 -1.0211  1.3386
 7171SOL     OW33148   4.418   3.910   3.108 -0.1644  0.3209  0.1565
 7171SOL    HW133149   4.457   3.949   3.186  1.2872 -2.9099  1.0570
 7171SOL    HW233150   4.442   3.963   3.033 -1.0115 -1.0042 -1.0595
 7172SOL     OW33151   2.329   1.513   8.895  0.9959 -0.2241 -0.0883
 7172SOL    HW133152   2.251   1.567   8.880 -1.2995 -3.7606 -1.0114
 7172SOL    HW233153   2.302   1.428   8.859  3.3415 -0.4623 -1.3168
 7173SOL     OW33154   2.640   1.723   2.842  0.2907  0.5754 -0.5322
 7173SOL    HW133155   2.691   1.657   2.795 -0.0907  0.9442 -1.4674
 7173SOL    HW233156   2.547   1.709   2.825  0.0103  1.0211  0.5776
 7174SOL     OW33157   2.239   0.658   1.859  0.0227  0.0503  1.0931
 7174SOL    HW133158   2.241   0.639   1.765  0.1524  2.0824  0.6890
 7174SOL    HW233159   2.152   0.625   1.883 -1.0985  1.0044 -1.7513
 7175SOL     OW33160   3.467   2.835   5.016  0.0878  0.2490 -0.4188
 7175SOL    HW133161   3.496   2.914   5.063  0.9544  0.4751 -1.3474
 7175SOL    HW233162   3.377   2.825   5.046  0.0322  1.9555  0.0354
 7176SOL     OW33163   4.339   3.804  10.941 -0.1416  0.1747  0.2072
 7176SOL    HW133164   4.284   3.882  10.934 -2.3481 -1.1064  3.5605
 7176SOL    HW233165   4.343   3.797  11.036  1.1688  2.7280  0.3371
 7177SOL     OW33166   4.145   0.417   4.645  1.2507 -0.2606  0.2189
 7177SOL    HW133167   4.189   0.429   4.561 -0.1663  1.6662 -0.2500
 7177SOL    HW233168   4.082   0.490   4.648  1.5803 -0.0465  2.0641
 7178SOL     OW33169   1.224   1.630  16.102  0.3626  0.3229  0.3978
 7178SOL    HW133170   1.313   1.638  16.136  1.1412 -0.1913 -1.4932
 7178SOL    HW233171   1.243   1.648  16.009 -2.9231 -2.3786 -0.7801
 7179SOL     OW33172   1.684   1.705  10.687  0.5212  0.3830  0.1170
 7179SOL    HW133173   1.733   1.672  10.612 -0.6431 -1.1313  0.0371
 7179SOL    HW233174   1.596   1.708  10.649  0.2731  2.2611  0.8122
 7180SOL     OW33175   2.835   2.081   9.485  0.4693  0.0856  0.7327
 7180SOL    HW133176   2.775   2.022   9.440  2.8550 -1.6568 -0.1720
 7180SOL    HW233177   2.819   2.159   9.431  1.3911 -0.6121 -0.5433
 7181SOL     OW33178   2.751   4.563  10.927  0.1127  0.2020  0.1431
 7181SOL    HW133179   2.742   4.563  10.832 -0.5007  2.0407  0.2093
 7181SOL    HW233180   2.844   4.541  10.935  0.2482  0.7784  0.1136
 7182SOL     OW33181   2.285   0.946   5.290  0.0177 -0.8810  0.4311
 7182SOL    HW133182   2.201   0.920   5.327  0.1063 -0.9192  0.6074
 7182SOL    HW233183   2.260   0.941   5.198  1.4073  0.8455 -0.0338
 7183SOL     OW33184   0.179   4.124   5.558  0.1197  0.2690  0.1306
 7183SOL    HW133185   0.265   4.088   5.579 -1.0617 -1.8284  1.4407
 7183SOL    HW233186   0.171   4.191   5.626 -0.4429 -0.1744  0.5000
 7184SOL     OW33187   0.998   4.217  17.068  0.0970  0.2485  0.1663
 7184SOL    HW133188   1.061   4.209  17.139  0.1095 -0.1576  0.1092
 7184SOL    HW233189   1.056   4.198  16.995 -1.5842  0.3623 -1.2186
 7185SOL     OW33190   3.526   3.365   3.080  0.7158 -0.4690  0.4372
 7185SOL    HW133191   3.436   3.372   3.113  0.4358  1.2259 -0.6845
 7185SOL    HW233192   3.566   3.329   3.159  0.8238  2.3149  1.6575
 7186SOL     OW33193   3.983   0.378   5.720 -0.0503  1.1756  0.3080
 7186SOL    HW133194   3.890   0.369   5.697 -0.5994  0.3497  2.7651
 7186SOL    HW233195   4.018   0.293   5.694  0.2525  1.1520  0.7898
 7187SOL     OW33196   1.123   1.482   8.027  0.2564  0.3321 -0.0261
 7187SOL    HW133197   1.212   1.448   8.038 -0.3436 -1.8243 -2.0179
 7187SOL    HW233198   1.080   1.435   8.098 -0.7591 -1.1216 -1.6075
 7188SOL     OW33199   1.672   3.437   4.523 -0.1807  0.7111  0.1736
 7188SOL    HW133200   1.584   3.411   4.496 -0.5287  0.3957  1.5879
 7188SOL    HW233201   1.658   3.419   4.616  1.0462  1.0955  0.4392
 7189SOL     OW33202   1.859   1.432  16.885 -0.1748  0.6462 -0.5996
 7189SOL    HW133203   1.934   1.389  16.845 -0.7223  1.4574 -2.5028
 7189SOL    HW233204   1.812   1.473  16.813 -0.3981  0.6068 -0.4790
 7190SOL     OW33205   0.576   0.530  10.635 -0.4554 -0.0906 -0.5959
 7190SOL    HW133206   0.639   0.593  10.670  0.5836 -0.3275 -2.0197
 7190SOL    HW233207   0.591   0.450  10.685  1.1123  1.0327  0.7253
 7191SOL     OW33208   0.026   4.469   5.311  0.1419  0.7887  0.1664
 7191SOL    HW133209   0.031   4.433   5.223  1.1325  2.6695 -0.5557
 7191SOL    HW233210   0.113   4.456   5.350 -1.3912 -4.8701  1.5445
 7192SOL     OW33211   2.213   1.560   7.801  0.1746 -0.3919 -0.4175
 7192SOL    HW133212   2.142   1.622   7.788 -0.4832 -1.5343 -2.1269
 7192SOL    HW233213   2.286   1.613   7.834 -1.2417  1.1111  0.2871
 7193SOL     OW33214   1.669   2.507   0.489 -0.3194 -0.6677 -0.1219
 7193SOL    HW133215   1.722   2.580   0.457  1.6088 -1.3656  1.4794
 7193SOL    HW233216   1.617   2.548   0.557  2.1938  1.5362  0.4627
 7194SOL     OW33217   3.298   1.347   3.523 -0.4412 -0.2210 -0.8242
 7194SOL    HW133218   3.367   1.328   3.586 -2.2223  2.3935  1.9474
 7194SOL    HW233219   3.336   1.319   3.440 -1.0962 -2.0475 -0.5144
 7195SOL     OW33220   4.054   1.417   8.104  0.0545 -0.0534 -0.4798
 7195SOL    HW133221   4.126   1.476   8.128  0.0145 -0.5602  0.8438
 7195SOL    HW233222   4.098   1.342   8.064  0.6714  0.4523 -0.7632
 7196SOL     OW33223   2.341   4.064   3.995 -0.2288 -0.7620  0.2144
 7196SOL    HW133224   2.313   3.974   4.012  1.9992 -1.7190 -1.2619
 7196SOL    HW233225   2.355   4.098   4.084  1.0973 -0.2139 -0.2136
 7197SOL     OW33226   2.550   0.827   7.166  0.0728 -0.2808 -0.5430
 7197SOL    HW133227   2.504   0.802   7.246  1.4993 -3.0243 -0.5813
 7197SOL    HW233228   2.486   0.807   7.098 -1.7487 -0.9346  1.3436
 7198SOL     OW33229   3.007   2.211  10.968  0.2757  0.3862 -0.3616
 7198SOL    HW133230   2.961   2.127  10.975  2.4589 -0.5661  2.5540
 7198SOL    HW233231   3.054   2.186  10.888 -0.7073  1.4471 -1.2630
 7199SOL     OW33232   0.726   3.406   3.425 -0.2007  0.2939  0.0196
 7199SOL    HW133233   0.789   3.342   3.391 -0.4817 -0.7670  1.5145
 7199SOL    HW233234   0.680   3.348   3.485  0.2910  0.4878  0.5913
 7200SOL     OW33235   2.127   3.486   7.171  0.2471  0.2673 -0.2149
 7200SOL    HW133236   2.058   3.478   7.105 -0.0972 -1.3413  0.3594
 7200SOL    HW233237   2.167   3.570   7.147  2.9303 -0.8817  0.2596
 7201SOL     OW33238   2.235   2.486  12.926 -0.3395 -0.0129 -0.7321
 7201SOL    HW133239   2.207   2.446  12.844 -0.6212 -0.4470 -0.4204
 7201SOL    HW233240   2.310   2.432  12.951 -1.9191 -0.2252  3.6771
 7202SOL     OW33241   3.476   2.404   6.663 -0.1295 -0.0205  0.5703
 7202SOL    HW133242   3.389   2.392   6.625 -0.3980 -0.1976  1.2530
 7202SOL    HW233243   3.475   2.334   6.727  2.7897 -1.5218 -0.9949
 7203SOL     OW33244   1.575   0.167   4.280  0.5153  0.5018 -0.5752
 7203SOL    HW133245   1.599   0.258   4.261 -2.2379  1.5232  0.8872
 7203SOL    HW233246   1.621   0.130   4.205 -0.6289 -2.2161  0.0936
 7204SOL     OW33247   2.078   1.177   7.157  0.2358  0.3210  0.0553
 7204SOL    HW133248   2.113   1.200   7.071 -1.3958  1.0390 -0.4266
 7204SOL    HW233249   1.984   1.195   7.153  0.6140  1.9761 -1.5074
 7205SOL     OW33250   3.360   3.071   1.488 -0.8307 -0.4955  0.0481
 7205SOL    HW133251   3.370   3.160   1.522  2.1446 -0.9215  0.2817
 7205SOL    HW233252   3.323   3.025   1.564 -1.0905  0.6537  0.6064
 7206SOL     OW33253   1.277   2.777   2.898 -0.2533  0.1592 -0.2270
 7206SOL    HW133254   1.201   2.723   2.918  0.3094 -0.1373  1.0998
 7206SOL    HW233255   1.356   2.733   2.929  0.4287  0.7189 -1.1587
 7207SOL     OW33256   1.487   4.130  10.522 -0.0105 -0.2742 -0.1444
 7207SOL    HW133257   1.392   4.117  10.513  0.6406 -3.7452 -1.8215
 7207SOL    HW233258   1.486   4.225  10.540 -1.1715 -0.5907  1.4806
 7208SOL     OW33259   1.152   3.370   6.401  0.5193 -0.0880 -0.5098
 7208SOL    HW133260   1.106   3.454   6.401 -0.0266 -0.3898  0.4077
 7208SOL    HW233261   1.077   3.312   6.391  0.5489  0.0357 -1.4483
 7209SOL     OW33262   2.608   1.650   3.190  0.5810  0.0825  0.3420
 7209SOL    HW133263   2.654   1.727   3.157  2.7468 -0.1398  2.8359
 7209SOL    HW233264   2.612   1.685   3.279  0.1703 -1.5935  1.0101
 7210SOL     OW33265   0.238   3.326   1.856  0.1052  0.4985  0.2978
 7210SOL    HW133266   0.207   3.416   1.870 -0.8982  0.2069 -0.0763
 7210SOL    HW233267   0.174   3.292   1.794  1.0120 -1.5481  0.5000
 7211SOL     OW33268   2.476   2.119   2.445 -0.0183  0.0398  0.4844
 7211SOL    HW133269   2.437   2.182   2.385 -1.8687 -1.4321  0.1249
 7211SOL    HW233270   2.399   2.066   2.468  0.9423 -0.3838  2.7429
 7212SOL     OW33271   4.531   1.043   8.021 -0.0476  0.4630  0.4789
 7212SOL    HW133272   4.533   1.032   8.116  0.2463 -1.5599  0.2540
 7212SOL    HW233273   4.452   0.995   7.997  0.3402  0.2525 -0.3521
 7213SOL     OW33274   2.744   2.359  14.525  0.7625 -0.1328  0.3488
 7213SOL    HW133275   2.679   2.330  14.589  2.0517  0.0791  1.7760
 7213SOL    HW233276   2.829   2.371  14.569  1.2769 -3.2158  0.1668
 7214SOL     OW33277   2.789   3.646   0.548 -0.2496 -0.6233 -0.1281
 7214SOL    HW133278   2.757   3.688   0.628  2.0086  0.6239  0.1196
 7214SOL    HW233279   2.881   3.637   0.572  0.0584  1.7905 -0.4105
 7215SOL     OW33280   0.019   0.380   6.137  0.2059  0.3149  0.1383
 7215SOL    HW133281   4.706   0.315   6.088 -0.6950  0.5727  0.7132
 7215SOL    HW233282   0.020   0.339   6.224  2.1370 -2.1166 -1.0196
 7216SOL     OW33283   1.617   2.646   5.748  0.2433  0.3860 -0.4251
 7216SOL    HW133284   1.695   2.650   5.804 -1.0799 -0.3974  1.4792
 7216SOL    HW233285   1.558   2.703   5.796  0.0853  0.0237 -0.1859
 7217SOL     OW33286   0.447   3.518   8.452 -0.3246  0.1121 -0.4058
 7217SOL    HW133287   0.528   3.490   8.495  0.0037 -0.8754 -1.6758
 7217SOL    HW233288   0.392   3.518   8.531 -2.3348  2.0560 -1.8021
 7218SOL     OW33289   0.638   4.570   2.588  0.3243 -0.1048  0.0111
 7218SOL    HW133290   0.555   4.523   2.585  0.6574 -0.5887 -1.8970
 7218SOL    HW233291   0.616   4.630   2.516  1.0205  1.2600  0.9293
 7219SOL     OW33292   2.162   4.351   8.219 -0.0399  0.2342  0.3638
 7219SOL    HW133293   2.126   4.428   8.263 -1.3674  0.6316 -1.4157
 7219SOL    HW233294   2.097   4.319   8.156  2.0350  1.0969 -2.2067
 7220SOL     OW33295   3.710   1.540   3.234  0.2492 -0.1852 -0.1021
 7220SOL    HW133296   3.713   1.481   3.159  0.8344 -0.3765  0.0682
 7220SOL    HW233297   3.740   1.487   3.308 -0.8307  1.4913  1.5566
 7221SOL     OW33298   4.019   2.893   8.497  0.3478 -0.3035 -0.0149
 7221SOL    HW133299   3.947   2.836   8.471  0.5939 -0.7347  0.2427
 7221SOL    HW233300   4.049   2.846   8.574 -0.0647  0.2726  0.5070
 7222SOL     OW33301   3.699   1.961   5.300 -0.3394 -0.6797 -0.7774
 7222SOL    HW133302   3.692   2.044   5.253 -1.7936 -0.5608 -0.3613
 7222SOL    HW233303   3.734   2.006   5.377  0.7435  0.3913 -1.8967
 7223SOL     OW33304   4.028   2.313   6.596 -0.4350  0.5225  0.0183
 7223SOL    HW133305   4.059   2.234   6.641  2.5118  0.2666 -2.4501
 7223SOL    HW233306   3.934   2.306   6.610 -0.2473  2.2559  2.1432
 7224SOL     OW33307   1.456   2.509   2.821 -0.3387 -0.0545  0.3203
 7224SOL    HW133308   1.446   2.578   2.755 -1.4058  0.6479  1.2367
 7224SOL    HW233309   1.541   2.530   2.861 -0.0299 -0.1297 -0.2940
 7225SOL     OW33310   0.260   3.187   2.095 -0.3273 -0.2251  0.5611
 7225SOL    HW133311   0.242   3.244   2.169  0.1965  1.0198 -0.2633
 7225SOL    HW233312   0.254   3.250   2.023  2.4383  1.1977  1.5978
 7226SOL     OW33313   4.626   4.016   6.203  0.4131 -0.8098 -0.1072
 7226SOL    HW133314   4.605   4.049   6.291 -2.0906 -0.1562 -0.9417
 7226SOL    HW233315   4.607   4.098   6.157  2.1218 -0.9280 -1.0079
 7227SOL     OW33316   4.294   0.853   6.320 -0.0124 -0.2039 -0.2689
 7227SOL    HW133317   4.255   0.767   6.334  0.0610  0.2893  3.1242
 7227SOL    HW233318   4.224   0.886   6.264 -0.7337  1.0555  1.3839
 7228SOL     OW33319   2.344   1.657   0.910 -0.3927  0.0514 -0.4660
 7228SOL    HW133320   2.298   1.644   0.827 -2.7111 -2.7676  1.3031
 7228SOL    HW233321   2.277   1.693   0.968  0.2172 -2.0033  1.4641
 7229SOL     OW33322   0.265   3.183   7.271 -0.0145 -0.4257 -0.1896
 7229SOL    HW133323   0.181   3.206   7.233 -0.1974 -2.9870 -1.2715
 7229SOL    HW233324   0.301   3.272   7.266  0.8023 -0.7076  0.5928
 7230SOL     OW33325   0.288   4.479   0.604 -0.4128  0.9969  0.3301
 7230SOL    HW133326   0.221   4.497   0.539 -1.5610 -1.0076  0.9658
 7230SOL    HW233327   0.235   4.485   0.684 -2.8656 -2.2153 -1.0670
 7231SOL     OW33328   1.669   3.815   1.401 -0.4900 -0.8384 -0.4006
 7231SOL    HW133329   1.608   3.869   1.349  1.1502  0.7899 -0.6380
 7231SOL    HW233330   1.607   3.781   1.465 -2.8958  3.6555 -0.2981
 7232SOL     OW33331   4.359   2.946   7.388 -0.1360  0.5674  0.3287
 7232SOL    HW133332   4.335   2.884   7.319  0.7823 -0.1065  0.6099
 7232SOL    HW233333   4.441   2.979   7.353  0.7201 -0.3450  1.4602
 7233SOL     OW33334   2.131   3.335   1.151  0.4306 -0.3202  0.0654
 7233SOL    HW133335   2.046   3.358   1.189  0.8541 -1.6913  1.8451
 7233SOL    HW233336   2.198   3.387   1.196  1.2542  0.0551 -1.6032
 7234SOL     OW33337   2.706   3.601  14.881  0.3466 -0.2443 -0.4179
 7234SOL    HW133338   2.655   3.559  14.950  0.9755  0.9860  0.7866
 7234SOL    HW233339   2.787   3.551  14.886 -0.6212 -1.7693  0.2223
 7235SOL     OW33340   0.442   3.812   6.424 -0.1387  0.2431 -0.2487
 7235SOL    HW133341   0.353   3.801   6.458  0.8574 -0.1043  2.2728
 7235SOL    HW233342   0.498   3.753   6.474  1.6770  2.1657 -0.0233
 7236SOL     OW33343   1.245   1.106   7.536 -0.2850 -0.0587  0.2044
 7236SOL    HW133344   1.208   1.047   7.470  0.2550  2.3265 -2.2521
 7236SOL    HW233345   1.336   1.079   7.531 -0.3056  0.0863 -1.0051
 7237SOL     OW33346   3.618   2.326  16.462 -0.0166 -0.7725 -0.0882
 7237SOL    HW133347   3.556   2.275  16.410 -1.2404 -0.0875  0.6699
 7237SOL    HW233348   3.631   2.404  16.407 -0.1943  0.0049  0.9559
 7238SOL     OW33349   3.971   1.495  13.426  0.4471  0.2151  0.5941
 7238SOL    HW133350   3.991   1.401  13.418 -1.4409 -0.0757 -0.7449
 7238SOL    HW233351   4.027   1.535  13.493 -1.6498  0.8311  1.9842
 7239SOL     OW33352   3.659   1.707   4.668  0.0102 -0.1698  0.1931
 7239SOL    HW133353   3.739   1.745   4.704 -0.3411  0.3634  0.4072
 7239SOL    HW233354   3.593   1.773   4.646 -0.1752 -0.3491  0.2153
 7240SOL     OW33355   4.128   2.132   4.490 -0.2440  0.0217  0.0940
 7240SOL    HW133356   4.036   2.128   4.463 -0.5042  3.6033  0.4260
 7240SOL    HW233357   4.162   2.093   4.409  1.6626 -0.1522  0.9939
 7241SOL     OW33358   0.196   2.645   3.702 -0.4508  0.1218  0.1814
 7241SOL    HW133359   0.143   2.700   3.760  0.5295 -0.3878  1.5432
 7241SOL    HW233360   0.149   2.562   3.693  1.9099 -1.4763  2.7898
 7242SOL     OW33361   2.010   4.207  14.388 -0.0615  0.0199 -0.5110
 7242SOL    HW133362   2.072   4.182  14.456 -2.7762 -0.0811  1.8971
 7242SOL    HW233363   1.956   4.271  14.434  0.4844  1.1299 -1.4135
 7243SOL     OW33364   1.082   2.560   5.473  0.7421 -0.1247  0.2479
 7243SOL    HW133365   1.138   2.624   5.517 -1.6125  3.1761 -1.5862
 7243SOL    HW233366   1.119   2.478   5.505 -1.9519 -1.8894 -1.1416
 7244SOL     OW33367   1.634   1.141  14.489 -0.2271  0.6985 -0.5621
 7244SOL    HW133368   1.566   1.161  14.552  0.2177 -0.8564  0.4325
 7244SOL    HW233369   1.705   1.197  14.521  0.1112 -0.3795  0.5882
 7245SOL     OW33370   0.646   3.846   0.818 -0.3909 -0.1181 -0.3379
 7245SOL    HW133371   0.565   3.871   0.864  0.4230  2.8602 -0.5092
 7245SOL    HW233372   0.634   3.908   0.746  0.0050  0.9013  0.4563
 7246SOL     OW33373   3.085   0.799   5.153 -0.2562  0.2302  0.0415
 7246SOL    HW133374   3.061   0.714   5.116  0.6577 -0.3419  0.7800
 7246SOL    HW233375   3.007   0.814   5.206  0.5838  0.2890  1.2552
 7247SOL     OW33376   3.164   1.116   1.776  0.2218 -0.4755 -0.2024
 7247SOL    HW133377   3.185   1.051   1.709  0.4101  0.0166 -0.6135
 7247SOL    HW233378   3.069   1.118   1.787  0.2521  1.3874 -0.2702
 7248SOL     OW33379   4.692   0.265   9.884 -0.1081 -0.5286 -0.1192
 7248SOL    HW133380   4.705   0.197   9.818 -2.1440 -0.9902 -0.0535
 7248SOL    HW233381   0.017   0.334   9.861 -1.9518  1.1786 -0.0732
 7249SOL     OW33382   4.508   0.888  14.585 -0.0180  0.1851  0.3943
 7249SOL    HW133383   4.586   0.899  14.530 -0.1996  0.7071  0.2435
 7249SOL    HW233384   4.536   0.824  14.651 -0.6126 -0.6673 -0.1752
 7250SOL     OW33385   2.516   1.241  11.424  0.5366  0.0278 -0.2255
 7250SOL    HW133386   2.432   1.243  11.378  0.6326 -0.4275 -0.4240
 7250SOL    HW233387   2.537   1.148  11.430 -0.7926 -0.4104 -2.6246
 7251SOL     OW33388   3.172   3.835   6.022  0.0656 -0.3011 -0.2708
 7251SOL    HW133389   3.212   3.760   5.979 -1.4474 -2.2196  1.6571
 7251SOL    HW233390   3.231   3.903   5.987 -1.1728  0.5676 -0.6549
 7252SOL     OW33391   1.815   0.695  10.168 -0.0835  0.4770 -0.3634
 7252SOL    HW133392   1.860   0.613  10.148 -1.9971 -0.9148  1.0113
 7252SOL    HW233393   1.892   0.742  10.199  0.6483 -1.1235  0.2397
 7253SOL     OW33394   2.070   1.662   5.023  0.5361 -0.1903 -0.0011
 7253SOL    HW133395   2.090   1.630   4.935  0.6952  0.7299 -0.2993
 7253SOL    HW233396   1.987   1.616   5.032  0.2686  0.5540  1.3427
 7254SOL     OW33397   0.857   1.582  13.408  0.3702  0.2347  0.2278
 7254SOL    HW133398   0.777   1.530  13.413  0.5469  0.2001  2.7017
 7254SOL    HW233399   0.919   1.510  13.400 -1.3135 -1.5140  2.9814
 7255SOL     OW33400   1.468   1.752   8.552 -0.2409  0.0959  0.6533
 7255SOL    HW133401   1.391   1.767   8.496  0.0704 -0.8440 -0.0331
 7255SOL    HW233402   1.436   1.667   8.583  1.1851 -0.3098  1.0256
 7256SOL     OW33403   1.406   2.728   5.243  0.0361  0.0718  0.4978
 7256SOL    HW133404   1.409   2.661   5.311  3.1368 -1.5821 -1.2663
 7256SOL    HW233405   1.484   2.702   5.195 -0.4796  1.0959 -0.8966
 7257SOL     OW33406   0.144   2.364  14.169  0.4256  0.5901 -0.0895
 7257SOL    HW133407   0.083   2.431  14.139  0.2956 -0.1098 -1.4138
 7257SOL    HW233408   0.121   2.335  14.257  1.2850  1.4326  0.4084
 7258SOL     OW33409   2.047   2.089   0.192 -0.3880 -0.1647 -0.0144
 7258SOL    HW133410   2.122   2.119   0.243  0.4864  0.3797 -1.6222
 7258SOL    HW233411   2.069   1.996   0.192  1.5251  0.2827 -0.1936
 7259SOL     OW33412   3.596   1.603  15.158  0.3715  0.4065  0.0856
 7259SOL    HW133413   3.553   1.688  15.150 -1.0020 -0.3725 -0.8366
 7259SOL    HW233414   3.567   1.592  15.248  0.6172  0.0699  0.1211
 7260SOL     OW33415   0.106   0.786  11.851  0.0155  0.6664  0.3144
 7260SOL    HW133416   0.114   0.874  11.815 -0.5209  0.1318 -1.1506
 7260SOL    HW233417   0.014   0.791  11.876 -0.1897  3.2311 -0.9368
 7261SOL     OW33418   2.377   1.038  11.212 -0.3822  0.5489  0.6473
 7261SOL    HW133419   2.421   1.009  11.292  0.0507 -1.1807 -0.2096
 7261SOL    HW233420   2.452   1.065  11.159 -1.3700  1.0971 -0.4757
 7262SOL     OW33421   2.680   3.873   8.490  0.0711  0.5236  0.2445
 7262SOL    HW133422   2.742   3.944   8.509  1.5519 -0.6755 -0.1646
 7262SOL    HW233423   2.601   3.928   8.487  0.2112  0.8078  1.4179
 7263SOL     OW33424   1.518   1.706   7.218  0.2737 -0.6306 -0.0559
 7263SOL    HW133425   1.437   1.681   7.173 -0.2544 -0.5736  0.8680
 7263SOL    HW233426   1.511   1.801   7.223  0.2690 -0.6751  0.8456
 7264SOL     OW33427   2.781   0.959   1.126  0.0493  0.0402  0.5745
 7264SOL    HW133428   2.820   1.046   1.134 -1.2544  0.8300 -1.9685
 7264SOL    HW233429   2.733   0.960   1.209  1.1954  1.9463  1.2088
 7265SOL     OW33430   4.098   3.576   4.226 -0.2918 -0.5410 -0.1970
 7265SOL    HW133431   4.042   3.544   4.297 -2.2043  0.5729 -1.2247
 7265SOL    HW233432   4.055   3.527   4.157  3.1621 -1.3464 -1.7899
 7266SOL     OW33433   3.941   1.234  10.732  0.0711  0.6427  0.5554
 7266SOL    HW133434   3.850   1.266  10.726 -0.3662 -0.6015  0.6456
 7266SOL    HW233435   3.941   1.209  10.824  0.2028  1.0363  0.6648
 7267SOL     OW33436   4.706   2.268  14.367 -0.1857 -0.6287 -0.0303
 7267SOL    HW133437   0.023   2.200  14.406 -1.1968 -2.1287 -1.2523
 7267SOL    HW233438   4.638   2.294  14.430 -1.6556 -1.0257 -1.4464
 7268SOL     OW33439   3.670   4.250   5.730  0.4126 -0.7157  0.1927
 7268SOL    HW133440   3.705   4.183   5.671  0.3133 -1.2739  0.7682
 7268SOL    HW233441   3.755   4.293   5.736  0.2221 -0.2565 -0.3990
 7269SOL     OW33442   1.628   1.817   9.688 -0.3518  0.0631 -0.0575
 7269SOL    HW133443   1.593   1.729   9.701 -0.9828  0.4057  0.5627
 7269SOL    HW233444   1.567   1.871   9.738  0.3949 -0.1921  1.1499
 7270SOL     OW33445   2.254   4.654  10.591 -0.1631  0.0721  0.4628
 7270SOL    HW133446   2.296   4.706  10.659  0.4721 -0.4481  0.4652
 7270SOL    HW233447   2.294   4.695  10.514 -0.6681  0.7075  0.5384
 7271SOL     OW33448   4.721   1.557   9.084 -0.9344 -0.3825 -0.1398
 7271SOL    HW133449   0.026   1.642   9.072  2.0423 -1.8013  0.1708
 7271SOL    HW233450   4.671   1.548   9.002 -0.9379  0.2754 -0.2038
 7272SOL     OW33451   3.584   3.825   7.664 -0.3445  0.0814  0.7459
 7272SOL    HW133452   3.564   3.788   7.578  1.4924 -1.7208  1.1012
 7272SOL    HW233453   3.641   3.895   7.634  1.9736 -0.6839  3.3175
 7273SOL     OW33454   4.134   0.891   2.372 -0.4580  0.5800 -0.2310
 7273SOL    HW133455   4.091   0.883   2.287 -0.1773 -1.5570 -0.1517
 7273SOL    HW233456   4.213   0.939   2.345 -0.1809 -0.1516 -0.6983
 7274SOL     OW33457   4.628   3.169   0.417 -0.0845  0.8638  0.1154
 7274SOL    HW133458   4.610   3.243   0.359  0.7727  0.8233 -0.2068
 7274SOL    HW233459   4.717   3.141   0.395  0.1083  1.9607 -0.4830
 7275SOL     OW33460   1.957   1.790   8.214 -0.3155 -0.6252 -0.2064
 7275SOL    HW133461   1.929   1.721   8.153 -2.0260 -0.8254  0.7946
 7275SOL    HW233462   1.876   1.827   8.250 -0.7496  0.1431 -1.9833
 7276SOL     OW33463   2.349   1.587   1.339  0.3458 -0.1767  0.6895
 7276SOL    HW133464   2.287   1.603   1.268  0.0216 -1.1582  0.7404
 7276SOL    HW233465   2.303   1.615   1.419 -0.5015  2.0728 -0.5954
 7277SOL     OW33466   2.926   0.845   6.072 -0.1751 -0.7098  0.5941
 7277SOL    HW133467   2.987   0.825   6.143 -0.4012 -2.1167  0.4047
 7277SOL    HW233468   2.985   0.877   6.004 -0.6136  2.3753  1.6745
 7278SOL     OW33469   1.193   2.359   1.079 -0.1173 -0.4056  0.0210
 7278SOL    HW133470   1.111   2.347   1.033 -1.5583  2.8352  1.7530
 7278SOL    HW233471   1.177   2.323   1.166  1.2348 -1.3356 -0.1113
 7279SOL     OW33472   3.097   4.398   7.563  1.2365  0.4704 -0.2280
 7279SOL    HW133473   3.188   4.408   7.589  1.5585 -1.4026 -0.6282
 7279SOL    HW233474   3.100   4.422   7.470 -0.7848 -0.3573 -0.4998
 7280SOL     OW33475   1.742   3.376   4.797  0.6486  1.1971 -0.8234
 7280SOL    HW133476   1.700   3.447   4.845 -0.7679  0.6276 -1.2363
 7280SOL    HW233477   1.831   3.381   4.831 -1.1312  0.6335  3.8320
 7281SOL     OW33478   0.548   0.558   5.936  0.1915 -0.3243 -0.1317
 7281SOL    HW133479   0.499   0.633   5.969  0.2948 -0.9522  1.4570
 7281SOL    HW233480   0.602   0.532   6.011  0.5149 -1.6851 -0.8330
 7282SOL     OW33481   1.510   1.542  17.505  0.6350 -0.0635  0.6601
 7282SOL    HW133482   1.488   1.635  17.502  0.0696 -0.2065  0.2519
 7282SOL    HW233483   1.600   1.550  17.474 -0.2346  2.6947 -1.1430
 7283SOL     OW33484   0.355   3.762   5.733  0.0367 -0.2931  0.5141
 7283SOL    HW133485   0.427   3.711   5.696  0.2914 -0.3340  1.0708
 7283SOL    HW233486   0.382   3.754   5.825 -1.1474  0.4288  0.9245
 7284SOL     OW33487   0.169   1.469   7.141 -0.3802 -0.3160  0.5904
 7284SOL    HW133488   0.258   1.461   7.106 -1.5277 -1.2397 -2.1424
 7284SOL    HW233489   0.124   1.484   7.058  1.9017  0.7686 -0.4573
 7285SOL     OW33490   3.646   3.831  15.112 -0.5384 -0.7329 -0.1236
 7285SOL    HW133491   3.628   3.866  15.025 -2.3775  0.3119  0.6802
 7285SOL    HW233492   3.738   3.810  15.096 -0.3039  0.1530  0.0369
 7286SOL     OW33493   2.443   2.797   3.585 -0.4355  0.0206 -0.3780
 7286SOL    HW133494   2.515   2.737   3.565 -2.0799 -2.5249  1.3909
 7286SOL    HW233495   2.484   2.861   3.643  1.9008 -2.9959  1.3207
 7287SOL     OW33496   1.025   1.239  15.321  0.2030  0.1454 -0.0584
 7287SOL    HW133497   0.958   1.305  15.307  0.0861 -0.4129 -2.1020
 7287SOL    HW233498   0.972   1.159  15.321  0.3808  0.0253  2.1151
 7288SOL     OW33499   3.462   4.682  14.233 -0.4181 -0.0204  0.2207
 7288SOL    HW133500   3.407   4.666  14.156 -1.4217  1.9200  0.5095
 7288SOL    HW233501   3.408   4.712  14.307  1.1107  1.4197  0.7719
 7289SOL     OW33502   3.400   2.935   1.255  0.1322  0.3505 -0.0978
 7289SOL    HW133503   3.457   2.993   1.205 -0.4160  0.4995 -0.5573
 7289SOL    HW233504   3.404   2.975   1.342 -1.4916  1.1400 -0.3796
 7290SOL     OW33505   0.341   2.099   6.668  0.5400 -0.3754 -0.1342
 7290SOL    HW133506   0.424   2.092   6.620  0.3073  0.9009 -0.7349
 7290SOL    HW233507   0.363   2.092   6.761  1.5609 -0.8070 -0.4035
 7291SOL     OW33508   3.088   1.089  11.168 -0.2073  0.2812  0.2455
 7291SOL    HW133509   3.109   1.023  11.235 -0.8426  0.6895  0.8516
 7291SOL    HW233510   3.115   1.174  11.204 -0.3122  0.7781 -0.8770
 7292SOL     OW33511   1.834   2.079   0.044 -0.7169 -0.1849 -0.4306
 7292SOL    HW133512   1.902   2.096   0.109 -1.1456 -1.0248  0.2374
 7292SOL    HW233513   1.843   1.984   0.033 -2.1739 -0.5842  1.8013
 7293SOL     OW33514   1.479   4.135   2.943  0.2045 -0.2454 -0.2202
 7293SOL    HW133515   1.565   4.178   2.938 -0.4208  1.0836  0.2687
 7293SOL    HW233516   1.420   4.204   2.973  0.0998 -0.5507  0.2730
 7294SOL     OW33517   4.714   3.958  15.702  0.4943  0.6867  0.4877
 7294SOL    HW133518   4.649   3.920  15.642  0.8722  2.3455 -1.0024
 7294SOL    HW233519   4.706   3.917  15.787  1.2401 -3.0506 -1.2572
 7295SOL     OW33520   3.454   0.259   5.410 -0.2209 -0.5775  0.5088
 7295SOL    HW133521   3.491   0.347   5.418  0.0587 -0.7869  1.5349
 7295SOL    HW233522   3.520   0.204   5.366 -0.3029 -1.2815  1.2657
 7296SOL     OW33523   1.244   2.364   5.618 -0.1126 -0.2711 -0.0786
 7296SOL    HW133524   1.213   2.302   5.684 -2.6140 -0.5506 -1.5060
 7296SOL    HW233525   1.244   2.302   5.546  0.6361 -0.7266  0.3145
 7297SOL     OW33526   2.331   1.465  10.978 -0.2280 -0.2979 -0.4812
 7297SOL    HW133527   2.274   1.435  10.907  1.4391 -1.4337 -1.3374
 7297SOL    HW233528   2.419   1.457  10.939 -0.4652 -1.8887 -0.6812
 7298SOL     OW33529   2.753   0.878  12.376 -0.3806 -0.4478 -0.2863
 7298SOL    HW133530   2.790   0.804  12.328  1.3410 -0.1740  0.6052
 7298SOL    HW233531   2.831   0.933  12.369  0.9400 -2.3251 -0.3277
 7299SOL     OW33532   2.735   4.309   0.658 -0.7692 -0.3750  0.4564
 7299SOL    HW133533   2.794   4.372   0.617 -0.2668 -2.2904 -1.8164
 7299SOL    HW233534   2.662   4.367   0.677 -1.3399 -1.5647  1.9035
 7300SOL     OW33535   3.214   1.856   4.451 -0.1317 -0.1278  0.1094
 7300SOL    HW133536   3.278   1.864   4.381 -0.5871 -0.1697 -0.3136
 7300SOL    HW233537   3.129   1.866   4.408  0.1781  0.7369 -0.2844
 7301SOL     OW33538   0.215   0.102   9.965 -0.0774  0.1853  0.9211
 7301SOL    HW133539   0.287   0.166   9.962  0.1847 -0.3127 -3.9278
 7301SOL    HW233540   0.265   0.021   9.966 -1.2110 -0.5305 -2.0179
 7302SOL     OW33541   3.219   4.532   5.882 -0.5625 -0.2144 -1.0031
 7302SOL    HW133542   3.269   4.600   5.927  0.7790 -0.5308 -2.0076
 7302SOL    HW233543   3.222   4.461   5.946 -0.2611  2.7638  2.2920
 7303SOL     OW33544   2.048   2.866   3.483  0.6600 -0.7090 -0.0431
 7303SOL    HW133545   2.108   2.802   3.521  0.0649 -0.3040  1.5881
 7303SOL    HW233546   2.056   2.941   3.542  0.8274 -0.3314 -0.5508
 7304SOL     OW33547   0.330   2.424  14.559 -0.2759 -0.3232  0.2153
 7304SOL    HW133548   0.266   2.445  14.492 -1.1848 -0.3713  1.0730
 7304SOL    HW233549   0.409   2.471  14.530 -1.2489  0.6091 -0.8874
 7305SOL     OW33550   2.420   2.433   3.767 -0.2050  0.2836  0.0936
 7305SOL    HW133551   2.367   2.367   3.812  1.4327 -1.3058 -0.3288
 7305SOL    HW233552   2.451   2.390   3.688 -0.0770 -0.7575  0.7110
 7306SOL     OW33553   3.946   4.378   1.353 -0.1783  0.0987  0.4302
 7306SOL    HW133554   3.860   4.337   1.365  0.3429 -0.7697  1.2050
 7306SOL    HW233555   3.957   4.403   1.445 -1.9851 -0.0674  0.7008
 7307SOL     OW33556   2.995   2.558  14.982 -0.0678 -0.1226 -0.4208
 7307SOL    HW133557   2.955   2.499  15.045 -1.2354  0.1367 -0.9300
 7307SOL    HW233558   2.987   2.524  14.893  0.1718  1.0702 -0.8938
 7308SOL     OW33559   4.149   3.218  17.351 -0.2733  0.0732 -0.1848
 7308SOL    HW133560   4.055   3.200  17.355 -0.2629  0.1707  0.5008
 7308SOL    HW233561   4.157   3.264  17.434 -1.7683  0.9045 -0.4978
 7309SOL     OW33562   4.053   4.593   6.752 -0.0734  0.2540  0.2551
 7309SOL    HW133563   3.986   4.546   6.703  0.3136 -1.3451  1.2643
 7309SOL    HW233564   3.987   4.646   6.797  1.3419 -0.4769  3.1858
 7310SOL     OW33565   3.755   1.143   3.767 -0.5156  0.4497  1.0276
 7310SOL    HW133566   3.828   1.202   3.789  0.7793 -0.6090 -0.4133
 7310SOL    HW233567   3.795   1.066   3.727  2.1158  2.1339  0.3995
 7311SOL     OW33568   3.827   2.050   1.713 -0.6243  0.0896  0.5302
 7311SOL    HW133569   3.781   2.117   1.763  1.3008  2.2486 -0.6043
 7311SOL    HW233570   3.916   2.082   1.723 -0.0688 -1.3225  0.1873
 7312SOL     OW33571   4.026   3.124   8.332 -0.6825 -0.2303 -0.3610
 7312SOL    HW133572   4.020   3.042   8.380 -1.1608 -1.1088 -1.9276
 7312SOL    HW233573   3.952   3.119   8.271 -1.1233  0.3196  0.1345
 7313SOL     OW33574   0.124   3.319   9.242  0.0223 -0.1818 -0.1957
 7313SOL    HW133575   0.130   3.354   9.331  3.4365 -3.0153  0.6744
 7313SOL    HW233576   0.088   3.231   9.253 -0.6805  0.2166  0.6961
 7314SOL     OW33577   1.106   1.518   0.952 -0.2485  0.3221  0.4831
 7314SOL    HW133578   1.198   1.535   0.932 -0.0257  1.4811  2.4545
 7314SOL    HW233579   1.075   1.608   0.937  0.7724  0.3560 -1.4125
 7315SOL     OW33580   4.655   1.216   6.701 -0.1786 -0.5680  0.1623
 7315SOL    HW133581   4.650   1.136   6.648 -1.0168 -1.2492  1.2760
 7315SOL    HW233582   4.639   1.275   6.628  1.3184  1.5667  1.5537
 7316SOL     OW33583   0.526   2.142   4.738 -0.0109  0.1167 -0.1916
 7316SOL    HW133584   0.603   2.198   4.739  0.1812 -0.1732  1.0223
 7316SOL    HW233585   0.542   2.076   4.670 -0.8493 -1.2331  0.9166
 7317SOL     OW33586   1.613   0.634   9.040  0.1525 -0.0826 -0.2992
 7317SOL    HW133587   1.680   0.697   9.068  0.3360  0.6939 -2.4194
 7317SOL    HW233588   1.631   0.554   9.089  0.7425  0.3460  0.1800
 7318SOL     OW33589   3.804   0.705   4.590  0.6614 -0.0924 -0.2970
 7318SOL    HW133590   3.772   0.615   4.581  1.1045 -0.5592  2.8129
 7318SOL    HW233591   3.871   0.704   4.657  0.0022 -0.1785  0.3578
 7319SOL     OW33592   0.218   0.750  16.671 -0.4047  0.1763 -0.0921
 7319SOL    HW133593   0.309   0.775  16.659 -0.1176 -0.6883  0.2750
 7319SOL    HW233594   0.187   0.756  16.580 -4.0441  0.4211  1.1573
 7320SOL     OW33595   2.080   1.569   6.391 -0.5392  0.0248  0.2051
 7320SOL    HW133596   2.016   1.521   6.443 -0.6258 -0.9341 -0.7713
 7320SOL    HW233597   2.165   1.529   6.411 -0.5373 -1.3847 -2.5184
 7321SOL     OW33598   2.555   1.786   5.073 -0.0118  0.6601  0.0747
 7321SOL    HW133599   2.550   1.727   4.998  0.9022 -1.1172  1.4026
 7321SOL    HW233600   2.470   1.831   5.074  0.4114  1.4608 -0.2345
 7322SOL     OW33601   1.361   2.958  15.515  0.4176 -0.0261  0.0297
 7322SOL    HW133602   1.420   3.010  15.460  2.4214 -2.1520  0.1987
 7322SOL    HW233603   1.281   2.971  15.464 -1.0439 -1.3031  2.0214
 7323SOL     OW33604   0.825   2.145   3.799  0.4751 -0.4356 -0.5082
 7323SOL    HW133605   0.776   2.083   3.853  0.3377 -0.9970 -1.2840
 7323SOL    HW233606   0.833   2.098   3.716  0.0110  0.5024 -1.0749
 7324SOL     OW33607   0.199   1.611  16.564  0.0758  0.2665 -0.1350
 7324SOL    HW133608   0.123   1.669  16.564 -0.4387 -0.4091 -0.5300
 7324SOL    HW233609   0.235   1.613  16.476 -0.1751  0.1977 -0.2392
 7325SOL     OW33610   4.317   1.451  15.910  0.1449 -0.0266 -0.5304
 7325SOL    HW133611   4.286   1.373  15.862 -1.5637  1.3332 -1.6408
 7325SOL    HW233612   4.300   1.421  15.999  0.8056  2.2325  0.3565
 7326SOL     OW33613   0.401   1.345   5.561  0.3239 -0.0576  0.5302
 7326SOL    HW133614   0.470   1.320   5.500 -1.2900  0.7894 -1.6573
 7326SOL    HW233615   0.329   1.306   5.512 -0.5757  0.5695  1.3594
 7327SOL     OW33616   2.005   1.834   6.386  0.0638 -0.1874  0.5019
 7327SOL    HW133617   1.998   1.817   6.293  1.0089 -0.3396  0.4629
 7327SOL    HW233618   2.049   1.752   6.410  1.1860 -0.4882 -2.6289
 7328SOL     OW33619   1.182   4.019   2.857  0.2028 -0.1864 -0.4381
 7328SOL    HW133620   1.149   3.932   2.837 -0.0361 -0.2517  0.2234
 7328SOL    HW233621   1.178   4.014   2.953  0.0023  1.4213 -0.3536
 7329SOL     OW33622   3.870   2.810   1.660  0.5420  0.0038  0.0422
 7329SOL    HW133623   3.854   2.869   1.733  0.6480  0.7063 -0.5043
 7329SOL    HW233624   3.782   2.776   1.646  0.7560 -0.1277 -1.0459
 7330SOL     OW33625   4.455   1.270  17.617  0.0195  0.9996  0.6432
 7330SOL    HW133626   4.424   1.250  17.529 -0.7953 -0.9980  1.3971
 7330SOL    HW233627   4.529   1.210  17.611 -0.9023  0.0267 -0.9825
 7331SOL     OW33628   3.730   0.873   8.316  0.1803 -0.1622 -0.3979
 7331SOL    HW133629   3.801   0.810   8.306  0.7361  0.4553 -0.3625
 7331SOL    HW233630   3.740   0.937   8.246  0.2430  0.1231 -0.1319
 7332SOL     OW33631   2.823   3.746   2.640  0.3458  0.0012  0.0300
 7332SOL    HW133632   2.734   3.730   2.672 -0.0507  1.4242 -0.3762
 7332SOL    HW233633   2.856   3.785   2.721 -3.1991  0.3335  1.2964
 7333SOL     OW33634   1.813   4.725   2.340 -0.7602  0.6721  0.4972
 7333SOL    HW133635   1.743   4.661   2.353 -1.4995  1.0301 -1.6327
 7333SOL    HW233636   1.811   0.004   2.245 -0.0499 -0.4726  0.2800
 7334SOL     OW33637   3.491   0.794  11.364  0.0957 -0.2953  0.1143
 7334SOL    HW133638   3.553   0.865  11.385  0.2806 -0.2602 -0.5445
 7334SOL    HW233639   3.555   0.722  11.361 -1.0524 -1.3845  1.6622
 7335SOL     OW33640   2.429   0.815   5.493  0.3998 -0.1623  0.9328
 7335SOL    HW133641   2.352   0.758   5.501 -0.4318  0.5230 -1.9026
 7335SOL    HW233642   2.394   0.868   5.421  0.3119 -3.2469 -1.2808
 7336SOL     OW33643   1.464   2.545   4.306  0.0946 -0.6160  0.1323
 7336SOL    HW133644   1.515   2.464   4.304  1.9147  0.5103  0.0382
 7336SOL    HW233645   1.381   2.504   4.327 -0.0854  0.1642  0.9331
 7337SOL     OW33646   2.866   0.291   0.271 -0.0954  0.3672 -0.0562
 7337SOL    HW133647   2.783   0.289   0.224 -0.8371  1.2165  1.2216
 7337SOL    HW233648   2.894   0.378   0.241 -1.4339  0.8442  0.0829
 7338SOL     OW33649   3.286   2.884   2.964 -0.1362 -0.1472 -0.3449
 7338SOL    HW133650   3.369   2.883   3.013  1.0792 -1.3334 -2.4392
 7338SOL    HW233651   3.293   2.965   2.914  1.2132  0.4235  0.7355
 7339SOL     OW33652   3.924   2.481   6.846 -0.1430 -0.0732  0.1957
 7339SOL    HW133653   3.998   2.420   6.854  1.2935  1.6937  0.4121
 7339SOL    HW233654   3.842   2.433   6.854 -0.0630 -0.4006 -0.9776
 7340SOL     OW33655   3.174   3.500   4.567 -0.1293  0.6505  0.3308
 7340SOL    HW133656   3.265   3.507   4.596  1.3808 -0.6655 -4.1923
 7340SOL    HW233657   3.133   3.547   4.641 -0.2796  0.8929  0.0938
 7341SOL     OW33658   4.301   3.537   5.035 -0.3963  0.3597 -0.1941
 7341SOL    HW133659   4.328   3.450   5.065  1.0644  0.0154 -2.4776
 7341SOL    HW233660   4.368   3.557   4.970 -1.9725  0.2760 -1.8508
 7342SOL     OW33661   2.360   0.788   4.891 -0.0153  0.3999  0.8166
 7342SOL    HW133662   2.422   0.824   4.828  0.7229  1.4411  2.1462
 7342SOL    HW233663   2.294   0.749   4.833  0.8761  0.4472 -0.2310
 7343SOL     OW33664   3.211   1.754   3.725  0.3436  0.1393  0.0310
 7343SOL    HW133665   3.197   1.694   3.798  0.1052 -0.9725 -0.9337
 7343SOL    HW233666   3.124   1.782   3.696  0.2398  1.3373  1.4654
 7344SOL     OW33667   1.326   1.621   7.716  0.1977  0.0284 -0.2006
 7344SOL    HW133668   1.388   1.633   7.644 -0.4806 -0.8403 -0.9249
 7344SOL    HW233669   1.311   1.526   7.710  0.0672 -0.0317  1.0910
 7345SOL     OW33670   1.097   1.867   3.675 -0.0445  0.5340  0.1236
 7345SOL    HW133671   1.101   1.960   3.653  0.4859  0.6940  0.8906
 7345SOL    HW233672   1.187   1.847   3.702 -0.2293 -1.1143 -0.4409
 7346SOL     OW33673   4.414   4.527   4.706  0.0701 -0.1335  0.1917
 7346SOL    HW133674   4.419   4.595   4.773 -0.1995 -2.0809  2.1789
 7346SOL    HW233675   4.403   4.450   4.761 -4.8846  0.7590  0.5184
 7347SOL     OW33676   4.678   2.638   2.062  0.7685 -0.7999 -0.3268
 7347SOL    HW133677   4.641   2.554   2.034  0.8550 -0.3527 -1.7651
 7347SOL    HW233678   4.601   2.693   2.047  0.5300 -1.1148 -0.2621
 7348SOL     OW33679   3.475   1.214   8.447  0.2045  0.0672 -0.3714
 7348SOL    HW133680   3.403   1.160   8.414  0.4345  0.0459 -0.8358
 7348SOL    HW233681   3.530   1.141   8.476 -0.2357 -0.5812 -1.1649
 7349SOL     OW33682   3.214   1.038   9.131  0.8360  0.4716  0.0914
 7349SOL    HW133683   3.277   1.094   9.176  0.8052  0.5089  0.0882
 7349SOL    HW233684   3.264   0.961   9.107 -3.3123 -2.0848 -0.3964
 7350SOL     OW33685   2.493   2.276  17.644  1.0682 -0.2746  0.0350
 7350SOL    HW133686   2.573   2.327  17.653  2.0059 -1.5238 -1.1317
 7350SOL    HW233687   2.510   2.215  17.716 -2.7128 -0.8051  0.4777
 7351SOL     OW33688   2.735   3.817   1.494  0.4498  0.0191  1.0251
 7351SOL    HW133689   2.762   3.901   1.530  0.1415  0.7612 -0.4612
 7351SOL    HW233690   2.813   3.762   1.504 -0.1071 -1.1387 -0.7546
 7352SOL     OW33691   0.474   0.494  16.833  0.2582  0.6199  0.3049
 7352SOL    HW133692   0.425   0.434  16.777 -1.5503  3.4235 -1.1293
 7352SOL    HW233693   0.534   0.533  16.769  2.1741 -0.9233  1.1593
 7353SOL     OW33694   1.850   1.263   4.537  0.0767  0.3427  0.2102
 7353SOL    HW133695   1.863   1.180   4.493  3.5001  1.3954 -0.7313
 7353SOL    HW233696   1.925   1.317   4.512 -0.5079  0.8564 -0.4413
 7354SOL     OW33697   2.542   4.536  11.130  1.1939 -0.2433  0.3048
 7354SOL    HW133698   2.572   4.517  11.041 -0.6747 -0.5995 -0.2476
 7354SOL    HW233699   2.475   4.603  11.123 -0.8285 -2.2874  0.0871
 7355SOL     OW33700   4.733   4.322   8.919  0.1760 -0.3395 -0.5978
 7355SOL    HW133701   0.006   4.249   8.980 -0.2992 -0.3367 -0.5126
 7355SOL    HW233702   4.642   4.348   8.937  0.9335  1.9854 -0.0569
 7356SOL     OW33703   4.387   4.292   0.203 -0.1427  0.3208  0.2260
 7356SOL    HW133704   4.299   4.313   0.174 -0.2330  2.9421  2.2693
 7356SOL    HW233705   4.426   4.376   0.177  1.3995 -0.1889  0.8576
 7357SOL     OW33706   4.549   1.244   9.219  0.4248  1.3556  0.3106
 7357SOL    HW133707   4.615   1.312   9.229 -2.7426  4.1460  2.2018
 7357SOL    HW233708   4.561   1.206   9.132  0.2897 -0.1212  0.9359
 7358SOL     OW33709   2.277   1.222   7.366 -0.7330  0.0923 -0.2092
 7358SOL    HW133710   2.240   1.306   7.393 -0.4803 -0.6655  2.5505
 7358SOL    HW233711   2.248   1.226   7.275  2.5783  0.2168 -1.2561
 7359SOL     OW33712   1.363   3.231   6.310 -0.1432 -0.5410 -0.5879
 7359SOL    HW133713   1.346   3.254   6.218 -1.4181 -0.6272 -0.3692
 7359SOL    HW233714   1.287   3.262   6.359 -0.1995 -1.2968 -0.2164
 7360SOL     OW33715   3.379   1.305   4.526  0.0415  0.6639 -0.0170
 7360SOL    HW133716   3.387   1.400   4.535  0.0806  0.3192  3.3456
 7360SOL    HW233717   3.284   1.293   4.514  0.0614 -0.0852  0.6002
 7361SOL     OW33718   1.523   3.789  14.891 -0.0232 -0.4560 -0.6211
 7361SOL    HW133719   1.545   3.757  14.979 -0.7370 -1.0481 -0.6542
 7361SOL    HW233720   1.513   3.882  14.912  0.7266  0.0226 -2.3864
 7362SOL     OW33721   1.265   2.919  12.860 -0.1883  0.8948 -0.3688
 7362SOL    HW133722   1.320   2.903  12.937 -0.6050 -0.8020 -0.4180
 7362SOL    HW233723   1.327   2.884  12.796  0.6105  1.4399  0.1133
 7363SOL     OW33724   4.321   3.307   0.699 -0.0302  0.1702 -0.9704
 7363SOL    HW133725   4.302   3.329   0.790  0.6089 -0.2501 -0.7333
 7363SOL    HW233726   4.343   3.214   0.698  0.5432  0.2892  1.7471
 7364SOL     OW33727   4.558   2.333   3.197  0.2272  0.1475 -0.1102
 7364SOL    HW133728   4.586   2.261   3.141 -0.4758  0.6074 -1.0414
 7364SOL    HW233729   4.539   2.401   3.133  0.1610  1.1874  1.0077
 7365SOL     OW33730   2.623   2.209   5.490  0.0327 -0.4165 -0.2235
 7365SOL    HW133731   2.538   2.204   5.534 -0.0955 -1.1409 -0.5689
 7365SOL    HW233732   2.590   2.232   5.404 -2.2151 -1.1754  0.4389
 7366SOL     OW33733   3.975   1.649   8.739 -0.0984  0.0024 -0.5493
 7366SOL    HW133734   4.011   1.563   8.760 -2.3957 -1.1285 -1.1924
 7366SOL    HW233735   3.903   1.611   8.690 -1.1711  1.7799 -0.3561
 7367SOL     OW33736   4.439   0.458   6.583  0.4940  0.3123  0.1681
 7367SOL    HW133737   4.403   0.490   6.666 -0.1336 -0.2719  0.1259
 7367SOL    HW233738   4.498   0.391   6.618 -1.0338 -1.1695 -0.0638
 7368SOL     OW33739   0.971   2.573   6.267  0.4201  0.0021 -0.2922
 7368SOL    HW133740   0.972   2.482   6.298 -0.0992 -0.1049 -0.5939
 7368SOL    HW233741   1.008   2.560   6.180  0.7752 -0.4326 -0.0761
 7369SOL     OW33742   4.734   2.360  13.460  0.5146  0.1078 -0.9500
 7369SOL    HW133743   0.064   2.403  13.407  1.1471  1.6802  1.1150
 7369SOL    HW233744   0.040   2.379  13.544 -1.8081 -2.2899  0.7878
 7370SOL     OW33745   3.115   4.020   5.599 -0.0016 -0.7592  0.5940
 7370SOL    HW133746   3.110   4.087   5.531 -0.0572  0.5889  1.9095
 7370SOL    HW233747   3.030   4.028   5.642  0.5012  0.0194  1.4604
 7371SOL     OW33748   2.635   2.693  14.495  0.3213 -0.0964 -0.0567
 7371SOL    HW133749   2.640   2.785  14.469 -1.2693  0.0510  0.1500
 7371SOL    HW233750   2.585   2.670  14.417  0.0969  1.6174 -0.4166
 7372SOL     OW33751   2.696   0.696   7.675  0.0864  0.4294  0.0683
 7372SOL    HW133752   2.708   0.789   7.654  0.4260  0.4959  0.5490
 7372SOL    HW233753   2.737   0.696   7.762 -1.9170  0.0073  1.0173
 7373SOL     OW33754   4.668   4.008   5.819 -0.2314 -0.7254 -0.1157
 7373SOL    HW133755   4.644   4.099   5.804 -0.4249 -0.3936  2.1960
 7373SOL    HW233756   4.593   3.970   5.865  0.0443  1.3556  2.0544
 7374SOL     OW33757   3.616   3.734   3.784  0.6727  0.3545 -0.2437
 7374SOL    HW133758   3.695   3.715   3.834  0.0165 -3.9068 -0.7649
 7374SOL    HW233759   3.559   3.678   3.838  0.6113  0.2386 -0.4271
 7375SOL     OW33760   0.203   2.818   8.265  0.5753  0.3602 -0.5436
 7375SOL    HW133761   0.188   2.803   8.171  2.8146  1.9342 -1.1580
 7375SOL    HW233762   0.140   2.890   8.276  1.9267  1.5407 -0.5467
 7376SOL     OW33763   0.153   3.265   0.651  0.2904 -0.3728  0.4924
 7376SOL    HW133764   0.240   3.229   0.670  0.4177  0.2626  1.1123
 7376SOL    HW233765   0.169   3.359   0.648  1.0209 -0.5643 -1.6663
 7377SOL     OW33766   0.635   3.102   4.781  0.0463  0.3669  0.4899
 7377SOL    HW133767   0.622   3.098   4.875  3.1583  2.0395  1.0147
 7377SOL    HW233768   0.723   3.064   4.786  0.4112  0.7808 -2.4897
 7378SOL     OW33769   1.767   4.323  14.728  0.2011  0.1158  0.7072
 7378SOL    HW133770   1.820   4.345  14.652  0.5407  0.3623  1.0099
 7378SOL    HW233771   1.806   4.244  14.765 -0.7357 -1.4952 -1.7646
 7379SOL     OW33772   3.995   2.233  11.861  0.0828  0.3877 -0.3984
 7379SOL    HW133773   3.914   2.219  11.910  1.4727  0.8387  2.0622
 7379SOL    HW233774   3.994   2.328  11.861  0.1003  0.3899  1.1732
 7380SOL     OW33775   0.099   2.258   5.444 -0.4335 -0.0016  0.4174
 7380SOL    HW133776   0.155   2.198   5.396  0.7683  0.2851  1.4345
 7380SOL    HW233777   0.142   2.343   5.433  2.0069 -1.2132  0.5333
 7381SOL     OW33778   2.571   4.453   1.075 -0.5658  0.2103 -0.4074
 7381SOL    HW133779   2.661   4.466   1.047  0.2338 -2.0211  1.0895
 7381SOL    HW233780   2.539   4.371   1.037 -0.0008 -0.7042  1.0825
 7382SOL     OW33781   1.435   3.530  16.370 -0.2182  0.3349 -0.2762
 7382SOL    HW133782   1.380   3.452  16.372  0.8535 -0.3669  1.2994
 7382SOL    HW233783   1.522   3.505  16.339 -0.4062  0.5142 -0.9404
 7383SOL     OW33784   0.977   3.297   8.591 -0.4080  0.2654 -0.0800
 7383SOL    HW133785   0.980   3.370   8.654  1.5341  0.7206 -0.7055
 7383SOL    HW233786   0.895   3.250   8.607  0.2935 -1.1742 -0.8251
 7384SOL     OW33787   4.203   1.383   0.494 -0.6155  0.0135 -0.0410
 7384SOL    HW133788   4.153   1.303   0.512 -0.4041  0.0703  0.8147
 7384SOL    HW233789   4.201   1.409   0.586  2.3504 -0.6870  0.2092
 7385SOL     OW33790   1.711   1.278   8.705 -0.3843  0.6168  0.0698
 7385SOL    HW133791   1.748   1.192   8.686  1.2544  0.0625  5.8721
 7385SOL    HW233792   1.778   1.320   8.759  1.2974  1.0450 -2.3585
 7386SOL     OW33793   4.419   0.598   8.982 -0.1610 -0.7148 -0.0042
 7386SOL    HW133794   4.493   0.642   8.940 -0.4479  0.9398  1.2465
 7386SOL    HW233795   4.354   0.620   8.915 -0.3080  1.5277  0.8845
 7387SOL     OW33796   0.202   4.358   8.047  0.0429 -0.4812  0.4897
 7387SOL    HW133797   0.181   4.321   7.962 -1.1193  0.3972  0.3957
 7387SOL    HW233798   0.157   4.296   8.105 -1.2420 -0.8076 -0.8573
 7388SOL     OW33799   3.150   0.308   1.225 -0.1042 -0.7227  0.1263
 7388SOL    HW133800   3.161   0.258   1.306 -1.3685 -0.2009  0.6119
 7388SOL    HW233801   3.088   0.375   1.253 -0.4993 -1.3587  0.7489
 7389SOL     OW33802   0.722   3.198   8.631  0.3731  0.6579 -0.2249
 7389SOL    HW133803   0.631   3.195   8.659  0.2580  0.7703 -0.5878
 7389SOL    HW233804   0.716   3.129   8.565  0.0093  1.4710 -1.0346
 7390SOL     OW33805   0.969   0.583  17.165  0.6144 -0.4665 -0.1842
 7390SOL    HW133806   1.032   0.573  17.093  1.4225 -0.7679  0.5607
 7390SOL    HW233807   0.897   0.542  17.118  0.5599  0.0983 -0.5901
 7391SOL     OW33808   1.152   1.538   2.712  0.2243 -0.4352  0.3474
 7391SOL    HW133809   1.084   1.475   2.735  0.3377 -0.5516  0.3620
 7391SOL    HW233810   1.175   1.579   2.795 -1.8980  0.7420  0.3428
 7392SOL     OW33811   4.167   4.072   8.543  0.4257  0.0490  0.1663
 7392SOL    HW133812   4.110   4.019   8.598 -1.6301  1.5676 -0.5291
 7392SOL    HW233813   4.185   4.153   8.591  1.3285  0.1950 -0.4050
 7393SOL     OW33814   2.461   0.816  13.956  0.6923 -0.3962 -0.4566
 7393SOL    HW133815   2.446   0.907  13.931  0.3035 -0.4333 -0.3545
 7393SOL    HW233816   2.371   0.787  13.973  0.9436 -0.8237  0.1554
 7394SOL     OW33817   1.671   2.123  12.932 -0.5642  0.3262  0.7628
 7394SOL    HW133818   1.744   2.105  12.871 -1.9668  0.5595 -0.9964
 7394SOL    HW233819   1.609   2.167  12.873 -1.6092  0.3409  1.8884
 7395SOL     OW33820   4.075   3.641   2.755  0.1885  0.1048  0.2863
 7395SOL    HW133821   4.059   3.711   2.819 -0.8051  2.2137 -2.2645
 7395SOL    HW233822   3.983   3.615   2.744  0.3331 -0.8959  1.4750
 7396SOL     OW33823   4.328   1.871   5.079  0.5938  0.2456 -0.2428
 7396SOL    HW133824   4.405   1.819   5.057  0.8710  1.4546 -2.1767
 7396SOL    HW233825   4.322   1.850   5.172  3.2485  0.0914 -0.1106
 7397SOL     OW33826   1.952   3.534   6.948 -0.4363  0.2867 -0.0523
 7397SOL    HW133827   2.000   3.561   6.870 -0.7638  0.7230 -0.1052
 7397SOL    HW233828   1.898   3.464   6.913 -2.3547  1.9591 -0.4226
 7398SOL     OW33829   2.524   3.246   6.179  0.2648 -0.0168 -0.1624
 7398SOL    HW133830   2.580   3.207   6.246 -0.2912 -2.8431 -1.3648
 7398SOL    HW233831   2.441   3.206   6.205  0.8571 -0.5496  0.8941
 7399SOL     OW33832   4.005   1.019   3.405  0.0481  0.0039 -0.0171
 7399SOL    HW133833   3.933   0.957   3.392 -1.0679  1.3185 -0.0679
 7399SOL    HW233834   3.963   1.103   3.388  0.6095  0.1601 -0.5982
 7400SOL     OW33835   1.580   4.357   3.349 -0.1218  0.5360 -0.6410
 7400SOL    HW133836   1.524   4.302   3.404 -0.7783  1.7229 -0.1200
 7400SOL    HW233837   1.613   4.420   3.414  1.2156 -0.8257 -0.0019
 7401SOL     OW33838   4.190   1.014   0.575 -0.3543 -0.0550 -0.2205
 7401SOL    HW133839   4.141   0.958   0.515  1.6594 -0.7121 -1.2547
 7401SOL    HW233840   4.138   1.026   0.654 -0.8960  0.4701 -0.6608
 7402SOL     OW33841   4.152   2.040   4.252  0.4535 -0.4241 -0.1508
 7402SOL    HW133842   4.213   1.983   4.205  0.5861  0.0207 -0.5218
 7402SOL    HW233843   4.069   2.006   4.219 -1.1257  2.1124  1.2042
 7403SOL     OW33844   0.687   2.785   9.624  0.2808  0.0539 -0.0682
 7403SOL    HW133845   0.751   2.852   9.648  0.3056  0.1647 -0.4597
 7403SOL    HW233846   0.744   2.714   9.594  0.9631 -0.5639  2.6340
 7404SOL     OW33847   1.296   2.755   7.734  0.1181 -0.8816  0.4206
 7404SOL    HW133848   1.279   2.819   7.803 -2.9844 -0.5303 -0.6339
 7404SOL    HW233849   1.384   2.723   7.754 -0.5398 -1.6199  2.1814
 7405SOL     OW33850   4.277   3.744   7.812  0.2636 -0.3152  0.2637
 7405SOL    HW133851   4.345   3.806   7.837 -0.0865  0.0488  0.3200
 7405SOL    HW233852   4.332   3.672   7.781 -0.4663 -0.4325 -0.7752
 7406SOL     OW33853   1.773   3.645   6.481  0.7557  0.2460 -0.3989
 7406SOL    HW133854   1.737   3.588   6.413 -0.3768 -1.4275  1.5865
 7406SOL    HW233855   1.703   3.642   6.547 -1.0455  2.4126 -2.2439
 7407SOL     OW33856   3.684   1.288   5.985 -0.2417  0.1187  0.4524
 7407SOL    HW133857   3.621   1.359   5.986  1.3971  1.5746 -0.0240
 7407SOL    HW233858   3.720   1.300   5.898 -0.8667 -1.2593 -0.0040
 7408SOL     OW33859   0.909   2.170  13.026 -0.3017  0.1432  0.3012
 7408SOL    HW133860   0.996   2.130  13.030 -0.0843  0.7911  1.8865
 7408SOL    HW233861   0.922   2.223  12.947 -1.6049  1.4056  0.9269
 7409SOL     OW33862   1.475   0.817   4.615 -0.9636 -0.5234 -0.1562
 7409SOL    HW133863   1.506   0.747   4.557  1.2887 -1.9346  2.7551
 7409SOL    HW233864   1.408   0.858   4.560  0.3532  2.0765  0.1637
 7410SOL     OW33865   4.299   2.800   7.138 -0.9409 -0.3092 -0.1154
 7410SOL    HW133866   4.270   2.890   7.125 -0.9228 -0.2923 -0.0429
 7410SOL    HW233867   4.384   2.807   7.095  0.0764  0.4556  1.9984
 7411SOL     OW33868   0.620   3.628  11.153  0.4870  0.2278  0.1105
 7411SOL    HW133869   0.604   3.722  11.147  1.3380  0.4012  0.4851
 7411SOL    HW233870   0.703   3.636  11.200 -0.0566 -1.1310  1.3254
 7412SOL     OW33871   1.130   1.330  17.728  0.4349  0.3406 -0.0038
 7412SOL    HW133872   1.142   1.237  17.707  0.2006  0.2383  0.3131
 7412SOL    HW233873   1.070   1.358  17.659  0.4971  0.3706 -0.0454
 7413SOL     OW33874   2.075   4.518   2.062  0.6249  0.1139  0.3077
 7413SOL    HW133875   1.983   4.543   2.056 -0.5276 -3.4981  2.5699
 7413SOL    HW233876   2.083   4.527   2.157 -2.1076 -0.4954  0.5998
 7414SOL     OW33877   4.319   2.980   3.924  0.1895  0.2887  0.2213
 7414SOL    HW133878   4.247   3.032   3.888 -0.4183  1.4324  3.0977
 7414SOL    HW233879   4.281   2.938   4.001  0.9822 -1.8950 -0.5800
 7415SOL     OW33880   0.466   3.341   4.608 -0.9041 -0.2003 -0.0188
 7415SOL    HW133881   0.539   3.401   4.623 -1.3052  0.6057 -1.2853
 7415SOL    HW233882   0.399   3.409   4.617 -0.5188  0.2810 -0.8464
 7416SOL     OW33883   3.713   4.714   8.052 -0.4305 -0.1827  0.7224
 7416SOL    HW133884   3.694   4.627   8.089 -0.8328 -0.1769  0.5252
 7416SOL    HW233885   3.801   4.706   8.014 -0.3630  0.0597  0.8269
 7417SOL     OW33886   4.536   3.916  15.462  0.2024  0.3931 -0.1599
 7417SOL    HW133887   4.443   3.933  15.480  0.8775  3.2811  0.6510
 7417SOL    HW233888   4.547   3.963  15.379  1.1717  2.2061  1.0031
 7418SOL     OW33889   3.804   2.206   2.708  0.8687 -0.0773 -0.2015
 7418SOL    HW133890   3.783   2.198   2.615 -0.1825 -0.1266  0.0444
 7418SOL    HW233891   3.888   2.252   2.706  0.7671  0.0700 -0.9486
 7419SOL     OW33892   2.654   1.071   8.926 -0.0630  0.2714 -0.2761
 7419SOL    HW133893   2.700   1.107   8.850 -0.9643  1.6207 -0.1807
 7419SOL    HW233894   2.642   1.150   8.978 -0.2111 -0.1905  0.3875
 7420SOL     OW33895   1.128   0.396   8.180 -0.2725 -0.2453 -0.4405
 7420SOL    HW133896   1.050   0.340   8.171 -1.3729  1.5342 -2.1071
 7420SOL    HW233897   1.111   0.461   8.112 -0.0857 -1.5199 -1.7063
 7421SOL     OW33898   1.822   2.331   7.146  0.7218  0.2757 -0.6323
 7421SOL    HW133899   1.879   2.409   7.148  1.7375 -0.5052  0.6028
 7421SOL    HW233900   1.886   2.264   7.168 -0.2496 -0.8704 -1.3412
 7422SOL     OW33901   1.608   4.471   1.803 -0.5473  0.2769  0.3906
 7422SOL    HW133902   1.635   4.380   1.811  0.1373  0.2905 -1.7362
 7422SOL    HW233903   1.655   4.503   1.880  1.0245 -0.9743 -0.0624
 7423SOL     OW33904   2.405   1.730   1.740 -0.5810 -0.4154 -0.1353
 7423SOL    HW133905   2.372   1.703   1.826 -0.9332  0.3384 -0.0341
 7423SOL    HW233906   2.479   1.785   1.767 -1.6546  1.2235 -0.4786
 7424SOL     OW33907   1.605   3.128   5.950  0.1612 -0.0059 -0.4798
 7424SOL    HW133908   1.566   3.093   5.870  0.7861 -2.2864  0.2140
 7424SOL    HW233909   1.573   3.219   5.951  1.3179  0.3902  0.5327
 7425SOL     OW33910   0.169   4.106   6.603  0.0881  0.1402 -0.2305
 7425SOL    HW133911   0.170   4.189   6.555 -0.9211 -1.0270 -2.2711
 7425SOL    HW233912   0.143   4.052   6.528  1.9867 -1.5225  0.3280
 7426SOL     OW33913   2.125   0.611  11.791 -0.5976 -0.2077 -0.0629
 7426SOL    HW133914   2.052   0.638  11.847  1.4598  1.2637  1.9362
 7426SOL    HW233915   2.071   0.614  11.713  0.5993  2.3975 -0.7846
 7427SOL     OW33916   1.422   1.658   3.424  0.7454 -0.5032  0.0547
 7427SOL    HW133917   1.373   1.692   3.499 -0.0042 -0.3144 -0.5270
 7427SOL    HW233918   1.436   1.572   3.465  0.4513 -0.7766 -0.4126
 7428SOL     OW33919   1.171   1.698   5.615 -0.3797  0.2870  0.2705
 7428SOL    HW133920   1.240   1.649   5.659 -2.6031 -1.2484  2.0944
 7428SOL    HW233921   1.205   1.777   5.575  1.4344 -0.7496 -0.2335
 7429SOL     OW33922   1.465   4.142  11.546  0.2603 -0.1217 -0.1258
 7429SOL    HW133923   1.519   4.184  11.613 -2.5628  0.6606  1.6647
 7429SOL    HW233924   1.415   4.077  11.595  1.2055 -0.9287 -0.2262
 7430SOL     OW33925   2.213   3.294  14.999 -0.2819 -0.0128 -0.2088
 7430SOL    HW133926   2.196   3.226  14.933  1.8621  1.1662 -1.9548
 7430SOL    HW233927   2.236   3.244  15.077  0.2312 -0.6393 -0.7529
 7431SOL     OW33928   4.258   1.204   4.007  0.2474 -0.1068 -0.5978
 7431SOL    HW133929   4.213   1.120   4.004  0.4411 -0.2875  1.9559
 7431SOL    HW233930   4.263   1.216   3.912  0.3742  0.9821 -0.4563
 7432SOL     OW33931   3.531   3.618  15.524  0.2791 -0.0596  0.1261
 7432SOL    HW133932   3.615   3.656  15.498  0.6414 -0.4624  0.7247
 7432SOL    HW233933   3.505   3.575  15.443  0.5223 -0.4314  0.2435
 7433SOL     OW33934   0.183   0.417   7.402 -0.2300  0.9506  0.5679
 7433SOL    HW133935   0.255   0.407   7.465 -0.4514  1.9305  0.9744
 7433SOL    HW233936   0.166   0.325   7.383 -1.2307  1.0931  0.7980
 7434SOL     OW33937   3.226   1.007   8.675 -0.1276  0.4572  0.1715
 7434SOL    HW133938   3.232   0.957   8.594  1.1913 -0.0155  0.5570
 7434SOL    HW233939   3.199   0.935   8.732  0.3375  0.5753  0.5435
 7435SOL     OW33940   2.449   0.459   1.826  0.3348 -0.1344  0.4278
 7435SOL    HW133941   2.383   0.529   1.832  0.4794 -0.0898  1.4383
 7435SOL    HW233942   2.483   0.474   1.914  0.4112  1.7216  0.0832
 7436SOL     OW33943   3.158   4.431   4.298  0.6384 -0.1168 -0.0830
 7436SOL    HW133944   3.157   4.352   4.243  0.1855  0.4468 -0.8866
 7436SOL    HW233945   3.233   4.482   4.271  2.1786 -1.5132  1.5483
 7437SOL     OW33946   2.227   0.390   4.354 -0.0577 -0.3981  0.0354
 7437SOL    HW133947   2.133   0.402   4.368  0.4101  1.2369  1.6754
 7437SOL    HW233948   2.236   0.357   4.264  3.3841  1.7251 -0.3989
 7438SOL     OW33949   2.045   2.736   2.918  0.5359 -0.2088  0.0045
 7438SOL    HW133950   2.016   2.823   2.947 -0.8936  0.6223 -4.0118
 7438SOL    HW233951   2.033   2.750   2.824  3.3063 -1.4195 -0.5349
 7439SOL     OW33952   1.674   0.114   4.793  0.8220  0.2743  0.1350
 7439SOL    HW133953   1.685   0.096   4.700 -1.5359 -1.1340  0.1307
 7439SOL    HW233954   1.605   0.056   4.825  1.0900  1.6309  3.1634
 7440SOL     OW33955   1.867   1.633   7.078 -0.1668  0.1484 -0.1892
 7440SOL    HW133956   1.852   1.686   7.157  3.0238  0.2381  0.3471
 7440SOL    HW233957   1.803   1.564   7.096 -0.1597  0.1095 -0.3156
 7441SOL     OW33958   0.762   0.821   4.176 -0.7613  0.0253 -0.4650
 7441SOL    HW133959   0.796   0.746   4.225 -0.2837 -0.5289 -1.6455
 7441SOL    HW233960   0.831   0.843   4.113 -0.9104 -1.1988 -1.0520
 7442SOL     OW33961   0.280   0.325  10.247  0.2484  0.6220 -0.6207
 7442SOL    HW133962   0.334   0.313  10.325 -1.2523 -1.5162  0.0604
 7442SOL    HW233963   0.334   0.384  10.193  2.5615 -0.7826  0.1752
 7443SOL     OW33964   2.156   3.780   7.366 -0.1830 -0.5171  0.1422
 7443SOL    HW133965   2.112   3.751   7.446  1.5081  0.6060  1.4689
 7443SOL    HW233966   2.249   3.772   7.388  0.2350 -2.2759 -2.1778
 7444SOL     OW33967   3.937   2.381   4.581 -0.5155 -0.3048 -0.5502
 7444SOL    HW133968   3.912   2.374   4.489  0.2115 -0.3143 -0.7438
 7444SOL    HW233969   3.860   2.342   4.623  0.9254 -2.0046  0.5538
 7445SOL     OW33970   4.537   2.197  15.216 -0.0033  0.5211 -0.3739
 7445SOL    HW133971   4.628   2.228  15.219 -0.6965  2.6033 -1.2233
 7445SOL    HW233972   4.532   2.123  15.277 -0.3973  0.1368 -0.8761
 7446SOL     OW33973   1.165   4.573   7.823  0.7061  0.1074 -0.1581
 7446SOL    HW133974   1.157   4.497   7.765  0.9219 -0.3196  0.3729
 7446SOL    HW233975   1.260   4.589   7.823  0.4165  1.9220  1.7950
 7447SOL     OW33976   4.599   4.067   1.710  0.2842  0.4226  0.4843
 7447SOL    HW133977   4.530   4.025   1.760 -0.9070 -2.0386 -3.2599
 7447SOL    HW233978   4.669   4.011   1.745 -1.1629 -2.1296 -0.6769
 7448SOL     OW33979   3.685   0.395   7.430  0.6542  0.0919  0.1109
 7448SOL    HW133980   3.633   0.423   7.505 -1.8529  0.9519 -1.9721
 7448SOL    HW233981   3.754   0.342   7.471  1.7962  0.1268 -1.7689
 7449SOL     OW33982   0.803   4.323   7.939  0.6075 -0.4117  0.9832
 7449SOL    HW133983   0.774   4.389   7.876 -0.0177 -0.8865  0.7761
 7449SOL    HW233984   0.728   4.264   7.948  2.1318 -2.7850 -1.8777
 7450SOL     OW33985   3.789   4.061   2.281  0.2688  0.2330 -0.3344
 7450SOL    HW133986   3.796   4.124   2.209 -0.0621  1.5318  0.7892
 7450SOL    HW233987   3.719   4.008   2.242 -3.0542  4.8845 -0.6662
 7451SOL     OW33988   2.217   3.774   6.491 -0.2192  0.9293 -0.0298
 7451SOL    HW133989   2.241   3.724   6.569 -1.9511 -0.8580 -0.6482
 7451SOL    HW233990   2.301   3.815   6.472  1.4828 -2.5208  0.1033
 7452SOL     OW33991   2.818   3.834   7.227 -0.2113 -0.1394  0.2339
 7452SOL    HW133992   2.758   3.858   7.297 -2.3318  0.1345 -1.6754
 7452SOL    HW233993   2.838   3.744   7.253  0.1982 -0.2240 -0.3745
 7453SOL     OW33994   2.825   1.231   8.215 -0.2284 -0.4527 -0.1854
 7453SOL    HW133995   2.770   1.277   8.151  2.5021  0.3491 -1.9107
 7453SOL    HW233996   2.762   1.237   8.287 -1.4586 -3.0887 -1.0405
 7454SOL     OW33997   4.376   4.435  14.890  0.0888 -0.2074 -0.4285
 7454SOL    HW133998   4.306   4.483  14.935  1.0332  0.8365 -0.0572
 7454SOL    HW233999   4.435   4.506  14.865  1.3253 -1.5658 -1.3592
 7455SOL     OW34000   3.190   2.384   8.362  0.1689  0.1312  0.7599
 7455SOL    HW134001   3.245   2.314   8.327 -0.4703 -0.0208  0.0469
 7455SOL    HW234002   3.229   2.395   8.448 -0.7100  0.4569  1.1121
 7456SOL     OW34003   0.287   0.388   1.499  0.2408  0.3878  0.2277
 7456SOL    HW134004   0.324   0.377   1.412 -2.7968 -1.8557 -0.7530
 7456SOL    HW234005   0.194   0.401   1.483 -0.4903 -3.3193  1.4923
 7457SOL     OW34006   0.650   1.980   3.900  0.0305 -0.2596 -0.6360
 7457SOL    HW134007   0.613   1.921   3.966  0.2916  1.0960  0.7097
 7457SOL    HW234008   0.585   2.049   3.892 -0.8740 -1.0699 -0.3487
 7458SOL     OW34009   0.137   3.621  13.508  0.1523  0.5065 -0.1450
 7458SOL    HW134010   0.186   3.594  13.585  0.1931  2.3385  0.4739
 7458SOL    HW234011   0.189   3.692  13.470 -0.0768 -0.1395 -1.6855
 7459SOL     OW34012   1.413   3.061  11.645  0.5619  0.1362  0.1810
 7459SOL    HW134013   1.397   3.153  11.669  1.2846  0.7120 -1.5899
 7459SOL    HW234014   1.479   3.078  11.578  1.2298 -0.8255  0.6071
 7460SOL     OW34015   3.899   3.504   3.763 -0.5460  0.4432 -0.1688
 7460SOL    HW134016   3.811   3.470   3.778 -0.9429  1.9700  1.0361
 7460SOL    HW234017   3.914   3.572   3.829 -1.0271  1.1157 -0.7529
 7461SOL     OW34018   2.273   3.779   8.840 -0.1186 -0.7968  0.0448
 7461SOL    HW134019   2.302   3.755   8.752  0.5614  2.1384 -0.5301
 7461SOL    HW234020   2.256   3.692   8.877  0.5011 -1.1119 -0.4028
 7462SOL     OW34021   4.290   0.489   2.192  0.3151 -0.1006  0.2846
 7462SOL    HW134022   4.379   0.513   2.214  0.1251 -0.2920  1.2558
 7462SOL    HW234023   4.292   0.398   2.161  1.3221  0.1157 -0.2694
 7463SOL     OW34024   2.480   1.371  11.664  0.2331  0.3407  0.2735
 7463SOL    HW134025   2.515   1.456  11.636 -0.4658  1.1894  1.9794
 7463SOL    HW234026   2.493   1.333  11.577 -1.1246  0.5068  0.0005
 7464SOL     OW34027   3.981   2.143   8.041 -0.5733 -0.1796 -0.2420
 7464SOL    HW134028   3.956   2.108   8.126  0.1562  0.2279  0.1434
 7464SOL    HW234029   3.943   2.231   8.045 -0.0635  0.0508 -0.4322
 7465SOL     OW34030   4.558   0.566   2.242  0.2831 -0.2197  0.1326
 7465SOL    HW134031   4.590   0.526   2.323  0.0340  1.7986  1.2194
 7465SOL    HW234032   4.636   0.559   2.188  0.1254  0.5911 -0.1998
 7466SOL     OW34033   0.206   0.727   5.421 -0.1239 -0.3384  0.3946
 7466SOL    HW134034   0.276   0.715   5.485 -0.7388  1.2157  1.3562
 7466SOL    HW234035   0.246   0.723   5.334  1.0023 -0.5558  0.9219
 7467SOL     OW34036   1.101   3.371   3.424 -0.6046 -0.1449 -0.2285
 7467SOL    HW134037   1.177   3.336   3.472 -1.5442  0.6418  1.8226
 7467SOL    HW234038   1.046   3.407   3.493 -0.6252 -2.3832  0.9132
 7468SOL     OW34039   0.674   0.633   2.098 -0.5056  0.3012  1.2678
 7468SOL    HW134040   0.655   0.629   2.192  1.9903  3.5528  1.9114
 7468SOL    HW234041   0.681   0.542   2.072  0.3189  0.2935  1.5140
 7469SOL     OW34042   3.545   2.223   5.031 -0.0583 -0.3806 -0.3142
 7469SOL    HW134043   3.516   2.314   5.030 -0.3572 -0.4516  1.7590
 7469SOL    HW234044   3.624   2.228   5.086  2.0207 -0.2247 -3.3125
 7470SOL     OW34045   1.652   3.084   6.972 -0.0233 -0.3563  0.1580
 7470SOL    HW134046   1.691   3.151   6.916 -1.5139 -0.5694 -1.1535
 7470SOL    HW234047   1.724   3.021   6.978  1.3120  1.0725 -1.0113
 7471SOL     OW34048   3.360   4.240  10.438  0.5405  0.2915 -0.2608
 7471SOL    HW134049   3.337   4.322  10.395 -2.8206 -0.2707  0.5120
 7471SOL    HW234050   3.423   4.275  10.501  1.7812 -3.2394  0.4434
 7472SOL     OW34051   0.503   0.652   8.854 -0.0890  0.0739  0.1454
 7472SOL    HW134052   0.499   0.568   8.809  1.2925  1.4684 -2.6447
 7472SOL    HW234053   0.431   0.653   8.917  0.4080  1.4596  0.7060
 7473SOL     OW34054   1.660   1.203  13.118 -0.2620  0.3255 -0.8266
 7473SOL    HW134055   1.748   1.235  13.098  0.2117 -1.1207 -1.1010
 7473SOL    HW234056   1.654   1.231  13.209 -2.4370 -0.4893 -0.7277
 7474SOL     OW34057   1.530   2.950   0.242 -0.5910  0.5015 -0.3024
 7474SOL    HW134058   1.471   2.983   0.173 -2.4999 -1.0194  0.6000
 7474SOL    HW234059   1.582   2.883   0.197  0.5320  0.2947  1.3207
 7475SOL     OW34060   0.690   4.287   3.209 -0.3768 -0.2446 -0.3678
 7475SOL    HW134061   0.712   4.379   3.220  0.7586 -0.5716  0.1261
 7475SOL    HW234062   0.620   4.272   3.273  2.3544  0.1300  2.6889
 7476SOL     OW34063   2.322   0.811   0.174  0.3055 -0.1931  0.0193
 7476SOL    HW134064   2.323   0.801   0.079  0.2977 -2.3689  0.2379
 7476SOL    HW234065   2.227   0.804   0.186  0.3184  2.0278  1.3385
 7477SOL     OW34066   3.300   3.432   5.336 -0.6721 -0.5067  0.5209
 7477SOL    HW134067   3.292   3.510   5.390  1.9374  0.1422  0.0154
 7477SOL    HW234068   3.232   3.465   5.277  1.8605  3.9621  0.1041
 7478SOL     OW34069   3.618   0.366   3.505 -0.2134  0.2167 -0.0142
 7478SOL    HW134070   3.564   0.444   3.492 -0.5817  0.0624  0.6136
 7478SOL    HW234071   3.570   0.327   3.578  1.3156  0.7273  1.2778
 7479SOL     OW34072   3.497   0.618   2.989  0.4331 -0.1277  0.0093
 7479SOL    HW134073   3.510   0.706   2.953 -0.7617 -0.8499 -2.2003
 7479SOL    HW234074   3.420   0.592   2.939 -0.1953 -0.3402  1.1149
 7480SOL     OW34075   3.953   3.126   4.172 -0.3465  0.3405  0.0709
 7480SOL    HW134076   3.954   3.103   4.079  0.4819  0.4183  0.0661
 7480SOL    HW234077   3.858   3.140   4.176 -0.6029 -0.6568 -2.2681
 7481SOL     OW34078   4.296   2.023   8.776  0.2180  0.4821  0.1353
 7481SOL    HW134079   4.256   2.032   8.862 -0.4790 -0.5099 -0.0778
 7481SOL    HW234080   4.279   1.929   8.775 -1.6404  0.8267 -0.0369
 7482SOL     OW34081   4.431   1.847  13.132 -0.0453  0.2523  0.6864
 7482SOL    HW134082   4.461   1.789  13.062  2.0599  1.1090  0.8767
 7482SOL    HW234083   4.372   1.909  13.090 -0.0378 -0.0991  0.1590
 7483SOL     OW34084   2.310   2.765   7.246 -0.0521 -0.1696 -0.5452
 7483SOL    HW134085   2.227   2.813   7.252  0.0695 -0.0126 -0.0973
 7483SOL    HW234086   2.374   2.837   7.244 -3.8394  3.2398  0.8461
 7484SOL     OW34087   4.557   1.485  14.613  0.4737 -0.5925 -0.2804
 7484SOL    HW134088   4.589   1.417  14.555  0.2209  0.3218 -1.4935
 7484SOL    HW234089   4.629   1.546  14.629 -0.2450 -0.0158  0.8514
 7485SOL     OW34090   4.577   1.455   5.777  0.2079 -0.6358 -0.3503
 7485SOL    HW134091   4.593   1.514   5.703 -1.0524  1.2567  0.8916
 7485SOL    HW234092   4.482   1.447   5.788  0.3516 -2.1933 -0.2811
 7486SOL     OW34093   4.003   0.239   2.703 -0.3269  0.5463  0.7806
 7486SOL    HW134094   3.955   0.301   2.757 -0.3403 -0.3792  1.8355
 7486SOL    HW234095   4.081   0.286   2.673 -0.0918  0.2355  0.9075
 7487SOL     OW34096   4.428   4.216   4.880 -0.5064 -0.2079  0.4990
 7487SOL    HW134097   4.512   4.195   4.920  0.1280 -0.4530 -0.9857
 7487SOL    HW234098   4.388   4.267   4.951 -0.6424  0.3222  0.0382
 7488SOL     OW34099   3.965   1.053  10.501  0.1822  0.0350 -0.1830
 7488SOL    HW134100   4.057   1.064  10.478  0.7552  0.7167  2.5412
 7488SOL    HW234101   3.951   1.130  10.555 -0.7064 -1.2437  1.3898
 7489SOL     OW34102   0.516   4.629   8.034 -0.1284 -0.5479 -0.1081
 7489SOL    HW134103   0.425   4.604   8.053 -0.5064 -0.4284 -1.7712
 7489SOL    HW234104   0.498   4.706   7.980 -0.5355 -0.2580  0.4434
 7490SOL     OW34105   1.352   3.387  16.024  0.1932 -0.0711  0.0418
 7490SOL    HW134106   1.378   3.307  15.978 -1.8350 -0.2949 -0.6953
 7490SOL    HW234107   1.267   3.365  16.060 -0.5691  0.2006 -1.5759
 7491SOL     OW34108   2.000   1.312   4.215 -0.2934 -0.1212 -0.6008
 7491SOL    HW134109   2.009   1.348   4.127 -2.3752  0.7975 -0.4436
 7491SOL    HW234110   2.068   1.245   4.219 -0.2401 -0.0720 -0.7071
 7492SOL     OW34111   3.037   2.077   1.897 -0.1365 -0.1894  0.4037
 7492SOL    HW134112   3.101   2.036   1.839 -0.3840 -0.0524  0.0339
 7492SOL    HW234113   2.949   2.045   1.879  0.2939 -1.0248 -0.2006
 7493SOL     OW34114   4.445   0.307  13.205 -0.1070 -0.0526 -0.5623
 7493SOL    HW134115   4.355   0.329  13.181 -0.6360 -1.1902  0.3995
 7493SOL    HW234116   4.441   0.214  13.184  0.5383 -0.7190  2.2934
 7494SOL     OW34117   2.866   1.210   1.178  0.0000 -0.0624 -0.0276
 7494SOL    HW134118   2.901   1.298   1.196  2.8860 -1.4695  1.2022
 7494SOL    HW234119   2.783   1.239   1.142 -0.7060  2.5775  3.7434
 7495SOL     OW34120   4.258   4.190   6.450  0.2816 -0.7050 -0.1360
 7495SOL    HW134121   4.222   4.252   6.386  1.2700  0.8485  0.8103
 7495SOL    HW234122   4.217   4.206   6.535  0.6316  0.5172 -0.1982
 7496SOL     OW34123   2.525   2.887  13.999 -0.0117 -0.1965  0.8306
 7496SOL    HW134124   2.537   2.806  13.949 -2.4378  0.4127 -0.7686
 7496SOL    HW234125   2.466   2.935  13.940 -0.0521  0.5742  1.5072
 7497SOL     OW34126   3.049   0.272   7.693  0.5021  0.0172 -0.1146
 7497SOL    HW134127   2.993   0.255   7.769  0.5840  0.6839  0.0953
 7497SOL    HW234128   3.004   0.340   7.643 -0.7463 -0.4082  0.4495
 7498SOL     OW34129   0.682   1.976   4.553  0.4085 -0.5315 -0.1063
 7498SOL    HW134130   0.773   2.001   4.568 -0.3741  2.4290 -0.4000
 7498SOL    HW234131   0.690   1.888   4.591  2.7596 -0.0989  0.4453
 7499SOL     OW34132   3.274   1.691  11.534  0.5113  0.1083 -0.1228
 7499SOL    HW134133   3.328   1.613  11.520  0.8318 -0.0105  1.7391
 7499SOL    HW234134   3.209   1.686  11.464  0.5118  2.0934 -0.2713
 7500SOL     OW34135   3.004   3.340   0.465  0.1408 -0.4989 -0.8965
 7500SOL    HW134136   3.026   3.251   0.493  0.6326  0.3973  1.4979
 7500SOL    HW234137   3.062   3.401   0.509 -0.2781 -1.5396  1.0722
 7501SOL     OW34138   2.317   1.598  13.972  0.6792  0.2443  0.7012
 7501SOL    HW134139   2.247   1.651  14.008  0.7461 -0.8145  2.3825
 7501SOL    HW234140   2.261   1.550  13.911  0.4382  1.9627 -0.4354
 7502SOL     OW34141   2.438   1.313   2.806  0.0919 -0.1212 -0.0075
 7502SOL    HW134142   2.501   1.352   2.866 -0.1523 -2.2462  1.6414
 7502SOL    HW234143   2.376   1.386   2.800  1.5986  1.2775  1.5020
 7503SOL     OW34144   2.021   1.418   3.937 -0.2919 -0.1226 -0.3151
 7503SOL    HW134145   1.956   1.455   3.877  1.1718  0.3697 -1.6326
 7503SOL    HW234146   2.088   1.376   3.883 -1.4711  0.2559 -2.0769
 7504SOL     OW34147   1.904   3.271   8.356 -0.5244  0.4346  0.1522
 7504SOL    HW134148   1.953   3.205   8.308 -0.4403  0.1902  0.5683
 7504SOL    HW234149   1.950   3.291   8.438 -1.3266  1.0720  0.4521
 7505SOL     OW34150   1.393   0.609   5.082  0.6012  0.6657  0.5456
 7505SOL    HW134151   1.439   0.621   4.998 -2.0954 -0.3494 -1.0884
 7505SOL    HW234152   1.325   0.675   5.074 -0.5485 -0.5489  0.3348
 7506SOL     OW34153   2.496   0.354   7.312  0.0088 -0.2651  0.0064
 7506SOL    HW134154   2.556   0.368   7.385  0.9137 -0.1546 -0.7670
 7506SOL    HW234155   2.428   0.419   7.332 -0.5275 -0.3157 -1.6223
 7507SOL     OW34156   0.836   1.143  16.091 -0.1738 -0.1464 -0.0779
 7507SOL    HW134157   0.841   1.052  16.063  0.9729 -0.2710  0.5281
 7507SOL    HW234158   0.896   1.148  16.166 -0.7626  0.9541  0.3295
 7508SOL     OW34159   3.497   2.742   2.056 -0.2447 -0.5552  0.2924
 7508SOL    HW134160   3.491   2.820   2.000  2.2313 -0.0218  0.7571
 7508SOL    HW234161   3.417   2.696   2.029 -1.4054  2.0791 -0.7623
 7509SOL     OW34162   3.350   2.169   0.459  0.2918  0.2681 -0.0302
 7509SOL    HW134163   3.307   2.085   0.444  0.4676  0.8575 -3.8477
 7509SOL    HW234164   3.439   2.138   0.475  1.5754  1.9093 -3.8517
 7510SOL     OW34165   0.434   1.254  15.651 -0.2256  0.4409  0.0007
 7510SOL    HW134166   0.420   1.347  15.668  1.7035  0.3783  1.8976
 7510SOL    HW234167   0.480   1.262  15.568 -0.6111 -0.2772 -0.2888
 7511SOL     OW34168   0.640   0.842   3.699 -0.4249  0.3046  0.1655
 7511SOL    HW134169   0.555   0.877   3.672 -0.2175 -0.1576 -1.0600
 7511SOL    HW234170   0.621   0.820   3.791  0.3326  1.6551  0.6531
 7512SOL     OW34171   0.163   1.807   4.474 -0.1266  0.1222 -0.7052
 7512SOL    HW134172   0.138   1.742   4.408  0.9304 -1.8724  0.8465
 7512SOL    HW234173   0.122   1.882   4.433  1.3332  1.4510  0.2653
 7513SOL     OW34174   2.787   0.596   0.645 -0.0874  0.5502  0.2701
 7513SOL    HW134175   2.713   0.639   0.689  1.1082  1.9436  0.9022
 7513SOL    HW234176   2.794   0.517   0.698 -0.1268 -0.1809 -0.8234
 7514SOL     OW34177   4.373   3.144   3.551  0.3967 -0.0597  0.1440
 7514SOL    HW134178   4.403   3.234   3.559  0.8489 -0.1560 -0.5055
 7514SOL    HW234179   4.304   3.147   3.618  3.1566 -0.6359  2.9921
 7515SOL     OW34180   1.660   1.495   9.730  0.3887  0.3315  0.2627
 7515SOL    HW134181   1.699   1.512   9.644  1.4052 -0.6813  0.5205
 7515SOL    HW234182   1.729   1.524   9.790 -0.6525  1.1663  1.0569
 7516SOL     OW34183   0.859   1.370   3.925  0.0310 -0.0336 -0.0841
 7516SOL    HW134184   0.829   1.374   4.016 -1.4277  1.7907 -0.6476
 7516SOL    HW234185   0.899   1.456   3.914  1.1089 -0.6260 -0.7357
 7517SOL     OW34186   4.211   1.497   2.892  0.1076  0.6607 -0.2192
 7517SOL    HW134187   4.271   1.534   2.827  0.8895 -0.9435 -0.4099
 7517SOL    HW234188   4.162   1.431   2.844 -0.8064  0.3847  1.0898
 7518SOL     OW34189   4.272   4.048  15.020  0.6611 -0.1974  0.0450
 7518SOL    HW134190   4.326   4.063  14.942  0.7115  3.3089  0.7651
 7518SOL    HW234191   4.246   3.956  15.016  2.7759 -0.7303 -1.0565
 7519SOL     OW34192   2.860   0.526   2.504  0.1021 -0.0981  0.2920
 7519SOL    HW134193   2.827   0.589   2.569 -2.1256 -0.5317 -0.4428
 7519SOL    HW234194   2.780   0.476   2.489  0.4701 -0.8000  0.7052
 7520SOL     OW34195   3.069   3.607   5.648 -0.3421 -0.0811  0.4680
 7520SOL    HW134196   3.057   3.514   5.626  0.8721 -0.8448  2.9689
 7520SOL    HW234197   2.990   3.623   5.700  1.3180  0.7958  2.7251
 7521SOL     OW34198   0.808   4.010   0.361 -0.0328 -0.2569 -0.4175
 7521SOL    HW134199   0.845   4.013   0.273  3.9895  0.1188  1.2906
 7521SOL    HW234200   0.799   3.915   0.368  1.7994 -0.4830 -1.0157
 7522SOL     OW34201   4.275   0.103   7.876 -0.2636  0.5383 -0.2341
 7522SOL    HW134202   4.363   0.108   7.837  0.4906 -0.9914  1.2625
 7522SOL    HW234203   4.290   0.124   7.968 -0.5722 -0.5517  0.0670
 7523SOL     OW34204   1.579   2.615   6.930 -0.3678 -0.1366 -0.6470
 7523SOL    HW134205   1.563   2.590   7.021 -1.6031  2.6750 -0.0960
 7523SOL    HW234206   1.542   2.703   6.924  0.6457  0.3649  0.5982
 7524SOL     OW34207   0.934   0.223  14.698 -0.4328  0.3147 -0.0647
 7524SOL    HW134208   0.910   0.132  14.716  0.2494  0.4476  1.5470
 7524SOL    HW234209   0.850   0.252  14.663 -0.8508  1.6034  2.0478
 7525SOL     OW34210   2.923   3.480   3.863  0.5914 -0.2139 -0.1651
 7525SOL    HW134211   2.838   3.508   3.898 -1.5419  0.0377 -5.6302
 7525SOL    HW234212   2.916   3.496   3.769  3.1966  2.1220  0.0432
 7526SOL     OW34213   0.971   4.126  16.189 -0.3652 -0.3249 -0.2647
 7526SOL    HW134214   0.911   4.055  16.210 -2.6963  1.0151 -2.4705
 7526SOL    HW234215   1.034   4.117  16.261  0.9599  0.1301 -1.3760
 7527SOL     OW34216   2.375   4.613   1.151  0.6867 -0.1146 -0.3272
 7527SOL    HW134217   2.310   4.549   1.122 -0.7370  1.3087 -0.3161
 7527SOL    HW234218   2.451   4.561   1.125  0.8453 -0.0073 -0.0713
 7528SOL     OW34219   0.529   1.089   7.327  0.3264 -0.4748 -0.2726
 7528SOL    HW134220   0.607   1.122   7.371 -0.3542  0.2579  0.3887
 7528SOL    HW234221   0.474   1.103   7.404 -2.4002 -2.3428 -1.8825
 7529SOL     OW34222   0.803   4.403  17.153 -0.5327  0.3128  0.6163
 7529SOL    HW134223   0.869   4.353  17.105 -0.7085 -0.0332  0.7417
 7529SOL    HW234224   0.843   4.427  17.237  1.8294  0.3054 -0.5067
 7530SOL     OW34225   3.446   3.367  11.260  0.1233 -0.4320  0.5399
 7530SOL    HW134226   3.400   3.339  11.340  0.4599  0.3315  1.0045
 7530SOL    HW234227   3.456   3.280  11.220  1.2942  0.9768 -2.2081
 7531SOL     OW34228   0.136   0.255   4.934 -0.2173  0.0391  0.0536
 7531SOL    HW134229   0.222   0.216   4.920  1.1378  1.9276  3.1819
 7531SOL    HW234230   0.121   0.282   4.843 -0.1327  0.4463  0.1642
 7532SOL     OW34231   2.195   2.841  14.679  0.2801  0.2805 -0.4001
 7532SOL    HW134232   2.237   2.807  14.600  0.7567  0.0113 -0.0268
 7532SOL    HW234233   2.222   2.778  14.746 -0.4821 -0.0208 -0.3637
 7533SOL     OW34234   0.511   0.677  11.534 -0.1827  0.7433  0.9789
 7533SOL    HW134235   0.525   0.762  11.493  1.6533 -0.3351 -0.6109
 7533SOL    HW234236   0.421   0.674  11.566 -0.1199  2.2825  1.3183
 7534SOL     OW34237   0.266   4.052   0.540 -0.4349 -1.2303 -0.0489
 7534SOL    HW134238   0.205   4.115   0.578 -0.4260 -1.6278  0.6275
 7534SOL    HW234239   0.308   4.026   0.622 -0.8433  0.6856  0.7815
 7535SOL     OW34240   4.446   2.919   9.048  0.3160 -0.8392  0.2780
 7535SOL    HW134241   4.458   2.970   9.128 -0.7839  0.6190 -0.5021
 7535SOL    HW234242   4.525   2.941   8.998  1.2566  0.6316  2.4020
 7536SOL     OW34243   2.532   3.523   1.360 -0.3850 -0.2678 -0.4217
 7536SOL    HW134244   2.494   3.582   1.295 -0.9962 -0.0935  0.0920
 7536SOL    HW234245   2.626   3.521   1.342 -0.5337 -0.8415 -1.1547
 7537SOL     OW34246   2.434   2.102   4.409 -0.4095  0.6149 -0.4941
 7537SOL    HW134247   2.397   2.015   4.427 -0.8237  1.2997  1.9840
 7537SOL    HW234248   2.385   2.153   4.473  1.0543 -0.7152  1.6928
 7538SOL     OW34249   0.508   3.357   2.708 -0.0642  0.1469  0.0016
 7538SOL    HW134250   0.577   3.347   2.774 -2.5446 -2.1280  2.2607
 7538SOL    HW234251   0.533   3.442   2.672 -1.1823  1.3021  1.9432
 7539SOL     OW34252   1.136   3.712   1.737 -0.0764 -0.5305  0.3272
 7539SOL    HW134253   1.131   3.658   1.816 -2.9528 -4.5952 -2.6459
 7539SOL    HW234254   1.228   3.738   1.731 -0.4870  0.8478  0.2051
 7540SOL     OW34255   4.410   1.225  13.152  0.2468  0.3865  0.1768
 7540SOL    HW134256   4.448   1.144  13.120  1.1431  1.0407 -0.4387
 7540SOL    HW234257   4.479   1.256  13.211  0.6712  0.1807 -0.2071
 7541SOL     OW34258   2.317   1.303  10.094  0.5388 -0.2874  0.2619
 7541SOL    HW134259   2.338   1.246  10.167 -1.7467 -3.7057 -1.7689
 7541SOL    HW234260   2.365   1.259  10.024 -1.5134 -0.6630 -0.9008
 7542SOL     OW34261   2.377   3.675   9.554 -0.2026  0.0952 -0.6600
 7542SOL    HW134262   2.385   3.768   9.535  1.2893  0.0323 -0.3078
 7542SOL    HW234263   2.326   3.671   9.635  0.2083  0.2995 -0.3908
 7543SOL     OW34264   2.220   3.075  17.413 -0.0698 -0.8576  0.3143
 7543SOL    HW134265   2.311   3.101  17.426 -0.1433 -0.2628 -0.3357
 7543SOL    HW234266   2.169   3.153  17.390  3.3093  1.0678 -0.7105
 7544SOL     OW34267   2.236   0.927   8.219 -0.4327 -0.0275 -0.4594
 7544SOL    HW134268   2.176   0.992   8.181 -1.6743 -1.2076 -0.5486
 7544SOL    HW234269   2.250   0.958   8.308  1.3413  1.4576 -1.2694
 7545SOL     OW34270   0.590   0.631   3.018 -0.1087  0.1722  0.1409
 7545SOL    HW134271   0.557   0.604   3.104 -0.9785  1.4726  0.2194
 7545SOL    HW234272   0.639   0.708   3.048 -0.2218  1.0833 -2.0204
 7546SOL     OW34273   1.870   0.685   5.360  0.1384 -0.5910  0.1860
 7546SOL    HW134274   1.786   0.641   5.342 -0.0360  0.2489 -1.0355
 7546SOL    HW234275   1.891   0.640   5.442 -0.3493 -2.1146 -0.5316
 7547SOL     OW34276   4.323   4.440   7.454 -0.2889 -0.0304 -0.3508
 7547SOL    HW134277   4.328   4.467   7.362 -1.1908  0.7088 -0.1850
 7547SOL    HW234278   4.258   4.370   7.460  1.5561 -1.7379 -0.3127
 7548SOL     OW34279   2.840   0.909   3.368 -0.3913  0.1623  0.2409
 7548SOL    HW134280   2.866   0.841   3.430 -1.9687  0.4799  1.2609
 7548SOL    HW234281   2.902   0.981   3.380 -0.0077 -0.2453  0.6957
 7549SOL     OW34282   2.415   4.509   2.001  0.7313  0.3149 -0.1129
 7549SOL    HW134283   2.322   4.488   1.988  0.9920 -1.5013  0.9984
 7549SOL    HW234284   2.415   4.493   2.095  1.3302 -2.3717 -0.5769
 7550SOL     OW34285   1.453   0.780   1.122 -0.0632  0.2137  0.0718
 7550SOL    HW134286   1.392   0.828   1.178  1.7333  1.8212  0.6695
 7550SOL    HW234287   1.463   0.841   1.049 -0.0203  0.4973  0.3118
 7551SOL     OW34288   4.103   3.743   6.499  0.3990  1.1149 -0.6499
 7551SOL    HW134289   4.103   3.692   6.580 -1.0170  1.1949 -0.5933
 7551SOL    HW234290   4.176   3.699   6.455 -1.4078 -1.4692 -1.1292
 7552SOL     OW34291   1.416   1.529  16.657  0.0881  0.4137 -0.4270
 7552SOL    HW134292   1.323   1.507  16.669  0.3110 -0.5523 -0.4983
 7552SOL    HW234293   1.446   1.460  16.716  1.2370  1.5346  0.3100
 7553SOL     OW34294   4.420   4.495  16.763  0.3863  0.0049 -0.4578
 7553SOL    HW134295   4.476   4.497  16.840 -1.1452  1.0200  0.6447
 7553SOL    HW234296   4.400   4.588  16.773  1.9286  0.1852  0.9701
 7554SOL     OW34297   4.374   3.052   2.843 -0.6493 -0.2536  0.3238
 7554SOL    HW134298   4.411   3.023   2.759 -1.9515 -1.9948  0.3610
 7554SOL    HW234299   4.287   3.013   2.838 -0.4525 -0.3661 -2.2178
 7555SOL     OW34300   1.757   1.823   5.699  0.5416 -0.0502 -0.0332
 7555SOL    HW134301   1.772   1.824   5.604  1.1809 -0.7617  0.0573
 7555SOL    HW234302   1.667   1.856   5.693  0.7345  0.4689 -0.0861
 7556SOL     OW34303   4.289   0.053   6.567  0.0467  0.2842 -1.1153
 7556SOL    HW134304   4.321   0.062   6.477  0.2779  1.3858 -0.9212
 7556SOL    HW234305   4.194   0.051   6.562 -0.0116  1.3956 -0.4985
 7557SOL     OW34306   2.063   0.335   6.507 -0.6125  0.6088 -0.4241
 7557SOL    HW134307   2.000   0.278   6.552 -1.5236  1.6941 -0.3401
 7557SOL    HW234308   2.145   0.307   6.549 -1.1844 -0.5715 -0.0978
 7558SOL     OW34309   3.869   0.256  12.245  0.3006  0.3083 -0.5099
 7558SOL    HW134310   3.958   0.292  12.248 -0.0239  0.8825  2.5828
 7558SOL    HW234311   3.866   0.200  12.167  0.4339  0.7316 -0.8197
 7559SOL     OW34312   3.347   3.552   8.471 -0.0254  0.0778 -0.7844
 7559SOL    HW134313   3.306   3.538   8.385 -0.9796 -0.2510 -0.2740
 7559SOL    HW234314   3.442   3.551   8.457  0.2439 -2.8323  1.1898
 7560SOL     OW34315   2.013   4.199   8.019  0.5354 -0.1496 -0.4773
 7560SOL    HW134316   1.994   4.110   8.046  1.0572  0.1505  0.8908
 7560SOL    HW234317   1.942   4.204   7.955  1.4491 -1.2578 -1.5798
 7561SOL     OW34318   0.389   1.383   8.989 -0.4912  0.1811  0.1481
 7561SOL    HW134319   0.339   1.445   8.936  1.2878  0.5808 -1.0502
 7561SOL    HW234320   0.479   1.413   8.976 -0.0044 -1.1611  0.4302
 7562SOL     OW34321   0.443   4.066   5.574 -0.0818 -0.0785 -0.5084
 7562SOL    HW134322   0.442   4.056   5.669  0.9921 -1.0078 -0.5965
 7562SOL    HW234323   0.518   4.007   5.566  0.8137  1.0262 -0.2067
 7563SOL     OW34324   4.087   1.803   7.391  0.1566  0.0662  0.1515
 7563SOL    HW134325   4.171   1.848   7.393  0.8266 -1.1863  0.7361
 7563SOL    HW234326   4.047   1.811   7.305  0.3435 -2.9535 -0.2368
 7564SOL     OW34327   2.002   0.592  11.525  0.0623  0.1334 -0.5705
 7564SOL    HW134328   2.011   0.616  11.432  0.5141 -2.2574 -1.1518
 7564SOL    HW234329   1.937   0.659  11.543  0.7603  0.2327  1.5623
 7565SOL     OW34330   1.068   4.633  12.230 -0.1850 -0.3057 -0.6157
 7565SOL    HW134331   1.060   4.541  12.204  4.6886 -0.4411 -1.5502
 7565SOL    HW234332   1.080   4.667  12.142 -2.8303 -0.9492 -1.2214
 7566SOL     OW34333   0.763   4.206   5.342 -0.0130 -0.3573  0.5139
 7566SOL    HW134334   0.834   4.178   5.400 -0.5011  0.2152  1.3995
 7566SOL    HW234335   0.811   4.268   5.287  0.5497 -1.4425 -0.2114
 7567SOL     OW34336   3.794   3.791   0.158 -0.2951  0.3861 -0.3331
 7567SOL    HW134337   3.768   3.743   0.236  2.2287 -0.6695 -0.1345
 7567SOL    HW234338   3.723   3.854   0.148 -1.4759 -1.1301 -1.5805
 7568SOL     OW34339   0.286   0.324  15.786  0.1307  0.1036 -0.2262
 7568SOL    HW134340   0.371   0.328  15.742  0.5202  3.5935  0.8017
 7568SOL    HW234341   0.237   0.373  15.720 -0.0721 -2.6503 -2.1112
 7569SOL     OW34342   1.016   2.126   1.927  0.1303 -0.0779 -0.6895
 7569SOL    HW134343   0.937   2.161   1.886 -0.7651 -0.1388  0.9732
 7569SOL    HW234344   1.043   2.207   1.969  0.2157 -0.6486  0.3647
 7570SOL     OW34345   0.484   4.569   3.420  0.2718  0.2867 -0.2454
 7570SOL    HW134346   0.534   4.650   3.432  1.4359 -0.4523 -0.1487
 7570SOL    HW234347   0.420   4.604   3.358 -1.6045  0.2681  1.6851
 7571SOL     OW34348   2.455   1.805  10.071  0.2619  0.2374 -0.0097
 7571SOL    HW134349   2.414   1.732  10.024 -0.7773  0.0220  1.2462
 7571SOL    HW234350   2.483   1.859   9.997  0.9978 -1.5738 -1.0460
 7572SOL     OW34351   1.635   1.897   4.992 -0.1349  0.0799  0.5807
 7572SOL    HW134352   1.605   1.915   4.903  0.0395 -0.3087  0.4412
 7572SOL    HW234353   1.622   1.985   5.026 -2.0146 -0.2159  0.6166
 7573SOL     OW34354   0.850   3.657   0.611  0.3171 -0.9655 -0.0751
 7573SOL    HW134355   0.899   3.739   0.613 -1.7461  0.2854 -1.5880
 7573SOL    HW234356   0.903   3.588   0.571 -1.6393 -1.5475 -1.6965
 7574SOL     OW34357   0.669   2.787   8.576 -0.6648  0.2735 -0.0879
 7574SOL    HW134358   0.698   2.868   8.535  0.8409 -0.1571  0.0943
 7574SOL    HW234359   0.580   2.817   8.589 -1.1086 -1.0275 -0.0703
 7575SOL     OW34360   3.931   3.538   3.224  0.9770  0.3700 -0.2408
 7575SOL    HW134361   4.021   3.525   3.193  1.4372  0.3894  1.0816
 7575SOL    HW234362   3.886   3.551   3.140  0.1304 -0.9585  0.0195
 7576SOL     OW34363   4.210   3.155   4.248  0.1865 -0.2333 -0.4194
 7576SOL    HW134364   4.219   3.060   4.242 -0.1611 -0.4216  1.9309
 7576SOL    HW234365   4.115   3.158   4.235  0.2251  0.7945 -0.5105
 7577SOL     OW34366   0.077   0.419   9.152  0.1859  0.0579 -0.0347
 7577SOL    HW134367   0.076   0.396   9.245 -1.5394 -0.4517 -0.1954
 7577SOL    HW234368   0.112   0.343   9.105 -2.1849 -1.5174  0.7913
 7578SOL     OW34369   2.492   3.138   4.806  0.2374  0.6142 -0.0015
 7578SOL    HW134370   2.502   3.135   4.710 -0.8178  2.6864 -0.1809
 7578SOL    HW234371   2.581   3.113   4.831 -0.8655 -1.0543  2.2580
 7579SOL     OW34372   2.669   3.326   8.241 -0.8291  0.1278 -0.6689
 7579SOL    HW134373   2.646   3.301   8.330 -1.4247  1.2519 -0.5047
 7579SOL    HW234374   2.740   3.267   8.216 -0.8606 -0.8085  1.4716
 7580SOL     OW34375   1.095   2.427  11.831  0.2337  0.1004 -0.4284
 7580SOL    HW134376   1.190   2.438  11.819  0.3267  1.3321  1.5226
 7580SOL    HW234377   1.099   2.400  11.922  1.3945 -1.5880 -0.9799
 7581SOL     OW34378   1.215   3.431   2.570 -0.7355  0.7109 -0.4042
 7581SOL    HW134379   1.254   3.436   2.658  1.4358 -0.8704 -1.2755
 7581SOL    HW234380   1.252   3.345   2.550  0.4992  1.1411  0.0062
 7582SOL     OW34381   1.956   3.222   7.039 -0.1932 -0.0316 -0.5410
 7582SOL    HW134382   2.022   3.223   6.970  0.3322 -1.1292 -0.0560
 7582SOL    HW234383   1.925   3.132   7.023 -1.3103 -0.2587  2.9270
 7583SOL     OW34384   0.342   3.557  11.434  0.1475  0.0502 -0.0040
 7583SOL    HW134385   0.428   3.539  11.397  1.0116 -0.8202  2.4752
 7583SOL    HW234386   0.364   3.603  11.515 -0.6734  0.6703 -0.1245
 7584SOL     OW34387   0.711   1.407   4.171 -0.7812  0.0762  0.1424
 7584SOL    HW134388   0.622   1.404   4.136 -1.1315 -0.1718  1.0533
 7584SOL    HW234389   0.696   1.475   4.237  1.4582  0.3492  0.3690
 7585SOL     OW34390   4.617   2.363   2.020 -0.0195 -0.2377  0.7840
 7585SOL    HW134391   4.624   2.269   2.009  3.0589  0.1492 -0.8131
 7585SOL    HW234392   4.560   2.401   1.953  2.5602  1.5965 -0.4061
 7586SOL     OW34393   3.172   1.930   5.528 -0.2016 -0.3231 -0.0335
 7586SOL    HW134394   3.231   1.921   5.453  0.4113  1.6298  0.2041
 7586SOL    HW234395   3.186   1.840   5.555  0.3748  0.0441  0.8766
 7587SOL     OW34396   0.875   4.645   5.786  0.1894  1.3222  0.0947
 7587SOL    HW134397   0.875   4.559   5.745 -2.1260  1.7306 -0.7537
 7587SOL    HW234398   0.804   4.693   5.743 -0.2369 -0.6935 -1.4187
 7588SOL     OW34399   3.560   0.995   3.997  0.7734 -0.2879  0.5042
 7588SOL    HW134400   3.645   0.974   3.958 -0.5528 -0.6236 -2.2104
 7588SOL    HW234401   3.568   1.024   4.087  0.4208  0.3925  0.3220
 7589SOL     OW34402   0.362   4.333   5.119  0.7413 -0.1201  0.4882
 7589SOL    HW134403   0.375   4.319   5.213 -2.4546  0.3721  1.0099
 7589SOL    HW234404   0.430   4.284   5.073 -0.1864  1.0647 -2.1590
 7590SOL     OW34405   3.854   3.815   5.500  0.3920  0.0316  0.1792
 7590SOL    HW134406   3.850   3.730   5.456  3.2958 -0.5835  1.0600
 7590SOL    HW234407   3.895   3.796   5.585  1.8429 -0.4475 -0.6175
 7591SOL     OW34408   4.306   1.046  16.819 -0.4675 -0.3204 -0.1582
 7591SOL    HW134409   4.375   1.018  16.878 -1.2500 -1.0722  0.3999
 7591SOL    HW234410   4.299   1.140  16.834  1.2194 -0.1882 -0.2155
 7592SOL     OW34411   1.254   4.026   8.230 -0.1725 -0.4737 -0.3833
 7592SOL    HW134412   1.331   3.976   8.256  0.9205  0.3953 -1.9066
 7592SOL    HW234413   1.263   4.106   8.281 -0.7448 -0.2360 -0.6481
 7593SOL     OW34414   3.301   2.432  11.022 -0.1015  0.5777  0.5708
 7593SOL    HW134415   3.215   2.473  11.022  0.5188  1.9067 -0.5563
 7593SOL    HW234416   3.285   2.368  11.091 -0.6155 -0.6755 -0.7042
 7594SOL     OW34417   4.707   1.241   0.654  0.2191  0.0054 -0.0664
 7594SOL    HW134418   4.659   1.292   0.589 -0.4390 -1.3657 -0.6699
 7594SOL    HW234419   0.012   1.308   0.708  1.3879 -0.8307  0.0628
 7595SOL     OW34420   4.514   4.102   6.467 -0.6965  0.0221 -0.3842
 7595SOL    HW134421   4.548   4.188   6.490 -0.4862 -0.0636 -0.3829
 7595SOL    HW234422   4.421   4.123   6.478 -1.2110 -1.3999 -1.9172
 7596SOL     OW34423   4.615   2.112   5.353 -0.5751  0.3561  0.3651
 7596SOL    HW134424   4.630   2.112   5.259 -0.7627  0.6120  0.3341
 7596SOL    HW234425   4.679   2.182   5.369  0.7260 -1.0215  1.1773
 7597SOL     OW34426   0.998   4.290   4.818  0.1270 -0.0666 -0.6406
 7597SOL    HW134427   1.048   4.218   4.779 -0.3584 -0.3583 -0.7178
 7597SOL    HW234428   1.069   4.354   4.827 -1.1611  1.0796  1.3173
 7598SOL     OW34429   0.894   2.271   6.299 -0.5733 -0.1841 -0.0473
 7598SOL    HW134430   0.813   2.232   6.265 -0.3291  0.1396 -0.9911
 7598SOL    HW234431   0.860   2.304   6.382 -0.5773 -2.2154  0.7544
 7599SOL     OW34432   3.302   4.105   2.606 -0.5006  0.0630  0.1916
 7599SOL    HW134433   3.315   4.113   2.700 -1.4297  3.2149  0.0346
 7599SOL    HW234434   3.326   4.013   2.594  2.9609  0.7035  2.3666
 7600SOL     OW34435   3.041   4.157   2.113 -0.0116  0.4526 -0.3681
 7600SOL    HW134436   3.041   4.105   2.193 -2.5398 -1.3232 -1.5358
 7600SOL    HW234437   3.003   4.238   2.149  0.5532  1.2873 -1.6674
 7601SOL     OW34438   3.769   2.742  17.517  0.3540  0.4017 -0.0166
 7601SOL    HW134439   3.789   2.784  17.434  1.4039 -0.0176  0.0235
 7601SOL    HW234440   3.820   2.661  17.517  1.9818  1.4249  0.5340
 7602SOL     OW34441   0.416   1.857  15.894  0.4060  0.0014  0.9509
 7602SOL    HW134442   0.498   1.831  15.936  2.0863  3.1267 -0.4255
 7602SOL    HW234443   0.425   1.931  15.835  1.1647  0.1461  1.2460
 7603SOL     OW34444   3.341   0.653   6.709 -0.2373  0.9731 -0.0588
 7603SOL    HW134445   3.432   0.651   6.681  0.1192 -1.3301  1.2655
 7603SOL    HW234446   3.296   0.625   6.629 -0.6273 -1.3191  0.9626
 7604SOL     OW34447   3.321   2.372   8.618 -0.1610 -0.4785  0.2283
 7604SOL    HW134448   3.380   2.302   8.647 -2.1522 -2.1177  0.3112
 7604SOL    HW234449   3.362   2.450   8.657  0.8287 -1.4387  1.0866
 7605SOL     OW34450   3.589   0.604   6.896 -0.7163 -0.0230  0.5030
 7605SOL    HW134451   3.649   0.530   6.890 -0.2204  0.4988 -0.9465
 7605SOL    HW234452   3.522   0.572   6.957  1.3302 -1.4638  2.0235
 7606SOL     OW34453   0.489   2.595  10.498  0.2809  0.3036  0.2727
 7606SOL    HW134454   0.506   2.509  10.461 -2.0819  0.5386 -1.3930
 7606SOL    HW234455   0.467   2.640  10.416  1.9485 -1.4356 -1.1090
 7607SOL     OW34456   2.059   4.024   1.062  0.7057 -0.4770 -0.4948
 7607SOL    HW134457   2.095   4.048   1.147  0.1216 -0.7862 -0.1612
 7607SOL    HW234458   2.061   3.928   1.068  0.5925 -0.6105 -2.7647
 7608SOL     OW34459   1.943   4.306   9.786 -0.4708  0.0163 -0.1850
 7608SOL    HW134460   2.000   4.231   9.768 -1.9999 -0.6015 -2.5809
 7608SOL    HW234461   1.895   4.294   9.867 -0.8426  3.5702  0.1190
 7609SOL     OW34462   2.498   4.606   6.660  0.3388 -0.2225 -0.3579
 7609SOL    HW134463   2.517   4.637   6.571 -0.4794 -1.0083 -0.8121
 7609SOL    HW234464   2.408   4.630   6.680  0.0925 -0.5273 -1.0880
 7610SOL     OW34465   4.692   0.586  16.026  0.4586 -0.0826  0.5739
 7610SOL    HW134466   4.733   0.658  15.979  1.0405  0.4602  1.9218
 7610SOL    HW234467   4.626   0.640  16.070 -0.0446  0.9491 -1.4405
 7611SOL     OW34468   0.024   2.790   3.989 -0.0654 -0.2278 -0.8852
 7611SOL    HW134469   0.116   2.788   4.016  0.0598 -1.4099 -1.3812
 7611SOL    HW234470   0.004   2.883   3.999  0.5641 -0.2564  0.6774
 7612SOL     OW34471   3.377   0.236   2.961 -0.2709 -0.2507 -0.2486
 7612SOL    HW134472   3.387   0.291   2.884  0.6451 -0.0037  0.0390
 7612SOL    HW234473   3.283   0.251   2.970  0.2516  3.1211 -0.6591
 7613SOL     OW34474   3.359   1.132   2.864 -0.2040 -0.0456  0.7954
 7613SOL    HW134475   3.342   1.226   2.867 -0.3794  0.0002 -2.2758
 7613SOL    HW234476   3.329   1.121   2.774  0.3060  2.9728  0.2655
 7614SOL     OW34477   0.976   1.650   1.843  0.0144  0.1817  0.2180
 7614SOL    HW134478   0.960   1.704   1.766  3.8221  2.7329  1.1931
 7614SOL    HW234479   0.885   1.652   1.873 -0.2443  1.9618 -0.7239
 7615SOL     OW34480   4.267   2.472   6.629 -0.4971 -0.3460  0.2112
 7615SOL    HW134481   4.186   2.435   6.664 -0.5758 -0.1069  0.2865
 7615SOL    HW234482   4.337   2.410   6.651  1.2426  1.2678 -0.7133
 7616SOL     OW34483   1.825   0.735   8.569 -0.9342 -0.0294  0.1354
 7616SOL    HW134484   1.849   0.747   8.477 -0.8621 -1.8773 -0.0790
 7616SOL    HW234485   1.881   0.659   8.580 -1.8031 -0.8046 -0.8449
 7617SOL     OW34486   0.305   3.688   0.052 -0.0760  0.2187 -0.3043
 7617SOL    HW134487   0.329   3.648   0.135 -1.4291 -0.5912 -0.3114
 7617SOL    HW234488   0.289   3.775   0.088  1.9740  0.1639  0.7348
 7618SOL     OW34489   3.572   3.488   6.848 -0.2506  0.1059 -0.4218
 7618SOL    HW134490   3.612   3.528   6.925 -2.1586  1.6426 -0.2130
 7618SOL    HW234491   3.516   3.420   6.885  0.7027  0.4325  1.6663
 7619SOL     OW34492   4.404   3.411   3.538 -0.0366  0.0124 -0.2816
 7619SOL    HW134493   4.334   3.469   3.568 -0.7677 -1.2696  0.4371
 7619SOL    HW234494   4.419   3.447   3.450  0.3542 -1.2167 -0.7149
 7620SOL     OW34495   2.140   2.213   1.606 -0.2298  0.0664 -0.5781
 7620SOL    HW134496   2.235   2.207   1.598 -0.1511  0.0744  0.3111
 7620SOL    HW234497   2.134   2.299   1.565  0.3028  0.5663  0.3702
 7621SOL     OW34498   1.334   1.639   4.357  0.4081  0.2108 -0.1228
 7621SOL    HW134499   1.305   1.724   4.326  1.8492  0.5621 -0.5008
 7621SOL    HW234500   1.350   1.642   4.451 -0.3387 -1.7661  0.0758
 7622SOL     OW34501   1.696   4.050   9.681 -0.4517 -0.3266  0.0551
 7622SOL    HW134502   1.742   4.065   9.599  0.8676  0.4768  0.9448
 7622SOL    HW234503   1.722   4.126   9.732 -1.3834 -1.2155  1.8584
 7623SOL     OW34504   1.489   3.887   0.492 -0.2375  0.1868  0.1309
 7623SOL    HW134505   1.543   3.808   0.490 -1.1460 -0.3719 -2.0085
 7623SOL    HW234506   1.467   3.884   0.399  2.3776 -3.1844 -0.3732
 7624SOL     OW34507   0.085   3.263   4.079  0.3813  0.5757 -0.3315
 7624SOL    HW134508   0.084   3.320   4.155  2.4239 -0.3663  0.4169
 7624SOL    HW234509   0.130   3.325   4.022  0.5174 -0.0041 -0.8652
 7625SOL     OW34510   2.253   0.430   6.177  0.0243  0.0534 -0.3743
 7625SOL    HW134511   2.294   0.432   6.264  1.1568  0.6035 -0.9138
 7625SOL    HW234512   2.178   0.489   6.187 -2.7795 -3.7048  0.8118
 7626SOL     OW34513   0.337   0.114  16.396 -0.3698  0.0574  0.5441
 7626SOL    HW134514   0.248   0.081  16.379 -0.5673 -0.1794  2.0399
 7626SOL    HW234515   0.379   0.077  16.318 -0.0745  0.0359  0.7141
 7627SOL     OW34516   2.130   3.039   4.692  0.5861  0.0086  0.4329
 7627SOL    HW134517   2.199   2.979   4.665 -1.3020 -2.6327  1.5166
 7627SOL    HW234518   2.054   3.036   4.634  1.0068  0.6898 -0.1475
 7628SOL     OW34519   3.223   1.901   2.429  0.2669 -0.0789 -0.0963
 7628SOL    HW134520   3.183   1.966   2.488  2.4175  1.8159 -0.7164
 7628SOL    HW234521   3.229   1.945   2.344 -3.6228  0.3427 -0.1404
 7629SOL     OW34522   0.152   2.496   2.062 -0.6027  0.8040  0.2027
 7629SOL    HW134523   0.140   2.444   1.982  0.3712  1.2190 -0.2160
 7629SOL    HW234524   0.090   2.568   2.051 -0.9468  0.2862 -1.2364
 7630SOL     OW34525   4.326   2.988   9.530  0.4794 -0.2033 -0.3216
 7630SOL    HW134526   4.407   3.026   9.495  2.4345 -4.2076 -0.2422
 7630SOL    HW234527   4.270   2.979   9.453  0.2139  1.6893 -0.3517
 7631SOL     OW34528   4.625   3.341   8.068 -0.7979  0.1820 -0.6320
 7631SOL    HW134529   4.609   3.355   7.975  1.2905 -2.4814 -1.3933
 7631SOL    HW234530   4.721   3.345   8.070 -0.8438  1.3948 -0.8213
 7632SOL     OW34531   0.206   2.250   8.182 -0.2636  0.0546 -0.2597
 7632SOL    HW134532   0.273   2.189   8.214  0.3260  0.3753 -0.8843
 7632SOL    HW234533   0.208   2.315   8.252  0.1313 -0.7531  0.4936
 7633SOL     OW34534   1.633   4.581   4.642 -0.0144  0.1790  0.3116
 7633SOL    HW134535   1.557   4.583   4.700  1.2152 -1.9669  1.9853
 7633SOL    HW234536   1.646   4.675   4.628 -0.5689  0.3261  0.7813
 7634SOL     OW34537   0.020   3.746   2.799  0.5404  0.5550  0.2774
 7634SOL    HW134538   4.724   3.671   2.751  0.7227 -0.3236  1.5395
 7634SOL    HW234539   0.042   3.714   2.886 -0.9125 -0.7996  0.1297
 7635SOL     OW34540   2.471   0.146   5.167 -0.2680  0.5972  0.5762
 7635SOL    HW134541   2.385   0.155   5.207  0.2221  0.4428  1.6522
 7635SOL    HW234542   2.484   0.234   5.131 -2.1176  1.0603  1.0763
 7636SOL     OW34543   0.219   0.021  13.545 -0.1057 -0.4992 -0.7743
 7636SOL    HW134544   0.266   4.690  13.593 -0.0069 -0.4726 -0.8317
 7636SOL    HW234545   0.263   0.021  13.460 -0.7456 -2.4615 -1.0986
 7637SOL     OW34546   1.527   2.224   8.199 -0.3140  0.4726 -0.0847
 7637SOL    HW134547   1.505   2.138   8.164 -2.0456  0.5548  0.7606
 7637SOL    HW234548   1.569   2.264   8.123 -1.7980 -0.0552 -1.1893
 7638SOL     OW34549   3.367   2.015   5.298  0.1633  0.0019 -0.1000
 7638SOL    HW134550   3.377   2.052   5.386  0.2550 -0.9201  0.2734
 7638SOL    HW234551   3.458   1.987   5.284  0.8444  1.7204  0.8219
 7639SOL     OW34552   3.350   0.326   5.667  0.1557  0.3964  0.1362
 7639SOL    HW134553   3.315   0.397   5.613 -1.9374 -0.4919  0.3110
 7639SOL    HW234554   3.382   0.272   5.595  1.3497 -0.1499  1.0695
 7640SOL     OW34555   1.026   1.699   2.207  0.1889 -0.0291  0.6457
 7640SOL    HW134556   0.993   1.677   2.294 -0.4600 -0.1575  0.3633
 7640SOL    HW234557   0.953   1.756   2.184 -1.3521 -0.9979  3.0801
 7641SOL     OW34558   0.458   2.375   4.251 -0.0237  0.0964 -0.2425
 7641SOL    HW134559   0.516   2.440   4.291 -0.3335  0.4698 -0.3980
 7641SOL    HW234560   0.400   2.429   4.197  2.0993  0.1526 -2.4580
 7642SOL     OW34561   2.958   1.081   5.311  0.4558 -0.4298 -0.4187
 7642SOL    HW134562   3.000   1.041   5.235  0.5616 -0.1383 -0.5130
 7642SOL    HW234563   2.916   1.003   5.346  0.7657 -2.0547 -3.6689
 7643SOL     OW34564   1.641   3.937  10.153  1.1231 -0.0994  0.0878
 7643SOL    HW134565   1.570   3.915  10.092  0.1939 -0.1124  1.1712
 7643SOL    HW234566   1.692   3.859  10.132 -0.7220 -1.2213 -0.2693
 7644SOL     OW34567   0.056   0.105   9.479 -0.4875  0.4240 -0.1135
 7644SOL    HW134568   0.098   0.051   9.412 -3.4723 -0.8946 -0.9492
 7644SOL    HW234569   0.086   0.194   9.461 -0.4665  0.3679 -0.3617
 7645SOL     OW34570   2.379   2.600   6.733 -0.1906 -0.2274 -0.0142
 7645SOL    HW134571   2.409   2.516   6.700 -0.2353 -0.5026  0.6455
 7645SOL    HW234572   2.294   2.585   6.773  0.2982  1.7443  1.8080
 7646SOL     OW34573   3.846   0.611   9.935 -0.2518  0.4086  0.1825
 7646SOL    HW134574   3.769   0.560   9.962  0.5431  0.8720  3.2617
 7646SOL    HW234575   3.879   0.548   9.870 -2.1786 -2.7918  2.3269
 7647SOL     OW34576   2.919   3.190   8.752 -0.3243  0.1499 -0.1754
 7647SOL    HW134577   2.971   3.246   8.810 -0.7614  1.4158 -1.0068
 7647SOL    HW234578   2.852   3.160   8.813 -0.5399  1.6965  0.3574
 7648SOL     OW34579   4.630   3.918  17.230  0.1940  0.0232  0.3384
 7648SOL    HW134580   4.557   3.961  17.184 -1.0040 -1.1727  1.1322
 7648SOL    HW234581   4.656   3.852  17.166  0.6559  0.2430  0.2992
 7649SOL     OW34582   4.218   1.274   7.282 -0.5054  0.8454  0.1724
 7649SOL    HW134583   4.203   1.347   7.223  0.5871  0.7324 -0.2490
 7649SOL    HW234584   4.220   1.195   7.227 -1.2383  0.3628  0.8331
 7650SOL     OW34585   2.026   0.666   2.639  0.1785 -0.6960 -0.5967
 7650SOL    HW134586   2.094   0.673   2.571  0.4348  2.1780 -0.0550
 7650SOL    HW234587   1.964   0.733   2.611 -0.0163 -0.7590 -0.3068
 7651SOL     OW34588   0.448   0.728   7.367  0.8081  0.0005  0.3539
 7651SOL    HW134589   0.457   0.737   7.461 -1.6522 -2.9624  0.8842
 7651SOL    HW234590   0.354   0.711   7.362  0.7401  0.2161  1.0309
 7652SOL     OW34591   4.377   1.032   6.648  0.0519 -0.1771 -0.5685
 7652SOL    HW134592   4.384   0.988   6.564  0.2838 -0.7234 -0.2629
 7652SOL    HW234593   4.287   1.022   6.680  1.0972  1.7297  3.0462
 7653SOL     OW34594   2.173   0.174   2.526  0.4671  0.3532 -0.2595
 7653SOL    HW134595   2.256   0.140   2.494  2.5084  1.3089  4.1411
 7653SOL    HW234596   2.181   0.133   2.612 -1.8353 -1.2823 -0.8262
 7654SOL     OW34597   4.720   2.213  10.456  0.2115  0.5594  0.6512
 7654SOL    HW134598   4.638   2.237  10.413  0.2012 -0.5262  0.0562
 7654SOL    HW234599   4.724   2.280  10.524  0.4245  0.5067  0.6913
 7655SOL     OW34600   2.967   2.476   4.923 -0.3440 -0.6721  0.1175
 7655SOL    HW134601   3.001   2.433   4.845  2.5394 -0.8544  1.4827
 7655SOL    HW234602   2.988   2.416   4.995  0.3789 -2.3440 -1.4877
 7656SOL     OW34603   1.830   0.345   4.021  0.5470  0.1148  0.5199
 7656SOL    HW134604   1.887   0.289   4.074 -0.7759 -1.6557  0.0933
 7656SOL    HW234605   1.816   0.421   4.077 -2.5568 -1.0088  1.2601
 7657SOL     OW34606   3.166   3.860   1.537 -0.2787 -0.2838 -0.1658
 7657SOL    HW134607   3.126   3.947   1.531  1.1442  0.3702 -0.2008
 7657SOL    HW234608   3.097   3.805   1.573 -0.4016  1.0356  1.5624
 7658SOL     OW34609   2.357   1.351   6.716  0.1574 -0.5870  0.2619
 7658SOL    HW134610   2.403   1.371   6.798 -2.7600  0.7297  1.5957
 7658SOL    HW234611   2.383   1.430   6.669  1.0600  0.3576  2.3051
 7659SOL     OW34612   0.809   3.904   4.758  0.7134 -0.5971  0.3015
 7659SOL    HW134613   0.760   3.841   4.812  0.3802  0.1512  0.8686
 7659SOL    HW234614   0.875   3.937   4.818 -0.1875  0.8560  0.4859
 7660SOL     OW34615   1.561   2.875  11.781 -0.2490 -0.6355  0.1693
 7660SOL    HW134616   1.511   2.906  11.705  0.3650 -0.1679 -0.0472
 7660SOL    HW234617   1.585   2.788  11.749  3.6289 -0.2497  2.0288
 7661SOL     OW34618   4.123   0.235   7.673  0.2381  0.0268 -0.3703
 7661SOL    HW134619   4.188   0.292   7.631  2.4403 -1.6023  0.8286
 7661SOL    HW234620   4.180   0.176   7.722  1.8174  0.5930 -1.5406
 7662SOL     OW34621   0.742   0.154   8.754  0.0806 -0.0086  0.0120
 7662SOL    HW134622   0.648   0.143   8.743  0.1346 -2.8376  2.5807
 7662SOL    HW234623   0.778   0.075   8.713 -0.3606 -0.4025  0.3827
 7663SOL     OW34624   4.056   2.988   5.340 -0.6027 -0.3529 -0.1788
 7663SOL    HW134625   4.062   3.019   5.250  2.6908 -0.9495 -0.1874
 7663SOL    HW234626   4.108   2.907   5.345 -0.9583 -0.5255  0.7187
 7664SOL     OW34627   1.871   3.486   7.407 -0.4022 -0.3158 -0.0823
 7664SOL    HW134628   1.891   3.547   7.337  1.6889 -0.9790 -0.0684
 7664SOL    HW234629   1.870   3.549   7.479 -0.0773  0.1274 -0.4672
 7665SOL     OW34630   1.186   4.501   2.248  0.3825 -0.1289  0.1931
 7665SOL    HW134631   1.130   4.553   2.191  1.0774 -1.4990 -1.7549
 7665SOL    HW234632   1.230   4.446   2.183  2.0788 -0.1810  1.4076
 7666SOL     OW34633   0.064   3.702  10.599 -0.0627  0.0081  0.3026
 7666SOL    HW134634   0.119   3.662  10.666  1.5918 -1.1334 -1.7186
 7666SOL    HW234635   0.015   3.761  10.655 -1.1040 -1.7141  1.2154
 7667SOL     OW34636   4.104   0.765   7.697 -0.0576  0.8323  0.9907
 7667SOL    HW134637   4.160   0.834   7.661 -1.1562  1.2488  0.0866
 7667SOL    HW234638   4.029   0.780   7.639 -1.3532  0.3117  2.5295
 7668SOL     OW34639   0.428   4.097   6.696 -0.0428  0.2043  0.0116
 7668SOL    HW134640   0.337   4.067   6.692  0.1553 -0.6257  1.6188
 7668SOL    HW234641   0.447   4.094   6.602  0.1125  1.6283 -0.0010
 7669SOL     OW34642   1.040   4.063   1.044 -0.0212  0.0483  0.7522
 7669SOL    HW134643   0.950   4.031   1.043 -0.3613  0.9696  1.8487
 7669SOL    HW234644   1.033   4.086   0.951  1.2723  1.4727  1.0053
 7670SOL     OW34645   0.038   1.969   2.810 -0.0721  0.2896 -0.0325
 7670SOL    HW134646   0.048   2.025   2.733 -2.9026 -1.3523 -1.6011
 7670SOL    HW234647   4.710   1.899   2.800  2.2729 -1.6546 -1.7665
 7671SOL     OW34648   0.336   3.428   7.280  0.3150 -0.1174  0.5630
 7671SOL    HW134649   0.378   3.477   7.350  1.2704  0.7834 -0.6393
 7671SOL    HW234650   0.246   3.459   7.281 -0.3145 -1.8915 -2.4032
 7672SOL     OW34651   4.473   0.254   9.469 -0.8553 -0.4791 -0.2024
 7672SOL    HW134652   4.446   0.163   9.468  0.1127 -0.7863  0.8471
 7672SOL    HW234653   4.439   0.285   9.553  1.9678  0.0547  0.7786
 7673SOL     OW34654   1.869   4.096   4.498 -0.7981 -0.0961  0.3450
 7673SOL    HW134655   1.880   4.015   4.547 -0.6588 -0.7592 -0.8024
 7673SOL    HW234656   1.932   4.145   4.551 -0.9767 -0.4207  0.8587
 7674SOL     OW34657   0.745   1.942   1.947 -0.3320  0.5491  0.1921
 7674SOL    HW134658   0.734   2.017   2.006  1.3411  0.6105  0.4315
 7674SOL    HW234659   0.789   1.881   2.006 -1.2066 -2.5261 -2.3542
 7675SOL     OW34660   3.848   4.306  17.407 -0.2124  0.1349  0.2064
 7675SOL    HW134661   3.758   4.298  17.437 -0.6551  3.7022 -0.2272
 7675SOL    HW234662   3.877   4.215  17.410 -1.7922 -0.4359 -1.9870
 7676SOL     OW34663   4.253   2.085  13.123  0.3978 -0.1200  0.2200
 7676SOL    HW134664   4.211   2.107  13.206  2.2128 -2.8690  1.8701
 7676SOL    HW234665   4.297   2.168  13.103  1.2904 -0.7025 -0.2690
 7677SOL     OW34666   2.393   1.068   3.144 -1.0409 -0.0973  0.5698
 7677SOL    HW134667   2.355   1.155   3.139 -1.7990 -0.5289 -1.2181
 7677SOL    HW234668   2.469   1.080   3.200  0.2191  1.0782 -1.4155
 7678SOL     OW34669   3.323   1.583   6.974  0.1295 -0.3980 -0.5182
 7678SOL    HW134670   3.284   1.555   6.891 -0.2818 -0.5326 -0.2813
 7678SOL    HW234671   3.258   1.548   7.035  0.4759 -0.3897 -0.1456
 7679SOL     OW34672   2.186   2.991   3.903  0.0171 -0.1333  0.1715
 7679SOL    HW134673   2.178   3.019   3.812  2.9821 -0.0218 -0.0476
 7679SOL    HW234674   2.095   2.990   3.933  0.2011 -0.2476  0.7185
 7680SOL     OW34675   4.629   0.968   8.265  0.0177 -0.2535  0.0731
 7680SOL    HW134676   4.608   0.954   8.357 -0.1501 -0.8104 -0.0505
 7680SOL    HW234677   4.717   0.932   8.258  1.2743  2.8817 -0.2207
 7681SOL     OW34678   0.083   0.223  17.082  0.8452 -0.1607  0.1656
 7681SOL    HW134679   0.126   0.290  17.136  0.1930 -0.6937  1.3413
 7681SOL    HW234680   0.115   0.151  17.136 -3.1891 -1.3254  1.0376
 7682SOL     OW34681   1.513   3.749   4.101 -0.1370  0.4664  0.0422
 7682SOL    HW134682   1.507   3.684   4.031 -1.6221 -0.5585  1.1281
 7682SOL    HW234683   1.602   3.780   4.084 -0.5444  1.7935  0.3677
 7683SOL     OW34684   1.060   0.027   2.842 -0.4263 -0.4328 -0.1939
 7683SOL    HW134685   1.102   4.680   2.862  0.3388 -0.2349 -0.9364
 7683SOL    HW234686   1.086   0.043   2.752 -0.7825  0.3717 -0.1489
 7684SOL     OW34687   4.252   4.033  16.829  0.3539 -0.0399 -0.0647
 7684SOL    HW134688   4.241   4.122  16.862  0.8431  0.3560 -0.9703
 7684SOL    HW234689   4.175   4.023  16.774  1.2984  3.1741 -1.9522
 7685SOL     OW34690   3.056   0.776   7.091 -0.4137 -0.1932  0.1036
 7685SOL    HW134691   3.053   0.870   7.112 -1.7967 -0.0216 -0.8647
 7685SOL    HW234692   3.147   0.761   7.117  0.3526  0.5543 -2.1766
 7686SOL     OW34693   2.208   1.405   9.437 -0.0681  0.0276 -0.1535
 7686SOL    HW134694   2.116   1.390   9.413 -0.0716 -2.2195  1.2767
 7686SOL    HW234695   2.215   1.488   9.390 -2.0295  0.6442  0.6164
 7687SOL     OW34696   2.653   1.869  16.336  0.7901  0.4030  0.1658
 7687SOL    HW134697   2.622   1.955  16.309 -2.7340 -1.1126 -0.5992
 7687SOL    HW234698   2.742   1.881  16.303  0.5389  0.0348 -0.6500
 7688SOL     OW34699   2.193   0.224   1.605  0.2740  0.1133 -0.1162
 7688SOL    HW134700   2.277   0.181   1.621 -0.7219 -1.8199 -0.0972
 7688SOL    HW234701   2.137   0.147   1.595 -0.5533  0.8203 -0.7909
 7689SOL     OW34702   0.898   3.400   7.550 -0.0722  0.3614 -0.7485
 7689SOL    HW134703   0.925   3.470   7.491 -1.3934  2.1435  0.7805
 7689SOL    HW234704   0.979   3.366   7.589 -1.8934 -2.0199  0.9943
 7690SOL     OW34705   1.101   2.524   5.973 -0.7200 -0.3671  0.7074
 7690SOL    HW134706   1.069   2.452   5.920  0.6770 -0.1794 -0.4082
 7690SOL    HW234707   1.080   2.606   5.928  0.2070  0.1144  1.1433
 7691SOL     OW34708   0.276   0.985   6.727  0.5350  0.0959  0.4008
 7691SOL    HW134709   0.350   0.928   6.706 -0.7758 -1.4619 -0.0168
 7691SOL    HW234710   0.290   1.054   6.662 -0.2888 -0.2306 -0.1182
 7692SOL     OW34711   4.112   2.867  12.968 -0.1015  0.4126  0.0275
 7692SOL    HW134712   4.082   2.859  13.058  0.0847  0.5159  0.0991
 7692SOL    HW234713   4.107   2.961  12.951  0.1233  0.3100 -0.6084
 7693SOL     OW34714   3.913   2.398   2.059 -0.3238  0.2272 -0.0457
 7693SOL    HW134715   3.914   2.493   2.054 -0.5800  0.1825 -0.8414
 7693SOL    HW234716   3.964   2.381   2.138  1.8443  1.7280 -1.1356
 7694SOL     OW34717   3.040   0.724   8.024  0.3827  0.1765  0.1514
 7694SOL    HW134718   3.084   0.807   8.002  0.0573  0.1556 -0.5729
 7694SOL    HW234719   3.107   0.688   8.082  0.8794  0.7291 -0.0721
 7695SOL     OW34720   1.848   4.378   4.632  0.4037 -0.0971 -0.5343
 7695SOL    HW134721   1.763   4.413   4.605 -0.6871 -2.4055 -0.0799
 7695SOL    HW234722   1.854   4.421   4.718  0.0638 -0.2198 -0.4474
 7696SOL     OW34723   0.663   0.870   7.330 -0.3616 -0.3567  0.2759
 7696SOL    HW134724   0.590   0.808   7.333 -0.0096 -0.7307  1.2398
 7696SOL    HW234725   0.625   0.957   7.333  1.4018  0.3250  3.0982
 7697SOL     OW34726   4.016   3.781  16.881  0.2867 -0.4801  0.1130
 7697SOL    HW134727   3.975   3.722  16.817  0.8434  0.1228 -0.7909
 7697SOL    HW234728   4.014   3.866  16.837 -1.5162 -1.4845 -1.7576
 7698SOL     OW34729   1.863   0.150  11.145  0.5975  0.3264  0.5011
 7698SOL    HW134730   1.939   0.118  11.096  0.5641  0.9248  0.0607
 7698SOL    HW234731   1.911   0.216  11.195  0.6545 -0.7154  1.8145
 7699SOL     OW34732   3.746   3.690  10.232 -0.2020  0.5107  0.3730
 7699SOL    HW134733   3.653   3.679  10.252 -0.3564  1.1690  0.0387
 7699SOL    HW234734   3.796   3.636  10.293 -0.5808  1.4089  1.4623
 7700SOL     OW34735   1.411   4.371   3.090 -0.5282 -0.2738 -0.4061
 7700SOL    HW134736   1.468   4.417   3.151 -1.0459 -1.4140  0.9569
 7700SOL    HW234737   1.340   4.340   3.146 -0.1617  0.3445  0.3831
 7701SOL     OW34738   2.122   0.396   6.793 -0.4804  0.0519 -0.4059
 7701SOL    HW134739   2.084   0.484   6.793 -0.7054 -0.0464 -0.2051
 7701SOL    HW234740   2.056   0.347   6.745  0.9038 -2.9673  0.7422
 7702SOL     OW34741   1.380   3.316   8.488 -0.1214  0.2274  0.0459
 7702SOL    HW134742   1.301   3.267   8.466  0.5986 -1.1598  0.5673
 7702SOL    HW234743   1.365   3.409   8.470  1.9449  0.9275  1.8689
 7703SOL     OW34744   0.486   1.942   3.060  0.6535 -0.3420 -0.1014
 7703SOL    HW134745   0.473   1.956   3.154 -2.9272 -1.2115 -0.4512
 7703SOL    HW234746   0.397   1.954   3.026 -0.2300  0.2685  2.4002
 7704SOL     OW34747   3.986   2.344   8.972  0.0957 -0.5731 -0.0038
 7704SOL    HW134748   3.926   2.299   8.912  1.2349 -1.3556 -0.5470
 7704SOL    HW234749   3.941   2.339   9.057 -0.5361 -0.3590 -0.3258
 7705SOL     OW34750   2.294   2.558   2.973 -0.7358 -0.2980  0.3969
 7705SOL    HW134751   2.286   2.628   3.038 -0.0177 -0.7143  0.9383
 7705SOL    HW234752   2.203   2.540   2.947 -0.4998  2.1008 -2.1481
 7706SOL     OW34753   2.202   1.115   0.458 -0.2909  0.1556  0.0440
 7706SOL    HW134754   2.277   1.120   0.398 -1.4537  0.1223 -1.4332
 7706SOL    HW234755   2.130   1.133   0.396  0.1856  0.3577 -0.4512
 7707SOL     OW34756   3.668   1.071   9.871 -0.3109  0.5828 -0.2815
 7707SOL    HW134757   3.746   1.034   9.831  0.3843  1.4822  0.2662
 7707SOL    HW234758   3.686   1.057   9.964  1.5207  2.4052 -0.3802
 7708SOL     OW34759   2.392   3.492  12.400 -0.1267 -0.1188 -0.0085
 7708SOL    HW134760   2.436   3.459  12.479 -0.3187 -2.3230 -0.8262
 7708SOL    HW234761   2.298   3.493  12.419 -0.2998 -0.7258 -0.8636
 7709SOL     OW34762   1.741   2.322   8.893  0.3553 -0.6156  0.9895
 7709SOL    HW134763   1.766   2.324   8.801  2.1067 -0.2332  1.4709
 7709SOL    HW234764   1.679   2.249   8.899 -0.7881  0.2816  0.2320
 7710SOL     OW34765   0.381   2.840   8.611 -0.0662  0.2739 -0.6497
 7710SOL    HW134766   0.318   2.768   8.610  0.8555 -0.5357  0.4624
 7710SOL    HW234767   0.370   2.877   8.699 -0.4636 -1.1521 -0.0965
 7711SOL     OW34768   3.713   3.167  10.160  0.1457  0.2222  0.0295
 7711SOL    HW134769   3.641   3.175  10.098 -0.7287 -0.1069  0.9926
 7711SOL    HW234770   3.745   3.084  10.125  1.0941  1.1329 -1.2924
 7712SOL     OW34771   4.591   0.718   2.649  0.2943 -0.1708 -0.8209
 7712SOL    HW134772   4.524   0.690   2.711  0.0641 -0.8179 -1.3639
 7712SOL    HW234773   4.633   0.638   2.618 -0.7027 -1.5516  1.3793
 7713SOL     OW34774   0.623   1.852   8.789 -0.0436 -0.3161  0.2007
 7713SOL    HW134775   0.636   1.820   8.699 -1.0304 -1.5034  0.4799
 7713SOL    HW234776   0.705   1.816   8.823  1.7139  0.0757 -3.6088
 7714SOL     OW34777   1.867   3.510  14.033  0.6447 -0.4490 -0.1112
 7714SOL    HW134778   1.811   3.570  13.984 -3.6462 -3.5580  1.0131
 7714SOL    HW234779   1.847   3.429  13.985 -0.4892 -0.7134  0.8204
 7715SOL     OW34780   0.682   4.154   4.545  0.4789  0.7021  0.3299
 7715SOL    HW134781   0.681   4.077   4.487  0.6138  0.4749  0.6314
 7715SOL    HW234782   0.716   4.111   4.623 -0.9055  3.4644  2.4581
 7716SOL     OW34783   1.539   1.152   3.717 -0.6226  0.6664 -0.8203
 7716SOL    HW134784   1.555   1.246   3.726 -2.0341  0.7264  1.0165
 7716SOL    HW234785   1.491   1.135   3.798 -2.7190  1.2011 -1.9510
 7717SOL     OW34786   1.554   3.621   8.614  0.5045  0.3725  0.1942
 7717SOL    HW134787   1.526   3.596   8.526  1.5574 -3.1187  0.8655
 7717SOL    HW234788   1.635   3.667   8.593  1.2285 -0.9805  0.1015
 7718SOL     OW34789   4.698   3.040   4.065 -0.0632  0.8261  0.0817
 7718SOL    HW134790   0.020   3.115   4.066  0.4216  0.4504 -0.7005
 7718SOL    HW234791   4.644   3.064   4.141 -1.2961 -0.7681 -0.2904
 7719SOL     OW34792   3.740   4.418   0.197  0.7778  0.2566 -0.7114
 7719SOL    HW134793   3.804   4.442   0.263  1.0367 -1.1484 -0.4587
 7719SOL    HW234794   3.795   4.432   0.121  3.2541  2.6200  1.5236
 7720SOL     OW34795   3.567   1.599  13.464 -0.0276 -0.4042 -0.3409
 7720SOL    HW134796   3.557   1.594  13.559 -1.5757 -0.6285 -0.5208
 7720SOL    HW234797   3.645   1.654  13.452 -1.8021  1.4932 -3.2635
 7721SOL     OW34798   3.387   0.577   3.565 -0.1055  0.1193 -0.7886
 7721SOL    HW134799   3.345   0.633   3.500 -0.8025 -0.4561 -0.8472
 7721SOL    HW234800   3.322   0.507   3.576 -0.1687  0.4580  1.0623
 7722SOL     OW34801   0.886   4.572   4.956  0.3302 -0.1170  0.4515
 7722SOL    HW134802   0.960   4.594   4.900  1.0673 -0.5135  1.2818
 7722SOL    HW234803   0.841   4.654   4.976  0.6771  0.2638 -0.3497
 7723SOL     OW34804   2.397   3.579   5.779 -0.5271 -0.2768  0.1391
 7723SOL    HW134805   2.443   3.571   5.863 -0.9190  1.9475  0.5800
 7723SOL    HW234806   2.465   3.588   5.713  1.5352 -0.0490  2.2661
 7724SOL     OW34807   0.860   2.657   2.817 -0.1562 -0.1584 -0.2381
 7724SOL    HW134808   0.851   2.739   2.769 -1.7381 -0.4717 -0.4605
 7724SOL    HW234809   0.767   2.638   2.825 -0.7658  3.0067  0.4328
 7725SOL     OW34810   4.592   1.011   4.027  0.6293 -0.3492  0.4321
 7725SOL    HW134811   4.586   0.919   4.050 -0.0951 -1.1601 -3.0304
 7725SOL    HW234812   4.659   1.003   3.960 -0.3527  0.0784 -0.5888
 7726SOL     OW34813   4.448   0.884  10.319  0.5585  0.0028 -0.9299
 7726SOL    HW134814   4.456   0.820  10.249 -0.9211 -1.0709 -0.0987
 7726SOL    HW234815   4.531   0.858  10.359  0.3770 -1.6427 -1.6097
 7727SOL     OW34816   2.635   3.493   9.640  0.0313  0.2369  0.0842
 7727SOL    HW134817   2.579   3.564   9.609 -0.0715 -1.0755 -2.7842
 7727SOL    HW234818   2.568   3.437   9.681  1.2136 -0.1161  1.5640
 7728SOL     OW34819   0.964   4.643   7.991 -0.6434  0.1649  0.1000
 7728SOL    HW134820   0.997   4.665   8.078  0.9007 -1.4588 -0.0576
 7728SOL    HW234821   1.041   4.642   7.933  0.2644 -1.0477  1.3151
 7729SOL     OW34822   4.623   2.503  11.970  0.5367  0.2960  0.1310
 7729SOL    HW134823   4.684   2.431  11.956  1.2103  0.7495  0.7283
 7729SOL    HW234824   4.632   2.509  12.065  0.4741  3.4750 -0.0380
 7730SOL     OW34825   2.698   4.512   5.560  0.2125 -0.2405  0.2403
 7730SOL    HW134826   2.727   4.593   5.518 -2.5881  0.3401 -0.5289
 7730SOL    HW234827   2.779   4.460   5.562  1.1825  1.3172  1.7327
 7731SOL     OW34828   1.546   3.768  15.168 -0.4045 -0.1704  0.0692
 7731SOL    HW134829   1.626   3.722  15.193 -0.3802 -0.6456 -0.8824
 7731SOL    HW234830   1.472   3.724  15.210 -1.2056 -0.4136 -1.5977
 7732SOL     OW34831   3.260   2.672   4.150 -0.5619  0.0605  0.2763
 7732SOL    HW134832   3.288   2.727   4.223  0.3962  1.8434 -1.4369
 7732SOL    HW234833   3.331   2.607   4.151  1.4769  2.2978 -0.7130
 7733SOL     OW34834   2.276   1.134   1.320 -0.6675 -0.3516 -0.2555
 7733SOL    HW134835   2.235   1.201   1.265 -0.1690  0.0981 -0.0697
 7733SOL    HW234836   2.201   1.119   1.378 -0.3901 -0.2442  0.1251
 7734SOL     OW34837   0.676   2.648   5.551  0.1254 -0.3155  0.2981
 7734SOL    HW134838   0.745   2.698   5.507 -1.1113  0.4140 -0.7693
 7734SOL    HW234839   0.603   2.661   5.491  0.2058  1.4505  0.5697
 7735SOL     OW34840   2.451   1.784   9.164 -0.3609 -0.2611 -0.1476
 7735SOL    HW134841   2.490   1.869   9.185  0.3222 -1.1866  2.3155
 7735SOL    HW234842   2.381   1.816   9.107 -1.0720  0.2132  0.9985
 7736SOL     OW34843   4.045   0.033   3.679 -0.2837 -0.0555 -0.2223
 7736SOL    HW134844   3.969   0.090   3.666 -0.6119 -0.1434  1.3378
 7736SOL    HW234845   4.111   0.074   3.623  0.2830  2.3967  2.2656
 7737SOL     OW34846   4.529   3.935   5.284 -0.0898 -0.6200 -0.1089
 7737SOL    HW134847   4.524   3.847   5.320 -1.1419 -0.1601  0.8607
 7737SOL    HW234848   4.595   3.978   5.337 -0.2473 -0.0651 -0.3581
 7738SOL     OW34849   0.416   1.792   9.442  0.3913 -0.5355 -0.2568
 7738SOL    HW134850   0.339   1.745   9.473  0.2349 -0.2293 -0.1777
 7738SOL    HW234851   0.400   1.869   9.497 -3.0637 -0.4460 -1.4079
 7739SOL     OW34852   4.057   0.287   8.469 -0.0969  0.4341  0.6282
 7739SOL    HW134853   4.017   0.203   8.449 -1.4285  0.8472  1.5876
 7739SOL    HW234854   4.150   0.266   8.462  0.1571  1.4832  0.8155
 7740SOL     OW34855   0.322   2.497  12.858  0.0909  0.3544  0.8273
 7740SOL    HW134856   0.292   2.521  12.946 -1.6858  2.3120 -0.3046
 7740SOL    HW234857   0.341   2.404  12.869 -0.0627  0.1166 -0.8922
 7741SOL     OW34858   4.377   1.541   7.352 -0.5079  0.2190  0.3705
 7741SOL    HW134859   4.348   1.587   7.273  1.6937 -0.1123 -0.6313
 7741SOL    HW234860   4.472   1.552   7.359 -0.3990  0.1551 -0.9989
 7742SOL     OW34861   1.634   0.217  14.476  0.3750  0.4403  0.1305
 7742SOL    HW134862   1.569   0.241  14.543  0.1200 -0.2177  0.1180
 7742SOL    HW234863   1.639   0.294  14.420 -0.6192  1.2576  1.1479
 7743SOL     OW34864   2.312   2.695  17.227  0.2764 -0.3954  0.3192
 7743SOL    HW134865   2.364   2.642  17.165 -1.9812 -2.2320 -0.0172
 7743SOL    HW234866   2.282   2.760  17.164  2.3045 -1.2425 -1.5246
 7744SOL     OW34867   2.041   3.050  13.215 -0.2691  0.0574 -0.6136
 7744SOL    HW134868   1.974   2.983  13.228 -0.1856 -0.3344 -2.2557
 7744SOL    HW234869   2.116   2.996  13.192  0.0993  0.3695 -0.1353
 7745SOL     OW34870   2.513   2.719  10.162  0.0825  0.2470  0.1070
 7745SOL    HW134871   2.542   2.656  10.096 -0.2263  0.8798 -0.6241
 7745SOL    HW234872   2.484   2.795  10.112 -0.8609 -1.2853 -1.6513
 7746SOL     OW34873   2.696   0.499  13.929 -0.1169  0.1687 -0.2461
 7746SOL    HW134874   2.721   0.505  13.837  1.2202 -1.7103  0.0002
 7746SOL    HW234875   2.748   0.425  13.959 -0.6002  0.1488  0.5444
 7747SOL     OW34876   1.166   0.850  13.835 -0.0381 -0.3920  0.1596
 7747SOL    HW134877   1.254   0.844  13.798  0.1748  0.8724  0.4718
 7747SOL    HW234878   1.119   0.890  13.762 -1.5716 -1.6132  0.4843
 7748SOL     OW34879   2.687   2.463   9.458 -0.0919 -0.1802  0.2000
 7748SOL    HW134880   2.750   2.405   9.413 -0.2295 -0.8612  0.8930
 7748SOL    HW234881   2.746   2.531   9.491  2.5001 -0.8482 -3.0421
 7749SOL     OW34882   3.224   3.952   5.275 -0.1512 -0.6542 -0.4033
 7749SOL    HW134883   3.207   3.877   5.332 -1.4271  1.8424  2.5166
 7749SOL    HW234884   3.300   3.987   5.322 -0.7029 -0.2314  0.1755
 7750SOL     OW34885   1.147   2.362   3.945  0.2448  0.5305  0.2220
 7750SOL    HW134886   1.114   2.364   3.855  0.5325 -1.7831  0.0760
 7750SOL    HW234887   1.113   2.274   3.965 -0.9955  0.9927  0.1776
 7751SOL     OW34888   3.429   0.788   6.296  0.6205  0.0592  0.0105
 7751SOL    HW134889   3.382   0.823   6.221  3.6810  1.8349 -1.0455
 7751SOL    HW234890   3.504   0.847   6.303  1.6400 -1.0933 -1.1318
 7752SOL     OW34891   3.298   3.848   2.300  0.2371 -0.1454  0.2403
 7752SOL    HW134892   3.342   3.858   2.384 -0.2035  0.6724  0.3748
 7752SOL    HW234893   3.206   3.854   2.328  1.0777  0.7124  2.7612
 7753SOL     OW34894   2.511   0.085   3.589  0.5854 -0.2014  0.1258
 7753SOL    HW134895   2.473   0.046   3.667 -2.1410 -0.5794 -1.3986
 7753SOL    HW234896   2.515   0.003   3.541  2.8788 -0.3530  0.5759
 7754SOL     OW34897   1.307   4.140   5.257 -0.3601 -0.6907 -0.2095
 7754SOL    HW134898   1.293   4.086   5.334 -3.1269  1.8637  1.0705
 7754SOL    HW234899   1.398   4.165   5.274 -1.0555  0.9761  1.1165
 7755SOL     OW34900   1.975   0.502   2.003 -0.2800 -0.2536 -0.3856
 7755SOL    HW134901   1.990   0.417   1.963 -0.0421 -0.8641  0.9942
 7755SOL    HW234902   1.990   0.496   2.098 -0.5158 -0.0738 -0.3356
 7756SOL     OW34903   4.095   1.417   1.832 -0.0545  0.3625 -0.0710
 7756SOL    HW134904   4.124   1.508   1.820  0.8389  0.3551  1.9612
 7756SOL    HW234905   4.131   1.375   1.754  1.6485 -1.4222  1.6742
 7757SOL     OW34906   4.588   2.960   3.101  0.1015  0.8103  0.5762
 7757SOL    HW134907   4.599   2.870   3.071 -2.2828 -0.0368  2.2672
 7757SOL    HW234908   4.512   2.959   3.159  0.3135  0.7491  0.8483
 7758SOL     OW34909   0.912   1.633   4.012  0.0693 -0.8055  0.0973
 7758SOL    HW134910   0.898   1.691   3.937 -0.2425 -0.3486  0.5068
 7758SOL    HW234911   0.866   1.688   4.075  0.9703  0.4187 -0.3045
 7759SOL     OW34912   4.105   0.960   3.669 -0.1538 -0.0686  0.2765
 7759SOL    HW134913   4.176   1.017   3.698  0.8756 -1.0100 -0.3939
 7759SOL    HW234914   4.083   1.010   3.590 -0.4991 -1.5035 -0.5365
 7760SOL     OW34915   0.226   2.042   0.531 -0.3119  0.2841  0.1311
 7760SOL    HW134916   0.167   2.107   0.569  0.9351  1.2678  0.3786
 7760SOL    HW234917   0.245   1.980   0.601  0.1408  1.1149  0.7463
 7761SOL     OW34918   3.142   0.958   7.904 -0.0916  0.1232 -0.4231
 7761SOL    HW134919   3.132   1.037   7.958  0.2827 -1.8806  2.6035
 7761SOL    HW234920   3.151   1.005   7.821 -2.2305 -0.0951 -0.7780
 7762SOL     OW34921   0.987   1.668   2.474  0.3567  0.9507 -1.1571
 7762SOL    HW134922   1.028   1.729   2.534 -1.6070 -0.0249  1.1484
 7762SOL    HW234923   0.985   1.592   2.533 -2.2676  1.5049 -0.5220
 7763SOL     OW34924   2.998   2.125   2.185 -0.6792 -0.1359 -0.1216
 7763SOL    HW134925   2.912   2.082   2.175  0.7280 -2.6147 -1.6212
 7763SOL    HW234926   3.019   2.137   2.093  0.6503  1.8071  0.4542
 7764SOL     OW34927   0.224   2.677   5.016 -0.3383 -0.3454  0.0180
 7764SOL    HW134928   0.162   2.644   4.950  2.0387 -2.3426 -1.1832
 7764SOL    HW234929   0.295   2.699   4.956 -0.5127 -0.1777 -0.1284
 7765SOL     OW34930   4.351   3.859  17.502  0.1912  0.5953  0.4449
 7765SOL    HW134931   4.257   3.878  17.512  0.0096  0.2115 -0.5026
 7765SOL    HW234932   4.353   3.797  17.430  1.3570 -1.5952  2.3447
 7766SOL     OW34933   1.293   3.682   2.294 -0.2046  0.3437  0.0661
 7766SOL    HW134934   1.323   3.761   2.249 -0.9139  0.7554  0.3225
 7766SOL    HW234935   1.304   3.704   2.386 -1.0179 -2.3247  0.7918
 7767SOL     OW34936   2.527   4.366   7.247 -0.0911  0.2800  0.3118
 7767SOL    HW134937   2.444   4.411   7.263 -0.7859 -0.7118 -0.4347
 7767SOL    HW234938   2.524   4.298   7.314  0.0198  0.6558  0.6904
 7768SOL     OW34939   3.471   0.122   1.840 -0.2776  0.0325  0.0124
 7768SOL    HW134940   3.412   0.166   1.901 -0.4847 -0.2006 -0.0240
 7768SOL    HW234941   3.478   0.189   1.772  0.6084  1.6350  1.6642
 7769SOL     OW34942   4.559   0.984   6.032  0.0359  0.3730 -0.9510
 7769SOL    HW134943   4.643   0.964   6.073  0.4012  2.3726 -0.6944
 7769SOL    HW234944   4.584   0.987   5.940  1.2384  0.2286 -0.6217
 7770SOL     OW34945   3.500   2.359   3.331 -0.2036  0.3161 -0.1475
 7770SOL    HW134946   3.524   2.292   3.268  1.3464  0.1026  0.6757
 7770SOL    HW234947   3.555   2.327   3.402 -1.2392  2.4204  1.6311
 7771SOL     OW34948   3.877   4.540   2.786  0.1977  0.2810 -0.1794
 7771SOL    HW134949   3.930   4.462   2.803 -0.9380 -0.4527 -0.0080
 7771SOL    HW234950   3.804   4.500   2.738  1.0703 -1.1039 -0.3293
 7772SOL     OW34951   4.594   1.991   3.213  0.1676 -0.1852  0.0212
 7772SOL    HW134952   4.511   1.977   3.168  0.4300  0.3803 -0.6375
 7772SOL    HW234953   4.615   1.899   3.231  0.9577 -0.0283 -0.0787
 7773SOL     OW34954   3.464   2.579  13.316  0.1519  0.0419  0.6004
 7773SOL    HW134955   3.435   2.487  13.322  0.4253  0.0797  2.4636
 7773SOL    HW234956   3.399   2.611  13.254 -0.5325  0.2797  1.4487
 7774SOL     OW34957   3.777   4.631   4.086 -0.0884  0.3207  0.2920
 7774SOL    HW134958   3.845   4.596   4.028 -0.7715 -0.9964  0.2972
 7774SOL    HW234959   3.725   4.679   4.022 -1.6289  0.6362  1.7844
 7775SOL     OW34960   0.646   2.015  12.139 -0.0745  0.3527  0.5090
 7775SOL    HW134961   0.633   2.012  12.234 -0.4566 -0.7924  0.4153
 7775SOL    HW234962   0.671   2.105  12.119 -1.4837  0.9885  1.5820
 7776SOL     OW34963   1.535   4.191  11.973  0.6528  0.3566  0.2033
 7776SOL    HW134964   1.559   4.215  11.884  0.8593 -0.0120  0.1583
 7776SOL    HW234965   1.448   4.230  11.976  0.1969 -0.5007 -1.9675
 7777SOL     OW34966   3.593   1.645   8.018  0.2404 -0.3364 -0.1311
 7777SOL    HW134967   3.615   1.642   7.925 -2.0104  1.6720 -0.7410
 7777SOL    HW234968   3.675   1.625   8.064  0.9431  2.0131 -0.3475
 7778SOL     OW34969   0.733   4.032   8.690 -0.2473 -0.5065 -0.4078
 7778SOL    HW134970   0.704   3.964   8.750 -0.4614  0.5635  0.7000
 7778SOL    HW234971   0.799   4.066   8.750 -0.0355 -0.4038 -0.7002
 7779SOL     OW34972   0.585   1.687   2.164 -0.3566 -0.3419 -0.2998
 7779SOL    HW134973   0.499   1.720   2.189  0.2784 -0.7054  2.3853
 7779SOL    HW234974   0.575   1.593   2.177  2.9417 -0.7105 -0.2757
 7780SOL     OW34975   4.286   0.707  11.920  0.1872  1.2518 -0.8040
 7780SOL    HW134976   4.376   0.676  11.921 -0.9405 -1.9624  0.2086
 7780SOL    HW234977   4.279   0.789  11.871 -1.5328  0.1408 -2.4322
 7781SOL     OW34978   0.780   0.381  10.007 -0.5364  0.3157 -0.0931
 7781SOL    HW134979   0.757   0.469   9.978 -0.3873  0.8457  1.3883
 7781SOL    HW234980   0.873   0.399   9.998 -0.7874  0.7722 -1.7798
 7782SOL     OW34981   1.642   4.409  10.200 -0.2257  0.0603  0.1025
 7782SOL    HW134982   1.616   4.319  10.220  1.5742 -0.0872  1.8300
 7782SOL    HW234983   1.735   4.389  10.196 -0.2689 -0.4834  1.7170
 7783SOL     OW34984   3.570   1.841   7.447 -0.1891  0.2578 -0.3373
 7783SOL    HW134985   3.620   1.893   7.383  2.6517 -0.3987  1.3296
 7783SOL    HW234986   3.569   1.905   7.518  0.6952  1.0597 -1.0434
 7784SOL     OW34987   1.192   4.516   2.938  0.3341  0.0775  0.1147
 7784SOL    HW134988   1.219   4.425   2.920  0.7211  0.0033  1.0662
 7784SOL    HW234989   1.229   4.530   3.025  0.3345 -2.4220  0.5334
 7785SOL     OW34990   0.416   1.068  17.541  0.3384 -0.0143  0.3915
 7785SOL    HW134991   0.473   1.050  17.467 -1.3687 -2.4169 -0.3526
 7785SOL    HW234992   0.399   1.161  17.526 -0.7564 -0.5533 -1.7370
 7786SOL     OW34993   3.998   0.429   3.700 -0.1074  0.1273  0.3490
 7786SOL    HW134994   3.962   0.430   3.611  0.1851 -1.6320  0.2261
 7786SOL    HW234995   3.995   0.522   3.723 -4.9540 -0.2089  1.1408
 7787SOL     OW34996   0.881   0.256  13.350 -0.3384 -0.0417  0.1809
 7787SOL    HW134997   0.826   0.219  13.419 -0.2970 -0.9630 -0.2898
 7787SOL    HW234998   0.942   0.311  13.400 -2.3579  3.0491 -0.7443
 7788SOL     OW34999   0.875   1.965   8.174  0.2032  0.6799  0.9176
 7788SOL    HW135000   0.881   2.058   8.154  0.4836  0.0297 -2.0259
 7788SOL    HW235001   0.970   1.954   8.180  0.1832 -1.1677 -2.2905
 7789SOL     OW35002   0.443   1.560  16.444  0.7942  0.1431  0.7449
 7789SOL    HW135003   0.475   1.643  16.478 -1.0370  1.3791 -0.5096
 7789SOL    HW235004   0.470   1.568  16.352 -0.1057  1.1430  0.5611
 7790SOL     OW35005   0.956   4.698   6.553 -0.0961 -0.2852  0.8272
 7790SOL    HW135006   0.959   0.039   6.608  1.0635  1.0331 -1.0913
 7790SOL    HW235007   0.943   0.004   6.469 -0.4358 -0.2967  0.8767
 7791SOL     OW35008   3.552   3.888   5.732  0.3673  0.1321  0.6639
 7791SOL    HW135009   3.577   3.807   5.688 -0.0973  0.0370  0.5796
 7791SOL    HW235010   3.604   3.959   5.694 -0.1949 -0.7888 -1.7855
 7792SOL     OW35011   2.206   0.793   2.455 -0.3148  0.5499 -0.1462
 7792SOL    HW135012   2.292   0.755   2.475  0.1335 -0.2803 -3.5855
 7792SOL    HW235013   2.214   0.883   2.484  0.0197  0.2435  0.7194
 7793SOL     OW35014   2.910   0.343  13.389  0.5242  0.3918  0.1145
 7793SOL    HW135015   2.995   0.379  13.417  0.7002  0.9278 -1.1000
 7793SOL    HW235016   2.905   0.371  13.297  0.4827 -0.6266 -0.1860
 7794SOL     OW35017   2.181   3.333   4.469 -0.2230  1.2884 -0.3274
 7794SOL    HW135018   2.106   3.372   4.515  1.7283  2.7213  1.5990
 7794SOL    HW235019   2.218   3.303   4.551 -0.6272 -1.2621 -1.0645
 7795SOL     OW35020   0.057   0.547   9.886  0.2048  0.2594  0.0768
 7795SOL    HW135021   0.064   0.642   9.877 -1.2341  0.5932  2.4196
 7795SOL    HW235022   0.054   0.524   9.979 -1.7998 -0.9742 -0.2888
 7796SOL     OW35023   4.380   2.931   4.901 -0.1527 -0.3331  0.6841
 7796SOL    HW135024   4.410   2.840   4.899  1.2891  0.1604 -0.3597
 7796SOL    HW235025   4.295   2.911   4.863  0.6188 -0.8572 -0.7942
 7797SOL     OW35026   3.051   2.241   3.601  0.3798  0.1630  0.0330
 7797SOL    HW135027   3.030   2.164   3.653 -0.4163 -1.4765 -2.6902
 7797SOL    HW235028   3.121   2.270   3.659 -2.0265  1.3736  2.3103
 7798SOL     OW35029   1.549   1.882  11.140  0.3659 -0.1583  0.5044
 7798SOL    HW135030   1.539   1.936  11.062 -2.1236  0.1514  1.0377
 7798SOL    HW235031   1.567   1.799  11.097  2.2315  0.8588 -0.6960
 7799SOL     OW35032   1.446   2.134   6.710 -0.3470 -0.0203 -0.5251
 7799SOL    HW135033   1.378   2.117   6.645 -1.9902  2.6226  0.4458
 7799SOL    HW235034   1.514   2.185   6.667 -0.2497  2.8042  2.9719
 7800SOL     OW35035   2.015   4.489   5.134  0.2048 -0.3943 -0.2389
 7800SOL    HW135036   2.058   4.413   5.096 -0.5704 -0.8039 -0.3045
 7800SOL    HW235037   2.084   4.550   5.159  0.7794 -0.3886 -1.8366
 7801SOL     OW35038   3.829   2.401   3.942 -0.4081 -0.0470 -0.0600
 7801SOL    HW135039   3.827   2.405   4.037  0.6437 -0.0534 -0.0438
 7801SOL    HW235040   3.781   2.482   3.922  1.0349  0.7389 -0.3386
 7802SOL     OW35041   1.591   3.608  10.301 -0.1940  0.1725 -0.3965
 7802SOL    HW135042   1.564   3.613  10.209  1.4796 -0.4127 -0.9165
 7802SOL    HW235043   1.552   3.685  10.342 -0.5074  0.4441 -1.1990
 7803SOL     OW35044   1.912   4.692   3.546 -0.3066  0.0853  0.2127
 7803SOL    HW135045   1.944   0.022   3.485 -2.7275  1.2230  0.1807
 7803SOL    HW235046   1.972   4.701   3.620  1.5280 -0.3621 -1.2274
 7804SOL     OW35047   2.682   0.684   0.280 -0.6342 -0.4326 -0.2391
 7804SOL    HW135048   2.645   0.760   0.324  2.7356  2.0712 -1.7532
 7804SOL    HW235049   2.714   0.627   0.350 -2.5338 -1.6632 -0.3790
 7805SOL     OW35050   4.193   0.721   8.825  0.4171 -0.1477 -0.1646
 7805SOL    HW135051   4.185   0.810   8.789 -0.7997  0.4599  1.5992
 7805SOL    HW235052   4.140   0.728   8.905 -1.1397  0.8530 -1.2793
 7806SOL     OW35053   4.450   3.216  14.966 -0.3980 -0.2401 -0.0477
 7806SOL    HW135054   4.494   3.224  14.882 -1.7835 -0.6652 -0.8088
 7806SOL    HW235055   4.512   3.249  15.031 -2.4520  1.8905  0.8184
 7807SOL     OW35056   3.561   2.849   7.126  0.7904 -0.0782 -0.9843
 7807SOL    HW135057   3.591   2.762   7.101 -1.1853 -0.5625 -1.7071
 7807SOL    HW235058   3.508   2.823   7.201  0.6097 -0.7341 -1.3370
 7808SOL     OW35059   1.303   0.626   3.178  0.1920 -0.3887 -0.1528
 7808SOL    HW135060   1.269   0.582   3.256 -2.0984  0.3997 -0.7021
 7808SOL    HW235061   1.330   0.712   3.210  0.3463  0.0876 -1.5782
 7809SOL     OW35062   2.240   2.727  11.615  0.1811 -0.2845 -0.5006
 7809SOL    HW135063   2.258   2.797  11.552 -0.0968  0.1865 -0.0596
 7809SOL    HW235064   2.156   2.700  11.579  0.3750 -1.0810 -0.3685
 7810SOL     OW35065   0.580   0.202  10.198  0.0918  0.1780  0.0679
 7810SOL    HW135066   0.547   0.240  10.116 -1.1263 -0.5927  0.1979
 7810SOL    HW235067   0.576   0.272  10.262 -1.3381 -1.5706  1.8895
 7811SOL     OW35068   4.010   0.661   7.096 -0.2129 -0.2047 -0.1385
 7811SOL    HW135069   4.092   0.656   7.146  0.9340 -0.6955 -2.0621
 7811SOL    HW235070   3.950   0.651   7.170  0.7024 -1.7318  0.3996
 7812SOL     OW35071   0.915   1.181   7.337 -0.0051 -0.7200 -0.2440
 7812SOL    HW135072   1.007   1.189   7.310 -0.4032 -1.1148 -1.7179
 7812SOL    HW235073   0.907   1.098   7.384 -0.3362  0.5406  1.9595
 7813SOL     OW35074   4.486   2.147   4.190  0.3824  0.1502  0.0643
 7813SOL    HW135075   4.490   2.052   4.178  0.3007 -0.0532  1.5970
 7813SOL    HW235076   4.528   2.169   4.273 -1.0601  0.3538  0.7296
 7814SOL     OW35077   1.178   4.284   8.609  0.7807 -0.3452 -0.0174
 7814SOL    HW135078   1.224   4.357   8.650  0.0457 -0.0415  0.2544
 7814SOL    HW235079   1.140   4.245   8.688 -1.1661  1.5893  0.0077
 7815SOL     OW35080   0.045   4.723   5.437  0.2883  0.5804  0.0131
 7815SOL    HW135081   4.713   0.041   5.399  0.6641  1.3113  0.3838
 7815SOL    HW235082   0.032   4.638   5.395  0.0545 -0.4390  2.2089
 7816SOL     OW35083   2.916   3.543   9.677 -0.7792 -0.7098 -0.5135
 7816SOL    HW135084   2.958   3.523   9.593 -0.5012 -0.6254 -0.3956
 7816SOL    HW235085   2.822   3.548   9.657 -0.7952  0.5636 -0.1133
 7817SOL     OW35086   1.497   0.029   7.799  0.1611 -0.1990 -0.2731
 7817SOL    HW135087   1.545   0.057   7.877 -1.4302 -1.6011  1.2076
 7817SOL    HW235088   1.493   4.674   7.827  0.8419  0.1520  0.9633
 7818SOL     OW35089   2.616   4.352   5.291  0.0501  1.0764  0.4129
 7818SOL    HW135090   2.558   4.346   5.366  1.0870  2.6159  1.3251
 7818SOL    HW235091   2.575   4.431   5.256 -0.7569  0.3092 -0.3623
 7819SOL     OW35092   3.166   2.117   6.085  0.3594  0.5980  0.0092
 7819SOL    HW135093   3.095   2.101   6.023 -0.0688  0.5894  0.5071
 7819SOL    HW235094   3.173   2.042   6.143 -2.3637 -0.3426 -0.8789
 7820SOL     OW35095   1.889   4.727   7.337  0.5598 -0.3449  0.4794
 7820SOL    HW135096   1.921   4.644   7.302  0.6130  1.1302 -2.9740
 7820SOL    HW235097   1.821   0.008   7.272  1.2497  0.1390 -0.1002
 7821SOL     OW35098   3.785   1.133   8.141 -0.0560 -0.4990  0.8334
 7821SOL    HW135099   3.879   1.137   8.160  0.2729 -0.3599 -0.7814
 7821SOL    HW235100   3.752   1.222   8.136  3.2037  0.5649 -1.6970
 7822SOL     OW35101   2.990   3.460  11.099  0.5674 -0.0874  0.5675
 7822SOL    HW135102   3.048   3.385  11.085 -2.0725 -2.1968  0.9193
 7822SOL    HW235103   3.001   3.504  11.015  0.6702 -0.9261  0.1410
 7823SOL     OW35104   2.129   2.402   2.183 -0.1915 -0.6403  0.2583
 7823SOL    HW135105   2.181   2.483   2.186  0.0046 -0.7843  0.6899
 7823SOL    HW235106   2.063   2.410   2.113 -0.3332  1.8734  0.6651
 7824SOL     OW35107   0.718   3.923   3.076  1.0754 -0.6472  0.2603
 7824SOL    HW135108   0.800   3.927   3.126 -0.2073  1.0761  2.2091
 7824SOL    HW235109   0.652   3.974   3.123  0.2019 -0.9839 -0.6157
 7825SOL     OW35110   3.531   1.020   4.968 -0.7092  0.0691  0.0012
 7825SOL    HW135111   3.519   0.956   4.898  0.5748  2.0447 -2.0491
 7825SOL    HW235112   3.483   1.095   4.932 -2.8268 -0.7667  1.0804
 7826SOL     OW35113   2.490   3.686   0.337 -0.1098 -0.2552 -0.2439
 7826SOL    HW135114   2.398   3.714   0.336  0.2386  0.8946 -0.1515
 7826SOL    HW235115   2.517   3.711   0.425  2.2204 -0.7457 -0.8201
 7827SOL     OW35116   2.119   3.990   8.847 -0.0780 -0.6407  0.0974
 7827SOL    HW135117   2.154   4.006   8.935  0.8982 -0.1771 -0.3761
 7827SOL    HW235118   2.161   3.907   8.825  0.6959 -0.0718 -0.5520
 7828SOL     OW35119   1.304   1.647   2.040  0.6284 -0.4012 -0.0704
 7828SOL    HW135120   1.238   1.648   2.109  1.8982 -0.1186  1.1354
 7828SOL    HW235121   1.249   1.667   1.964  0.1150  0.8175  0.6150
 7829SOL     OW35122   0.897   1.035   3.191  0.5525 -0.8904  0.1724
 7829SOL    HW135123   0.897   0.946   3.226  1.5289 -0.3475  1.5598
 7829SOL    HW235124   0.991   1.056   3.193  0.4527 -0.5428  1.2891
 7830SOL     OW35125   1.733   0.937   7.444  0.1787 -0.0816  0.0158
 7830SOL    HW135126   1.744   1.032   7.453 -3.5383  0.5626 -2.5704
 7830SOL    HW235127   1.776   0.920   7.360 -1.7115 -0.2717 -0.9074
 7831SOL     OW35128   1.497   4.168   0.570  0.2415  0.0673 -0.0018
 7831SOL    HW135129   1.486   4.083   0.528  1.4824 -0.0966  0.0116
 7831SOL    HW235130   1.410   4.204   0.552 -0.4903  0.1632  3.5814
 7832SOL     OW35131   0.359   2.736   0.374 -0.1563  0.0914  0.0041
 7832SOL    HW135132   0.277   2.746   0.325  0.2857  0.3078 -0.6922
 7832SOL    HW235133   0.371   2.830   0.375 -1.2954  0.2466 -0.6375
 7833SOL     OW35134   1.561   1.224   6.123 -0.4775  0.1097 -0.2341
 7833SOL    HW135135   1.579   1.152   6.063  1.5697  0.1871  0.2847
 7833SOL    HW235136   1.490   1.200   6.183 -1.8387 -0.3318 -2.0228
 7834SOL     OW35137   3.455   2.013   6.442  0.5250 -0.3892 -0.5756
 7834SOL    HW135138   3.546   2.027   6.414  0.3700 -1.3830 -1.6036
 7834SOL    HW235139   3.413   2.097   6.423  0.7378 -0.3136 -0.7176
 7835SOL     OW35140   0.562   2.219   5.975 -0.4975 -0.4010  0.0510
 7835SOL    HW135141   0.636   2.174   5.934  1.0429 -0.4680  2.9269
 7835SOL    HW235142   0.595   2.306   5.993 -2.1539 -0.2814  2.4802
 7836SOL     OW35143   0.780   4.142  11.844 -0.0572 -0.4044  0.0523
 7836SOL    HW135144   0.833   4.219  11.865 -0.2196 -1.1574  3.1448
 7836SOL    HW235145   0.798   4.142  11.749 -0.2535  0.1155  0.0114
 7837SOL     OW35146   0.984   3.099  17.679 -0.6108 -0.3487  0.1836
 7837SOL    HW135147   1.079   3.100  17.670 -0.6252 -0.0742  0.0626
 7837SOL    HW235148   0.965   3.139  17.594 -2.6901 -0.9320  0.3772
 7838SOL     OW35149   3.520   3.795   7.177 -0.4128 -0.4904  0.3243
 7838SOL    HW135150   3.539   3.888   7.185 -0.1250 -0.3113 -2.4811
 7838SOL    HW235151   3.449   3.797   7.113  1.4791  0.8946 -1.7408
 7839SOL     OW35152   0.909   0.755   7.400  0.1845  0.6449 -0.5239
 7839SOL    HW135153   0.821   0.793   7.395 -0.3230 -0.4289  0.4431
 7839SOL    HW235154   0.885   0.664   7.418 -2.3902  1.7246  1.5213
 7840SOL     OW35155   3.197   3.221  16.077 -0.0861  0.2488 -0.1438
 7840SOL    HW135156   3.245   3.138  16.073  0.0511  0.3524 -0.6710
 7840SOL    HW235157   3.105   3.196  16.076  0.1433 -0.6910  1.2503
 7841SOL     OW35158   0.112   2.196  11.088 -0.0162 -0.6836 -0.6697
 7841SOL    HW135159   0.111   2.249  11.168 -0.1845 -0.8049 -0.5935
 7841SOL    HW235160   0.109   2.276  11.035  0.6414  0.6819  1.3287
 7842SOL     OW35161   1.744   0.989   0.392 -0.4171  0.6872  0.4108
 7842SOL    HW135162   1.648   0.988   0.399 -0.5182  0.0602 -0.9583
 7842SOL    HW235163   1.763   0.983   0.485 -1.9429 -1.2324  0.6238
 7843SOL     OW35164   1.993   1.819   9.233 -0.2647 -0.6472  0.0812
 7843SOL    HW135165   2.014   1.751   9.297 -1.4964 -2.0139 -0.9546
 7843SOL    HW235166   2.013   1.900   9.281 -0.7462  0.4996 -1.6750
 7844SOL     OW35167   4.354   0.373   9.736  0.4354 -0.7555  0.4800
 7844SOL    HW135168   4.420   0.420   9.787 -0.2381 -2.9330  3.3661
 7844SOL    HW235169   4.275   0.399   9.783 -0.6742 -1.1267 -1.2049
 7845SOL     OW35170   4.538   0.097   8.057  0.1771 -0.7134  0.1272
 7845SOL    HW135171   4.565   0.142   8.137 -0.4738  2.0476 -1.1887
 7845SOL    HW235172   4.562   0.007   8.078  3.0789 -0.5410 -2.5036
 7846SOL     OW35173   2.744   0.174  16.210 -0.7551 -0.7996 -0.2756
 7846SOL    HW135174   2.727   0.223  16.291  3.6270  1.2138 -0.5459
 7846SOL    HW235175   2.682   0.220  16.154 -1.3351 -0.0179  1.0121
 7847SOL     OW35176   2.151   1.949   8.286  0.0488  0.1287 -0.3651
 7847SOL    HW135177   2.110   2.034   8.269  1.1781  0.5704 -0.8622
 7847SOL    HW235178   2.073   1.895   8.270  1.9522 -2.2447 -1.4574
 7848SOL     OW35179   1.819   4.525   8.300 -0.2358 -0.0039 -0.0639
 7848SOL    HW135180   1.827   4.437   8.338 -1.0961  0.1868  0.5451
 7848SOL    HW235181   1.733   4.518   8.258  0.4433  0.4343 -1.5196
 7849SOL     OW35182   3.520   2.497   5.052 -0.4578  0.5864 -0.1601
 7849SOL    HW135183   3.569   2.567   5.095 -1.2082  0.6628  0.5964
 7849SOL    HW235184   3.518   2.538   4.966 -0.0901  1.1956  0.1171
 7850SOL     OW35185   1.108   2.635   4.106  0.2399  0.7180  0.2939
 7850SOL    HW135186   1.022   2.602   4.081 -0.1339  0.9006  1.3177
 7850SOL    HW235187   1.160   2.573   4.056 -0.4114 -0.0141  0.5368
 7851SOL     OW35188   3.232   0.650  13.016  0.1366  0.0757  0.4155
 7851SOL    HW135189   3.198   0.667  12.928  1.4741 -0.6840 -0.2509
 7851SOL    HW235190   3.152   0.649  13.069 -0.1545  1.6933  0.0234
 7852SOL     OW35191   3.109   0.320   2.983 -0.1668 -0.2400 -0.4169
 7852SOL    HW135192   3.084   0.313   2.891  0.8236  0.3643 -0.7356
 7852SOL    HW235193   3.026   0.306   3.028  0.4604 -0.2249  0.7566
 7853SOL     OW35194   2.533   0.785  11.909  0.2642  0.1157 -0.2703
 7853SOL    HW135195   2.507   0.782  12.001 -1.2042 -1.4816 -0.7264
 7853SOL    HW235196   2.511   0.702  11.867 -1.1127  1.0094 -1.3184
 7854SOL     OW35197   0.813   2.249   4.744  0.4220  0.0987  0.2346
 7854SOL    HW135198   0.852   2.334   4.764  0.1671  0.3421 -0.3159
 7854SOL    HW235199   0.876   2.211   4.682  0.8377  0.2389  0.5665
 7855SOL     OW35200   0.700   0.047   5.602 -0.2012  0.6612  0.0287
 7855SOL    HW135201   0.758   0.122   5.607  0.8686 -0.3257  2.2315
 7855SOL    HW235202   0.622   0.099   5.582 -0.9186 -0.0350  0.9816
 7856SOL     OW35203   2.140   2.493  14.397 -0.4777  0.0258  0.0862
 7856SOL    HW135204   2.206   2.440  14.441  0.4283 -0.9655 -2.4451
 7856SOL    HW235205   2.188   2.575  14.387 -0.1287 -0.1092  0.7106
 7857SOL     OW35206   2.191   2.945   6.828 -0.3157  0.3891 -0.4822
 7857SOL    HW135207   2.138   3.024   6.816  0.6788  1.0637 -0.3856
 7857SOL    HW235208   2.127   2.878   6.803  0.6585 -1.0741  1.0080
 7858SOL     OW35209   3.470   3.742   8.259  0.0783 -0.4593  0.0052
 7858SOL    HW135210   3.405   3.683   8.220  0.2655  0.8944 -2.3605
 7858SOL    HW235211   3.551   3.705   8.223 -0.3696 -0.2936 -1.1638
 7859SOL     OW35212   0.752   0.487   6.119  0.5971 -0.5766 -0.0645
 7859SOL    HW135213   0.837   0.513   6.083 -0.3251  1.5344 -0.6910
 7859SOL    HW235214   0.764   0.531   6.203 -1.0655  0.0135 -0.1463
 7860SOL     OW35215   0.960   3.889   9.787  0.1968 -0.3069  0.1771
 7860SOL    HW135216   0.951   3.804   9.830 -0.2463 -1.4064 -2.0593
 7860SOL    HW235217   1.053   3.907   9.802 -0.0447  0.3581  0.8561
 7861SOL     OW35218   3.879   2.453   2.812  0.3431  0.2954 -0.0131
 7861SOL    HW135219   3.973   2.437   2.818  0.0312 -1.8238 -0.8315
 7861SOL    HW235220   3.869   2.487   2.723 -1.1267  1.8891  0.7754
 7862SOL     OW35221   4.249   4.116  12.922 -0.0235  0.0056 -0.1415
 7862SOL    HW135222   4.289   4.032  12.899 -0.5201 -0.4312  0.5748
 7862SOL    HW235223   4.300   4.170  12.862  0.8639  0.1313  0.7177
 7863SOL     OW35224   0.159   3.860   6.920 -0.0633  0.2079  0.4265
 7863SOL    HW135225   0.085   3.881   6.863  0.8499  2.5132  0.0704
 7863SOL    HW235226   0.111   3.863   7.002 -0.4043  2.1381  0.1533
 7864SOL     OW35227   2.487   2.229   5.262 -0.0998 -0.7802 -0.4950
 7864SOL    HW135228   2.441   2.153   5.296 -0.1106  0.3840  2.0459
 7864SOL    HW235229   2.441   2.232   5.178 -0.9831 -2.3570 -0.0768
 7865SOL     OW35230   2.843   0.743   8.283  0.2477  0.3604 -0.5627
 7865SOL    HW135231   2.838   0.801   8.208 -0.4866 -0.8708 -1.4522
 7865SOL    HW235232   2.881   0.789   8.358 -2.1274  0.0022  0.8610
 7866SOL     OW35233   4.185   3.992   0.531 -0.1133  0.4986 -0.9077
 7866SOL    HW135234   4.145   3.907   0.547 -1.2084  1.4360  1.2634
 7866SOL    HW235235   4.276   3.970   0.509  0.8070 -0.6917  3.9750
 7867SOL     OW35236   2.934   2.947   4.856 -0.2626  0.6975 -0.3057
 7867SOL    HW135237   2.991   2.906   4.790  0.3365  0.4701  0.3598
 7867SOL    HW235238   2.912   2.864   4.900  1.1338  0.1134 -0.6991
 7868SOL     OW35239   1.624   1.274  17.529 -0.2460 -0.4835  0.6363
 7868SOL    HW135240   1.547   1.326  17.554 -1.3393 -0.3727 -2.9794
 7868SOL    HW235241   1.664   1.317  17.454  1.4902 -2.0740  0.6580
 7869SOL     OW35242   3.439   3.881   2.541 -0.1415 -0.1068 -0.3526
 7869SOL    HW135243   3.453   3.859   2.633 -1.0558 -0.7665 -0.3812
 7869SOL    HW235244   3.506   3.825   2.500  0.1359 -0.0837  0.0663
 7870SOL     OW35245   1.296   1.955   5.099  0.2823  0.0421  0.0605
 7870SOL    HW135246   1.348   1.878   5.075  1.4825  0.2890  1.9328
 7870SOL    HW235247   1.242   1.979   5.024 -0.9674 -0.3334  0.8474
 7871SOL     OW35248   3.918   3.185   6.666  0.0990 -0.0273 -0.4239
 7871SOL    HW135249   3.891   3.200   6.575 -0.1071  0.0828 -0.3439
 7871SOL    HW235250   3.969   3.105   6.653  1.0593  0.3579  1.0618
 7872SOL     OW35251   0.610   4.259   4.207 -0.0651  0.1887  0.9359
 7872SOL    HW135252   0.553   4.331   4.182 -1.8859 -0.8336  2.1377
 7872SOL    HW235253   0.597   4.198   4.134  0.8102  0.5995  0.4353
 7873SOL     OW35254   0.678   3.419   9.705  0.3007 -0.4203 -0.4064
 7873SOL    HW135255   0.620   3.439   9.778  0.6632 -0.5457 -0.0813
 7873SOL    HW235256   0.630   3.462   9.634  0.6504  0.6207 -0.0120
 7874SOL     OW35257   4.634   2.615  16.036 -0.4698 -0.6456 -0.3146
 7874SOL    HW135258   4.558   2.617  16.094 -0.2574 -1.7536  0.0008
 7874SOL    HW235259   4.678   2.540  16.076 -0.3340 -1.6775 -2.4353
 7875SOL     OW35260   4.640   0.478   7.549  0.0782 -0.1386  0.3031
 7875SOL    HW135261   4.732   0.483   7.523 -0.3716  0.2133 -1.1757
 7875SOL    HW235262   4.595   0.562   7.541 -1.0144 -0.7313  0.2020
 7876SOL     OW35263   3.884   4.043   4.572 -0.3650  0.0119  0.2339
 7876SOL    HW135264   3.803   4.059   4.620 -0.7996  0.3441 -0.6049
 7876SOL    HW235265   3.949   4.076   4.634 -0.0336  1.2883 -0.7882
 7877SOL     OW35266   3.187   0.566   8.500 -0.0676 -0.0943 -0.5740
 7877SOL    HW135267   3.245   0.636   8.530 -1.7358 -0.0371  2.5436
 7877SOL    HW235268   3.220   0.480   8.524 -1.3983  0.0203  1.6718
 7878SOL     OW35269   1.973   0.898   3.532  0.3333  0.2253 -0.1936
 7878SOL    HW135270   1.933   0.961   3.472 -1.7647  1.1204  2.1624
 7878SOL    HW235271   2.017   0.843   3.467  1.0570  0.1663  0.3425
 7879SOL     OW35272   1.436   2.031  12.280  0.1511  0.4267  0.3574
 7879SOL    HW135273   1.362   1.978  12.309  1.1373 -0.3741  1.3965
 7879SOL    HW235274   1.394   2.117  12.285 -1.6186 -0.4395 -0.0275
 7880SOL     OW35275   2.416   3.962   9.545  0.0034 -0.6912  0.2922
 7880SOL    HW135276   2.484   3.953   9.477 -0.1314 -0.0074  0.0608
 7880SOL    HW235277   2.464   3.997   9.620 -0.1469 -0.1450  0.1377
 7881SOL     OW35278   2.305   2.083   7.888  0.4066 -0.3557  0.5379
 7881SOL    HW135279   2.342   2.167   7.859  1.5583 -1.9616 -2.5958
 7881SOL    HW235280   2.382   2.047   7.931  1.8458 -0.2100 -1.9333
 7882SOL     OW35281   0.728   2.105   7.523  0.1594  0.1816  0.1693
 7882SOL    HW135282   0.700   2.181   7.472 -1.9368 -1.1744 -0.7185
 7882SOL    HW235283   0.682   2.042   7.467  0.4105  0.9673 -0.9165
 7883SOL     OW35284   1.111   1.756   9.735  0.6636 -0.1903 -0.3518
 7883SOL    HW135285   1.162   1.782   9.658  1.5397  0.1362  0.3395
 7883SOL    HW235286   1.117   1.662   9.719  2.2211 -0.6554  2.9913
 7884SOL     OW35287   4.594   1.943   5.860  0.2445  0.1357  0.6953
 7884SOL    HW135288   4.614   1.929   5.768 -2.5596  0.9820 -0.0607
 7884SOL    HW235289   4.639   2.026   5.875  2.1796 -1.2180  2.4055
 7885SOL     OW35290   3.624   4.120   4.187 -0.4842  0.1226 -0.6064
 7885SOL    HW135291   3.694   4.109   4.251 -1.8922  0.0522  0.9162
 7885SOL    HW235292   3.641   4.060   4.115 -1.4118 -0.4714 -0.3227
 7886SOL     OW35293   1.187   2.417  16.348 -0.1279 -0.4867 -0.5440
 7886SOL    HW135294   1.178   2.439  16.441  0.0016  1.1564 -0.9117
 7886SOL    HW235295   1.260   2.357  16.338  0.6529  0.6507 -1.5702
 7887SOL     OW35296   3.803   3.594   8.711 -0.0971 -0.0470  0.1830
 7887SOL    HW135297   3.773   3.593   8.801 -1.5561 -1.7494 -0.3195
 7887SOL    HW235298   3.770   3.677   8.676  2.6966  1.4477  1.1244
 7888SOL     OW35299   2.433   3.573   6.337 -0.4090 -0.4572 -0.4995
 7888SOL    HW135300   2.525   3.592   6.357 -0.2843 -2.4593  0.8612
 7888SOL    HW235301   2.424   3.505   6.404  1.0860  1.0171  1.2009
 7889SOL     OW35302   1.108   3.240   5.257 -0.9362 -0.3410  0.1788
 7889SOL    HW135303   1.145   3.315   5.210  1.3349 -0.2607  2.0943
 7889SOL    HW235304   1.019   3.275   5.265 -0.7420  0.1884  0.0455
 7890SOL     OW35305   3.790   2.757  13.285 -0.1713 -0.1201 -0.1611
 7890SOL    HW135306   3.878   2.783  13.257 -0.0590 -0.1260  0.1839
 7890SOL    HW235307   3.781   2.675  13.236  0.5858 -0.8496  0.9262
 7891SOL     OW35308   0.259   2.540  12.065  0.4327 -0.3557 -0.0020
 7891SOL    HW135309   0.332   2.591  12.098  0.2252  0.0011 -0.0947
 7891SOL    HW235310   0.208   2.545  12.146  1.4359 -0.3054  0.6213
 7892SOL     OW35311   3.691   1.730   7.176  0.5629 -0.2741  0.0234
 7892SOL    HW135312   3.645   1.791   7.235  2.9515  0.5683  1.0153
 7892SOL    HW235313   3.779   1.765   7.190 -0.0082  1.3332 -0.3337
 7893SOL     OW35314   3.012   2.180   6.412  0.2091  0.0149 -0.1183
 7893SOL    HW135315   2.969   2.127   6.345  0.0878  0.1462 -0.1448
 7893SOL    HW235316   2.981   2.130   6.488 -0.5936 -0.2425 -0.6227
 7894SOL     OW35317   0.808   1.425   3.347  0.1629  0.7410 -0.4759
 7894SOL    HW135318   0.743   1.488   3.379  0.2252  0.0852  0.9485
 7894SOL    HW235319   0.750   1.388   3.281 -1.3560  0.7091  0.8936
 7895SOL     OW35320   1.646   0.884   2.735 -0.0260  0.4274  0.3283
 7895SOL    HW135321   1.712   0.877   2.667 -1.1207  1.7791 -0.8646
 7895SOL    HW235322   1.571   0.845   2.690  0.8922 -2.8848  1.6466
 7896SOL     OW35323   1.520   1.584  13.836  0.4904  0.2807  0.4860
 7896SOL    HW135324   1.527   1.675  13.866 -0.7139  1.1623 -1.9084
 7896SOL    HW235325   1.425   1.583  13.823  0.2971  0.1876  1.8821
 7897SOL     OW35326   1.011   3.123  11.468 -0.2603 -0.2472 -0.3184
 7897SOL    HW135327   1.054   3.091  11.547  0.1990 -0.8929 -0.8290
 7897SOL    HW235328   0.981   3.212  11.489 -1.1722 -0.9320  1.2317
 7898SOL     OW35329   2.933   1.847   3.693 -0.1987 -0.0798 -0.3960
 7898SOL    HW135330   2.917   1.758   3.662  0.1863 -0.1315 -0.4571
 7898SOL    HW235331   2.929   1.889   3.607  0.1605  0.8024  0.0102
 7899SOL     OW35332   4.048   3.359   7.542  0.4351 -0.1849  0.2108
 7899SOL    HW135333   4.137   3.393   7.547  0.6559 -0.7170 -0.1524
 7899SOL    HW235334   4.009   3.384   7.626 -0.1674 -1.4557  0.2984
 7900SOL     OW35335   4.373   1.270   6.521  0.1047  0.1470  0.1701
 7900SOL    HW135336   4.395   1.186   6.562  3.1555  0.7886 -0.1592
 7900SOL    HW235337   4.422   1.257   6.440 -0.3857  1.2475 -0.3080
 7901SOL     OW35338   4.509   2.621   5.494  0.1715  0.2468  0.4020
 7901SOL    HW135339   4.505   2.525   5.493 -0.4098  0.2527  2.4600
 7901SOL    HW235340   4.585   2.636   5.549 -1.9215 -1.5454  3.7890
 7902SOL     OW35341   0.693   1.738   8.526 -0.6835 -0.4648  0.4608
 7902SOL    HW135342   0.647   1.735   8.443  0.8375 -2.6974 -0.2954
 7902SOL    HW235343   0.713   1.832   8.528 -0.1655 -0.5641 -0.2163
 7903SOL     OW35344   3.236   4.666   4.957 -0.2262 -0.2622  0.3508
 7903SOL    HW135345   3.222   4.650   5.050 -0.9002  0.3826  0.3627
 7903SOL    HW235346   3.325   4.698   4.945 -0.4069  0.2437  0.3346
 7904SOL     OW35347   1.821   0.996   8.683 -0.2779 -0.0086  0.4294
 7904SOL    HW135348   1.777   0.926   8.635 -1.3905  1.2450 -0.3739
 7904SOL    HW235349   1.911   0.979   8.657 -0.6579 -0.6989 -0.4164
 7905SOL     OW35350   2.870   2.090   5.429  0.1243 -0.1191  0.1732
 7905SOL    HW135351   2.791   2.138   5.455  1.3314  0.9021  1.9057
 7905SOL    HW235352   2.839   2.040   5.353  0.8665  1.3211 -1.0812
 7906SOL     OW35353   3.198   4.379   2.901  0.2396  0.7653 -0.4268
 7906SOL    HW135354   3.242   4.459   2.930 -0.9922  1.7744 -1.3237
 7906SOL    HW235355   3.255   4.308   2.930 -2.0661 -1.3983 -1.1982
 7907SOL     OW35356   0.513   1.750  13.457 -0.3604 -0.3936 -0.3269
 7907SOL    HW135357   0.602   1.741  13.491  0.3901 -1.8000 -2.6092
 7907SOL    HW235358   0.528   1.804  13.380  4.0032 -0.2041  0.6745
 7908SOL     OW35359   1.415   3.041   7.820  0.5717  0.4578  0.3807
 7908SOL    HW135360   1.499   3.001   7.800 -0.6012 -1.5215 -0.5972
 7908SOL    HW235361   1.416   3.124   7.772  0.0364 -0.0561 -0.5023
 7909SOL     OW35362   4.201   1.764  15.568  0.3170  0.6317 -0.0938
 7909SOL    HW135363   4.274   1.817  15.600  1.6911 -1.0068 -0.5059
 7909SOL    HW235364   4.212   1.682  15.617  0.4765  0.5874 -0.2013
 7910SOL     OW35365   3.623   4.482   8.228  0.1494  0.6838  0.2074
 7910SOL    HW135366   3.680   4.525   8.291 -0.9484  1.1088  0.9011
 7910SOL    HW235367   3.566   4.433   8.287 -0.8278  2.4924  0.7534
 7911SOL     OW35368   3.699   2.139   6.361 -1.0017  0.3739 -0.0363
 7911SOL    HW135369   3.791   2.136   6.336 -0.4328 -0.2488  2.0890
 7911SOL    HW235370   3.664   2.181   6.282 -0.7108 -3.7031 -2.3387
 7912SOL     OW35371   2.467   3.028   3.832 -0.0971  0.2865 -0.7060
 7912SOL    HW135372   2.479   2.933   3.832 -0.9448  0.1718  0.1699
 7912SOL    HW235373   2.389   3.046   3.885 -0.6974 -2.0106 -0.7925
 7913SOL     OW35374   3.265   2.260  11.228 -0.6187 -0.0492  0.1532
 7913SOL    HW135375   3.328   2.188  11.219 -0.8037 -0.0854 -0.8485
 7913SOL    HW235376   3.205   2.211  11.284  0.5998  2.4589  3.6329
 7914SOL     OW35377   4.081   3.403   0.567  0.0107 -0.5899 -0.1548
 7914SOL    HW135378   4.160   3.366   0.606  0.8601  0.8852 -0.4533
 7914SOL    HW235379   4.111   3.451   0.490  0.5221 -0.0970  0.3508
 7915SOL     OW35380   4.540   4.656  15.037 -0.2356  0.4223  0.3165
 7915SOL    HW135381   4.534   4.734  14.981  0.6962 -0.2801 -0.7688
 7915SOL    HW235382   4.530   4.696  15.123  0.6497  0.5352  0.3699
 7916SOL     OW35383   3.870   2.280   3.697  0.7062  0.1036  0.3563
 7916SOL    HW135384   3.953   2.301   3.653  0.7111 -1.8011 -0.5455
 7916SOL    HW235385   3.879   2.322   3.783 -0.4875 -0.3220  0.6865
 7917SOL     OW35386   3.414   0.024   6.609  0.4648 -0.3340  0.4032
 7917SOL    HW135387   3.363   0.105   6.620  1.8857  0.5167  0.6968
 7917SOL    HW235388   3.342   4.707   6.578  0.6664 -1.1754  1.4010
 7918SOL     OW35389   4.167   1.381  12.882 -0.0538 -0.1583  0.6884
 7918SOL    HW135390   4.262   1.385  12.872  0.0197 -0.8019  1.1614
 7918SOL    HW235391   4.139   1.472  12.890 -0.8068 -0.4432  1.2739
 7919SOL     OW35392   4.656   1.779  13.788  0.0709  0.3533 -0.5306
 7919SOL    HW135393   4.650   1.803  13.881  0.2844 -0.9317 -0.1946
 7919SOL    HW235394   4.574   1.816  13.757 -0.1356 -0.5864 -1.0998
 7920SOL     OW35395   2.926   0.640   3.970  0.4809  0.5779  0.5912
 7920SOL    HW135396   2.964   0.597   3.893  0.0900 -2.5955  2.1904
 7920SOL    HW235397   2.947   0.568   4.030  2.9393  0.8899  0.1022
 7921SOL     OW35398   4.237   2.357   8.142 -0.5837  0.3985  0.1652
 7921SOL    HW135399   4.324   2.328   8.171 -1.0142 -0.3035  0.7475
 7921SOL    HW235400   4.249   2.376   8.049  0.4474  2.1626  0.6535
 7922SOL     OW35401   3.304   0.745   4.124 -0.3795  0.3156 -0.3569
 7922SOL    HW135402   3.238   0.681   4.099 -1.0768  1.1394 -0.6113
 7922SOL    HW235403   3.384   0.694   4.112 -0.4620  0.4874 -1.6692
 7923SOL     OW35404   3.886   1.461  17.264  1.0100 -0.1125 -0.0553
 7923SOL    HW135405   3.807   1.516  17.264  0.7936 -0.4340 -0.6047
 7923SOL    HW235406   3.959   1.521  17.279  0.1342  0.2379  2.8669
 7924SOL     OW35407   4.123   0.864   5.523 -0.5936 -0.3524  0.8292
 7924SOL    HW135408   4.151   0.826   5.607  1.0922 -0.3673  0.2738
 7924SOL    HW235409   4.033   0.892   5.539 -0.8169 -0.2293 -0.7266
 7925SOL     OW35410   4.575   3.721   9.091 -0.9268 -0.7143  0.3058
 7925SOL    HW135411   4.603   3.808   9.120 -0.5333 -0.7168 -0.0714
 7925SOL    HW235412   4.657   3.683   9.061 -1.4715 -2.0980  0.5941
 7926SOL     OW35413   0.963   3.272   3.857 -0.0874  0.0145 -0.3530
 7926SOL    HW135414   1.004   3.357   3.875  1.3145 -1.1769  2.1113
 7926SOL    HW235415   1.028   3.237   3.797  0.7201 -1.7656  1.5363
 7927SOL     OW35416   0.495   1.896   5.600  1.1083 -0.2181  0.1458
 7927SOL    HW135417   0.503   1.990   5.586 -0.0817  0.1001  1.6441
 7927SOL    HW235418   0.501   1.865   5.509 -0.2675 -0.1654  0.0324
 7928SOL     OW35419   1.023   2.939   4.065  0.0743 -0.2380 -0.2366
 7928SOL    HW135420   1.094   2.904   4.120 -0.8064  0.3758  1.2783
 7928SOL    HW235421   0.963   2.971   4.132  2.5545 -2.1501  2.9235
 7929SOL     OW35422   1.235   0.335   4.420 -0.1268  0.6731  0.5345
 7929SOL    HW135423   1.276   0.363   4.501 -0.3031 -2.4998  1.7229
 7929SOL    HW235424   1.304   0.343   4.354 -1.2155  2.6875 -0.3634
 7930SOL     OW35425   2.354   4.727   7.921 -0.2114 -1.0948  0.2620
 7930SOL    HW135426   2.393   0.016   7.837 -0.4269 -0.2976  0.4131
 7930SOL    HW235427   2.355   0.069   7.974  1.1006 -1.5485  0.9130
 7931SOL     OW35428   3.705   1.774   6.366 -0.4409 -0.1731  0.1571
 7931SOL    HW135429   3.631   1.784   6.305 -0.5036 -1.1690  0.0751
 7931SOL    HW235430   3.732   1.686   6.340  0.5247  0.1300  0.1328
 7932SOL     OW35431   2.198   0.924   9.413  0.0959  0.2799 -0.0165
 7932SOL    HW135432   2.211   1.013   9.446 -3.2199  0.9724 -0.5957
 7932SOL    HW235433   2.175   0.887   9.498 -1.1335 -1.1485 -0.9759
 7933SOL     OW35434   1.921   2.611   3.571  0.2163  0.2110  0.1468
 7933SOL    HW135435   1.954   2.536   3.521 -0.2606 -1.4985  2.3573
 7933SOL    HW235436   2.007   2.647   3.592  0.9218  0.1893 -2.7869
 7934SOL     OW35437   3.035   4.206   1.813  0.2772  0.6063  0.1145
 7934SOL    HW135438   3.082   4.136   1.859 -2.1680 -0.3974  1.1168
 7934SOL    HW235439   3.089   4.210   1.734 -0.1538  1.3307 -0.1334
 7935SOL     OW35440   2.601   1.818   5.982  0.0129  0.3439 -0.1436
 7935SOL    HW135441   2.684   1.808   5.935  1.7978  0.4338  2.9988
 7935SOL    HW235442   2.539   1.761   5.937 -1.0332  1.9649 -0.7711
 7936SOL     OW35443   2.731   2.366  15.507  0.0834  0.4337 -0.1589
 7936SOL    HW135444   2.701   2.433  15.445 -2.9333  1.8359  2.8175
 7936SOL    HW235445   2.662   2.371  15.573  0.3531  0.1342  0.1530
 7937SOL     OW35446   1.478   3.939   3.829 -0.0034 -0.3234  0.7564
 7937SOL    HW135447   1.572   3.946   3.846 -0.0039  0.0532  0.5836
 7937SOL    HW235448   1.454   4.015   3.882  0.7470  0.3271  0.1491
 7938SOL     OW35449   0.789   3.957   1.032 -0.0840  0.0797  0.2595
 7938SOL    HW135450   0.763   3.926   0.945 -0.9575  0.2525  0.4629
 7938SOL    HW235451   0.705   3.990   1.062 -1.5012 -1.3454 -2.2097
 7939SOL     OW35452   0.107   3.547   6.891 -0.1803 -0.7778  0.3612
 7939SOL    HW135453   0.020   3.580   6.911  0.2122  0.0838  0.6530
 7939SOL    HW235454   0.086   3.477   6.830 -0.6298 -0.7412  0.4772
 7940SOL     OW35455   2.914   2.803   2.000 -0.6466  0.6032 -0.8818
 7940SOL    HW135456   2.899   2.835   2.089 -1.5247 -2.3611  0.0361
 7940SOL    HW235457   2.951   2.886   1.970 -0.1045  0.5084 -0.4762
 7941SOL     OW35458   3.504   2.797   6.717 -0.4286 -0.2047 -0.0445
 7941SOL    HW135459   3.467   2.870   6.766 -0.8877  0.3611 -1.2225
 7941SOL    HW235460   3.587   2.833   6.686  0.4162 -1.3956  0.8369
 7942SOL     OW35461   0.843   4.667   5.341  0.0730  0.0248  0.0146
 7942SOL    HW135462   0.830   0.008   5.288 -2.2050  0.6934  1.5587
 7942SOL    HW235463   0.791   4.683   5.420  1.8624  3.5522  0.4862
 7943SOL     OW35464   4.705   3.353   1.275  0.1229 -0.0863 -0.3459
 7943SOL    HW135465   4.667   3.276   1.234 -2.2675 -0.2032  2.0719
 7943SOL    HW235466   0.023   3.388   1.205 -1.2644  1.4483 -0.6834
 7944SOL     OW35467   2.225   2.356   8.105  0.3750 -0.2027 -0.8351
 7944SOL    HW135468   2.252   2.362   8.196 -1.6969 -0.6653 -0.1906
 7944SOL    HW235469   2.294   2.308   8.060 -0.3736 -2.9268  0.9156
 7945SOL     OW35470   3.913   0.912   2.568  0.1200  0.0224 -0.6113
 7945SOL    HW135471   3.998   0.934   2.530 -0.9179  0.0297 -2.9076
 7945SOL    HW235472   3.865   0.968   2.506  1.4379  1.5233 -0.2731
 7946SOL     OW35473   4.609   3.214  10.087  0.0469 -1.1143  0.0331
 7946SOL    HW135474   4.531   3.267  10.106 -0.7814 -1.3431 -2.6285
 7946SOL    HW235475   4.593   3.136  10.139  2.7183 -1.0560  0.9301
 7947SOL     OW35476   0.074   3.824   8.291  0.3083 -0.5203  0.0171
 7947SOL    HW135477   0.111   3.897   8.340  3.0789  0.4557 -3.5570
 7947SOL    HW235478   4.724   3.852   8.262  0.0747  0.1522  1.3883
 7948SOL     OW35479   2.001   3.825   9.301  0.1572  0.1609 -0.0057
 7948SOL    HW135480   1.951   3.863   9.229  1.6722  0.4401 -0.9159
 7948SOL    HW235481   2.082   3.803   9.255 -0.6800 -2.4166 -0.2145
 7949SOL     OW35482   3.945   4.659   6.319  0.0896 -0.1938  0.3115
 7949SOL    HW135483   3.867   4.603   6.329  1.4924 -2.7134 -2.8989
 7949SOL    HW235484   3.917   4.721   6.252  1.1443 -0.6827 -0.5831
 7950SOL     OW35485   3.438   0.509  16.047  0.2475  0.2740 -0.0757
 7950SOL    HW135486   3.445   0.450  16.121  0.5989  0.2115 -0.1589
 7950SOL    HW235487   3.369   0.471  15.993  0.4634 -0.0782 -0.0968
 7951SOL     OW35488   1.191   2.873   3.822 -0.4980 -0.3517  0.1277
 7951SOL    HW135489   1.174   2.788   3.783  0.6988 -0.3368 -0.4501
 7951SOL    HW235490   1.138   2.874   3.902  0.1662  0.3251  0.5661
 7952SOL     OW35491   1.344   1.870  13.522  0.1342  0.0156 -0.0537
 7952SOL    HW135492   1.399   1.812  13.470  1.2746  0.6950  0.3972
 7952SOL    HW235493   1.382   1.956  13.506  1.5255 -0.7126 -0.5750
 7953SOL     OW35494   2.714   3.340   2.804 -0.5750  0.1816 -0.4223
 7953SOL    HW135495   2.667   3.327   2.722 -0.0383 -0.1449 -0.6769
 7953SOL    HW235496   2.694   3.260   2.854 -1.3525  1.0882  0.7041
 7954SOL     OW35497   3.362   3.484   8.743  0.1995 -0.4512 -0.0636
 7954SOL    HW135498   3.333   3.532   8.666  2.6411 -0.4341 -0.9856
 7954SOL    HW235499   3.433   3.434   8.703  1.3077  0.1826  1.0768
 7955SOL     OW35500   0.306   4.633  12.149  0.2191 -0.0436  0.4671
 7955SOL    HW135501   0.346   4.676  12.073 -1.2131 -1.9925 -1.3860
 7955SOL    HW235502   0.315   4.705  12.212  0.6870 -1.9018  2.4954
 7956SOL     OW35503   2.334   2.613   4.463  0.2374 -0.6790 -0.3530
 7956SOL    HW135504   2.301   2.594   4.375 -1.7511 -1.2496  0.5115
 7956SOL    HW235505   2.418   2.657   4.448  0.0001 -0.2455 -0.4022
 7957SOL     OW35506   0.125   1.278   6.285 -0.0431 -0.0587  0.5516
 7957SOL    HW135507   0.100   1.203   6.340 -1.2969  0.7940  1.1676
 7957SOL    HW235508   0.068   1.265   6.210 -1.2875 -1.6902  1.7556
 7958SOL     OW35509   4.711   3.604  10.298 -0.3284  0.1832  0.5455
 7958SOL    HW135510   0.029   3.632  10.371  0.2431  0.6275 -0.0481
 7958SOL    HW235511   4.637   3.661  10.319  0.8941  1.8298  0.4632
 7959SOL     OW35512   3.762   0.007   0.386 -0.6844  0.0683 -0.3743
 7959SOL    HW135513   3.765   0.094   0.428  1.1781 -0.2224  0.1009
 7959SOL    HW235514   3.683   4.704   0.422  0.0697  0.0478  1.2851
 7960SOL     OW35515   2.650   0.564  12.368 -0.4836 -0.0638 -0.0548
 7960SOL    HW135516   2.670   0.471  12.369 -0.3904 -0.0438 -0.0904
 7960SOL    HW235517   2.731   0.603  12.335  0.1528 -2.6690 -1.5404
 7961SOL     OW35518   3.008   3.337  10.652  0.3221  0.4734  0.4937
 7961SOL    HW135519   2.938   3.279  10.681  1.0478 -0.0012  1.2841
 7961SOL    HW235520   2.987   3.387  10.731  1.0258 -1.3828  1.8520
 7962SOL     OW35521   0.896   1.829   5.248 -0.0160  0.3943 -0.1980
 7962SOL    HW135522   0.983   1.818   5.287 -0.5158  0.1147  0.8564
 7962SOL    HW235523   0.895   1.747   5.200 -0.0868 -0.3331  1.0498
 7963SOL     OW35524   0.508   2.092   6.462 -0.3189 -0.0242  0.2781
 7963SOL    HW135525   0.518   2.157   6.393 -1.7584 -0.7492 -0.6365
 7963SOL    HW235526   0.459   2.028   6.409  2.9150 -0.8063 -1.7215
 7964SOL     OW35527   3.836   0.629   7.964  0.2661  0.6899  0.2585
 7964SOL    HW135528   3.886   0.560   7.920 -0.0882 -1.0820  2.6528
 7964SOL    HW235529   3.762   0.650   7.908 -1.6791 -1.4726  2.0234
 7965SOL     OW35530   2.634   2.731   6.532  0.5482 -0.1045  0.1357
 7965SOL    HW135531   2.540   2.714   6.531  0.6090 -0.3657 -1.8205
 7965SOL    HW235532   2.668   2.733   6.442  0.9863  0.4199  0.3111
 7966SOL     OW35533   2.134   0.614  13.327 -0.4674 -0.2863  0.2974
 7966SOL    HW135534   2.193   0.587  13.398 -0.8925 -0.2052  0.6811
 7966SOL    HW235535   2.182   0.605  13.245 -4.1090  0.9998 -1.9759
 7967SOL     OW35536   4.291   3.580   9.007 -0.4331 -0.4554  0.3224
 7967SOL    HW135537   4.380   3.609   9.025 -0.2976 -1.0532  0.5729
 7967SOL    HW235538   4.253   3.636   9.075 -2.1901 -0.8114 -0.3519
 7968SOL     OW35539   3.586   2.072   4.540  0.3352  0.4587 -0.1844
 7968SOL    HW135540   3.538   1.990   4.553  0.7514  0.0669 -1.1126
 7968SOL    HW235541   3.524   2.102   4.473 -0.1545 -0.7622 -0.2814
 7969SOL     OW35542   4.596   1.103   8.532  0.1398  0.5428  1.1607
 7969SOL    HW135543   4.647   1.023   8.538 -0.9032 -0.2874 -1.0511
 7969SOL    HW235544   4.649   1.157   8.591 -0.1549  1.0732  0.9387
 7970SOL     OW35545   2.113   2.021   5.185  0.0207  0.5247 -0.2478
 7970SOL    HW135546   2.042   2.003   5.123 -1.0480  1.0874  0.8144
 7970SOL    HW235547   2.129   2.115   5.179 -0.1148  0.5045 -0.9623
 7971SOL     OW35548   2.617   2.239  14.307  0.4520 -0.1089 -0.2043
 7971SOL    HW135549   2.594   2.307  14.245 -0.0861  0.0876  0.2080
 7971SOL    HW235550   2.676   2.285  14.367  1.8004  1.0480 -2.4375
 7972SOL     OW35551   3.767   0.144   3.346  0.2578  0.1988 -0.0329
 7972SOL    HW135552   3.786   0.235   3.367  0.3278 -0.2461  1.7958
 7972SOL    HW235553   3.726   0.155   3.260  0.2343  3.4745  0.4125
 7973SOL     OW35554   2.518   3.538   7.200  1.3485  0.1210  0.1352
 7973SOL    HW135555   2.495   3.495   7.282  0.0008  0.3865 -0.0989
 7973SOL    HW235556   2.523   3.463   7.141  1.2255  1.9882 -2.2578
 7974SOL     OW35557   3.979   1.207  17.342  0.1460 -0.1938 -0.1587
 7974SOL    HW135558   4.021   1.225  17.426  1.9193 -1.9956 -0.6631
 7974SOL    HW235559   3.967   1.293  17.302 -1.5898  0.0096  0.8293
 7975SOL     OW35560   2.198   3.022  16.132  0.1324  0.4620 -0.0584
 7975SOL    HW135561   2.192   3.075  16.053  1.1896  0.7585  0.0657
 7975SOL    HW235562   2.143   2.951  16.098  2.4529 -2.0630  1.4749
 7976SOL     OW35563   0.775   2.241   7.181 -0.7835 -0.2243 -0.1516
 7976SOL    HW135564   0.705   2.298   7.213  0.9217  1.2423  0.9619
 7976SOL    HW235565   0.746   2.156   7.211  1.8460 -2.6192 -4.3951
 7977SOL     OW35566   2.755   0.209   3.701  0.2594  0.6281 -0.2778
 7977SOL    HW135567   2.701   0.241   3.629 -3.3199  0.4588  2.3488
 7977SOL    HW235568   2.702   0.239   3.775  0.3638  2.7667 -1.0724
 7978SOL     OW35569   0.904   4.324   6.191 -0.1349 -0.5152  0.2719
 7978SOL    HW135570   0.983   4.362   6.153 -0.4652 -0.8321 -0.7296
 7978SOL    HW235571   0.848   4.400   6.171  1.6461  0.9347  0.7584
 7979SOL     OW35572   1.102   1.926   7.525  0.1808  0.0542  0.1981
 7979SOL    HW135573   1.089   2.020   7.539 -1.9784 -0.3968  1.1942
 7979SOL    HW235574   1.022   1.896   7.568  0.3024 -0.8222 -0.1900
 7980SOL     OW35575   0.871   0.074   7.148 -0.0837  0.0913  0.5346
 7980SOL    HW135576   0.856   0.113   7.234 -3.4734 -1.4261  0.6515
 7980SOL    HW235577   0.863   4.716   7.158  0.5625 -0.2990 -2.6765
 7981SOL     OW35578   0.471   3.173   7.770 -0.3634 -0.1888  0.1320
 7981SOL    HW135579   0.550   3.222   7.791  0.4119 -1.7296  0.7727
 7981SOL    HW235580   0.474   3.152   7.676  0.2471  0.9803 -0.1142
 7982SOL     OW35581   2.272   3.127   5.186 -0.0529  0.1143 -0.1209
 7982SOL    HW135582   2.347   3.165   5.139  1.3833 -1.0618  1.2523
 7982SOL    HW235583   2.271   3.033   5.168  0.4179 -0.1863  1.4308
 7983SOL     OW35584   2.767   1.292   7.106  0.0461  0.4428  0.1440
 7983SOL    HW135585   2.792   1.324   7.193  2.0551  2.7260 -1.2699
 7983SOL    HW235586   2.692   1.236   7.126 -0.1286  0.0077 -1.7676
 7984SOL     OW35587   2.765   3.464   0.330 -0.3154 -0.5192  0.0939
 7984SOL    HW135588   2.767   3.503   0.417 -1.3933 -0.1407 -0.0591
 7984SOL    HW235589   2.836   3.400   0.342 -0.5373 -1.2124 -2.4577
 7985SOL     OW35590   1.377   0.145   2.374 -0.1059  0.6631 -0.2617
 7985SOL    HW135591   1.431   0.210   2.420  0.1579  0.3901 -0.1842
 7985SOL    HW235592   1.383   0.061   2.417 -1.8743  0.9025  0.4422
 7986SOL     OW35593   2.891   1.744  17.107 -0.0260  0.2329 -0.2170
 7986SOL    HW135594   2.916   1.663  17.064  0.8205  1.5413 -2.1808
 7986SOL    HW235595   2.945   1.806  17.058 -1.4153  1.3872 -0.2762
 7987SOL     OW35596   0.356   0.773  10.056  0.4852  0.4056 -0.0428
 7987SOL    HW135597   0.317   0.769   9.969  2.4865  1.4806 -0.9778
 7987SOL    HW235598   0.379   0.864  10.070 -0.4807  0.3992  1.6064
 7988SOL     OW35599   2.310   3.836   0.622  0.1589 -0.7146  0.2177
 7988SOL    HW135600   2.356   3.904   0.572  1.3194 -1.4719  0.2660
 7988SOL    HW235601   2.255   3.795   0.555 -0.4301  1.6736 -0.7612
 7989SOL     OW35602   0.111   3.653   0.889  0.4453 -0.4524 -0.3393
 7989SOL    HW135603   0.193   3.605   0.897 -0.1041 -1.7681 -2.8912
 7989SOL    HW235604   0.045   3.584   0.887 -1.3783  1.2527  1.0189
 7990SOL     OW35605   4.688   0.245   2.806  0.0087  0.2216 -0.4015
 7990SOL    HW135606   0.026   0.220   2.753  1.0555 -2.4608  2.2759
 7990SOL    HW235607   4.704   0.196   2.887  1.5614  0.0020 -0.8445
 7991SOL     OW35608   0.555   3.379  10.240 -0.0450  0.0078  0.2594
 7991SOL    HW135609   0.492   3.313  10.209  1.4102 -0.8469 -0.8459
 7991SOL    HW235610   0.575   3.339  10.325 -1.4482 -1.8281 -0.2677
 7992SOL     OW35611   1.993   2.901  13.504  0.0554 -0.0061  0.4772
 7992SOL    HW135612   1.939   2.863  13.435  0.3592  0.6998 -0.1448
 7992SOL    HW235613   1.926   2.909  13.572 -0.0611  2.1774  0.1034
 7993SOL     OW35614   4.566   2.507  12.963 -0.4663 -0.2526  0.5554
 7993SOL    HW135615   4.579   2.542  13.052  0.0756 -0.8845  0.7205
 7993SOL    HW235616   4.517   2.580  12.923 -0.8160 -1.0885 -0.5327
 7994SOL     OW35617   2.905   2.731   6.297 -0.2799 -0.5059 -0.2760
 7994SOL    HW135618   2.936   2.682   6.221 -1.0277 -1.9991  0.3859
 7994SOL    HW235619   2.938   2.666   6.359  2.1703  1.0429  0.0427
 7995SOL     OW35620   4.128   3.370   5.832  0.4148 -0.2957  0.4422
 7995SOL    HW135621   4.056   3.351   5.892 -0.3083  0.8320 -0.0784
 7995SOL    HW235622   4.190   3.297   5.843  1.2055  0.3025 -0.0114
 7996SOL     OW35623   2.379   1.290   2.423 -0.5069 -0.4651  0.5931
 7996SOL    HW135624   2.465   1.261   2.454 -1.3882 -3.1226  0.6119
 7996SOL    HW235625   2.388   1.384   2.437 -0.5423 -0.6340  1.7501
 7997SOL     OW35626   0.310   3.306   5.945  0.0425  0.2306 -0.3921
 7997SOL    HW135627   0.386   3.357   5.918  0.3476  0.9970  1.9048
 7997SOL    HW235628   0.333   3.297   6.038  2.1115 -0.4617 -0.9710
 7998SOL     OW35629   1.972   1.064   8.292 -0.1797  0.3900  0.5055
 7998SOL    HW135630   1.955   0.975   8.324 -1.4943  0.4748  0.0232
 7998SOL    HW235631   1.956   1.052   8.199  1.4040 -2.3924  0.5961
 7999SOL     OW35632   0.551   1.576   5.548  0.3833  0.0652  0.4109
 7999SOL    HW135633   0.479   1.517   5.568  0.6770  0.0065  1.3011
 7999SOL    HW235634   0.520   1.626   5.472 -2.5355  0.8373  2.0928
 8000SOL     OW35635   0.331   3.228   8.484 -0.1375  0.5040  0.1151
 8000SOL    HW135636   0.368   3.303   8.437 -0.0676 -0.4259 -1.3044
 8000SOL    HW235637   0.257   3.201   8.430  0.9593  0.3929 -1.3124
 8001SOL     OW35638   3.984   2.316   9.726  0.4939 -0.3643  0.0695
 8001SOL    HW135639   4.077   2.294   9.726  0.6060  0.1074 -1.2487
 8001SOL    HW235640   3.951   2.237   9.769 -0.7449 -1.0843 -2.1912
 8002SOL     OW35641   3.937   4.461   2.167  0.1228  0.3267 -0.7584
 8002SOL    HW135642   3.982   4.545   2.161 -0.8666  0.8937 -0.1845
 8002SOL    HW235643   3.847   4.484   2.190 -0.2770 -0.9005 -1.1115
 8003SOL     OW35644   1.317   2.693   7.218 -0.0734  0.7277  0.5495
 8003SOL    HW135645   1.340   2.738   7.300  2.3438 -0.8163  0.7370
 8003SOL    HW235646   1.227   2.671   7.240 -0.4662  1.0996 -0.7196
 8004SOL     OW35647   3.800   4.155   2.020  0.1218 -0.0352  0.2659
 8004SOL    HW135648   3.734   4.225   2.021 -0.7773 -0.8714 -0.9857
 8004SOL    HW235649   3.792   4.123   1.931 -2.1594 -2.2491  1.2795
 8005SOL     OW35650   0.203   0.459  16.406 -0.0239  0.3968  0.0145
 8005SOL    HW135651   0.173   0.463  16.497  1.3166 -1.8446  0.5768
 8005SOL    HW235652   0.197   0.553  16.394 -0.7694  0.4005  0.4286
 8006SOL     OW35653   0.673   3.928   4.387  0.6492  0.3707 -0.3998
 8006SOL    HW135654   0.668   3.856   4.450  2.4037  0.7200  0.1347
 8006SOL    HW235655   0.708   3.888   4.308 -3.0185 -1.7781 -0.9095
 8007SOL     OW35656   3.959   1.145  11.000 -0.0630  0.2277 -0.0786
 8007SOL    HW135657   4.051   1.169  10.987  0.6117 -1.2882  1.9650
 8007SOL    HW235658   3.972   1.050  10.999  2.4288  0.5829 -1.9792
 8008SOL     OW35659   3.246   0.567   4.656 -0.0383  0.2493 -0.1375
 8008SOL    HW135660   3.186   0.595   4.724  0.7374  2.2196 -0.2614
 8008SOL    HW235661   3.258   0.652   4.614  0.3645 -0.3419 -1.2407
 8009SOL     OW35662   4.150   1.005   5.831  0.0401  0.3362 -0.3342
 8009SOL    HW135663   4.195   1.065   5.772  2.3306 -0.6734  0.4016
 8009SOL    HW235664   4.063   1.044   5.843 -0.0451 -0.2344  0.9387
 8010SOL     OW35665   2.431   0.596   3.749 -0.1086 -0.2823  0.1461
 8010SOL    HW135666   2.520   0.590   3.716  0.6864  1.8656  1.8954
 8010SOL    HW235667   2.409   0.504   3.734  0.4493 -0.3967  0.0592
 8011SOL     OW35668   0.957   0.961   5.163  0.5760 -0.5774  0.2337
 8011SOL    HW135669   0.889   0.911   5.116  2.2742 -2.1765 -0.5291
 8011SOL    HW235670   0.978   1.031   5.101 -0.6889 -0.9173 -0.5926
 8012SOL     OW35671   0.284   0.788   9.385  0.0007 -0.1566 -0.8149
 8012SOL    HW135672   0.352   0.732   9.422 -1.1317 -1.0289 -0.0938
 8012SOL    HW235673   0.266   0.849   9.457 -2.3434 -2.3485  0.4579
 8013SOL     OW35674   0.142   3.601   1.887  0.1908  0.6799 -0.2920
 8013SOL    HW135675   0.196   3.638   1.957 -0.1446 -1.2321  0.9703
 8013SOL    HW235676   0.147   3.669   1.819 -1.2253 -0.9368 -2.0051
 8014SOL     OW35677   1.956   1.977  13.857 -0.5678  0.6975 -0.4584
 8014SOL    HW135678   1.956   1.927  13.938 -0.9511  1.0849 -0.2136
 8014SOL    HW235679   1.905   1.914  13.806 -0.0030  0.0656 -0.2349
 8015SOL     OW35680   0.112   0.429   5.857  0.2573  0.2140 -0.0737
 8015SOL    HW135681   0.059   0.464   5.929  0.2144 -0.2477  0.1153
 8015SOL    HW235682   0.177   0.497   5.841 -1.0579  1.5259  0.1171
 8016SOL     OW35683   2.976   3.150  16.498 -0.1863  0.3903 -0.2670
 8016SOL    HW135684   2.910   3.139  16.566  0.8220  0.8250  0.7820
 8016SOL    HW235685   3.024   3.074  16.532  0.0692  0.4274 -0.5449
 8017SOL     OW35686   1.981   3.292   2.938  0.5493 -0.0422  0.0735
 8017SOL    HW135687   2.069   3.330   2.945  0.7445 -0.4166 -0.3677
 8017SOL    HW235688   1.935   3.361   2.986  3.3652  0.9602  1.3219
 8018SOL     OW35689   0.128   2.933  12.027 -0.5092 -0.7019  0.2588
 8018SOL    HW135690   0.050   2.889  11.993 -1.2551 -0.1010  1.1881
 8018SOL    HW235691   0.131   2.890  12.113  0.4808 -0.8054  0.1791
 8019SOL     OW35692   2.475   1.383   6.948  0.0053 -0.4589  0.0784
 8019SOL    HW135693   2.428   1.377   7.031 -1.4638 -0.1489 -0.7375
 8019SOL    HW235694   2.517   1.465   6.974  2.7821 -1.4284 -1.3020
 8020SOL     OW35695   1.930   3.934   9.070  0.3600  0.4344  0.5206
 8020SOL    HW135696   1.849   3.893   9.042  0.7667 -0.9017  1.3207
 8020SOL    HW235697   1.949   3.952   8.978 -1.6147  0.3122  0.0965
 8021SOL     OW35698   3.858   3.172   7.368 -0.6605  0.9174 -0.3052
 8021SOL    HW135699   3.922   3.230   7.410 -0.8156  0.8644  0.0105
 8021SOL    HW235700   3.826   3.109   7.433 -1.8533  0.4428 -1.3407
 8022SOL     OW35701   0.275   0.718   4.386  0.1269  0.2294  0.4019
 8022SOL    HW135702   0.360   0.749   4.355 -1.1951  1.5412 -1.8787
 8022SOL    HW235703   0.271   0.754   4.475 -0.1332 -0.3483  0.6243
 8023SOL     OW35704   1.192   4.491   7.065 -0.0868 -0.2025 -0.3450
 8023SOL    HW135705   1.239   4.508   6.984  2.1039  1.3062  1.2413
 8023SOL    HW235706   1.118   4.440   7.034 -1.1468  1.1665 -0.0577
 8024SOL     OW35707   1.952   1.869   3.516  0.4375 -0.8708  0.0208
 8024SOL    HW135708   1.938   1.954   3.476  3.0240 -0.6702 -0.5009
 8024SOL    HW235709   2.039   1.843   3.484  0.2034 -0.3638 -1.0120
 8025SOL     OW35710   3.065   1.434   2.598  0.4876 -0.0559 -0.1254
 8025SOL    HW135711   3.118   1.396   2.529  0.1739  0.9840 -0.9416
 8025SOL    HW235712   3.130   1.492   2.638  1.7870 -1.8961  0.4098
 8026SOL     OW35713   1.001   2.796   2.438  0.8375 -0.5469  0.3385
 8026SOL    HW135714   0.959   2.822   2.520  0.9305 -0.2252  0.2855
 8026SOL    HW235715   0.968   2.708   2.419 -1.6322  0.5529 -0.4762
 8027SOL     OW35716   3.989   0.378   4.229 -0.6108  0.4955 -0.0205
 8027SOL    HW135717   4.029   0.462   4.209  0.7819 -0.5044 -1.4583
 8027SOL    HW235718   3.918   0.373   4.166  1.1880 -0.7821 -1.9626
 8028SOL     OW35719   2.009   3.882   7.768 -0.4491  0.1915  0.2626
 8028SOL    HW135720   1.947   3.949   7.736  1.9198  1.6612 -1.2393
 8028SOL    HW235721   2.018   3.819   7.696 -0.5199 -0.6282  0.9747
 8029SOL     OW35722   4.352   0.315   5.659 -0.0648 -0.2754  0.2499
 8029SOL    HW135723   4.384   0.402   5.685 -2.0609  1.2947 -2.6033
 8029SOL    HW235724   4.382   0.305   5.569  0.6207  2.7803  0.1416
 8030SOL     OW35725   4.665   1.558   7.642  0.0129 -0.2034  0.1797
 8030SOL    HW135726   4.732   1.503   7.683  1.9348  0.2122 -2.4541
 8030SOL    HW235727   4.651   1.631   7.703  0.0969 -0.3523  0.3800
 8031SOL     OW35728   1.225   4.033  10.907  0.2039 -0.4244 -0.3821
 8031SOL    HW135729   1.198   4.076  10.988  1.4624  2.4881 -1.5106
 8031SOL    HW235730   1.270   3.953  10.935 -2.5468 -1.7891  0.1421
 8032SOL     OW35731   0.220   2.035   7.570  0.2704 -0.2790  0.5864
 8032SOL    HW135732   0.166   2.021   7.492  0.1095 -0.8517  0.7986
 8032SOL    HW235733   0.157   2.071   7.633 -0.6183  1.0229 -1.0545
 8033SOL     OW35734   3.344   2.684  11.860  0.4538  0.3096  0.5541
 8033SOL    HW135735   3.391   2.600  11.863 -1.0262 -0.5564 -0.4352
 8033SOL    HW235736   3.415   2.748  11.849 -0.6474  1.3946 -0.1876
 8034SOL     OW35737   1.107   2.047  13.611  0.2579 -1.2407  0.0310
 8034SOL    HW135738   1.140   2.135  13.593 -0.2931 -0.9012  0.7072
 8034SOL    HW235739   1.082   2.052  13.703 -0.1850  1.9765 -0.2560
 8035SOL     OW35740   4.378   4.721  17.378 -0.6275  0.5903  0.2200
 8035SOL    HW135741   4.391   4.654  17.445  2.7087 -0.2803 -1.3346
 8035SOL    HW235742   4.401   4.671  17.300  0.3908  0.6142  0.5127
 8036SOL     OW35743   1.766   2.264  16.596  0.1171 -0.6404  0.2690
 8036SOL    HW135744   1.687   2.222  16.563  0.3230 -1.7888  1.2325
 8036SOL    HW235745   1.722   2.328  16.652 -0.7056 -1.9515  1.1132
 8037SOL     OW35746   3.901   3.208   3.157 -0.4765 -0.0553  0.0847
 8037SOL    HW135747   3.979   3.226   3.209  0.9798  0.4643 -2.2980
 8037SOL    HW235748   3.839   3.267   3.200  0.3275  1.2510 -0.5667
 8038SOL     OW35749   3.483   3.835  13.370  0.0642  0.2963  0.0730
 8038SOL    HW135750   3.440   3.777  13.307  0.8499  0.0365 -0.2211
 8038SOL    HW235751   3.408   3.882  13.406  0.0997  0.5251 -0.1486
 8039SOL     OW35752   4.483   1.539  14.892 -0.0334  0.1297  0.0628
 8039SOL    HW135753   4.481   1.512  14.801 -0.9564 -2.2250  0.7902
 8039SOL    HW235754   4.576   1.563  14.897 -0.5019  2.4813 -2.9712
 8040SOL     OW35755   2.503   1.937   9.827 -0.0361  0.0768 -0.6241
 8040SOL    HW135756   2.581   1.891   9.797  0.3681 -0.5819  1.4257
 8040SOL    HW235757   2.525   2.027   9.804  1.2304 -0.3308 -0.9817
 8041SOL     OW35758   0.660   1.948  11.010 -0.2708 -0.0302  0.0036
 8041SOL    HW135759   0.625   2.008  11.076 -0.0693 -2.0190  1.9281
 8041SOL    HW235760   0.633   1.870  11.058  1.0230 -0.4011  0.1200
 8042SOL     OW35761   0.819   1.608   3.056 -0.3606 -0.1701  0.1618
 8042SOL    HW135762   0.781   1.568   3.135 -1.0481 -2.0848 -1.1438
 8042SOL    HW235763   0.735   1.638   3.023 -0.1615  0.7732  0.5103
 8043SOL     OW35764   4.154   0.969   8.138  0.3978  0.3489  0.8259
 8043SOL    HW135765   4.187   0.906   8.073  0.5553  1.3764 -0.0999
 8043SOL    HW235766   4.079   0.919   8.170  1.4380 -0.4307  2.0792
 8044SOL     OW35767   4.433   0.297   4.666 -0.0855  0.1171 -0.3622
 8044SOL    HW135768   4.411   0.290   4.573 -0.3133  0.6613 -0.3516
 8044SOL    HW235769   4.349   0.267   4.701 -0.9325  2.1974 -0.5884
 8045SOL     OW35770   0.677   3.393   4.772  0.2746 -0.1673  0.3968
 8045SOL    HW135771   0.635   3.459   4.828 -0.4711 -0.8166  0.6025
 8045SOL    HW235772   0.650   3.313   4.817 -2.3402  0.5514  0.1109
 8046SOL     OW35773   1.929   3.846  12.700  0.3275  0.0779  0.2715
 8046SOL    HW135774   1.893   3.846  12.789 -1.1548  2.6973 -0.3326
 8046SOL    HW235775   1.908   3.934  12.670  1.8166  0.6644  0.9462
 8047SOL     OW35776   1.362   4.229   4.114 -0.1515  0.1750  0.3015
 8047SOL    HW135777   1.357   4.278   4.195  1.1341 -0.3033  0.6687
 8047SOL    HW235778   1.318   4.149   4.141  0.2005  0.3983  1.5209
 8048SOL     OW35779   3.453   3.676   1.061 -0.0302  0.1519  1.1096
 8048SOL    HW135780   3.388   3.747   1.056 -0.9096 -0.4691  3.6646
 8048SOL    HW235781   3.529   3.714   1.105  0.3944  0.3418  0.2067
 8049SOL     OW35782   0.815   4.472  13.581  0.0472 -0.4616 -0.1546
 8049SOL    HW135783   0.731   4.513  13.603  0.1608 -1.2235  1.7668
 8049SOL    HW235784   0.850   4.536  13.519 -2.6802 -0.1778 -1.3975
 8050SOL     OW35785   3.046   0.203   8.484  0.2228  0.1714 -0.1837
 8050SOL    HW135786   3.124   0.257   8.473  1.1817 -0.7633  2.0492
 8050SOL    HW235787   3.007   0.257   8.553 -0.1203 -2.1299  1.3990
 8051SOL     OW35788   2.523   2.562  14.729 -0.4974  0.9885  0.5930
 8051SOL    HW135789   2.550   2.600  14.646  1.5791 -0.3273  0.6664
 8051SOL    HW235790   2.497   2.471  14.713 -1.3637  0.9671  2.1008
 8052SOL     OW35791   0.968   4.302   6.481 -0.3300 -0.1531  0.4416
 8052SOL    HW135792   0.958   4.342   6.395  1.5236 -2.5683 -0.8965
 8052SOL    HW235793   0.889   4.251   6.501  0.8482 -2.1643 -0.0380
 8053SOL     OW35794   0.202   0.225   9.004 -0.2104  0.2282 -0.2035
 8053SOL    HW135795   0.290   0.188   9.004 -0.5557 -0.5740 -0.8377
 8053SOL    HW235796   0.199   0.270   8.919  1.0574  1.9959  0.6695
 8054SOL     OW35797   2.748   3.329   0.079 -0.3570 -0.6510 -0.3973
 8054SOL    HW135798   2.753   3.279   0.160  0.1502 -0.8936 -0.5816
 8054SOL    HW235799   2.750   3.422   0.101 -1.5360 -0.4719 -1.0336
 8055SOL     OW35800   2.273   1.007   2.200 -0.4480  0.0162 -0.3030
 8055SOL    HW135801   2.201   1.030   2.142 -1.4064 -1.8025  0.1648
 8055SOL    HW235802   2.300   0.925   2.158  0.0226 -0.1308  0.2819
 8056SOL     OW35803   4.294   0.227  15.603 -0.3308  0.1289  0.1556
 8056SOL    HW135804   4.256   0.216  15.516  0.1698  1.1002 -0.1821
 8056SOL    HW235805   4.377   0.266  15.577  0.6899  0.1945  3.5285
 8057SOL     OW35806   0.126   3.189   6.981  0.4433  0.5387  0.3938
 8057SOL    HW135807   0.033   3.211   6.983 -0.3605 -2.8611  0.2155
 8057SOL    HW235808   0.129   3.177   6.886 -1.2988 -1.6125  0.5918
 8058SOL     OW35809   1.184   2.833  10.867 -0.0148  0.5174  1.1427
 8058SOL    HW135810   1.130   2.758  10.840  1.0490  0.9631 -2.1945
 8058SOL    HW235811   1.128   2.901  10.831  0.3148 -0.0355 -0.4191
 8059SOL     OW35812   1.328   1.359  15.810 -0.1697 -0.1717 -0.4553
 8059SOL    HW135813   1.279   1.430  15.851  1.2556  0.4434  0.1662
 8059SOL    HW235814   1.287   1.279  15.844 -0.6150  0.4735  0.5181
 8060SOL     OW35815   2.415   3.715   0.835 -0.0427  0.3019 -0.2035
 8060SOL    HW135816   2.348   3.648   0.851 -0.2041  0.7521  1.0298
 8060SOL    HW235817   2.371   3.758   0.762  0.3642 -0.9411 -1.1765
 8061SOL     OW35818   2.421   2.044   3.694 -0.3456  0.3818 -0.2731
 8061SOL    HW135819   2.336   2.002   3.703  0.0591 -0.4150 -0.1309
 8061SOL    HW235820   2.470   1.966   3.668 -0.3369  0.4332 -0.4114
 8062SOL     OW35821   0.681   2.475  12.907  0.1440  0.2714  0.4294
 8062SOL    HW135822   0.656   2.567  12.920  0.2599  0.1765  1.3331
 8062SOL    HW235823   0.651   2.436  12.989 -0.7263  2.6479  1.2443
 8063SOL     OW35824   0.787   1.366   7.164 -0.6224  0.2205 -0.2363
 8063SOL    HW135825   0.710   1.311   7.176 -0.3070 -0.6545 -2.1919
 8063SOL    HW235826   0.860   1.314   7.197 -1.1106  1.1749  2.4060
 8064SOL     OW35827   1.006   1.748   7.865 -0.0564 -0.3144 -0.0258
 8064SOL    HW135828   0.997   1.661   7.826 -1.7042  0.8083 -2.1519
 8064SOL    HW235829   1.090   1.728   7.906 -0.3618 -1.2577  0.1351
 8065SOL     OW35830   2.860   1.580   3.657 -0.1471 -0.6670  0.1233
 8065SOL    HW135831   2.856   1.559   3.750  4.3999 -0.4843  0.3298
 8065SOL    HW235832   2.940   1.537   3.627 -0.4045 -1.0053 -0.0865
 8066SOL     OW35833   3.953   0.482  16.103  0.7475 -0.0161 -0.9772
 8066SOL    HW135834   4.040   0.445  16.087  1.0072  1.0047 -1.8921
 8066SOL    HW235835   3.893   0.435  16.044 -0.1278 -1.6171  1.1719
 8067SOL     OW35836   3.376   4.609   2.749  0.1918 -0.2045 -0.3024
 8067SOL    HW135837   3.379   4.529   2.696  0.2891 -0.6171  0.3208
 8067SOL    HW235838   3.469   4.631   2.750  0.2816 -0.5744 -0.5798
 8068SOL     OW35839   4.487   4.251   7.613  0.4513 -0.0159 -0.2274
 8068SOL    HW135840   4.468   4.344   7.607 -3.2050 -0.5995  2.4628
 8068SOL    HW235841   4.428   4.232   7.686 -0.4867  2.9509 -0.2268
 8069SOL     OW35842   2.407   3.131   6.887 -0.0721 -0.8434  0.3209
 8069SOL    HW135843   2.349   3.063   6.851 -0.3066 -0.2850 -0.3747
 8069SOL    HW235844   2.477   3.135   6.822 -0.9200 -0.6746 -0.5910
 8070SOL     OW35845   3.769   0.584   3.057  0.3942  0.1866 -0.8370
 8070SOL    HW135846   3.680   0.573   3.022 -0.1520  4.5535 -0.7783
 8070SOL    HW235847   3.767   0.676   3.084  0.5453 -0.1809  0.4148
 8071SOL     OW35848   2.079   2.187   7.117  0.0869  0.2388 -0.2252
 8071SOL    HW135849   2.145   2.227   7.060  0.8178 -0.6243  0.0235
 8071SOL    HW235850   2.097   2.211   7.208 -0.1489  0.8214 -0.3286
 8072SOL     OW35851   2.343   2.734   2.755  0.6682  0.1576  0.0256
 8072SOL    HW135852   2.297   2.697   2.679 -0.4123  3.2836 -0.8148
 8072SOL    HW235853   2.266   2.752   2.810  0.2338  0.1746 -0.5970
 8073SOL     OW35854   3.887   4.477   9.512  0.3415  0.5290 -0.1308
 8073SOL    HW135855   3.919   4.430   9.435  1.0974 -0.5017  0.8120
 8073SOL    HW235856   3.960   4.455   9.570 -0.1464 -0.0339  0.2770
 8074SOL     OW35857   4.688   3.605  12.168  0.3907 -0.5208 -0.5026
 8074SOL    HW135858   4.673   3.681  12.224 -0.7382 -0.2324 -1.1967
 8074SOL    HW235859   4.703   3.540  12.236  2.0067 -1.7842 -2.0819
 8075SOL     OW35860   2.730   2.245   6.950  0.4144  0.0159  0.5166
 8075SOL    HW135861   2.693   2.251   6.862 -0.0538  2.6873  0.8910
 8075SOL    HW235862   2.659   2.222   7.009 -0.1994  2.7731  0.8551
 8076SOL     OW35863   0.138   3.103   2.546 -0.0426  0.1177  0.0559
 8076SOL    HW135864   0.179   3.137   2.466 -0.1218 -0.2498 -0.1456
 8076SOL    HW235865   0.210   3.073   2.601  0.9941 -1.1629 -2.0069
 8077SOL     OW35866   1.194   1.362   9.366 -0.4275  0.3941 -0.4091
 8077SOL    HW135867   1.116   1.413   9.345 -0.6430  1.0477  1.9289
 8077SOL    HW235868   1.275   1.412   9.354 -0.1531 -0.3535 -1.6297
 8078SOL     OW35869   1.772   3.966   4.997 -0.2708 -0.3952 -0.3052
 8078SOL    HW135870   1.761   4.019   4.918 -0.8005 -0.3782 -0.2199
 8078SOL    HW235871   1.683   3.933   5.012  0.5192 -1.8588  1.1529
 8079SOL     OW35872   3.393   1.141   6.392 -0.6519  0.0161 -0.1143
 8079SOL    HW135873   3.395   1.237   6.395 -0.8031 -0.0409  1.8960
 8079SOL    HW235874   3.362   1.112   6.478  1.2127  0.1865  0.5998
 8080SOL     OW35875   2.795   1.344   4.972 -0.1183  0.2980  0.0503
 8080SOL    HW135876   2.857   1.413   4.947  2.0232 -1.5761  0.2536
 8080SOL    HW235877   2.848   1.304   5.041 -1.1993  0.4325  0.9645
 8081SOL     OW35878   4.306   2.269  11.610 -0.0051 -0.1477  0.0784
 8081SOL    HW135879   4.273   2.331  11.545  1.0117 -0.4040 -0.6883
 8081SOL    HW235880   4.325   2.326  11.684 -2.8448  0.4502  0.3248
 8082SOL     OW35881   4.498   2.344   6.132 -0.5240  0.0546  0.2867
 8082SOL    HW135882   4.549   2.268   6.103 -0.8796  0.6321 -1.8383
 8082SOL    HW235883   4.517   2.408   6.064  1.7647  0.7283  1.5639
 8083SOL     OW35884   2.725   3.318   1.204  0.6189  0.0307 -0.6233
 8083SOL    HW135885   2.760   3.248   1.259 -1.2710 -0.0070  0.5359
 8083SOL    HW235886   2.768   3.384   1.258  0.7474 -1.4087  1.0214
 8084SOL     OW35887   2.607   3.208   9.232  0.4397 -0.1088 -0.5558
 8084SOL    HW135888   2.642   3.290   9.268  1.9559 -1.9305  2.1858
 8084SOL    HW235889   2.516   3.226   9.255  0.4607 -0.6260 -0.0754
 8085SOL     OW35890   3.248   4.122   7.566  0.2040  0.0529 -0.0369
 8085SOL    HW135891   3.185   4.156   7.629 -2.1988 -0.4389 -2.2051
 8085SOL    HW235892   3.264   4.034   7.600 -1.3201  0.3789  1.5008
 8086SOL     OW35893   1.873   4.673   7.644  0.0171  0.1480  0.1318
 8086SOL    HW135894   1.881   4.708   7.555 -2.0190  0.3430  0.0045
 8086SOL    HW235895   1.880   0.015   7.698 -0.7627  0.7036 -0.5612
 8087SOL     OW35896   2.548   2.120  16.291  0.0296 -0.3856  0.3218
 8087SOL    HW135897   2.589   2.169  16.362 -0.3340  2.4690 -1.4516
 8087SOL    HW235898   2.507   2.183  16.232  0.6890  1.1677  1.5472
 8088SOL     OW35899   0.085   4.383   5.043  0.4615 -0.8191 -0.0680
 8088SOL    HW135900   0.174   4.355   5.066  0.5463  0.3382  0.9671
 8088SOL    HW235901   0.054   4.320   4.978  2.0642 -1.1862 -0.4981
 8089SOL     OW35902   0.490   3.220   4.255 -0.0373  0.2999 -0.2232
 8089SOL    HW135903   0.512   3.180   4.171  2.0180 -0.3417  0.6147
 8089SOL    HW235904   0.480   3.312   4.231 -2.6668  0.6711  2.2450
 8090SOL     OW35905   1.836   1.241   1.366 -1.0862 -0.4970 -0.0690
 8090SOL    HW135906   1.893   1.170   1.395 -0.1114 -0.7440 -2.6776
 8090SOL    HW235907   1.804   1.262   1.454 -0.3824  0.6285 -0.0818
 8091SOL     OW35908   3.229   2.739   9.221 -0.0401 -0.0600  0.1828
 8091SOL    HW135909   3.199   2.736   9.312 -1.0667 -2.2786 -0.2338
 8091SOL    HW235910   3.197   2.827   9.204  0.6878 -0.1256 -1.4826
 8092SOL     OW35911   3.232   2.989  14.834  0.1664 -0.1468 -0.0317
 8092SOL    HW135912   3.263   2.951  14.752  2.6855  1.6142  0.0863
 8092SOL    HW235913   3.194   2.916  14.883  1.3180  0.2305  1.4390
 8093SOL     OW35914   0.162   1.639   8.737  0.0123 -0.0967 -0.9714
 8093SOL    HW135915   0.087   1.696   8.757 -0.5031 -1.4547  1.0378
 8093SOL    HW235916   0.229   1.686   8.788 -2.0722  2.9254 -1.0150
 8094SOL     OW35917   4.022   3.463   7.252  0.3591 -0.3872 -0.4850
 8094SOL    HW135918   4.029   3.551   7.216 -1.4334 -0.0445  0.0101
 8094SOL    HW235919   3.930   3.451   7.276  0.1873  4.3001  1.1585
 8095SOL     OW35920   2.272   1.535  13.405 -0.7280 -0.2487 -0.0590
 8095SOL    HW135921   2.179   1.555  13.393 -0.1186  2.4614 -0.4228
 8095SOL    HW235922   2.299   1.537  13.313  0.8395 -1.6235  0.3723
 8096SOL     OW35923   0.154   1.639  13.342  0.1073  0.4593  0.0422
 8096SOL    HW135924   0.062   1.653  13.365  0.3525  1.7637  0.2208
 8096SOL    HW235925   0.151   1.544  13.351 -1.6931  0.4668 -0.4224
 8097SOL     OW35926   2.961   2.749   0.794 -0.1889  0.5197  0.1401
 8097SOL    HW135927   2.966   2.843   0.773  1.8614  0.7957  1.8259
 8097SOL    HW235928   2.997   2.714   0.712 -0.2805  0.0118  0.3229
 8098SOL     OW35929   0.862   0.803   9.810 -0.1709 -0.1062 -0.3435
 8098SOL    HW135930   0.924   0.862   9.768  0.3733 -0.3127  0.1566
 8098SOL    HW235931   0.811   0.868   9.857  2.2411  0.8283  1.0101
 8099SOL     OW35932   3.568   4.087  17.168 -0.7579  0.1729 -0.4216
 8099SOL    HW135933   3.544   4.159  17.225 -0.5367 -0.9212  1.0507
 8099SOL    HW235934   3.652   4.110  17.128 -2.0813  2.9126 -1.5817
 8100SOL     OW35935   4.528   4.678   9.071 -0.2472 -0.5014  0.3462
 8100SOL    HW135936   4.575   4.701   8.991 -1.8119 -1.6113 -0.8947
 8100SOL    HW235937   4.566   0.000   9.135 -1.1800  0.7646 -0.2517
 8101SOL     OW35938   4.482   0.314   9.044 -0.5126  0.4370  0.1270
 8101SOL    HW135939   4.393   0.332   9.075  0.2314  1.6380  1.5495
 8101SOL    HW235940   4.504   0.400   9.009  0.2634 -0.1659 -0.8742
 8102SOL     OW35941   3.156   2.805   6.573 -0.2952  0.1850 -0.8178
 8102SOL    HW135942   3.152   2.729   6.631 -2.0396  1.1352  0.2977
 8102SOL    HW235943   3.066   2.835   6.583 -0.3152  0.5270 -1.9868
 8103SOL     OW35944   2.632   4.548   8.776 -0.3504  0.0037  0.9180
 8103SOL    HW135945   2.560   4.486   8.761 -1.4801  1.5649 -0.0416
 8103SOL    HW235946   2.627   4.578   8.867  0.3255  1.0750  0.6018
 8104SOL     OW35947   4.414   0.261   2.450 -0.5077 -0.0262 -0.2867
 8104SOL    HW135948   4.424   0.259   2.355 -1.8580  0.0103 -0.4386
 8104SOL    HW235949   4.399   0.168   2.466  1.0537 -0.0879  0.7322
 8105SOL     OW35950   0.228   1.194   8.125  0.2923  0.1275 -0.1468
 8105SOL    HW135951   0.189   1.237   8.201 -0.0210 -2.0628  0.9134
 8105SOL    HW235952   0.163   1.127   8.105  0.1857  0.5750 -1.3314
 8106SOL     OW35953   1.157   0.711  11.081  0.2054  0.2549 -0.3178
 8106SOL    HW135954   1.126   0.632  11.125 -0.1897  1.2916  1.2528
 8106SOL    HW235955   1.196   0.760  11.153 -2.4964  3.3164 -0.9534
 8107SOL     OW35956   1.586   2.098   8.932  0.1380  0.2371  0.4287
 8107SOL    HW135957   1.575   2.135   9.019 -0.1956 -1.6968  1.2175
 8107SOL    HW235958   1.517   2.033   8.918 -0.7101  1.4513 -1.0128
 8108SOL     OW35959   2.852   0.423   3.094 -0.1097 -0.1633  0.6672
 8108SOL    HW135960   2.833   0.517   3.096 -0.0940 -0.1527  0.3329
 8108SOL    HW235961   2.765   0.383   3.085  0.1620  0.0366 -2.6067
 8109SOL     OW35962   3.359   2.449  15.580  0.0057  0.3709  1.1247
 8109SOL    HW135963   3.395   2.389  15.645  0.1506 -0.3104  0.4147
 8109SOL    HW235964   3.278   2.407  15.551  0.8135 -0.5553  0.1999
 8110SOL     OW35965   4.069   2.222   7.796  0.5414  0.1107  0.2941
 8110SOL    HW135966   4.082   2.178   7.880  0.0237  1.3310  1.0142
 8110SOL    HW235967   4.157   2.215   7.759 -0.7709 -3.2496 -2.1753
 8111SOL     OW35968   3.844   4.039   6.721 -0.5590  0.0159  0.2667
 8111SOL    HW135969   3.846   4.071   6.811  2.2080  0.2610  0.1085
 8111SOL    HW235970   3.792   4.095   6.664  0.6479 -0.0278 -0.8685
 8112SOL     OW35971   1.198   2.803   8.228 -0.1241  0.4343  0.0396
 8112SOL    HW135972   1.268   2.740   8.211  0.7195  1.0628  1.2154
 8112SOL    HW235973   1.178   2.773   8.317  2.3045 -0.3941  0.3069
 8113SOL     OW35974   0.947   3.135   3.016 -0.0389 -0.2611 -0.1904
 8113SOL    HW135975   0.923   3.061   2.961  1.3050 -1.0885  0.3592
 8113SOL    HW235976   0.997   3.184   2.952 -0.7070  0.8648  0.1389
 8114SOL     OW35977   1.892   2.998   4.531 -0.2050 -0.3596  0.1952
 8114SOL    HW135978   1.883   3.084   4.491  0.1307 -0.7380 -0.6762
 8114SOL    HW235979   1.815   2.948   4.503 -1.8125  1.7296  0.8411
 8115SOL     OW35980   0.815   2.108   5.774  0.8128 -0.5335  0.2488
 8115SOL    HW135981   0.834   2.046   5.704  0.6402 -1.0015  0.6141
 8115SOL    HW235982   0.851   2.055   5.845  1.6978 -2.4717 -1.6752
 8116SOL     OW35983   4.036   0.117   4.281 -0.2091 -0.1026 -0.2197
 8116SOL    HW135984   4.002   0.206   4.276  1.0087  0.1879 -2.9918
 8116SOL    HW235985   3.954   0.071   4.260  0.2645 -1.2020  0.3608
 8117SOL     OW35986   2.973   1.477  12.532 -0.1279 -0.3969 -0.1961
 8117SOL    HW135987   2.943   1.563  12.502 -0.8023 -1.0981 -1.5164
 8117SOL    HW235988   3.041   1.500  12.595 -0.2637  2.2835 -1.0369
 8118SOL     OW35989   0.442   1.102  15.857  0.9542 -0.5072  0.2101
 8118SOL    HW135990   0.419   1.167  15.791 -0.5939 -0.3062  0.9327
 8118SOL    HW235991   0.436   1.024  15.802  1.1850 -1.6110  1.7630
 8119SOL     OW35992   4.157   0.425  11.662  0.7185 -0.0904 -0.3468
 8119SOL    HW135993   4.223   0.358  11.681 -1.9112 -2.3550  0.7076
 8119SOL    HW235994   4.178   0.439  11.570  2.3932 -2.5721 -0.3682
 8120SOL     OW35995   3.843   3.651  16.182 -0.6132 -0.0229  0.0570
 8120SOL    HW135996   3.801   3.720  16.234  2.1298  1.9467 -0.3179
 8120SOL    HW235997   3.903   3.616  16.248  0.1818 -0.0368 -0.6698
 8121SOL     OW35998   4.070   1.721   5.755 -0.4610  0.3279 -0.6398
 8121SOL    HW135999   4.127   1.777   5.808 -1.0539  0.3425 -0.0016
 8121SOL    HW236000   4.041   1.783   5.688 -1.5759  1.7035  1.0892
 8122SOL     OW36001   1.155   0.786   4.624  0.8587 -0.1762  0.2276
 8122SOL    HW136002   1.194   0.854   4.569 -1.1495  2.2783  1.8780
 8122SOL    HW236003   1.071   0.769   4.581  0.6426  0.0469  0.5643
 8123SOL     OW36004   3.880   1.138  10.084  0.3106 -0.1895  0.2749
 8123SOL    HW136005   3.884   1.043  10.093 -0.2432 -0.5049 -2.5556
 8123SOL    HW236006   3.799   1.150  10.133  0.0197 -0.1037 -0.2238
 8124SOL     OW36007   3.255   0.222   6.638  0.0087 -0.1799  0.2329
 8124SOL    HW136008   3.166   0.191   6.652 -0.5240 -0.1722 -3.1371
 8124SOL    HW236009   3.237   0.316   6.642  0.4600 -0.0676 -0.2681
 8125SOL     OW36010   4.099   4.059   6.964 -0.2299 -0.4213  0.6565
 8125SOL    HW136011   4.181   4.093   6.999  0.4106 -1.2413 -0.0882
 8125SOL    HW236012   4.029   4.109   7.007  0.2104  0.7792 -0.0053
 8126SOL     OW36013   0.010   1.079   2.987 -0.8802 -0.6926  0.0667
 8126SOL    HW136014   4.666   1.108   3.029 -0.6835  1.9687 -1.4152
 8126SOL    HW236015   0.034   1.156   2.936 -1.4582 -0.1607  0.5964
 8127SOL     OW36016   1.450   1.484  16.305 -0.4744 -0.5198  0.1646
 8127SOL    HW136017   1.422   1.412  16.248 -1.6809 -0.1546  0.2907
 8127SOL    HW236018   1.545   1.490  16.308 -0.2996 -2.7964 -1.0496
 8128SOL     OW36019   0.939   2.775   6.462 -0.3790 -0.1109 -0.8597
 8128SOL    HW136020   0.858   2.775   6.513  1.5239 -0.3059  2.1512
 8128SOL    HW236021   0.944   2.694   6.411  0.1515 -0.4505 -0.2674
 8129SOL     OW36022   2.342   2.094   6.736  0.3006  0.7113  0.0336
 8129SOL    HW136023   2.299   2.050   6.663 -0.6437  1.0371  0.4054
 8129SOL    HW236024   2.356   2.022   6.798  1.2644  0.9396  0.0781
 8130SOL     OW36025   4.203   3.642   8.074 -0.3134 -0.4431  0.5366
 8130SOL    HW136026   4.239   3.670   7.990 -2.2295 -1.2282 -0.5602
 8130SOL    HW236027   4.155   3.719   8.103  0.4242 -0.2219  1.1535
 8131SOL     OW36028   1.362   0.608   4.217 -0.0459  0.2892  0.0484
 8131SOL    HW136029   1.328   0.530   4.172 -3.2975  0.7377  1.7228
 8131SOL    HW236030   1.430   0.628   4.153  1.0582  0.8497  1.3856
 8132SOL     OW36031   0.354   3.466   8.712 -0.0336 -0.3941  0.9268
 8132SOL    HW136032   0.326   3.507   8.793 -1.9391 -0.4875  0.3145
 8132SOL    HW236033   0.395   3.387   8.748  0.5259 -1.5002 -2.1671
 8133SOL     OW36034   4.043   3.523   5.153 -0.7583 -0.4566 -0.3224
 8133SOL    HW136035   4.105   3.481   5.093 -0.8312 -3.3246  1.5642
 8133SOL    HW236036   4.105   3.522   5.226 -0.4591 -1.9901 -0.6020
 8134SOL     OW36037   0.526   3.287  11.663  0.5561  0.3187 -0.8365
 8134SOL    HW136038   0.523   3.351  11.592  2.6412  1.1245 -0.2009
 8134SOL    HW236039   0.449   3.303  11.718  1.7180  1.1278  0.5783
 8135SOL     OW36040   4.098   3.974   9.076  0.1164 -0.7944 -0.3133
 8135SOL    HW136041   4.066   3.884   9.090  1.5555 -1.4047 -0.9027
 8135SOL    HW236042   4.135   3.954   8.990  0.5571 -0.7664 -0.1323
 8136SOL     OW36043   2.773   2.011   1.806  0.0918 -0.0899  0.1321
 8136SOL    HW136044   2.765   1.999   1.712 -1.3217  0.1287  0.2269
 8136SOL    HW236045   2.713   1.946   1.842 -0.8496  0.4677 -0.4598
 8137SOL     OW36046   2.925   0.849   6.843 -0.3177  0.2736  0.2101
 8137SOL    HW136047   2.948   0.826   6.933 -1.4712  1.9313  0.9090
 8137SOL    HW236048   3.010   0.864   6.802  0.5689 -0.3446  1.8220
 8138SOL     OW36049   4.168   2.638   3.487  0.3226  0.1408 -0.1501
 8138SOL    HW136050   4.258   2.644   3.519  0.9814  1.3492 -2.2460
 8138SOL    HW236051   4.176   2.568   3.422  0.2213 -1.5938  1.6981
 8139SOL     OW36052   3.487   0.211   3.981  0.1623 -0.0037  0.4055
 8139SOL    HW136053   3.507   0.236   3.890  0.5034  0.3472  0.5756
 8139SOL    HW236054   3.395   0.192   3.965  0.5503  0.9230 -3.1399
 8140SOL     OW36055   2.868   2.031  13.187  0.4588 -0.1952 -0.2002
 8140SOL    HW136056   2.909   2.029  13.101  1.2799 -0.1352  0.1880
 8140SOL    HW236057   2.869   1.938  13.212  0.4529 -0.3335 -0.7140
 8141SOL     OW36058   1.166   3.026   9.568  0.3613 -0.2447 -0.4353
 8141SOL    HW136059   1.195   2.975   9.492 -3.6699 -0.8452 -1.5346
 8141SOL    HW236060   1.196   2.969   9.640 -1.8072  1.5204  1.8448
 8142SOL     OW36061   2.518   4.464   7.614  0.3092 -0.4808 -0.1235
 8142SOL    HW136062   2.433   4.458   7.656  1.2234  2.0285  2.0724
 8142SOL    HW236063   2.584   4.420   7.668  1.7073  1.9583  0.1546
 8143SOL     OW36064   4.669   3.002  16.733  0.2674 -0.2376 -0.1034
 8143SOL    HW136065   0.018   2.988  16.773 -1.6365 -2.2722  3.2972
 8143SOL    HW236066   4.696   3.071  16.673  0.3787 -0.4462 -0.2931
 8144SOL     OW36067   2.998   4.117   2.439  0.8453 -0.0673  0.1948
 8144SOL    HW136068   2.996   4.032   2.482  0.2848 -0.4631 -0.6240
 8144SOL    HW236069   3.066   4.164   2.487 -1.5506  0.6523  2.8810
 8145SOL     OW36070   4.100   0.545   6.855  0.6309  0.1582  0.5590
 8145SOL    HW136071   4.076   0.588   6.937 -2.1789  0.1876 -0.2532
 8145SOL    HW236072   4.133   0.617   6.802 -2.7668  2.0958  1.0409
 8146SOL     OW36073   0.190   2.223   6.235 -0.4638 -0.0017 -0.3488
 8146SOL    HW136074   0.107   2.200   6.277  0.4022 -0.6899  1.0095
 8146SOL    HW236075   0.219   2.135   6.212  2.4914  0.4103  1.7783
 8147SOL     OW36076   2.737   0.209   0.687 -0.2512 -0.1908  0.3720
 8147SOL    HW136077   2.668   0.248   0.741 -2.3749 -1.2918 -1.5356
 8147SOL    HW236078   2.807   0.272   0.696  0.2735 -0.6620 -0.3845
 8148SOL     OW36079   0.650   0.543  12.098 -0.1167 -0.3120 -0.4502
 8148SOL    HW136080   0.596   0.599  12.042 -1.3733  0.2989  1.3563
 8148SOL    HW236081   0.646   0.464  12.044 -1.3160 -1.3799  1.1825
 8149SOL     OW36082   0.036   1.260   2.779  0.2894 -0.3557  0.5367
 8149SOL    HW136083   0.110   1.303   2.737  0.2367 -0.3599  0.4394
 8149SOL    HW236084   4.731   1.218   2.705  0.8674 -0.3092  0.1807
 8150SOL     OW36085   2.446   1.999   5.406  0.3406  0.1660  0.0116
 8150SOL    HW136086   2.398   1.917   5.410 -1.1008  0.9425 -1.5340
 8150SOL    HW236087   2.529   1.987   5.452  0.1191  1.6640  0.8082
 8151SOL     OW36088   4.724   1.527   1.781 -0.0167  0.1829  0.0208
 8151SOL    HW136089   4.718   1.449   1.835  2.0737 -0.9999 -1.4503
 8151SOL    HW236090   0.080   1.546   1.791 -0.0859  0.1208  0.7611
 8152SOL     OW36091   0.048   1.882   3.995 -0.2172  0.0957 -0.3538
 8152SOL    HW136092   0.001   1.901   4.077  2.2209  1.5628  0.6791
 8152SOL    HW236093   4.709   1.871   3.938 -0.6629  1.7290 -0.0532
 8153SOL     OW36094   3.261   2.027   3.699  0.6431 -0.2504 -0.4512
 8153SOL    HW136095   3.304   2.018   3.614 -0.9062  1.4558 -1.4293
 8153SOL    HW236096   3.253   1.938   3.734 -1.0982  1.7217  4.1397
 8154SOL     OW36097   0.867   2.697   0.599 -0.7368  0.0710  0.3199
 8154SOL    HW136098   0.867   2.602   0.610 -0.2879 -0.2593 -2.4645
 8154SOL    HW236099   0.784   2.712   0.554 -0.0371  0.5574 -0.8233
 8155SOL     OW36100   3.890   1.863   2.114 -0.6548 -1.1739  0.6740
 8155SOL    HW136101   3.810   1.900   2.078 -0.1642  0.3490  1.1269
 8155SOL    HW236102   3.954   1.932   2.095  0.3624 -2.6862 -1.2885
 8156SOL     OW36103   1.516   4.201   5.776  0.3160  0.0629  0.1249
 8156SOL    HW136104   1.559   4.141   5.716 -0.5506 -0.2007 -0.2415
 8156SOL    HW236105   1.578   4.274   5.772  1.3935 -0.9339 -0.9986
 8157SOL     OW36106   1.832   1.879   7.938  0.4024  0.3299  0.1019
 8157SOL    HW136107   1.803   1.823   8.011 -1.4355 -1.1688 -1.7730
 8157SOL    HW236108   1.892   1.828   7.885 -0.1451  0.3610 -0.5485
 8158SOL     OW36109   0.508   3.703   2.342  0.2213  0.6519  0.0371
 8158SOL    HW136110   0.481   3.743   2.425  0.6898  1.5763 -0.2542
 8158SOL    HW236111   0.554   3.775   2.298 -2.1841  2.2458  0.1501
 8159SOL     OW36112   3.986   4.499   3.564  0.1004 -0.0161 -0.4910
 8159SOL    HW136113   3.962   4.543   3.482  1.3966  0.9365 -0.3555
 8159SOL    HW236114   4.016   4.576   3.614  0.4987  0.6909 -1.8083
 8160SOL     OW36115   0.503   3.124   5.240 -0.4915 -0.8303 -0.0989
 8160SOL    HW136116   0.424   3.141   5.190 -0.4492  0.8307  0.4000
 8160SOL    HW236117   0.466   3.111   5.328 -0.4185  1.6405  0.3086
 8161SOL     OW36118   0.607   3.481  11.423 -0.3868  0.4524  0.9536
 8161SOL    HW136119   0.677   3.434  11.378  0.3958  1.2249  1.3704
 8161SOL    HW236120   0.651   3.565  11.434 -0.5536  0.2630  3.0849
 8162SOL     OW36121   0.620   2.945   2.206 -0.6327  0.3528  0.0211
 8162SOL    HW136122   0.631   2.898   2.289  2.5509 -2.2819 -1.8847
 8162SOL    HW236123   0.662   3.028   2.228  1.1756 -0.0043 -2.0926
 8163SOL     OW36124   1.490   0.000   2.027 -0.3954 -0.5465  0.5802
 8163SOL    HW136125   1.521   4.709   2.113 -0.4433 -0.2091  0.7085
 8163SOL    HW236126   1.423   4.670   2.011  0.0535 -0.8814  0.1225
 8164SOL     OW36127   3.503   3.904   1.670  0.3739  0.2951 -0.2304
 8164SOL    HW136128   3.429   3.952   1.707  0.7540 -0.0240  0.9591
 8164SOL    HW236129   3.496   3.925   1.577  0.4966 -3.1717 -1.0558
 8165SOL     OW36130   2.188   3.323   9.616  0.0531 -0.3226 -0.3178
 8165SOL    HW136131   2.116   3.267   9.586 -0.5972 -0.6386  1.8522
 8165SOL    HW236132   2.176   3.381   9.541 -1.9482  0.5460  0.6648
 8166SOL     OW36133   0.360   2.096  15.057 -0.3678 -0.2875 -0.4708
 8166SOL    HW136134   0.333   2.156  15.127  1.6352  1.1818 -0.9649
 8166SOL    HW236135   0.276   2.070  15.021  1.3631  0.1262 -4.7273
 8167SOL     OW36136   2.182   1.624   3.403 -0.5371 -0.5708 -0.0182
 8167SOL    HW136137   2.230   1.578   3.334  1.7092 -0.5516  1.5603
 8167SOL    HW236138   2.184   1.718   3.385 -1.8342 -0.5374  0.0319
 8168SOL     OW36139   3.862   4.009   3.511  0.1948  0.1666  0.1933
 8168SOL    HW136140   3.896   3.921   3.493 -1.0167 -1.0516  3.9915
 8168SOL    HW236141   3.936   4.069   3.499 -1.3679  1.9549 -0.5275
 8169SOL     OW36142   2.197   3.283  13.945  0.7297  0.2938 -0.0116
 8169SOL    HW136143   2.161   3.361  13.988  1.2003  1.2704 -1.3744
 8169SOL    HW236144   2.189   3.287  13.849 -1.2916 -0.8964  0.1236
 8170SOL     OW36145   3.466   4.675   5.549 -0.0602  0.0243  0.2401
 8170SOL    HW136146   3.408   4.599   5.552  1.0193 -0.7922  0.6715
 8170SOL    HW236147   3.441   4.712   5.464  3.8081 -1.0130 -1.3658
 8171SOL     OW36148   3.335   1.768   2.873 -0.1890 -0.3539 -0.2848
 8171SOL    HW136149   3.416   1.809   2.903  0.5231 -1.5154 -0.6154
 8171SOL    HW236150   3.271   1.839   2.875  0.6575  0.3668  1.5050
 8172SOL     OW36151   0.152   2.824   2.759 -0.4324  0.3579 -0.2446
 8172SOL    HW136152   0.177   2.901   2.811  0.0100 -0.5540  0.8972
 8172SOL    HW236153   0.171   2.756   2.823  2.1070  2.4804  1.2790
 8173SOL     OW36154   1.398   1.595   3.156  0.0589  0.8923 -0.2368
 8173SOL    HW136155   1.477   1.641   3.124 -2.1021  2.9456 -2.6229
 8173SOL    HW236156   1.392   1.622   3.248  0.5596  2.5809 -0.6870
 8174SOL     OW36157   1.658   1.471   7.149  0.0367 -0.0281 -0.7299
 8174SOL    HW136158   1.618   1.427   7.224  0.8844  1.1462  0.4268
 8174SOL    HW236159   1.616   1.557   7.156 -1.6015 -0.9752  1.0998
 8175SOL     OW36160   3.442   3.052   6.219 -0.0118 -0.4756 -0.5599
 8175SOL    HW136161   3.402   3.008   6.294  1.4477  2.9226  2.2145
 8175SOL    HW236162   3.369   3.056   6.157 -1.1621 -1.4799  0.7263
 8176SOL     OW36163   3.993   3.741   7.427  0.1896 -0.2425  0.1133
 8176SOL    HW136164   4.000   3.740   7.331  2.3892 -1.2236  0.2797
 8176SOL    HW236165   4.055   3.670   7.446  0.2575  0.4361  2.3881
 8177SOL     OW36166   2.593   2.125  16.837 -0.4693  0.3519 -0.7781
 8177SOL    HW136167   2.579   2.063  16.766  2.0893 -1.1855  0.0490
 8177SOL    HW236168   2.506   2.114  16.877 -0.6276  1.8176 -0.7119
 8178SOL     OW36169   4.294   3.753  15.340 -0.6812  0.2552 -0.0930
 8178SOL    HW136170   4.256   3.766  15.427 -0.7738 -1.4409  0.1298
 8178SOL    HW236171   4.347   3.832  15.330  1.6305 -1.2582  0.0140
 8179SOL     OW36172   3.708   3.017   5.773 -0.3819 -0.1154 -0.1349
 8179SOL    HW136173   3.716   3.112   5.779  1.3610 -0.2905  0.4208
 8179SOL    HW236174   3.735   2.982   5.858 -1.3529  0.3108  0.3492
 8180SOL     OW36175   1.854   3.794   8.537  0.0967 -0.5455 -0.8772
 8180SOL    HW136176   1.892   3.721   8.587 -0.5741  0.8156  1.6517
 8180SOL    HW236177   1.916   3.808   8.465 -0.9534  1.4758 -1.3591
 8181SOL     OW36178   0.444   4.707   8.764 -0.3276  0.6672 -0.2445
 8181SOL    HW136179   0.471   4.632   8.712  0.0785  1.7819 -1.6211
 8181SOL    HW236180   0.377   4.668   8.821 -2.0339 -0.0315 -2.7265
 8182SOL     OW36181   2.060   1.585   0.110  0.1725 -0.0375 -0.1711
 8182SOL    HW136182   2.022   1.534   0.039 -0.6052  0.4391 -0.0996
 8182SOL    HW236183   2.117   1.519   0.151  0.7924 -1.1869 -2.9101
 8183SOL     OW36184   3.512   3.174  13.074  0.1441 -0.3150  0.1484
 8183SOL    HW136185   3.477   3.127  13.150 -0.9978  0.9802  0.4327
 8183SOL    HW236186   3.566   3.100  13.045 -2.1615 -1.8689 -0.1469
 8184SOL     OW36187   0.387   2.270   7.790  0.5388  1.1439 -0.1892
 8184SOL    HW136188   0.387   2.259   7.694 -1.1746  2.0386 -0.2887
 8184SOL    HW236189   0.448   2.342   7.807  1.5677  0.2307  0.0100
 8185SOL     OW36190   0.559   3.008  16.211  0.0061 -0.2809 -0.2541
 8185SOL    HW136191   0.653   3.003  16.229 -0.4871 -1.0021  2.1235
 8185SOL    HW236192   0.564   2.998  16.116 -1.3580  1.5072 -0.5170
 8186SOL     OW36193   2.884   0.315  11.339  0.1131 -0.2829  0.4009
 8186SOL    HW136194   2.885   0.312  11.244 -0.1250  1.4495  0.3341
 8186SOL    HW236195   2.802   0.268  11.354  0.3117 -1.1762 -1.3636
 8187SOL     OW36196   4.555   4.317   3.466  0.1279 -0.5614 -0.3305
 8187SOL    HW136197   4.541   4.237   3.415 -1.5742 -1.9764  2.3651
 8187SOL    HW236198   4.633   4.290   3.515 -0.1621  1.3632  1.1709
 8188SOL     OW36199   0.801   2.006   6.756  0.4249 -0.0423 -0.2918
 8188SOL    HW136200   0.812   1.923   6.802  1.1543 -0.4977 -1.2956
 8188SOL    HW236201   0.762   2.065   6.821 -2.2197 -2.8764  0.7124
 8189SOL     OW36202   1.212   1.880   8.717 -0.1551  0.2157 -0.4348
 8189SOL    HW136203   1.151   1.851   8.649  0.0750  1.0072 -0.9683
 8189SOL    HW236204   1.224   1.968   8.683  0.9375  0.8265  1.5298
 8190SOL     OW36205   2.791   1.497   2.785  0.5576  0.1728  0.4248
 8190SOL    HW136206   2.728   1.462   2.848 -2.5506  2.1666 -1.5582
 8190SOL    HW236207   2.869   1.516   2.837  0.7230  1.3550 -0.2526
 8191SOL     OW36208   1.473   3.317   2.662  0.1063 -0.9102  0.3519
 8191SOL    HW136209   1.434   3.240   2.620 -0.3695 -1.1393  1.2050
 8191SOL    HW236210   1.534   3.273   2.721  1.3470 -1.0386 -1.0527
 8192SOL     OW36211   2.396   0.654   8.827  0.2709 -0.7661  0.1523
 8192SOL    HW136212   2.382   0.572   8.779  2.2948 -2.0074  1.6997
 8192SOL    HW236213   2.488   0.670   8.809  0.3888 -3.2908 -1.5945
 8193SOL     OW36214   1.163   0.135   4.863 -0.1348  0.2105 -0.4004
 8193SOL    HW136215   1.142   0.225   4.886 -1.0052 -0.2955  0.7740
 8193SOL    HW236216   1.219   0.104   4.935 -0.2421  0.1875 -0.3277
 8194SOL     OW36217   4.584   4.264   9.362  0.1265  0.3340 -0.1716
 8194SOL    HW136218   4.550   4.348   9.392 -2.2866 -1.0339  0.8749
 8194SOL    HW236219   4.678   4.273   9.379 -0.0955  3.7867 -0.6581
 8195SOL     OW36220   0.162   2.545   5.477 -0.3143 -0.3648 -0.4216
 8195SOL    HW136221   0.248   2.503   5.483  0.8759  2.1076  0.0985
 8195SOL    HW236222   0.169   2.579   5.388  1.7438 -0.5230 -0.3084
 8196SOL     OW36223   1.501   3.870   5.002  0.3780  0.2203 -0.3660
 8196SOL    HW136224   1.427   3.931   5.007  0.3663  0.1384  0.3566
 8196SOL    HW236225   1.477   3.808   5.070 -0.3970 -0.6191 -1.4117
 8197SOL     OW36226   3.655   2.704   4.630 -0.2285 -0.1174  0.0835
 8197SOL    HW136227   3.646   2.627   4.686  1.1294 -0.3657 -0.0345
 8197SOL    HW236228   3.589   2.768   4.659  0.4617 -0.3155  2.0877
 8198SOL     OW36229   3.903   1.264   4.382 -0.2489  0.3480  0.2926
 8198SOL    HW136230   3.913   1.239   4.290 -0.3023  4.0944 -0.7299
 8198SOL    HW236231   3.818   1.308   4.383 -0.9020 -0.9150  0.4015
 8199SOL     OW36232   0.543   3.954   3.485 -0.3773 -0.3191  0.5406
 8199SOL    HW136233   0.635   3.948   3.458  0.4033 -0.8425  3.3562
 8199SOL    HW236234   0.524   4.036   3.440  0.4299 -0.2883  0.2440
 8200SOL     OW36235   1.680   0.278   5.329  0.0241 -0.4605 -0.1957
 8200SOL    HW136236   1.769   0.260   5.301  0.5164 -0.1931  1.2077
 8200SOL    HW236237   1.685   0.259   5.423  1.0242 -2.0740 -0.5711
 8201SOL     OW36238   0.325   0.044   5.036  0.1293  0.3637 -0.5616
 8201SOL    HW136239   0.373   4.720   5.092 -0.9033  1.6287  1.7166
 8201SOL    HW236240   0.261   0.076   5.100  0.8429 -0.8409  0.7540
 8202SOL     OW36241   2.873   2.755  16.799 -0.1669 -0.6632  0.0169
 8202SOL    HW136242   2.781   2.762  16.827 -0.5910 -0.7270 -1.3306
 8202SOL    HW236243   2.905   2.839  16.831  0.2694 -0.4346 -1.0084
 8203SOL     OW36244   4.529   0.062   5.511  0.0771 -0.2273  0.2430
 8203SOL    HW136245   4.477   0.093   5.436  2.9682 -0.6941 -1.9379
 8203SOL    HW236246   4.536   4.705   5.500 -1.4055 -0.2122 -0.8477
 8204SOL     OW36247   1.665   3.804   4.731 -0.5159  0.1917 -0.2754
 8204SOL    HW136248   1.742   3.845   4.693  0.0177 -0.7178 -0.1645
 8204SOL    HW236249   1.643   3.869   4.797  0.2445 -0.2357  0.3998
 8205SOL     OW36250   4.456   0.620   9.853 -0.7970  0.2458  0.2773
 8205SOL    HW136251   4.525   0.685   9.867  0.3415 -0.4192 -2.3712
 8205SOL    HW236252   4.379   0.675   9.839 -0.8905 -0.1927 -0.8894
 8206SOL     OW36253   0.540   2.686  16.141 -0.2608  0.3465  0.2307
 8206SOL    HW136254   0.607   2.659  16.203 -1.2111 -1.6408  0.4099
 8206SOL    HW236255   0.593   2.743  16.086  0.3415  1.3094  1.8215
 8207SOL     OW36256   3.034   1.384  12.888 -0.4169 -0.0817 -0.5151
 8207SOL    HW136257   3.064   1.475  12.889  0.9875 -0.5408 -1.8545
 8207SOL    HW236258   3.068   1.350  12.971 -0.8457 -2.3314 -1.2539
 8208SOL     OW36259   2.207   3.128   3.198 -0.2531  0.3130  0.7690
 8208SOL    HW136260   2.193   3.129   3.103 -0.2480 -1.3411  0.7582
 8208SOL    HW236261   2.265   3.054   3.213  1.0762  1.4293  1.2321
 8209SOL     OW36262   4.214   1.044  10.425 -0.2387  0.2288 -0.1640
 8209SOL    HW136263   4.276   1.037  10.351  0.7602  2.1262  0.4833
 8209SOL    HW236264   4.277   1.057  10.496 -0.6502 -1.9405  0.5808
 8210SOL     OW36265   4.562   4.438   0.472 -0.0606  0.0600  0.2854
 8210SOL    HW136266   4.566   4.450   0.378  0.7002  1.0857  0.4590
 8210SOL    HW236267   4.468   4.448   0.488 -0.7757 -4.2271 -1.1032
 8211SOL     OW36268   0.880   3.722   5.681  0.5501  0.4366 -0.3354
 8211SOL    HW136269   0.880   3.754   5.591 -4.1127 -0.0755 -0.5486
 8211SOL    HW236270   0.869   3.798   5.739  1.2137 -0.0097  0.3748
 8212SOL     OW36271   0.155   4.285   5.774  0.2561  0.1955  0.5707
 8212SOL    HW136272   0.117   4.353   5.830 -1.7726 -0.4652  0.0043
 8212SOL    HW236273   0.166   4.216   5.840 -3.4574 -2.4043 -1.5568
 8213SOL     OW36274   4.210   2.487   4.506 -0.0063  0.2589 -0.2037
 8213SOL    HW136275   4.126   2.440   4.514  0.1750  0.4053  2.6508
 8213SOL    HW236276   4.256   2.441   4.436  1.8245  2.6428 -0.5347
 8214SOL     OW36277   1.398   3.578   8.821 -0.0817  0.5403 -0.3051
 8214SOL    HW136278   1.447   3.499   8.844 -1.6289 -0.5898 -0.9270
 8214SOL    HW236279   1.448   3.609   8.745 -0.1755  3.0865  0.6657
 8215SOL     OW36280   2.174   1.350   2.191  0.2464 -0.0022  0.0623
 8215SOL    HW136281   2.262   1.378   2.218  0.4539 -1.1402  0.5579
 8215SOL    HW236282   2.156   1.293   2.266 -0.4905  0.4188  0.2085
 8216SOL     OW36283   1.099   0.719   4.219 -0.5403 -0.3946 -0.6525
 8216SOL    HW136284   1.114   0.806   4.181  0.8385 -1.0709 -1.6589
 8216SOL    HW236285   1.186   0.680   4.216  0.2475  1.4254 -1.3556
 8217SOL     OW36286   1.469   3.213  15.845 -0.2608 -0.2186 -0.0240
 8217SOL    HW136287   1.388   3.223  15.794  0.5228 -2.1286 -1.6184
 8217SOL    HW236288   1.530   3.241  15.777 -1.4042 -1.6792 -1.6415
 8218SOL     OW36289   2.160   1.131   1.741  0.3795  0.4144 -0.2278
 8218SOL    HW136290   2.112   1.114   1.822 -0.2093  0.7580 -0.5051
 8218SOL    HW236291   2.252   1.123   1.767  0.1148  1.7751  1.1098
 8219SOL     OW36292   2.189   4.682   5.224  0.7999 -0.4214 -0.5585
 8219SOL    HW136293   2.251   4.638   5.283  0.1724  0.3780  0.7033
 8219SOL    HW236294   2.134   4.720   5.293  0.9737 -0.4573 -0.3981
 8220SOL     OW36295   0.833   4.119   7.736 -0.1001 -0.3665 -0.7447
 8220SOL    HW136296   0.829   4.082   7.824 -2.8862 -2.0282 -1.5693
 8220SOL    HW236297   0.913   4.074   7.706 -0.6075 -1.1111 -0.9863
 8221SOL     OW36298   1.644   0.454   9.416 -0.0999 -0.0312 -0.2820
 8221SOL    HW136299   1.576   0.520   9.410  1.1854  1.2939 -0.3860
 8221SOL    HW236300   1.722   0.509   9.407 -0.6083  0.8257  0.4912
 8222SOL     OW36301   1.580   3.690  13.354 -0.4232  0.4507 -0.4391
 8222SOL    HW136302   1.570   3.767  13.298  0.4639  0.7565 -0.1716
 8222SOL    HW236303   1.632   3.630  13.301 -2.6943 -1.0795 -0.9607
 8223SOL     OW36304   0.435   4.054   2.214  0.2960  0.1152 -0.0749
 8223SOL    HW136305   0.349   4.015   2.227  0.9969 -1.3812  0.0077
 8223SOL    HW236306   0.425   4.063   2.119 -1.7593 -1.4055 -0.0147
 8224SOL     OW36307   2.781   4.214   6.255 -0.0901  0.1991 -1.0330
 8224SOL    HW136308   2.859   4.241   6.207  0.4578  0.5209  0.0505
 8224SOL    HW236309   2.763   4.291   6.308 -3.1492 -0.6188 -0.8790
 8225SOL     OW36310   3.551   3.727  11.389  0.5232 -0.2442  0.5100
 8225SOL    HW136311   3.634   3.688  11.361  0.7435  1.3937 -1.1176
 8225SOL    HW236312   3.513   3.666  11.452 -2.0727  1.7483  0.8658
 8226SOL     OW36313   3.564   3.457   1.848  0.8724 -0.5998  0.3261
 8226SOL    HW136314   3.599   3.442   1.761 -0.0693  0.3797 -0.2096
 8226SOL    HW236315   3.631   3.420   1.905 -0.2038 -1.4788  1.0307
 8227SOL     OW36316   4.014   0.529  13.936  0.3202 -0.0228  0.2119
 8227SOL    HW136317   4.048   0.498  13.852 -0.7643 -0.0183 -0.2281
 8227SOL    HW236318   3.954   0.461  13.966 -0.0456 -0.6381 -1.9099
 8228SOL     OW36319   1.252   3.747  10.839  0.2410  0.3092 -0.1345
 8228SOL    HW136320   1.178   3.692  10.862  1.4927 -0.4889  2.0233
 8228SOL    HW236321   1.286   3.758  10.928  2.0506 -0.7553 -0.6844
 8229SOL     OW36322   3.961   3.128   9.564 -0.1414  0.1521  0.0217
 8229SOL    HW136323   3.886   3.178   9.532  1.5363  1.2153 -2.2251
 8229SOL    HW236324   4.037   3.186   9.562 -1.6750  2.0074 -3.0054
 8230SOL     OW36325   4.440   0.382  14.036  0.2334 -0.5215 -0.5456
 8230SOL    HW136326   4.359   0.331  14.030 -0.5419  0.5994  0.2245
 8230SOL    HW236327   4.440   0.420  14.124 -0.9658 -0.8440 -0.3946
 8231SOL     OW36328   2.242   0.973   5.953 -0.0483 -0.4879  0.2057
 8231SOL    HW136329   2.176   0.975   6.022 -1.0603 -1.2070 -0.7340
 8231SOL    HW236330   2.192   0.939   5.879  1.7123 -0.0427 -1.1858
 8232SOL     OW36331   2.677   2.965   9.918 -0.5055 -0.4023 -0.0985
 8232SOL    HW136332   2.600   2.909   9.929 -1.7551  1.3228 -0.1399
 8232SOL    HW236333   2.756   2.914   9.901  0.4687  1.4745 -1.1484
 8233SOL     OW36334   1.142   2.145   3.587  0.5080  0.6986  0.3598
 8233SOL    HW136335   1.100   2.110   3.508 -0.2515 -0.1341  1.1272
 8233SOL    HW236336   1.234   2.144   3.560  0.3351  2.5298 -0.2981
 8234SOL     OW36337   0.879   4.680  14.803  0.4762 -0.5444 -0.0164
 8234SOL    HW136338   0.952   4.669  14.864  0.2975 -0.9068  0.1283
 8234SOL    HW236339   0.811   4.644  14.861 -0.7576 -0.7264 -1.5852
 8235SOL     OW36340   1.188   0.564   0.873 -0.3070 -0.2175  0.8553
 8235SOL    HW136341   1.131   0.542   0.800  1.4692 -0.8938 -0.3193
 8235SOL    HW236342   1.139   0.627   0.926  1.9046  1.6990  0.6462
 8236SOL     OW36343   3.205   1.322   4.239  0.8217 -0.2266  0.1580
 8236SOL    HW136344   3.176   1.254   4.300 -0.9047  1.6881  1.5046
 8236SOL    HW236345   3.218   1.271   4.159  1.4819  0.1674  0.0108
 8237SOL     OW36346   4.287   0.693  17.356  0.2492 -0.2168  0.6934
 8237SOL    HW136347   4.286   0.787  17.370  2.1450  0.1940 -1.7167
 8237SOL    HW236348   4.230   0.659  17.424  0.0035  1.5802  1.3631
 8238SOL     OW36349   3.820   0.763   6.908 -0.0241 -0.1536  0.2184
 8238SOL    HW136350   3.850   0.694   6.965  1.7258  0.0252 -0.4950
 8238SOL    HW236351   3.738   0.723   6.878 -0.1680  0.5232 -0.3125
 8239SOL     OW36352   1.307   0.991  12.844  0.5380  0.5336  0.1771
 8239SOL    HW136353   1.255   1.072  12.842 -1.0192 -0.5049 -0.9089
 8239SOL    HW236354   1.391   1.026  12.874  0.1017  0.7579  1.1717
 8240SOL     OW36355   3.009   0.964   2.672 -0.1013  0.1291  0.1786
 8240SOL    HW136356   2.982   0.944   2.583  0.1845 -0.0868  0.1404
 8240SOL    HW236357   3.102   0.972   2.650 -0.4622 -0.5267 -1.5584
 8241SOL     OW36358   2.311   3.630   4.279 -0.1528  0.0423  0.3687
 8241SOL    HW136359   2.316   3.536   4.258 -0.7193 -0.1464  1.1071
 8241SOL    HW236360   2.217   3.640   4.291 -0.2725 -1.9823  1.0616
 8242SOL     OW36361   0.581   4.504   7.315 -0.0286 -0.1560  0.6664
 8242SOL    HW136362   0.596   4.547   7.231 -0.3731  0.3724  0.8757
 8242SOL    HW236363   0.521   4.555   7.370 -1.1577 -2.0263  1.1662
 8243SOL     OW36364   2.221   1.809   1.532 -0.2095 -0.2062  0.2411
 8243SOL    HW136365   2.256   1.892   1.499  1.1412 -0.5606  0.7759
 8243SOL    HW236366   2.280   1.791   1.605  0.1034  0.2952  0.1119
 8244SOL     OW36367   2.420   1.726   7.373 -0.3058  0.2344 -0.4770
 8244SOL    HW136368   2.494   1.747   7.430 -0.5400 -3.0605  1.0280
 8244SOL    HW236369   2.429   1.798   7.310  2.6887  0.4004  0.1112
 8245SOL     OW36370   1.218   3.843   1.111  0.3006 -0.2835  0.2399
 8245SOL    HW136371   1.171   3.920   1.080  0.6738 -0.7517 -1.4890
 8245SOL    HW236372   1.141   3.789   1.129 -0.4343  1.2014  1.4805
 8246SOL     OW36373   0.278   3.164   8.998 -0.4782 -0.2046 -0.4261
 8246SOL    HW136374   0.307   3.251   9.024  0.8862 -0.5930 -0.6391
 8246SOL    HW236375   0.272   3.169   8.902 -1.4095  0.1745 -0.3479
 8247SOL     OW36376   2.786   4.267  11.932  0.3341  0.4556  0.1015
 8247SOL    HW136377   2.739   4.184  11.920  0.1238  0.3851  1.4466
 8247SOL    HW236378   2.786   4.306  11.844 -0.4965  0.8612  0.2887
 8248SOL     OW36379   2.902   0.032   6.404 -0.7620 -0.4790 -0.3697
 8248SOL    HW136380   2.939   4.684   6.379  0.4015 -0.4316  1.1727
 8248SOL    HW236381   2.910   0.077   6.319 -1.6571  0.5413  0.0913
 8249SOL     OW36382   2.359   2.973  13.799 -0.0171  0.0186  0.0160
 8249SOL    HW136383   2.384   3.024  13.722 -2.0147  1.9644  0.6369
 8249SOL    HW236384   2.295   2.911  13.763  0.0646 -0.0752  0.0329
 8250SOL     OW36385   1.715   1.630  10.958 -0.1807 -0.4081 -0.0916
 8250SOL    HW136386   1.721   1.678  10.876  2.5631 -0.2437  0.2180
 8250SOL    HW236387   1.641   1.573  10.937 -0.3549 -0.8297  1.6548
 8251SOL     OW36388   2.385   0.107   5.571 -0.1090  0.5379 -0.4160
 8251SOL    HW136389   2.382   0.203   5.571  1.8330  0.6024  1.4899
 8251SOL    HW236390   2.389   0.085   5.664  1.7557  1.2355 -0.3362
 8252SOL     OW36391   3.374   4.613   8.040  0.4801 -0.2183 -0.0673
 8252SOL    HW136392   3.444   4.548   8.046  0.8167  0.2692  1.2051
 8252SOL    HW236393   3.418   4.697   8.037 -1.6062  0.8858  0.0980
 8253SOL     OW36394   0.702   3.396  16.353 -0.1745 -0.1936  0.2833
 8253SOL    HW136395   0.658   3.468  16.309 -0.3546  0.3054  1.2746
 8253SOL    HW236396   0.631   3.331  16.351 -0.2176 -0.0650 -1.7917
 8254SOL     OW36397   3.299   4.317   0.428  0.9230  0.0525 -1.1313
 8254SOL    HW136398   3.392   4.297   0.440  0.7516  0.9962  1.6376
 8254SOL    HW236399   3.278   4.268   0.348 -0.6329 -0.4537 -0.4059
 8255SOL     OW36400   2.113   0.273  15.410 -0.6561  0.0564 -0.0212
 8255SOL    HW136401   2.174   0.238  15.475 -0.1674 -1.5571 -1.3542
 8255SOL    HW236402   2.051   0.316  15.469  1.0335  2.3040  0.1201
 8256SOL     OW36403   1.025   2.004   2.368 -0.2804  0.5748 -0.0141
 8256SOL    HW136404   0.973   1.965   2.298 -2.7472  1.6378  1.2049
 8256SOL    HW236405   0.949   2.044   2.411  1.0591  1.7295  1.2997
 8257SOL     OW36406   4.128   4.477   6.375 -0.1017  0.5462  0.2180
 8257SOL    HW136407   4.106   4.472   6.468 -0.3949 -1.3808  0.0572
 8257SOL    HW236408   4.070   4.546   6.344  0.7655  0.3661 -1.8230
 8258SOL     OW36409   4.596   1.500  16.425 -0.1843  0.1853 -0.2349
 8258SOL    HW136410   4.651   1.422  16.420  0.2451  0.3690  1.6047
 8258SOL    HW236411   4.577   1.520  16.333 -3.5268  0.4434  0.5009
 8259SOL     OW36412   0.399   0.388   7.965  0.4719 -0.3818  0.5516
 8259SOL    HW136413   0.477   0.379   7.910 -0.6269  0.2528 -1.1140
 8259SOL    HW236414   0.334   0.375   7.897 -0.1506  1.0102  0.8801
 8260SOL     OW36415   3.021   2.385  13.558  0.0366  0.1497 -0.2438
 8260SOL    HW136416   2.991   2.322  13.492  2.3553 -0.9073 -0.2860
 8260SOL    HW236417   2.942   2.386  13.611  0.6428  1.2263  0.6388
 8261SOL     OW36418   4.451   1.336  13.562 -0.2871 -0.5160  0.0658
 8261SOL    HW136419   4.483   1.354  13.650 -0.6666 -3.1195  0.7467
 8261SOL    HW236420   4.365   1.378  13.567 -1.0281 -2.1655  0.9875
 8262SOL     OW36421   1.209   4.047  12.891 -0.3465  0.0563  0.3264
 8262SOL    HW136422   1.272   4.115  12.866 -0.1574 -0.1319  0.2919
 8262SOL    HW236423   1.250   4.016  12.972  1.2022  3.7073  0.9541
 8263SOL     OW36424   0.736   1.382  16.196  0.5669  0.1525 -0.1566
 8263SOL    HW136425   0.747   1.290  16.174 -2.0530 -0.9126  3.0444
 8263SOL    HW236426   0.827   1.408  16.205 -0.4327  3.1764  1.3701
 8264SOL     OW36427   1.207   1.845   3.136 -0.4687 -0.0180  0.5418
 8264SOL    HW136428   1.138   1.841   3.202 -0.7593  0.4983  0.2602
 8264SOL    HW236429   1.282   1.884   3.181 -1.2155 -0.7651  2.4232
 8265SOL     OW36430   2.805   1.691   8.318 -0.7058  0.1940  0.1257
 8265SOL    HW136431   2.798   1.714   8.411 -0.9384  0.6873 -0.0122
 8265SOL    HW236432   2.867   1.618   8.317 -2.5377 -1.3674  0.4180
 8266SOL     OW36433   4.092   3.368   2.270 -0.3358  0.6621  0.1534
 8266SOL    HW136434   4.120   3.389   2.359  3.3940  0.1714 -0.9083
 8266SOL    HW236435   4.058   3.455   2.247 -1.4847  0.4464  1.0389
 8267SOL     OW36436   3.835   4.261   2.998 -0.1031  0.3236  0.0140
 8267SOL    HW136437   3.814   4.181   3.046 -2.6849  0.7085 -0.5154
 8267SOL    HW236438   3.800   4.323   3.061  0.1323  1.4102 -0.9197
 8268SOL     OW36439   1.391   3.377   9.358  0.3423  0.3720 -0.0910
 8268SOL    HW136440   1.485   3.388   9.368  0.7232 -2.1767 -0.8908
 8268SOL    HW236441   1.353   3.363   9.445 -0.3836 -0.1393 -0.4895
 8269SOL     OW36442   3.655   1.045   5.681  0.1506 -0.0840  0.0974
 8269SOL    HW136443   3.564   1.049   5.710  0.1577 -2.2898  0.3742
 8269SOL    HW236444   3.681   1.133   5.707  2.7962 -0.4856 -1.1678
 8270SOL     OW36445   4.552   2.232   1.754  0.6682 -0.3624 -0.3243
 8270SOL    HW136446   4.497   2.183   1.693  0.9469 -0.7752 -0.2468
 8270SOL    HW236447   4.484   2.292   1.786  1.1073 -0.2342  0.3705
 8271SOL     OW36448   0.563   0.121   8.979 -0.7566 -0.0549  0.6304
 8271SOL    HW136449   0.521   0.052   8.928 -0.5788 -1.6350  2.6202
 8271SOL    HW236450   0.626   0.067   9.026 -1.2042 -0.8637  0.2985
 8272SOL     OW36451   2.682   3.135   6.386 -0.8542  0.1445  0.5637
 8272SOL    HW136452   2.674   3.043   6.359  0.9049 -0.0968  0.8564
 8272SOL    HW236453   2.648   3.131   6.475 -1.0589  1.1012  0.5222
 8273SOL     OW36454   0.910   2.348   9.383  0.4640 -0.1389 -0.2564
 8273SOL    HW136455   0.867   2.276   9.337  0.8357 -0.8559  0.5253
 8273SOL    HW236456   1.003   2.329   9.375  0.2349 -1.1165 -0.6109
 8274SOL     OW36457   0.323   0.326   1.762 -0.3374  0.5927 -0.6399
 8274SOL    HW136458   0.328   0.353   1.670  0.7138  2.2376 -0.0942
 8274SOL    HW236459   0.287   0.408   1.796 -0.8891 -0.3039  0.8913
 8275SOL     OW36460   1.034   3.648   2.222 -0.2898 -0.3306  0.1124
 8275SOL    HW136461   1.121   3.675   2.252 -1.4307  0.2602  2.8250
 8275SOL    HW236462   1.049   3.655   2.127 -1.3270  0.6221  0.0107
 8276SOL     OW36463   1.959   1.001  10.469 -0.5229 -0.3248  0.1961
 8276SOL    HW136464   2.015   1.016  10.545  1.4132 -2.4171 -0.8064
 8276SOL    HW236465   1.953   1.090  10.435  1.6856 -0.0137  0.5927
 8277SOL     OW36466   0.552   3.646   6.621  0.0409 -0.3952  0.4090
 8277SOL    HW136467   0.459   3.636   6.641 -0.3017  0.6567 -0.6672
 8277SOL    HW236468   0.592   3.692   6.695 -1.2113 -0.9946  1.4542
 8278SOL     OW36469   2.566   0.778   2.832  0.4683  0.2292 -0.0110
 8278SOL    HW136470   2.513   0.743   2.903  1.4571 -1.0372  0.0982
 8278SOL    HW236471   2.523   0.863   2.825 -2.1722 -0.9510  1.9367
 8279SOL     OW36472   2.577   3.253   2.588 -0.0109 -0.0274  0.2142
 8279SOL    HW136473   2.547   3.163   2.601  0.6983 -0.3871 -0.6357
 8279SOL    HW236474   2.546   3.279   2.501 -2.0362 -0.3935  0.8041
 8280SOL     OW36475   0.078   4.015  17.712 -0.1046 -0.7208  0.2402
 8280SOL    HW136476   0.029   4.091  17.745 -0.6518 -0.9453 -0.0600
 8280SOL    HW236477   0.017   3.960  17.663 -0.2624  0.1045 -0.5015
 8281SOL     OW36478   1.768   1.510   9.492  0.0342 -0.6777  0.1167
 8281SOL    HW136479   1.779   1.599   9.460  0.0324 -0.4739  0.6905
 8281SOL    HW236480   1.819   1.450   9.437  0.4636 -0.2315  0.0314
 8282SOL     OW36481   1.871   1.882  15.707  0.1947  0.1421 -0.3029
 8282SOL    HW136482   1.793   1.827  15.716  0.3528 -0.1694 -0.8328
 8282SOL    HW236483   1.912   1.890  15.793 -0.0777 -2.8943  0.0867
 8283SOL     OW36484   1.530   3.932   9.877 -0.1676 -0.1730 -0.4855
 8283SOL    HW136485   1.579   3.955   9.798 -0.3422 -2.3644 -1.2051
 8283SOL    HW236486   1.500   3.844   9.857 -0.1359 -0.5485  1.1225
 8284SOL     OW36487   1.863   2.047   6.010  0.5041  0.5351 -0.4057
 8284SOL    HW136488   1.956   2.070   6.011  0.7035 -0.3900  2.0624
 8284SOL    HW236489   1.826   2.119   5.959  2.0239  0.7406 -1.2216
 8285SOL     OW36490   4.108   1.843  12.154  0.1498 -0.1010  0.3864
 8285SOL    HW136491   4.121   1.821  12.062 -0.5183 -1.8400  0.7118
 8285SOL    HW236492   4.024   1.889  12.149 -0.3061 -1.1574 -1.9713
 8286SOL     OW36493   1.546   3.563  15.997  0.4706  0.2276  0.0137
 8286SOL    HW136494   1.611   3.533  16.061  0.2404 -2.1359 -0.8537
 8286SOL    HW236495   1.485   3.490  16.005  0.4694  0.4504  1.9735
 8287SOL     OW36496   2.332   3.214   2.278 -0.3071 -0.1321 -0.1543
 8287SOL    HW136497   2.290   3.212   2.192  1.3699  0.6417 -0.9971
 8287SOL    HW236498   2.411   3.168   2.247  0.1615 -0.4029  1.4135
 8288SOL     OW36499   4.219   3.050   9.272  0.1976  0.2028  0.2749
 8288SOL    HW136500   4.209   3.011   9.185 -1.8771  0.4047  0.4350
 8288SOL    HW236501   4.216   3.146   9.264  0.6795  0.3955  2.5640
 8289SOL     OW36502   0.444   3.967   1.147  0.9278  0.4022  0.3750
 8289SOL    HW136503   0.495   4.028   1.200  1.4106  1.5547 -1.4327
 8289SOL    HW236504   0.450   3.899   1.214  0.7749 -1.9394 -1.9701
 8290SOL     OW36505   2.365   4.714  11.292  0.3609  0.3899 -0.0359
 8290SOL    HW136506   2.277   4.734  11.325  1.5349  0.6380  2.9596
 8290SOL    HW236507   2.415   4.708  11.373 -0.8453  1.3701  0.7712
 8291SOL     OW36508   0.949   2.065   8.871  0.3292 -0.4966 -0.2922
 8291SOL    HW136509   0.947   1.998   8.802 -2.0746 -2.7107  1.9388
 8291SOL    HW236510   0.919   2.138   8.818 -1.2820 -1.4026 -0.6380
 8292SOL     OW36511   3.159   4.489   8.913 -0.0126  0.2915  0.1262
 8292SOL    HW136512   3.143   4.564   8.971 -1.2774  0.6665 -0.7255
 8292SOL    HW236513   3.090   4.486   8.847  0.9670 -1.5992 -0.8109
 8293SOL     OW36514   2.703   2.964   5.254  0.0575  0.1826 -0.3128
 8293SOL    HW136515   2.643   2.905   5.209  1.6391 -0.7706 -1.1882
 8293SOL    HW236516   2.768   2.904   5.289  0.9110  0.0030 -2.2282
 8294SOL     OW36517   1.260   2.167   2.352  0.5528  0.6370 -0.3086
 8294SOL    HW136518   1.303   2.112   2.287  0.0711 -0.9347  0.7038
 8294SOL    HW236519   1.184   2.114   2.375  0.0739  2.4287  2.2609
 8295SOL     OW36520   3.059   0.668   2.374 -0.6617  0.0113 -0.1687
 8295SOL    HW136521   3.135   0.637   2.325 -0.6853 -0.2176 -0.0626
 8295SOL    HW236522   2.993   0.598   2.376 -0.2592 -0.3791 -0.6375
 8296SOL     OW36523   3.227   0.681   8.208  0.0076  0.2589 -0.3975
 8296SOL    HW136524   3.181   0.706   8.288 -0.9275  0.8849 -1.1305
 8296SOL    HW236525   3.313   0.719   8.226  0.4436 -1.2465  0.7796
 8297SOL     OW36526   1.182   3.344   1.053  0.3070  0.0987  0.3657
 8297SOL    HW136527   1.101   3.353   1.002  0.0877  0.8061  0.8381
 8297SOL    HW236528   1.228   3.397   0.988  0.9692 -2.6220 -1.4008
 8298SOL     OW36529   3.865   2.523   5.306  0.1030  0.8668 -0.1538
 8298SOL    HW136530   3.886   2.528   5.213 -0.1520 -0.2670 -0.2676
 8298SOL    HW236531   3.843   2.615   5.319  0.7698  0.9739  0.2146
 8299SOL     OW36532   0.181   4.059   5.996 -0.3321  0.0859 -0.1413
 8299SOL    HW136533   0.125   4.105   6.058  1.4457 -0.1372  1.6210
 8299SOL    HW236534   0.114   4.012   5.947  1.0654 -1.7381 -0.2792
 8300SOL     OW36535   3.043   4.000  13.630 -0.1717 -0.1592 -0.8100
 8300SOL    HW136536   3.100   3.924  13.616 -1.1180 -1.1053  0.4878
 8300SOL    HW236537   3.103   4.057  13.679 -0.6324 -0.4353  0.0727
 8301SOL     OW36538   1.263   1.216   5.840  0.2507 -0.5980 -0.1088
 8301SOL    HW136539   1.244   1.222   5.934 -1.5426  0.5059 -0.5579
 8301SOL    HW236540   1.194   1.162   5.803 -0.9198 -0.5483  2.0288
 8302SOL     OW36541   2.792   0.933   7.580  0.1076 -0.3170 -0.1203
 8302SOL    HW136542   2.718   0.985   7.548  0.2259  0.0127  0.1411
 8302SOL    HW236543   2.859   1.001   7.588  1.2121 -1.5816  1.2789
 8303SOL     OW36544   4.002   2.935   3.312  0.3429  0.4361 -0.0696
 8303SOL    HW136545   3.956   2.990   3.376  0.8873 -0.5584  1.1613
 8303SOL    HW236546   3.978   2.853   3.355 -2.7063  0.9883 -0.7504
 8304SOL     OW36547   3.315   2.277   4.134  0.1158  0.5682  0.4526
 8304SOL    HW136548   3.305   2.257   4.041 -2.0945  0.1486  0.7819
 8304SOL    HW236549   3.398   2.326   4.127 -0.3670  0.7564 -3.5711
 8305SOL     OW36550   2.102   3.034   8.600 -0.4466  0.0745  0.6655
 8305SOL    HW136551   2.105   2.948   8.644 -0.4711  1.1674  2.8173
 8305SOL    HW236552   2.023   3.034   8.547 -0.2674  2.6832  0.4123
 8306SOL     OW36553   4.147   4.019   0.129 -0.3648  0.3369  0.2898
 8306SOL    HW136554   4.129   4.081   0.058  0.1815  0.5214  0.3084
 8306SOL    HW236555   4.242   4.023   0.120 -0.3167 -2.2482 -0.3620
 8307SOL     OW36556   0.055   0.857   4.658 -0.1511  0.1864  0.1700
 8307SOL    HW136557   4.706   0.817   4.668  0.5037 -0.7997  1.8422
 8307SOL    HW236558   0.039   0.921   4.589 -0.0080 -0.6763 -0.6553
 8308SOL     OW36559   1.865   4.487  14.025 -0.5791  0.1225 -0.9648
 8308SOL    HW136560   1.830   4.501  13.937 -0.7824 -0.6428 -1.0030
 8308SOL    HW236561   1.823   4.412  14.067  0.0803 -0.1890 -0.8455
 8309SOL     OW36562   0.568   1.131  17.308 -0.2657 -0.5611 -0.2917
 8309SOL    HW136563   0.497   1.154  17.249 -0.2171  3.3864  1.1774
 8309SOL    HW236564   0.641   1.158  17.251  1.2554 -1.1636  1.3660
 8310SOL     OW36565   2.065   0.372   7.924 -0.3363  0.1075  0.1152
 8310SOL    HW136566   2.109   0.453   7.951  1.0151 -0.1038 -1.4527
 8310SOL    HW236567   2.088   0.358   7.832  0.5367  0.4729  0.2784
 8311SOL     OW36568   3.653   0.294   4.970 -0.0122 -0.3352  0.1291
 8311SOL    HW136569   3.615   0.377   4.942  1.4312 -0.0180 -0.8914
 8311SOL    HW236570   3.680   0.264   4.883  0.7158 -1.3537  0.7096
 8312SOL     OW36571   3.337   3.891   9.077 -0.3594  0.1307 -0.3666
 8312SOL    HW136572   3.270   3.875   9.010 -0.2458 -1.8296 -0.0177
 8312SOL    HW236573   3.296   3.854   9.156  0.2043  0.1268 -0.0798
 8313SOL     OW36574   4.430   1.844   6.288 -0.0766  0.1218  0.2731
 8313SOL    HW136575   4.468   1.853   6.201 -0.0671  1.1304  0.3794
 8313SOL    HW236576   4.464   1.756   6.305  0.8579  0.3315 -0.5262
 8314SOL     OW36577   3.611   3.614   5.621  0.7624  0.4332 -0.7581
 8314SOL    HW136578   3.677   3.588   5.686 -2.0520 -0.2669  1.8055
 8314SOL    HW236579   3.605   3.531   5.573 -1.7553 -0.3686  0.9527
 8315SOL     OW36580   1.612   3.828   4.436 -0.1893 -0.0926  0.0113
 8315SOL    HW136581   1.526   3.863   4.461 -0.0847 -0.5522  1.0196
 8315SOL    HW236582   1.643   3.814   4.525  2.2334 -0.0933 -0.8262
 8316SOL     OW36583   4.276   4.381  15.993  0.3317  0.0251 -0.0840
 8316SOL    HW136584   4.253   4.344  15.908  0.4159  0.7518 -0.4185
 8316SOL    HW236585   4.358   4.339  16.018  0.8120 -0.0796 -1.8921
 8317SOL     OW36586   1.729   1.651   6.282  0.6297 -0.0653  0.4638
 8317SOL    HW136587   1.764   1.609   6.360  3.0279 -0.9951 -1.1153
 8317SOL    HW236588   1.761   1.586   6.220 -0.6139 -1.1033  0.9269
 8318SOL     OW36589   4.671   1.695  17.332  0.1484 -0.1358 -0.6374
 8318SOL    HW136590   4.620   1.676  17.253 -2.4111 -0.5573  1.1378
 8318SOL    HW236591   0.004   1.630  17.323  0.0372 -0.5153  1.3137
 8319SOL     OW36592   4.402   4.151   3.876  0.1194  0.5265  0.2229
 8319SOL    HW136593   4.475   4.212   3.871  1.0947 -0.6730 -0.0970
 8319SOL    HW236594   4.438   4.074   3.832 -1.1127  0.5490 -0.8390
 8320SOL     OW36595   1.450   1.885   1.941 -0.1193  0.4203  0.0242
 8320SOL    HW136596   1.395   1.856   1.868 -1.2995  0.1874  0.9976
 8320SOL    HW236597   1.413   1.827   2.009  0.3584  1.1680  0.9279
 8321SOL     OW36598   2.026   3.445  11.364  0.2331  0.0675  0.0766
 8321SOL    HW136599   2.062   3.390  11.294 -0.4498 -2.5957  1.7832
 8321SOL    HW236600   2.097   3.436  11.428  1.5875 -3.3172 -1.8978
 8322SOL     OW36601   4.642   3.714  17.738 -0.0998  0.0428 -0.0055
 8322SOL    HW136602   4.680   3.721  17.650  0.8299 -1.7489  0.2589
 8322SOL    HW236603   4.685   3.633   0.017  1.9307  1.3066  0.5436
 8323SOL     OW36604   0.263   0.477  13.577 -0.6148 -0.0293 -0.0813
 8323SOL    HW136605   0.276   0.504  13.668  1.8110 -1.7784  0.0662
 8323SOL    HW236606   0.218   0.393  13.590  0.5056 -0.9482 -2.1780
 8324SOL     OW36607   2.382   2.266   5.581 -0.0041  0.0097  0.3024
 8324SOL    HW136608   2.386   2.360   5.598 -2.5943  0.4852 -1.6648
 8324SOL    HW236609   2.301   2.268   5.530 -0.4150 -0.4558  0.9264
 8325SOL     OW36610   4.214   2.769   4.512  0.6690  0.3810  0.1577
 8325SOL    HW136611   4.195   2.676   4.505  0.6616  0.3734  0.2759
 8325SOL    HW236612   4.160   2.795   4.437 -1.8885  0.0249  1.8549
 8326SOL     OW36613   0.801   3.738  15.550  0.3158 -0.5733 -0.3645
 8326SOL    HW136614   0.707   3.739  15.568  0.4696 -0.7878  0.4346
 8326SOL    HW236615   0.806   3.785  15.467 -1.1306 -1.9583 -1.2544
 8327SOL     OW36616   3.096   3.144  14.045 -0.0554  0.6203 -0.3210
 8327SOL    HW136617   3.028   3.099  13.994  1.5837 -2.0790 -0.0685
 8327SOL    HW236618   3.077   3.234  14.017  0.6482  0.7593 -0.3296
 8328SOL     OW36619   1.783   2.996   3.202 -0.7990 -0.7254  0.3365
 8328SOL    HW136620   1.688   3.001   3.215 -0.9811 -1.0272 -0.9380
 8328SOL    HW236621   1.770   2.911   3.160  1.0025  0.1256 -1.9268
 8329SOL     OW36622   1.127   3.983  15.622  0.1599  0.2010 -0.0321
 8329SOL    HW136623   1.219   3.988  15.595  0.8984 -3.0676  1.9167
 8329SOL    HW236624   1.118   3.953  15.713  0.4144  0.2531  0.0117
 8330SOL     OW36625   1.291   1.371   3.042  0.1719  0.5053  0.2842
 8330SOL    HW136626   1.199   1.387   3.063 -0.0653 -3.7870  2.7078
 8330SOL    HW236627   1.335   1.441   3.090 -0.5934  0.1861  1.4608
 8331SOL     OW36628   1.988   2.769   6.764  0.1206 -0.2404  0.0649
 8331SOL    HW136629   1.926   2.791   6.693  0.9811 -1.2381 -0.9938
 8331SOL    HW236630   2.030   2.688   6.736  0.7377  0.1332 -0.0905
 8332SOL     OW36631   2.129   4.214   7.024 -0.1476 -0.1374 -0.2781
 8332SOL    HW136632   2.176   4.216   7.107 -0.3783 -0.5971 -0.1353
 8332SOL    HW236633   2.167   4.134   6.988  1.3674 -0.0689  1.1899
 8333SOL     OW36634   4.088   3.985   6.376  0.2393 -0.3451  0.1824
 8333SOL    HW136635   4.105   3.911   6.433 -2.0850  1.2423  2.9594
 8333SOL    HW236636   4.152   4.046   6.412 -1.6246  0.7547  1.6186
 8334SOL     OW36637   2.661   1.416   4.727 -0.8191 -0.3755 -0.2199
 8334SOL    HW136638   2.739   1.381   4.685 -0.2294  0.6403  0.0479
 8334SOL    HW236639   2.685   1.383   4.814 -1.7287  0.1120  0.2268
 8335SOL     OW36640   3.110   2.610   1.011  0.2635 -0.1098  0.1786
 8335SOL    HW136641   3.152   2.686   1.051 -1.2345 -0.3527  2.2525
 8335SOL    HW236642   3.066   2.647   0.935  0.2416  2.0802  1.2457
 8336SOL     OW36643   1.835   2.985   5.913  0.6417  0.2986  0.0929
 8336SOL    HW136644   1.754   3.031   5.937 -0.7908 -2.4100  0.4909
 8336SOL    HW236645   1.893   3.037   5.969  0.4846  1.7076 -1.0717
 8337SOL     OW36646   0.045   1.506  12.708  0.1140 -0.3163  0.2431
 8337SOL    HW136647   4.731   1.480  12.785  0.9744  2.7084  1.8175
 8337SOL    HW236648   4.713   1.505  12.642 -1.0218 -0.8486  1.4502
 8338SOL     OW36649   4.404   2.946  15.119  0.5485 -0.2284 -0.1363
 8338SOL    HW136650   4.433   2.977  15.033 -0.5908 -2.9629 -1.5020
 8338SOL    HW236651   4.368   2.859  15.105 -0.3158  0.0864  0.1355
 8339SOL     OW36652   2.452   2.347  15.680 -0.7938  0.1044 -0.0229
 8339SOL    HW136653   2.431   2.286  15.609 -1.8963 -1.1405  1.3739
 8339SOL    HW236654   2.457   2.285  15.753 -0.2570  2.0375  1.5526
 8340SOL     OW36655   2.100   3.084   3.652 -0.1201  0.1739 -0.1684
 8340SOL    HW136656   2.167   3.115   3.591  1.2561  0.1383  1.3374
 8340SOL    HW236657   2.093   3.162   3.707  0.1770  0.5249 -0.6335
 8341SOL     OW36658   2.221   0.799   2.808  0.1262 -0.2728 -0.0077
 8341SOL    HW136659   2.144   0.767   2.762  0.3640  0.7539 -1.0874
 8341SOL    HW236660   2.297   0.754   2.770  0.7994  2.1386 -1.4999
 8342SOL     OW36661   3.216   4.189   8.322  0.0520 -0.0168 -0.4543
 8342SOL    HW136662   3.215   4.095   8.303  1.7453  0.0642 -0.9016
 8342SOL    HW236663   3.209   4.221   8.232  0.0266  1.5336  0.1008
 8343SOL     OW36664   1.218   3.422  17.633 -0.4113  0.0698  0.2139
 8343SOL    HW136665   1.136   3.469  17.647 -0.5157 -0.0393 -0.0404
 8343SOL    HW236666   1.282   3.493  17.640 -0.7480  0.2231  1.9348
 8344SOL     OW36667   2.210   2.637   3.489 -0.3434  0.0531 -0.7183
 8344SOL    HW136668   2.280   2.583   3.451  1.1818  1.1781  0.4857
 8344SOL    HW236669   2.212   2.616   3.582 -2.6260  0.8758 -0.4864
 8345SOL     OW36670   2.979   2.980   3.304  0.1012  0.8297 -0.3225
 8345SOL    HW136671   2.952   3.058   3.354  0.3546  0.1074  0.9369
 8345SOL    HW236672   3.064   3.008   3.270  0.9952  1.4880  2.4820
 8346SOL     OW36673   2.493   0.881   6.372 -0.6431  0.0710 -0.0316
 8346SOL    HW136674   2.447   0.799   6.354  1.0499 -1.0400  0.6394
 8346SOL    HW236675   2.479   0.881   6.467  0.0007 -0.8759  0.0667
 8347SOL     OW36676   1.645   3.178   3.950 -0.1870  0.8092 -0.7450
 8347SOL    HW136677   1.603   3.252   3.907  0.6140  2.2586  0.9764
 8347SOL    HW236678   1.569   3.120   3.957 -0.3063  1.0250 -0.2995
 8348SOL     OW36679   4.447   2.275   7.095 -0.1501  0.3178  0.3084
 8348SOL    HW136680   4.476   2.210   7.160 -5.3468 -0.1249  2.2036
 8348SOL    HW236681   4.504   2.351   7.109 -0.4962  0.3152  1.7955
 8349SOL     OW36682   1.369   2.300   8.924 -0.2406  0.2193  0.2081
 8349SOL    HW136683   1.452   2.258   8.898  0.5886  0.9679  1.6436
 8349SOL    HW236684   1.313   2.227   8.949  1.4154 -0.4508  1.9632
 8350SOL     OW36685   3.993   0.773  17.243  0.0044 -0.5967  0.1476
 8350SOL    HW136686   4.017   0.745  17.155 -0.6179  1.4620 -0.6814
 8350SOL    HW236687   4.051   0.713  17.290 -0.3516 -0.5201  0.6990
 8351SOL     OW36688   1.149   0.886   5.988  0.4497 -0.3674 -0.4374
 8351SOL    HW136689   1.172   0.977   6.007  0.2977  0.0971 -2.4331
 8351SOL    HW236690   1.074   0.897   5.929 -0.0495  2.1578  0.6543
 8352SOL     OW36691   4.226   3.931   4.472  0.1590  0.2942  0.3787
 8352SOL    HW136692   4.168   3.903   4.544 -0.9223  1.1935 -0.1430
 8352SOL    HW236693   4.311   3.891   4.488  1.0231  0.7831 -2.9941
 8353SOL     OW36694   3.023   0.684  17.177 -0.2445  0.1190 -0.4235
 8353SOL    HW136695   3.073   0.682  17.259 -0.3173 -0.1908 -0.3866
 8353SOL    HW236696   3.065   0.618  17.121  1.2666 -0.7688  1.7581
 8354SOL     OW36697   3.875   4.721   1.596 -0.3089  0.7094  0.2652
 8354SOL    HW136698   3.786   4.705   1.566 -0.0454  1.7207 -1.0587
 8354SOL    HW236699   3.862   4.735   1.690  0.2935 -0.5800  0.5461
 8355SOL     OW36700   0.029   0.457  14.798 -0.5325  0.3015 -0.3620
 8355SOL    HW136701   0.046   0.386  14.737 -5.3869 -1.7146  0.6065
 8355SOL    HW236702   0.006   0.417  14.882 -0.4927 -0.7040 -0.8383
 8356SOL     OW36703   1.431   2.738   5.970 -0.3823  0.4800 -0.0130
 8356SOL    HW136704   1.466   2.798   6.035 -0.0047 -0.0820  0.2966
 8356SOL    HW236705   1.435   2.655   6.017 -2.8693 -0.3795 -1.3340
 8357SOL     OW36706   3.623   0.190   6.165  0.0164  0.1114  0.0227
 8357SOL    HW136707   3.587   0.279   6.173  0.2635  0.1242  0.9494
 8357SOL    HW236708   3.590   0.152   6.247 -1.3924 -0.0304 -0.5994
 8358SOL     OW36709   1.034   0.069  13.666  0.1515  0.1564 -0.8396
 8358SOL    HW136710   1.104   0.022  13.621 -0.8672 -1.8168 -0.3308
 8358SOL    HW236711   1.064   0.071  13.757  0.3237 -0.3453 -0.8880
 8359SOL     OW36712   4.394   4.635   5.925 -0.2202  0.5964 -0.3030
 8359SOL    HW136713   4.442   4.706   5.882 -0.1114 -0.6484 -2.2246
 8359SOL    HW236714   4.303   4.666   5.927 -1.0109 -1.8076  0.6588
 8360SOL     OW36715   3.805   2.244   5.186 -0.3243 -0.2545  0.4785
 8360SOL    HW136716   3.870   2.286   5.130  0.5923  0.4438  2.0431
 8360SOL    HW236717   3.797   2.321   5.243  1.2162 -0.9784  1.6815
 8361SOL     OW36718   1.559   1.862   6.227  0.1437 -0.0790 -0.0300
 8361SOL    HW136719   1.488   1.867   6.292 -1.2987 -1.1899 -1.5245
 8361SOL    HW236720   1.614   1.792   6.262 -1.0441 -1.3301 -0.6560
 8362SOL     OW36721   2.077   2.654   6.499  0.1637  0.0235 -0.5898
 8362SOL    HW136722   2.061   2.571   6.454  0.7556 -0.0439 -0.6652
 8362SOL    HW236723   2.085   2.618   6.587 -2.6599 -0.1589 -0.3907
 8363SOL     OW36724   1.184   2.537   0.768  0.4984  0.1508 -0.7553
 8363SOL    HW136725   1.099   2.503   0.797  1.2004 -0.5825  0.4024
 8363SOL    HW236726   1.220   2.565   0.852  0.2686  0.6018 -0.8050
 8364SOL     OW36727   4.091   2.524   5.896  0.0351 -0.3493  0.0823
 8364SOL    HW136728   4.063   2.456   5.835 -0.4832 -1.2707  1.3479
 8364SOL    HW236729   4.143   2.475   5.961 -0.5824 -0.3281  0.5889
 8365SOL     OW36730   2.908   0.864   2.903  0.7051  0.0570  0.6495
 8365SOL    HW136731   2.996   0.856   2.940  1.5305 -1.2711 -1.6541
 8365SOL    HW236732   2.935   0.907   2.822 -0.7271 -1.1656 -0.4761
 8366SOL     OW36733   0.659   2.528   2.543  0.0263 -0.7159  0.0731
 8366SOL    HW136734   0.611   2.555   2.621 -3.6965  0.2139 -2.5376
 8366SOL    HW236735   0.581   2.513   2.490  0.4457 -2.0981 -0.1812
 8367SOL     OW36736   1.403   3.406  15.146 -0.2036 -0.0758  0.0849
 8367SOL    HW136737   1.371   3.464  15.215 -1.0595 -1.8012  1.1610
 8367SOL    HW236738   1.497   3.415  15.159 -0.0298 -3.1221  1.1502
 8368SOL     OW36739   1.044   4.336   7.674  0.2930 -0.4986  0.0772
 8368SOL    HW136740   1.076   4.248   7.655 -2.1441 -1.3399 -0.2114
 8368SOL    HW236741   0.957   4.312   7.706 -0.5614 -1.1426 -2.7291
 8369SOL     OW36742   2.917   3.186  14.396 -0.1129  0.2920  0.7295
 8369SOL    HW136743   3.002   3.151  14.426 -0.8734 -0.9660  1.4141
 8369SOL    HW236744   2.886   3.116  14.340  0.4421  0.1611  0.5813
 8370SOL     OW36745   3.671   1.223  17.279 -0.1932  0.2631 -0.1979
 8370SOL    HW136746   3.646   1.315  17.273  0.1110  0.3444 -0.2425
 8370SOL    HW236747   3.766   1.238  17.282 -0.4642  1.7147  1.1620
 8371SOL     OW36748   1.523   2.897   6.191  0.2040 -0.1573 -0.1978
 8371SOL    HW136749   1.493   2.820   6.240  0.7813  1.3085  2.4238
 8371SOL    HW236750   1.508   2.961   6.260  1.9101  1.5078 -1.4071
 8372SOL     OW36751   4.062   3.888   8.126  0.4702 -0.2552  0.2949
 8372SOL    HW136752   3.992   3.883   8.061  1.0479 -0.5975 -0.3023
 8372SOL    HW236753   4.014   3.919   8.203  0.4909  0.8961 -0.1497
 8373SOL     OW36754   0.453   3.536   0.500  0.4213 -0.2998  0.0926
 8373SOL    HW136755   0.494   3.548   0.586  0.2286 -0.4320  0.2038
 8373SOL    HW236756   0.362   3.539   0.530  0.6173 -2.4974  0.9196
 8374SOL     OW36757   2.684   2.345  11.631  0.2709  0.7581  0.4733
 8374SOL    HW136758   2.676   2.399  11.709 -1.9186  0.9824  0.1096
 8374SOL    HW236759   2.738   2.394  11.570 -0.2247  0.9184  0.1656
 8375SOL     OW36760   0.781   1.609   8.065  0.1500 -0.4507  0.0850
 8375SOL    HW136761   0.826   1.527   8.082  0.6371  0.2894  2.3633
 8375SOL    HW236762   0.846   1.649   8.008  0.2273 -1.3221 -0.4385
 8376SOL     OW36763   3.363   1.023   2.252  0.2646  0.1273 -0.3386
 8376SOL    HW136764   3.371   0.959   2.322  0.5079 -0.8520 -1.2666
 8376SOL    HW236765   3.272   1.053   2.253  0.3718  0.5600 -2.1230
 8377SOL     OW36766   2.776   3.305  11.002 -0.0236  0.3136  0.0338
 8377SOL    HW136767   2.712   3.371  11.027 -0.8074  0.0845 -1.3390
 8377SOL    HW236768   2.861   3.332  11.037  0.2092 -0.4408  0.0629
 8378SOL     OW36769   2.450   3.749   7.431 -0.7402  0.1337 -0.5780
 8378SOL    HW136770   2.416   3.660   7.443 -1.9593  0.4767 -1.4534
 8378SOL    HW236771   2.463   3.744   7.336  2.5788 -0.3819 -0.0949
 8379SOL     OW36772   4.630   0.031   2.069  0.3604  0.7038  0.1582
 8379SOL    HW136773   4.642   4.684   2.025 -0.6649  1.0523 -0.7835
 8379SOL    HW236774   4.670   0.002   2.151 -1.0545 -1.3016  0.1584
 8380SOL     OW36775   0.987   1.635  16.489 -0.2462 -0.7807 -0.1737
 8380SOL    HW136776   1.077   1.619  16.462  0.3538  1.6712  0.3881
 8380SOL    HW236777   0.998   1.656  16.581 -0.3083  0.8442 -0.5476
 8381SOL     OW36778   2.483   0.114   2.954  0.4207  0.0578  0.4083
 8381SOL    HW136779   2.452   0.187   3.008  2.3257 -0.1947  1.8171
 8381SOL    HW236780   2.566   0.147   2.919 -0.2805  2.4627  1.0307
 8382SOL     OW36781   1.963   2.896   9.588  0.1863 -0.9140 -0.1139
 8382SOL    HW136782   1.940   2.865   9.501 -2.0049  2.2849 -0.6555
 8382SOL    HW236783   1.883   2.884   9.639  0.1324 -1.8357 -0.4139
 8383SOL     OW36784   3.165   4.434   2.136  0.0749  0.0688 -0.6961
 8383SOL    HW136785   3.128   4.464   2.219  2.2552  2.9729 -0.7417
 8383SOL    HW236786   3.218   4.509   2.108 -0.6589  0.2855 -1.5129
 8384SOL     OW36787   0.859   3.910   7.475  0.3334  0.3295 -0.3383
 8384SOL    HW136788   0.897   3.824   7.459  1.1422  0.9417 -1.6947
 8384SOL    HW236789   0.919   3.945   7.540  0.1442 -0.4538  0.2532
 8385SOL     OW36790   3.417   3.427   9.726  0.1539  0.5132  0.0272
 8385SOL    HW136791   3.487   3.366   9.703 -2.4753 -0.9940 -3.9231
 8385SOL    HW236792   3.342   3.370   9.712  1.7605 -1.5021 -0.3966
 8386SOL     OW36793   2.156   3.601   1.277  0.0673 -0.1909  0.5303
 8386SOL    HW136794   2.204   3.674   1.237 -0.0599 -0.4225 -0.0512
 8386SOL    HW236795   2.101   3.645   1.342 -0.3708 -0.4714  0.3495
 8387SOL     OW36796   4.186   4.214   3.729 -0.0598  0.1061  0.4837
 8387SOL    HW136797   4.251   4.167   3.781 -0.0294 -1.4031 -0.8971
 8387SOL    HW236798   4.241   4.292   3.722 -0.9999  0.8626  1.3157
 8388SOL     OW36799   3.951   4.719   7.951 -0.0150 -0.0562  0.6727
 8388SOL    HW136800   4.014   4.653   7.982 -0.3658 -1.1956 -1.0209
 8388SOL    HW236801   3.954   4.713   7.856 -2.4496  0.5164  0.5577
 8389SOL     OW36802   2.906   3.144  10.398 -0.2059 -0.6141  0.5420
 8389SOL    HW136803   2.994   3.114  10.418 -0.3227 -1.4007 -0.1096
 8389SOL    HW236804   2.919   3.169  10.306  0.6740 -2.1562  0.2417
 8390SOL     OW36805   0.630   3.315   7.483 -0.0522  0.3954 -0.1439
 8390SOL    HW136806   0.721   3.344   7.480  0.1226 -0.1748 -0.3419
 8390SOL    HW236807   0.597   3.400   7.454  0.8544  0.0706 -2.1348
 8391SOL     OW36808   3.826   4.380   3.755  0.2967  0.4267 -0.0728
 8391SOL    HW136809   3.900   4.426   3.716  1.8205 -1.9140  0.0526
 8391SOL    HW236810   3.842   4.413   3.843 -1.5329 -1.5649  0.9978
 8392SOL     OW36811   2.735   3.748   3.723 -0.0214 -0.2154 -0.1149
 8392SOL    HW136812   2.715   3.716   3.811 -0.5615 -0.7911 -0.4449
 8392SOL    HW236813   2.742   3.666   3.674 -0.6863 -0.7900  0.7681
 8393SOL     OW36814   3.862   4.182   9.513 -0.3797  0.6333  0.0821
 8393SOL    HW136815   3.855   4.144   9.425  3.8161  0.4382 -0.1862
 8393SOL    HW236816   3.800   4.124   9.557  0.3988  0.3909  0.8585
 8394SOL     OW36817   3.863   2.104  14.580 -0.0973  0.3064 -0.3723
 8394SOL    HW136818   3.881   2.193  14.550 -1.4172  0.4530 -0.7335
 8394SOL    HW236819   3.951   2.071  14.598 -0.3778 -0.4966 -0.5012
 8395SOL     OW36820   4.290   3.776   7.306 -0.6394  0.1530  0.2376
 8395SOL    HW136821   4.292   3.714   7.379 -2.1100 -0.2957 -0.1020
 8395SOL    HW236822   4.326   3.853   7.350  0.4642  0.2286 -0.8010
 8396SOL     OW36823   0.106   3.067   3.123  0.5762 -0.6176  0.1975
 8396SOL    HW136824   0.022   3.022   3.113 -1.4483  2.5566  3.3551
 8396SOL    HW236825   0.074   3.140   3.174 -1.7186 -0.7835 -1.0231
 8397SOL     OW36826   0.783   1.445   0.950 -0.1564  0.5332  0.0777
 8397SOL    HW136827   0.781   1.382   0.878 -4.1837 -1.1460  1.7031
 8397SOL    HW236828   0.765   1.525   0.901 -0.3854 -0.1158 -0.8872
 8398SOL     OW36829   2.843   1.255   6.334 -0.1108  0.6994 -0.2990
 8398SOL    HW136830   2.858   1.178   6.389 -0.7500  0.2438 -0.7610
 8398SOL    HW236831   2.798   1.309   6.399 -1.4202 -2.0385  1.0730
 8399SOL     OW36832   2.004   0.724   5.753 -0.5951  0.2104  0.3140
 8399SOL    HW136833   1.956   0.704   5.833 -1.9643  0.3299 -0.4801
 8399SOL    HW236834   1.998   0.820   5.748 -0.6720  0.1943  0.1179
 8400SOL     OW36835   0.711   0.162   8.393 -0.1131 -0.1731  0.1236
 8400SOL    HW136836   0.638   0.100   8.391 -0.6084  0.3039  3.5632
 8400SOL    HW236837   0.778   0.120   8.448 -0.9875  0.8981  2.0130
 8401SOL     OW36838   2.166   1.433  13.787  0.0560  0.6202 -0.0327
 8401SOL    HW136839   2.078   1.470  13.786  0.0153  0.4851 -1.3821
 8401SOL    HW236840   2.152   1.345  13.751 -0.7404  0.1184  1.5278
 8402SOL     OW36841   4.700   0.082   4.173  0.5691 -0.0270  0.0471
 8402SOL    HW136842   4.668   0.099   4.262 -1.5841 -2.7731 -0.2187
 8402SOL    HW236843   4.636   0.109   4.106 -0.7611 -0.2734  1.2200
 8403SOL     OW36844   3.180   0.521   6.917 -0.1701  0.1017  0.0980
 8403SOL    HW136845   3.117   0.593   6.919  1.0569  1.1591  0.3646
 8403SOL    HW236846   3.221   0.528   6.831  0.1970 -0.3694  0.2306
 8404SOL     OW36847   4.341   1.674  13.957  0.0829  0.4070  0.4231
 8404SOL    HW136848   4.291   1.593  13.961  1.1486 -0.3371 -1.6285
 8404SOL    HW236849   4.350   1.698  14.050  1.1978  1.8989 -0.0579
 8405SOL     OW36850   1.223   2.887   2.665  0.2843  0.0632 -0.0059
 8405SOL    HW136851   1.260   2.846   2.743  3.5391 -0.2165 -1.6507
 8405SOL    HW236852   1.177   2.820   2.615  0.7741  0.7892 -1.4375
 8406SOL     OW36853   4.727   3.208  13.727 -0.0722  0.4131  0.6063
 8406SOL    HW136854   0.062   3.201  13.789  1.2511  2.0706 -0.7532
 8406SOL    HW236855   4.735   3.118  13.696  0.9207  1.1154 -1.1840
 8407SOL     OW36856   3.710   1.685   3.621 -0.7426 -0.4941 -0.2488
 8407SOL    HW136857   3.728   1.767   3.667  0.9705 -1.0812  0.1206
 8407SOL    HW236858   3.615   1.678   3.632 -0.5286 -0.6089  1.4743
 8408SOL     OW36859   1.613   2.229   5.006 -0.2353 -0.3261  0.3645
 8408SOL    HW136860   1.689   2.214   5.062  1.0608 -2.0190 -1.8479
 8408SOL    HW236861   1.563   2.293   5.057 -0.1685 -0.0945  0.1407
 8409SOL     OW36862   3.604   4.291   1.751  0.3732  0.9187 -0.0109
 8409SOL    HW136863   3.658   4.217   1.779  0.0057  0.7585  0.2684
 8409SOL    HW236864   3.606   4.344   1.830 -2.6493  1.8076 -0.5514
 8410SOL     OW36865   3.570   4.159   6.257 -0.3361 -0.1630 -0.3274
 8410SOL    HW136866   3.537   4.249   6.252  1.0076  0.3166 -0.4086
 8410SOL    HW236867   3.610   4.155   6.170 -0.6142 -0.2019 -0.4559
 8411SOL     OW36868   1.723   3.135   2.279 -0.1101 -0.7351  0.5838
 8411SOL    HW136869   1.707   3.225   2.251 -0.2677 -1.1077 -0.5396
 8411SOL    HW236870   1.643   3.125   2.330 -0.5921 -0.5424 -0.1319
 8412SOL     OW36871   4.104   2.117   8.580 -0.2376  0.3438  0.1538
 8412SOL    HW136872   4.169   2.107   8.650 -0.2330  0.2393  0.1345
 8412SOL    HW236873   4.068   2.028   8.582  0.3687  0.0893 -0.3145
 8413SOL     OW36874   4.086   2.764   7.990 -0.1535 -0.1385  0.2357
 8413SOL    HW136875   4.139   2.807   8.057  0.1198 -1.1930  0.6963
 8413SOL    HW236876   4.017   2.830   7.996  0.5185  0.6133 -0.2502
 8414SOL     OW36877   0.559   2.695  16.898 -0.2108 -0.1131 -0.0292
 8414SOL    HW136878   0.636   2.711  16.843 -0.4896 -1.6706 -0.8730
 8414SOL    HW236879   0.552   2.780  16.940  0.8630  0.4710 -1.0232
 8415SOL     OW36880   0.818   2.681   3.653  0.1141  0.0617  0.1686
 8415SOL    HW136881   0.751   2.704   3.718  0.7150  2.2836 -0.0239
 8415SOL    HW236882   0.842   2.770   3.628  0.2065 -0.1062 -0.3349
 8416SOL     OW36883   1.844   2.592   4.695 -0.2992 -0.1942  0.1833
 8416SOL    HW136884   1.805   2.605   4.608  0.8410 -0.9244 -0.4355
 8416SOL    HW236885   1.929   2.631   4.675 -0.8560 -0.2414 -2.3429
 8417SOL     OW36886   2.630   1.687   2.250  0.0641 -0.2108 -0.6862
 8417SOL    HW136887   2.719   1.653   2.252  0.5285  1.0791  0.4198
 8417SOL    HW236888   2.649   1.762   2.307 -1.9900 -1.6316  1.8679
 8418SOL     OW36889   2.817   4.095  16.557  0.2160  0.0419  0.0504
 8418SOL    HW136890   2.890   4.097  16.496 -0.6724 -3.0876 -1.0995
 8418SOL    HW236891   2.765   4.164  16.516  0.6122 -0.1564 -0.7842
 8419SOL     OW36892   0.737   1.733  16.434  0.8645 -0.6448  0.2324
 8419SOL    HW136893   0.826   1.711  16.464  0.8943  0.4089  0.9304
 8419SOL    HW236894   0.710   1.801  16.496  1.2629  1.7494 -2.2712
 8420SOL     OW36895   1.504   4.123  11.165 -0.2242 -0.7305  0.5189
 8420SOL    HW136896   1.593   4.149  11.139 -0.7001  0.1898 -0.2117
 8420SOL    HW236897   1.491   4.075  11.084 -1.6959  0.5615 -0.0002
 8421SOL     OW36898   3.378   1.290  13.528  0.3959 -0.2100 -0.5605
 8421SOL    HW136899   3.363   1.351  13.600  0.4167 -1.1968  0.2800
 8421SOL    HW236900   3.450   1.245  13.571  1.0068 -1.9483 -3.3834
 8422SOL     OW36901   2.668   1.243   6.816 -0.4835  0.5355 -0.3456
 8422SOL    HW136902   2.740   1.234   6.878 -0.4104  0.1497 -0.4886
 8422SOL    HW236903   2.601   1.287   6.869 -0.7434 -2.7156  2.0148
 8423SOL     OW36904   0.434   3.981   8.066 -1.0645  0.1530  0.2920
 8423SOL    HW136905   0.399   3.990   7.978 -0.4547 -0.1664  0.0140
 8423SOL    HW236906   0.521   4.020   8.057 -0.9134 -0.7258 -2.0183
 8424SOL     OW36907   4.459   4.054   9.271 -0.5814  0.0562  0.1873
 8424SOL    HW136908   4.522   4.118   9.304 -1.0684  0.2296  0.7944
 8424SOL    HW236909   4.495   4.046   9.183 -1.7019 -2.1471 -0.0710
 8425SOL     OW36910   4.020   0.923   2.135  0.8718  0.0476  0.3152
 8425SOL    HW136911   3.982   1.011   2.137 -1.6982 -0.9627 -3.2576
 8425SOL    HW236912   4.066   0.924   2.051  0.4201 -0.2556  0.0645
 8426SOL     OW36913   0.590   1.174   7.068 -0.0734  0.1256 -0.2793
 8426SOL    HW136914   0.556   1.116   7.137  1.7934 -1.1062 -0.3681
 8426SOL    HW236915   0.592   1.109   6.997  2.1426 -1.1184  0.9179
 8427SOL     OW36916   1.770   4.199  10.010  0.1163  0.7026  0.1250
 8427SOL    HW136917   1.716   4.190  10.089  1.5765 -0.6044  0.9716
 8427SOL    HW236918   1.760   4.107   9.985  0.8407 -0.0097  2.5330
 8428SOL     OW36919   0.074   2.228   7.209  0.4004  0.2600  0.3472
 8428SOL    HW136920   0.153   2.266   7.246 -0.8410  1.6451  1.6027
 8428SOL    HW236921   0.002   2.282   7.242  0.5083  0.2483  0.6012
 8429SOL     OW36922   3.733   4.049   7.629 -1.0081 -0.0629  0.1014
 8429SOL    HW136923   3.668   4.096   7.577 -0.0499  0.0843 -0.9803
 8429SOL    HW236924   3.720   4.097   7.711  0.5623 -0.0026  0.3288
 8430SOL     OW36925   0.191   1.441   5.009  0.0901 -0.2476  0.3583
 8430SOL    HW136926   0.267   1.494   5.031  0.1484  0.3814 -1.3725
 8430SOL    HW236927   0.129   1.498   4.964 -1.3164 -1.1780  1.1184
 8431SOL     OW36928   1.500   0.602   2.656  0.0019 -0.0321 -0.2375
 8431SOL    HW136929   1.468   0.691   2.644 -0.8934 -0.4600 -1.0667
 8431SOL    HW236930   1.567   0.614   2.724  2.1334  1.0840 -2.5464
 8432SOL     OW36931   2.440   3.786   2.995 -0.2285  0.0944  0.0569
 8432SOL    HW136932   2.374   3.834   3.045 -1.9985 -0.9340 -1.2676
 8432SOL    HW236933   2.430   3.694   3.019 -1.6889  0.5629  1.2068
 8433SOL     OW36934   0.048   3.046   3.788 -0.1936  0.1177 -0.0255
 8433SOL    HW136935   4.711   3.008   3.741 -2.1611  0.1803  3.0672
 8433SOL    HW236936   0.020   3.021   3.876 -2.6068 -0.1500 -0.8629
 8434SOL     OW36937   0.002   3.506  11.194 -0.4769  0.0937  0.1770
 8434SOL    HW136938   4.643   3.497  11.198 -0.3206 -1.0333  1.5154
 8434SOL    HW236939   0.027   3.456  11.116 -0.4801  2.4621 -1.3444
 8435SOL     OW36940   1.038   1.565   3.453 -0.2765 -0.2388 -0.0249
 8435SOL    HW136941   0.956   1.558   3.502 -0.8707 -0.8190 -1.1085
 8435SOL    HW236942   1.030   1.485   3.401 -0.3261  0.9446 -1.8392
 8436SOL     OW36943   3.072   4.532   3.101 -0.3552  0.4503 -0.2512
 8436SOL    HW136944   3.107   4.459   3.050  0.3373  1.8885 -1.8411
 8436SOL    HW236945   3.145   4.593   3.087  0.4231 -0.2680  0.7174
 8437SOL     OW36946   4.426   3.628   2.096 -0.3578 -0.0884  0.2688
 8437SOL    HW136947   4.355   3.569   2.070  0.4229 -0.6888 -0.5052
 8437SOL    HW236948   4.384   3.676   2.167 -1.2961  1.3732 -1.2544
 8438SOL     OW36949   4.731   0.610   8.707  0.0040 -0.1856  0.1498
 8438SOL    HW136950   4.691   0.605   8.620  1.2178 -0.8466 -0.3796
 8438SOL    HW236951   4.723   0.515   8.720  1.1957 -0.3363 -0.1720
 8439SOL     OW36952   0.040   4.510   3.163 -0.3334 -0.1880  0.1941
 8439SOL    HW136953   0.042   4.514   3.068  2.2684 -1.2895  0.2023
 8439SOL    HW236954   0.008   4.420   3.170  2.6299 -1.2801 -0.5602
 8440SOL     OW36955   3.011   2.336  14.658  0.0298  0.3027 -0.3388
 8440SOL    HW136956   3.069   2.335  14.735 -1.8017  1.6401  1.0470
 8440SOL    HW236957   3.063   2.367  14.584 -1.7863 -0.3809 -1.8770
 8441SOL     OW36958   1.834   0.796   3.915  0.8062  0.2071 -0.5434
 8441SOL    HW136959   1.897   0.856   3.955  1.4472  0.7901 -2.4307
 8441SOL    HW236960   1.814   0.842   3.834  1.3485 -0.7311 -1.2171
 8442SOL     OW36961   1.930   2.143  11.732 -0.6309  0.4537 -0.6166
 8442SOL    HW136962   1.990   2.096  11.674 -0.7919 -0.0639 -0.3656
 8442SOL    HW236963   1.857   2.082  11.726  0.3976 -0.7606 -0.8767
 8443SOL     OW36964   0.111   4.710   9.014  0.1134  0.2590 -0.1461
 8443SOL    HW136965   0.115   0.065   8.989 -0.0774 -0.3566 -2.4249
 8443SOL    HW236966   0.119   4.714   9.110 -0.7923 -1.3183  0.0106
 8444SOL     OW36967   3.760   2.637   0.733 -0.0015  0.4175 -0.0576
 8444SOL    HW136968   3.756   2.595   0.819 -2.8194 -1.3917 -1.0537
 8444SOL    HW236969   3.787   2.562   0.679 -0.3809  1.0733 -1.1604
 8445SOL     OW36970   4.270   2.332   5.308 -0.1176 -0.4776  0.1144
 8445SOL    HW136971   4.339   2.367   5.251  0.6139 -0.0359  1.2622
 8445SOL    HW236972   4.202   2.309   5.245  0.4769  0.0080 -0.7140
 8446SOL     OW36973   1.381   3.957   4.556 -0.0445 -0.3582  0.1874
 8446SOL    HW136974   1.297   3.925   4.525 -0.0991  0.7697 -0.8105
 8446SOL    HW236975   1.381   3.901   4.634  0.1395  0.7338  0.9834
 8447SOL     OW36976   1.861   4.218   7.071 -0.0600  0.7443  0.1287
 8447SOL    HW136977   1.954   4.220   7.048  0.0317  0.5857  0.4847
 8447SOL    HW236978   1.868   4.167   7.152 -0.8036  0.2416 -0.1185
 8448SOL     OW36979   1.759   0.572   5.867 -0.2259  0.3698  0.9044
 8448SOL    HW136980   1.687   0.512   5.850 -0.9451  0.9873  1.6959
 8448SOL    HW236981   1.804   0.530   5.940  0.9416  4.5350  2.5776
 8449SOL     OW36982   0.330   1.931   7.286  0.4629  0.3701 -0.8726
 8449SOL    HW136983   0.369   2.007   7.243 -1.3864  1.4078 -0.7013
 8449SOL    HW236984   0.376   1.934   7.370 -0.0009  0.7388 -0.6329
 8450SOL     OW36985   1.517   1.443   3.737  0.1862  0.3540  0.2040
 8450SOL    HW136986   1.436   1.475   3.777 -0.1029 -0.2428  0.0881
 8450SOL    HW236987   1.495   1.439   3.644 -2.1207  0.8234  0.7295
 8451SOL     OW36988   2.948   2.816   0.471  0.5229 -0.1354 -0.5746
 8451SOL    HW136989   2.865   2.818   0.520 -0.0503 -0.9650 -1.5254
 8451SOL    HW236990   2.968   2.725   0.493  0.7513 -0.3059 -1.4977
 8452SOL     OW36991   1.022   3.676   9.106  0.2255 -0.3658 -0.0984
 8452SOL    HW136992   1.083   3.633   9.166 -0.2726 -0.0024  0.6663
 8452SOL    HW236993   1.059   3.634   9.028  0.8230  0.1924 -0.1077
 8453SOL     OW36994   0.274   3.497   4.743  0.6178 -0.2520 -0.6070
 8453SOL    HW136995   0.203   3.559   4.731  1.3387  0.9080  1.1767
 8453SOL    HW236996   0.244   3.413   4.708  1.1314 -0.5110 -0.4321
 8454SOL     OW36997   2.270   4.360   7.742  0.2141 -0.0712 -0.1540
 8454SOL    HW136998   2.267   4.392   7.832 -0.1134 -0.8813  0.1267
 8454SOL    HW236999   2.185   4.388   7.707 -0.5619 -1.8603  0.2659
 8455SOL     OW37000   0.155   3.277   8.077 -0.1915 -0.1506  0.2739
 8455SOL    HW137001   0.201   3.265   7.994  0.7894  0.5090  0.7263
 8455SOL    HW237002   0.220   3.328   8.124 -0.9668 -0.7407  1.9740
 8456SOL     OW37003   1.710   2.628  17.325  0.3342 -0.2167  0.2969
 8456SOL    HW137004   1.770   2.555  17.342 -1.9930 -2.0884  0.5722
 8456SOL    HW237005   1.624   2.586  17.332  0.7741 -1.1055  0.4656
 8457SOL     OW37006   2.056   2.771   8.637  0.0472 -0.2112  0.5701
 8457SOL    HW137007   2.111   2.724   8.699 -1.4109 -0.9091  1.3373
 8457SOL    HW237008   1.977   2.722   8.660 -0.6842  0.9604  0.5428
 8458SOL     OW37009   0.719   1.138   5.118 -0.9815  0.3186  0.3713
 8458SOL    HW137010   0.701   1.063   5.062 -0.8670 -0.9442  1.9984
 8458SOL    HW237011   0.812   1.123   5.134 -0.7622 -0.6402 -1.8778
 8459SOL     OW37012   3.153   0.381   4.427  0.0725 -0.3199 -0.3401
 8459SOL    HW137013   3.191   0.314   4.484 -0.2919  0.1159  0.4258
 8459SOL    HW237014   3.124   0.438   4.498  0.0573  1.0772 -1.4581
 8460SOL     OW37015   2.147   2.371   4.281 -0.8694  0.2900  0.1967
 8460SOL    HW137016   2.193   2.433   4.225 -0.0565 -0.7464 -0.2642
 8460SOL    HW237017   2.219   2.338   4.334 -1.9798 -3.1188 -0.4094
 8461SOL     OW37018   2.447   4.116   9.044  0.1530  0.3668  0.2405
 8461SOL    HW137019   2.447   4.122   8.949 -1.9045 -3.2517  0.0098
 8461SOL    HW237020   2.540   4.135   9.053  0.1861 -0.3199  1.4480
 8462SOL     OW37021   3.529   4.355  15.740 -0.3373  0.8321  0.2200
 8462SOL    HW137022   3.502   4.289  15.677 -0.1560 -0.4103  1.4274
 8462SOL    HW237023   3.558   4.298  15.812 -0.0864  0.3572 -0.2598
 8463SOL     OW37024   3.769   1.562   1.842 -0.1645 -0.7667 -0.0307
 8463SOL    HW137025   3.703   1.576   1.775  0.8437 -0.7084 -1.0153
 8463SOL    HW237026   3.834   1.625   1.811  0.1078 -1.2489 -0.4269
 8464SOL     OW37027   2.276   0.461  12.602  0.5831 -0.3991  0.0718
 8464SOL    HW137028   2.361   0.503  12.585  0.4617 -1.2248 -2.5837
 8464SOL    HW237029   2.279   0.383  12.546  0.9923 -0.2826 -0.0695
 8465SOL     OW37030   3.792   0.028   5.052 -0.3124  0.0138 -0.0502
 8465SOL    HW137031   3.839   0.095   5.002 -0.9725  0.6305  0.1572
 8465SOL    HW237032   3.859   4.700   5.074 -0.4567  0.6840  2.3951
 8466SOL     OW37033   3.993   1.537   7.318  0.7159  0.3733 -0.1257
 8466SOL    HW137034   4.042   1.473   7.266  0.4980 -0.8605  1.1948
 8466SOL    HW237035   4.040   1.615   7.287 -0.8594  1.1779 -0.4923
 8467SOL     OW37036   2.552   0.914  12.210  0.0618  0.2968 -0.2115
 8467SOL    HW137037   2.616   0.926  12.280 -1.7742 -0.6019  1.6537
 8467SOL    HW237038   2.545   1.002  12.173 -0.8648  0.1061 -0.5068
 8468SOL     OW37039   1.062   2.079   7.883 -0.2529  0.0277 -0.2119
 8468SOL    HW137040   1.110   2.138   7.825  1.5870  1.2402  2.5389
 8468SOL    HW237041   1.056   2.000   7.829  2.3852  0.6076 -1.3319
 8469SOL     OW37042   0.570   2.797  16.615 -0.7122  0.5225 -0.6782
 8469SOL    HW137043   0.518   2.718  16.601 -0.6869  0.2900  0.5595
 8469SOL    HW237044   0.512   2.863  16.578 -1.9485  0.4773  1.2284
 8470SOL     OW37045   2.928   2.368   3.888  0.2353  0.3174  0.0193
 8470SOL    HW137046   2.947   2.428   3.961 -0.1223  0.2772  0.1442
 8470SOL    HW237047   2.855   2.409   3.842 -1.4966 -0.0730  2.3955
 8471SOL     OW37048   4.647   4.269   3.818  0.2927 -0.5985  0.0373
 8471SOL    HW137049   4.736   4.234   3.820 -0.1472 -1.6432  1.8619
 8471SOL    HW237050   4.668   4.362   3.833  0.2380 -0.1112 -2.8830
 8472SOL     OW37051   4.222   1.320  17.137  0.1995  0.1680  0.2161
 8472SOL    HW137052   4.280   1.303  17.064 -1.4560 -1.1668 -0.7902
 8472SOL    HW237053   4.198   1.412  17.120  3.6072  0.8793 -0.7144
 8473SOL     OW37054   3.699   4.139   2.557  0.3638  0.0915 -0.5745
 8473SOL    HW137055   3.758   4.065   2.567  0.0696 -0.1802 -0.8384
 8473SOL    HW237056   3.665   4.112   2.472  0.6271  0.2466 -0.7277
 8474SOL     OW37057   2.090   4.160   4.636 -0.3318  0.2147 -0.1655
 8474SOL    HW137058   2.103   4.253   4.657 -0.7148  0.1895  0.1798
 8474SOL    HW237059   2.090   4.118   4.722 -1.2509 -0.3954 -0.4622
 8475SOL     OW37060   2.466   1.462   5.157  0.0547  0.7553  0.4195
 8475SOL    HW137061   2.558   1.437   5.158 -0.3097 -0.5678 -0.4834
 8475SOL    HW237062   2.487   1.550   5.125  1.7534  0.5672  0.9945
 8476SOL     OW37063   3.626   4.502  11.099  0.4798  0.0292 -0.4556
 8476SOL    HW137064   3.618   4.410  11.074 -3.2375  1.0375 -2.9981
 8476SOL    HW237065   3.578   4.496  11.181  1.8848 -1.6621  0.2478
 8477SOL     OW37066   2.065   2.554   5.114 -0.1578 -0.4506  0.4006
 8477SOL    HW137067   2.045   2.647   5.112 -0.6100 -0.5223  2.3183
 8477SOL    HW237068   2.108   2.538   5.030 -1.3238 -0.2944 -0.2278
 8478SOL     OW37069   3.642   2.616   7.009 -0.1241  0.8114 -0.2853
 8478SOL    HW137070   3.559   2.598   6.965  0.5173 -0.0615 -1.1471
 8478SOL    HW237071   3.681   2.532   7.035 -0.8968  1.0206  1.5174
 8479SOL     OW37072   3.122   2.273  17.559  0.4741 -0.1017  0.1976
 8479SOL    HW137073   3.114   2.178  17.562  2.5272 -0.3347 -2.0412
 8479SOL    HW237074   3.099   2.299  17.649 -0.8063  0.7583 -0.3731
 8480SOL     OW37075   1.591   3.955   9.030 -0.1850  0.0478 -0.3632
 8480SOL    HW137076   1.568   4.046   9.011 -1.5114  0.2334  2.0968
 8480SOL    HW237077   1.535   3.903   8.973 -2.2928  1.5369  0.3167
 8481SOL     OW37078   2.823   3.512   7.200  0.2388 -0.3049  0.1713
 8481SOL    HW137079   2.733   3.545   7.207  0.7355  1.3854 -1.6167
 8481SOL    HW237080   2.812   3.444   7.133 -2.1793 -0.4783  0.7114
 8482SOL     OW37081   2.805   0.272  14.788  0.5106  0.3737 -0.3952
 8482SOL    HW137082   2.893   0.303  14.810  1.2814  0.2383 -3.3729
 8482SOL    HW237083   2.804   0.184  14.826 -0.3191  1.5651  2.3778
 8483SOL     OW37084   1.503   1.766  13.334  0.3029  0.3234  0.3234
 8483SOL    HW137085   1.461   1.714  13.265 -0.9682  0.3251  1.1067
 8483SOL    HW237086   1.579   1.803  13.287 -0.3938 -1.2524 -2.0494
 8484SOL     OW37087   3.870   1.433   6.987  0.1542 -0.3836  0.5064
 8484SOL    HW137088   3.855   1.510   6.933  1.4389 -0.2668  0.3045
 8484SOL    HW237089   3.785   1.424   7.029 -1.1484  0.7237 -1.8436
 8485SOL     OW37090   3.228   1.443  13.725 -0.7849  0.4082  0.3182
 8485SOL    HW137091   3.133   1.427  13.730 -0.6998 -0.0250  0.5570
 8485SOL    HW237092   3.245   1.448  13.819 -0.9299 -1.5192  0.4422
 8486SOL     OW37093   2.814   3.135   7.882 -0.1223  0.1917  0.6019
 8486SOL    HW137094   2.779   3.221   7.859  0.4378  0.1668 -0.3437
 8486SOL    HW237095   2.907   3.129   7.858 -0.0581  0.4799  0.7724
 8487SOL     OW37096   4.608   2.040  14.616  0.0071 -0.0466  0.2888
 8487SOL    HW137097   4.568   1.960  14.650 -2.8718  0.8988 -0.8800
 8487SOL    HW237098   4.691   2.011  14.578 -0.1111  1.3108 -1.0310
 8488SOL     OW37099   1.712   1.340   8.130 -0.1943  0.1944  0.1557
 8488SOL    HW137100   1.804   1.340   8.103 -0.2824 -0.3394 -0.1497
 8488SOL    HW237101   1.701   1.248   8.152 -2.0482  0.3388 -0.2220
 8489SOL     OW37102   1.336   1.185   7.887 -0.5505 -0.0811 -0.5649
 8489SOL    HW137103   1.343   1.243   7.962  0.0910 -1.7650  0.6892
 8489SOL    HW237104   1.317   1.100   7.928  0.3221  0.3713  0.7682
 8490SOL     OW37105   1.432   1.974  14.607  0.6692 -0.1141 -0.1726
 8490SOL    HW137106   1.446   2.045  14.670 -0.2551  1.0293 -1.2519
 8490SOL    HW237107   1.409   1.900  14.664 -1.4060  1.2193  0.7240
 8491SOL     OW37108   0.493   2.163   8.764 -0.1966 -0.0019  0.1353
 8491SOL    HW137109   0.516   2.077   8.730 -2.5973  0.6559 -3.1972
 8491SOL    HW237110   0.458   2.205   8.685  0.4211  1.5900  0.6924
 8492SOL     OW37111   1.967   2.510   9.272  0.1612 -0.4181  0.6597
 8492SOL    HW137112   1.892   2.493   9.215  1.1625 -0.0725 -0.7560
 8492SOL    HW237113   1.927   2.570   9.335  0.0262  2.3324 -2.0290
 8493SOL     OW37114   1.027   2.542  14.375  0.0168 -0.4994 -0.4873
 8493SOL    HW137115   1.106   2.488  14.375  1.2663  1.3093  0.6762
 8493SOL    HW237116   0.996   2.532  14.285  0.5023  0.7918 -0.7926
 8494SOL     OW37117   3.890   2.108   3.311 -0.2053 -0.2070  0.1938
 8494SOL    HW137118   3.986   2.115   3.310 -0.1993 -0.2259  1.5746
 8494SOL    HW237119   3.878   2.093   3.217 -1.1336 -1.5179  0.5166
 8495SOL     OW37120   2.147   0.502   9.083  0.0579 -0.0101  0.4968
 8495SOL    HW137121   2.092   0.554   9.025  0.3187 -0.3145 -0.0240
 8495SOL    HW237122   2.085   0.468   9.148 -2.5928  2.7396 -0.5980
 8496SOL     OW37123   0.668   0.139   6.601 -0.1773  0.7048  0.2401
 8496SOL    HW137124   0.580   0.154   6.634 -0.5025 -1.0884  0.1969
 8496SOL    HW237125   0.661   0.044   6.604 -1.4736  0.8444  1.4321
 8497SOL     OW37126   3.049   4.577   7.885  0.1590 -0.0795  0.2149
 8497SOL    HW137127   2.999   4.518   7.941 -0.2721 -0.6031 -0.7319
 8497SOL    HW237128   3.009   4.658   7.916  0.7109 -0.3055  1.5424
 8498SOL     OW37129   1.675   2.363   1.272  0.2984 -0.2611  0.3103
 8498SOL    HW137130   1.645   2.451   1.251  2.6140  0.8939  1.8384
 8498SOL    HW237131   1.598   2.312   1.298  1.3102 -0.7409  2.4075
 8499SOL     OW37132   4.232   1.929   9.666 -0.8537  0.2038  0.2904
 8499SOL    HW137133   4.258   1.874   9.740  0.2667  0.0168 -0.2550
 8499SOL    HW237134   4.218   2.015   9.706  0.7575  0.6522 -0.1243
 8500SOL     OW37135   3.490   0.972   7.262 -0.0923 -0.0643  0.1367
 8500SOL    HW137136   3.452   1.047   7.307 -0.7412  0.1052 -0.6869
 8500SOL    HW237137   3.530   0.916   7.329  1.3581  0.7938 -0.0243
 8501SOL     OW37138   0.695   2.188   8.995  0.0053 -0.0738 -0.0566
 8501SOL    HW137139   0.633   2.206   8.924  0.3215  0.0387 -0.3044
 8501SOL    HW237140   0.753   2.120   8.961 -0.7176 -0.5224 -0.3811
 8502SOL     OW37141   4.528   1.680   5.058  0.2366 -0.2528  0.4750
 8502SOL    HW137142   4.580   1.697   5.137 -1.2662 -2.1889  1.8610
 8502SOL    HW237143   4.526   1.585   5.064  2.9072 -0.0764  4.2302
 8503SOL     OW37144   4.018   3.385   3.548 -0.0004  0.3106 -0.4058
 8503SOL    HW137145   3.981   3.413   3.632  0.2539 -1.8408  0.4103
 8503SOL    HW237146   4.078   3.459   3.546  1.1215 -0.6007 -0.4578
 8504SOL     OW37147   4.376   3.786   4.027 -0.4849  0.1393 -0.1609
 8504SOL    HW137148   4.435   3.727   4.074  1.1603  1.0376 -1.0673
 8504SOL    HW237149   4.319   3.815   4.099 -0.7485 -2.2824  0.5824
 8505SOL     OW37150   2.186   1.728   2.561  0.1785  0.1365  0.5773
 8505SOL    HW137151   2.105   1.745   2.610 -1.6122 -3.3500 -1.1300
 8505SOL    HW237152   2.154   1.644   2.527  0.7894  1.4478 -3.1957
 8506SOL     OW37153   0.720   0.834   9.445 -0.1630  0.5165 -0.1477
 8506SOL    HW137154   0.803   0.881   9.454 -0.2597  0.2427  2.1186
 8506SOL    HW237155   0.681   0.884   9.373  0.5395  2.2594  0.6741
 8507SOL     OW37156   2.598   3.523  15.109 -0.2983  0.5150  0.3399
 8507SOL    HW137157   2.581   3.591  15.174  0.9040 -0.2678  1.4919
 8507SOL    HW237158   2.614   3.445  15.163 -0.2930 -1.5094 -2.5460
 8508SOL     OW37159   4.629   2.471   6.669  0.5179 -0.3386 -0.0154
 8508SOL    HW137160   4.591   2.467   6.581  2.0265  0.6397 -0.7065
 8508SOL    HW237161   4.599   2.383   6.692 -0.3889  0.3784  1.5421
 8509SOL     OW37162   1.979   3.840   6.839  0.2998 -0.1963 -0.5512
 8509SOL    HW137163   1.886   3.852   6.860  0.2144 -1.1939 -0.3668
 8509SOL    HW237164   2.016   3.871   6.921 -1.2197 -1.0125  0.4458
 8510SOL     OW37165   2.852   4.041   6.454  0.7668 -0.2915  0.3560
 8510SOL    HW137166   2.811   4.111   6.403 -1.1452 -3.3459 -2.3309
 8510SOL    HW237167   2.845   3.965   6.396 -0.8713  0.5674 -0.5853
 8511SOL     OW37168   4.612   4.294   0.695  0.2237 -0.5547  0.3543
 8511SOL    HW137169   4.528   4.259   0.726 -1.3034  0.0414 -3.0858
 8511SOL    HW237170   4.589   4.336   0.612  1.6239  2.5303  1.5558
 8512SOL     OW37171   4.620   0.469   2.506 -0.1973  0.2174  0.3265
 8512SOL    HW137172   4.695   0.410   2.508 -1.2731 -1.2216 -2.4815
 8512SOL    HW237173   4.546   0.409   2.503 -0.5762  0.5666  2.8323
 8513SOL     OW37174   4.028   1.713  17.268 -0.0503 -0.0700  0.2192
 8513SOL    HW137175   4.047   1.706  17.361 -3.4151 -1.0295  0.8471
 8513SOL    HW237176   4.037   1.808  17.259 -2.6509 -0.1202 -2.9100
 8514SOL     OW37177   0.808   2.159   4.128  0.1210 -0.0422  0.0420
 8514SOL    HW137178   0.728   2.110   4.113 -0.4287  0.5747  1.0055
 8514SOL    HW237179   0.826   2.179   4.036  1.3511 -0.2237  0.2385
 8515SOL     OW37180   1.463   0.905   8.900 -0.2206  0.3981 -0.2108
 8515SOL    HW137181   1.470   0.999   8.917  2.9295  0.3073 -1.0004
 8515SOL    HW237182   1.392   0.870   8.954  0.8247  0.2771  1.0743
 8516SOL     OW37183   1.241   0.413   5.177  0.4159  0.6045 -0.2062
 8516SOL    HW137184   1.184   0.418   5.101 -0.5254 -2.7019  0.3185
 8516SOL    HW237185   1.312   0.471   5.149  1.1350  0.2083  0.7664
 8517SOL     OW37186   3.997   0.086  10.583  0.9351 -0.2032 -0.6523
 8517SOL    HW137187   4.051   0.085  10.662  1.0049 -1.2333 -0.7208
 8517SOL    HW237188   3.906   0.098  10.610  0.9066  1.5638 -1.5402
 8518SOL     OW37189   2.896   4.227   3.163 -0.0758  0.5399 -0.0579
 8518SOL    HW137190   2.972   4.178   3.133 -1.1167  0.3829 -2.5028
 8518SOL    HW237191   2.924   4.234   3.254 -0.8369  1.1504  0.1356
 8519SOL     OW37192   1.323   3.635  16.840  0.1660  0.1504 -0.2825
 8519SOL    HW137193   1.383   3.636  16.765  1.0284 -1.3383  0.3882
 8519SOL    HW237194   1.239   3.627  16.795 -0.4599 -0.3248  0.9800
 8520SOL     OW37195   1.963   3.602   8.692 -0.3419 -0.5040  0.2291
 8520SOL    HW137196   1.923   3.525   8.651 -2.7144 -0.6272  2.8188
 8520SOL    HW237197   2.048   3.564   8.716  0.2975  1.4591  1.0344
 8521SOL     OW37198   0.564   4.645   9.184 -0.6694 -0.1074 -0.0733
 8521SOL    HW137199   0.484   4.679   9.223 -0.8903  0.8174 -1.3261
 8521SOL    HW237200   0.566   4.552   9.207  0.2575  0.2593  1.3391
 8522SOL     OW37201   1.009   0.492   7.607 -0.5480 -0.0613  0.0176
 8522SOL    HW137202   1.029   0.418   7.664 -0.9744 -0.0788  0.1413
 8522SOL    HW237203   1.080   0.500   7.543 -0.2936 -0.0510  0.3003
 8523SOL     OW37204   3.148   3.668   3.366  0.1561 -0.1091 -0.4506
 8523SOL    HW137205   3.200   3.748   3.369 -2.4312  1.4511  2.5128
 8523SOL    HW237206   3.058   3.698   3.365  0.1146 -0.2342 -0.4698
 8524SOL     OW37207   0.490   3.087  11.447  0.0216 -0.4075  0.1693
 8524SOL    HW137208   0.473   3.102  11.540  0.9289 -1.0016  0.4323
 8524SOL    HW237209   0.578   3.049  11.452  0.7305  1.0280 -1.2678
 8525SOL     OW37210   1.578   4.077  13.516  0.2144  0.2368  0.2910
 8525SOL    HW137211   1.484   4.079  13.498  0.1509 -0.5428  0.5510
 8525SOL    HW237212   1.594   4.165  13.551  0.6839  0.1235  0.3672
 8526SOL     OW37213   1.131   0.935   2.710  0.1768  0.1800 -0.0573
 8526SOL    HW137214   1.114   1.029   2.714  1.3932  0.3895  0.2254
 8526SOL    HW237215   1.215   0.924   2.756 -0.1013  2.0626  0.8695
 8527SOL     OW37216   0.804   2.930   3.631  0.4137  0.0219 -0.0529
 8527SOL    HW137217   0.802   2.959   3.722  1.3488  1.4474 -0.4848
 8527SOL    HW237218   0.752   2.996   3.583  1.0766  1.0465  0.6291
 8528SOL     OW37219   3.684   0.152   7.720  0.0020 -0.3811 -1.2263
 8528SOL    HW137220   3.695   0.132   7.813  0.0078  1.2421 -0.8735
 8528SOL    HW237221   3.752   0.091   7.690 -1.4977 -2.0867 -1.0856
 8529SOL     OW37222   0.625   3.634   3.349  0.0521 -0.1076  0.0535
 8529SOL    HW137223   0.674   3.694   3.405  0.4406 -0.1970 -0.1909
 8529SOL    HW237224   0.672   3.554   3.375 -1.2498 -0.6951  0.6162
 8530SOL     OW37225   0.890   3.553   7.325 -0.4224 -0.3979 -0.3192
 8530SOL    HW137226   0.836   3.585   7.253  0.9262  1.0388 -0.7036
 8530SOL    HW237227   0.925   3.472   7.290 -1.6739 -0.2749 -1.8458
 8531SOL     OW37228   1.513   2.966  17.616  0.3890 -0.0754  0.3933
 8531SOL    HW137229   1.499   3.019  17.694 -1.9614  0.1238 -0.1446
 8531SOL    HW237230   1.448   2.896  17.629 -0.7180  0.5537 -1.8259
 8532SOL     OW37231   3.703   2.510   6.522  0.3707  0.1919  0.5075
 8532SOL    HW137232   3.659   2.541   6.443  1.2075 -0.3218 -0.1589
 8532SOL    HW237233   3.628   2.488   6.578 -1.0716 -0.0286 -1.5037
 8533SOL     OW37234   1.464   0.975  12.549  0.2664  0.1468 -0.1799
 8533SOL    HW137235   1.534   1.038  12.565  0.2028 -0.0918  1.0453
 8533SOL    HW237236   1.396   0.995  12.613  1.9697 -0.2467  1.7511
 8534SOL     OW37237   1.278   0.336   1.033 -0.0147 -0.1418 -0.0674
 8534SOL    HW137238   1.338   0.381   1.093 -1.3877  2.8335 -0.8988
 8534SOL    HW237239   1.240   0.397   0.970 -1.4804 -2.1771 -1.1512
 8535SOL     OW37240   0.376   2.045  12.041 -0.2283 -0.2980 -0.2496
 8535SOL    HW137241   0.326   2.126  12.039  1.0982  0.4875 -1.4245
 8535SOL    HW237242   0.470   2.065  12.042 -0.2101 -0.3659 -0.7969
 8536SOL     OW37243   1.899   3.351   8.641  0.2472 -0.2710  0.5930
 8536SOL    HW137244   1.815   3.305   8.632  0.1912 -0.1430  0.4413
 8536SOL    HW237245   1.936   3.305   8.716  0.6206 -1.0591 -0.0709
 8537SOL     OW37246   2.847   4.368  13.828 -0.2487 -0.0613 -0.0186
 8537SOL    HW137247   2.775   4.390  13.887 -0.6041 -1.7128  0.1813
 8537SOL    HW237248   2.824   4.286  13.783  0.7644 -0.6716  0.5751
 8538SOL     OW37249   4.211   1.541   5.091  0.6151  0.0103  0.4239
 8538SOL    HW137250   4.219   1.635   5.103  0.6957  0.3875 -2.8252
 8538SOL    HW237251   4.207   1.535   4.996 -0.5254 -0.7877  0.5258
 8539SOL     OW37252   4.664   3.058   5.962 -0.0691  0.5042  0.1560
 8539SOL    HW137253   4.610   2.980   5.975 -0.9718  1.3264  1.4061
 8539SOL    HW237254   4.601   3.123   5.930 -0.2370  0.4358  0.3497
 8540SOL     OW37255   4.089   1.787   2.296  0.4844  0.2989  0.2766
 8540SOL    HW137256   4.162   1.763   2.239 -0.8598 -2.1163 -0.4384
 8540SOL    HW237257   4.021   1.807   2.231  2.4199  0.8221 -1.5714
 8541SOL     OW37258   4.463   2.055  14.342  0.5091  0.1574 -0.4483
 8541SOL    HW137259   4.425   2.138  14.368  1.3499  0.8267 -1.3731
 8541SOL    HW237260   4.500   2.007  14.416  4.5484  1.4804 -1.5999
 8542SOL     OW37261   0.243   0.673   5.833  0.2004 -0.8558  0.3516
 8542SOL    HW137262   0.280   0.705   5.915 -3.5199  1.5825  1.0774
 8542SOL    HW237263   0.209   0.753   5.792 -0.3946 -2.4608 -2.3430
 8543SOL     OW37264   2.499   1.495  12.676 -0.1537 -0.1841  0.6123
 8543SOL    HW137265   2.466   1.439  12.605  1.4955 -1.6794  1.0305
 8543SOL    HW237266   2.593   1.490  12.662 -0.2203  0.0067  0.1053
 8544SOL     OW37267   0.267   3.337   3.601 -0.1053  0.1701 -0.0106
 8544SOL    HW137268   0.355   3.301   3.614 -0.4305 -0.8758 -0.7286
 8544SOL    HW237269   0.230   3.282   3.532  0.1367  0.5712 -0.4610
 8545SOL     OW37270   2.525   0.788   2.479  0.7156 -0.5595  0.4424
 8545SOL    HW137271   2.555   0.879   2.480  4.0131 -1.6478 -0.5203
 8545SOL    HW237272   2.578   0.758   2.553  0.6894  0.6928  0.9732
 8546SOL     OW37273   3.662   4.127   6.001  0.0124 -0.2174  0.1188
 8546SOL    HW137274   3.649   4.159   5.912  3.0331  1.2065  0.1906
 8546SOL    HW237275   3.742   4.075   5.998 -0.9858 -1.9600  4.4027
 8547SOL     OW37276   1.343   0.073   3.929  0.2840  0.0053  0.3319
 8547SOL    HW137277   1.356   4.715   3.930 -2.3464 -0.3421  0.0319
 8547SOL    HW237278   1.431   0.111   3.919  0.1033  0.1792 -0.5698
 8548SOL     OW37279   0.341   1.278  13.884  0.0579 -0.1038 -0.1574
 8548SOL    HW137280   0.254   1.317  13.895  0.3504  1.8725 -4.8980
 8548SOL    HW237281   0.329   1.222  13.808 -0.3647 -1.1993  0.7076
 8549SOL     OW37282   1.248   0.991  10.931 -0.7211 -0.0538  0.2520
 8549SOL    HW137283   1.233   0.929  10.859 -0.4836  0.0398  0.1214
 8549SOL    HW237284   1.337   0.961  10.950 -0.5276  0.8678  0.7999
 8550SOL     OW37285   0.207   2.424  12.403  0.2965 -0.2983  0.0426
 8550SOL    HW137286   0.266   2.372  12.349  0.1761 -1.2540  0.8448
 8550SOL    HW237287   0.272   2.473  12.454  1.7423 -2.7083  0.4921
 8551SOL     OW37288   3.376   0.162  17.523 -0.0302 -0.0478 -0.2650
 8551SOL    HW137289   3.304   0.209  17.566  0.9756  0.1787  1.1944
 8551SOL    HW237290   3.436   0.161  17.598  1.0452 -0.7189 -1.1368
 8552SOL     OW37291   0.085   0.392   6.778 -0.6690 -0.2427 -0.2279
 8552SOL    HW137292   0.143   0.363   6.849 -0.9076 -1.4380 -0.5215
 8552SOL    HW237293   0.057   0.480   6.804  0.2540  0.5004 -1.7771
 8553SOL     OW37294   0.398   0.908   2.073 -0.0206  0.1729 -0.1212
 8553SOL    HW137295   0.339   0.834   2.088  0.5896  0.0374  1.7221
 8553SOL    HW237296   0.395   0.919   1.978 -1.2809  2.0549  0.1365
 8554SOL     OW37297   2.231   2.684  10.443  0.0068 -0.0458  0.0380
 8554SOL    HW137298   2.177   2.649  10.514 -0.3510  0.9140  0.2258
 8554SOL    HW237299   2.164   2.710  10.380 -1.9274 -1.8946  1.3296
 8555SOL     OW37300   4.466   1.811  14.625  0.4367  0.3693  0.7910
 8555SOL    HW137301   4.392   1.755  14.652 -0.6998  1.4410 -0.0923
 8555SOL    HW237302   4.496   1.769  14.545 -0.0551 -0.0853  0.8414
 8556SOL     OW37303   1.725   1.132   2.869  0.8320 -0.7077 -0.0047
 8556SOL    HW137304   1.728   1.042   2.835 -0.8594 -1.1053  0.9161
 8556SOL    HW237305   1.631   1.146   2.872  1.1056  0.6603  1.8675
 8557SOL     OW37306   1.352   2.699  14.405  0.7216  0.0117  0.1549
 8557SOL    HW137307   1.376   2.748  14.326  0.0983 -1.4469 -0.9238
 8557SOL    HW237308   1.336   2.612  14.369 -3.4502  1.7304 -2.1611
 8558SOL     OW37309   4.162   2.189  15.692 -0.1186 -0.4484 -0.2156
 8558SOL    HW137310   4.135   2.100  15.717 -0.0944 -0.3088  0.3118
 8558SOL    HW237311   4.211   2.171  15.612  0.2733 -1.9759  0.3622
 8559SOL     OW37312   3.965   2.703   7.062  0.1274  0.0933 -0.0332
 8559SOL    HW137313   3.969   2.797   7.044 -0.0236  0.4280  1.6808
 8559SOL    HW237314   3.924   2.671   6.982 -0.2575  0.1219  0.1502
 8560SOL     OW37315   1.773   2.193   3.403 -0.0900  0.2715 -0.0701
 8560SOL    HW137316   1.684   2.200   3.438  0.4570  1.2136  1.1259
 8560SOL    HW237317   1.830   2.232   3.469 -0.5572 -0.6737  0.9058
 8561SOL     OW37318   0.175   2.247   1.456 -0.3868 -0.2593 -0.2279
 8561SOL    HW137319   0.251   2.210   1.502 -0.0855  1.0105  0.2895
 8561SOL    HW237320   0.125   2.166   1.446  1.7654 -1.5932 -0.2453
 8562SOL     OW37321   2.255   3.466  12.156  0.3025  0.2680  0.5239
 8562SOL    HW137322   2.262   3.452  12.250  0.7679  1.3331  0.6505
 8562SOL    HW237323   2.306   3.400  12.108  0.2760  0.4353  0.2620
 8563SOL     OW37324   0.608   3.839   7.338  0.0994  0.2638 -0.3308
 8563SOL    HW137325   0.688   3.837   7.390 -0.8004  0.6175  1.0441
 8563SOL    HW237326   0.574   3.923   7.369  0.8446  0.9516 -1.3883
 8564SOL     OW37327   4.726   2.131  13.686 -0.2560 -0.4815 -0.3962
 8564SOL    HW137328   0.053   2.100  13.622  3.5218  1.1118  2.6319
 8564SOL    HW237329   4.645   2.142  13.637  0.2432 -0.0008 -1.1213
 8565SOL     OW37330   0.720   3.051   6.202 -0.4438  0.1455  0.5185
 8565SOL    HW137331   0.767   3.120   6.155 -0.3561  0.2363  0.7369
 8565SOL    HW237332   0.632   3.062   6.165 -0.2416 -0.3674 -0.1002
 8566SOL     OW37333   3.107   3.945  16.447  0.1552 -0.2836 -0.3765
 8566SOL    HW137334   3.158   3.883  16.394 -1.4338 -2.3055  0.4842
 8566SOL    HW237335   3.022   3.961  16.407  1.0164  0.8825 -1.7554
 8567SOL     OW37336   4.096   0.909   1.652 -0.0518  0.2017 -0.4562
 8567SOL    HW137337   4.049   0.937   1.574 -2.6780  0.9033  1.3764
 8567SOL    HW237338   4.053   0.960   1.721  0.7332  0.1180  0.1106
 8568SOL     OW37339   4.048   3.768   7.159  0.3103 -0.1409 -0.0650
 8568SOL    HW137340   4.121   3.790   7.217 -0.6401  0.4998  0.8884
 8568SOL    HW237341   4.040   3.852   7.114 -0.2053  0.7149  1.6023
 8569SOL     OW37342   1.149   4.728   5.753 -0.4225 -0.7240  0.4211
 8569SOL    HW137343   1.112   0.070   5.794 -0.6938 -1.1378  0.9790
 8569SOL    HW237344   1.066   4.681   5.750 -0.8307  0.0793 -1.0092
 8570SOL     OW37345   0.511   1.510   7.816 -0.3433  0.3234  0.4371
 8570SOL    HW137346   0.513   1.568   7.892  1.8485  0.0898  0.5647
 8570SOL    HW237347   0.453   1.558   7.758  0.8422  0.4769 -0.6165
 8571SOL     OW37348   0.438   0.653   6.652  0.1702 -0.2149  0.1387
 8571SOL    HW137349   0.379   0.614   6.587 -0.8990  1.5968  0.0045
 8571SOL    HW237350   0.479   0.575   6.689 -0.6566 -0.1750  1.1527
 8572SOL     OW37351   4.076   4.009  12.514  0.5236  0.1170 -0.5325
 8572SOL    HW137352   4.008   3.952  12.548 -0.2257  1.8716  0.8865
 8572SOL    HW237353   4.068   4.075  12.583 -1.3488 -0.7979  0.1103
 8573SOL     OW37354   4.478   2.390   6.435  0.1788  0.4220 -0.3462
 8573SOL    HW137355   4.477   2.427   6.347  0.1051  3.9704  1.1230
 8573SOL    HW237356   4.428   2.308   6.433  1.6105 -0.5155  1.9319
 8574SOL     OW37357   0.855   3.105  15.988  0.0284  0.2554 -0.0819
 8574SOL    HW137358   0.950   3.096  15.979 -0.0368  0.8528 -1.4086
 8574SOL    HW237359   0.853   3.104  16.084  1.8744 -0.1361 -0.0523
 8575SOL     OW37360   0.326   1.198   6.538  0.1159  0.1037  0.3293
 8575SOL    HW137361   0.313   1.154   6.454 -3.2198  0.9762  0.4114
 8575SOL    HW237362   0.302   1.289   6.523 -1.8310 -0.3517  0.6854
 8576SOL     OW37363   2.692   2.167   3.203 -0.2184 -0.3191  0.1182
 8576SOL    HW137364   2.764   2.202   3.150  0.0398  0.0968  0.7327
 8576SOL    HW237365   2.731   2.164   3.291 -1.4424 -0.9589  0.6272
 8577SOL     OW37366   4.314   1.716   4.566 -0.4218  0.2631  0.9742
 8577SOL    HW137367   4.410   1.723   4.568 -0.3464 -0.7343  0.7419
 8577SOL    HW237368   4.289   1.777   4.636 -1.7857 -0.2302  0.9127
 8578SOL     OW37369   3.094   0.967  11.438 -0.3999  0.1281 -0.3778
 8578SOL    HW137370   3.019   0.926  11.397 -0.0155 -2.5905  1.6371
 8578SOL    HW237371   3.093   0.926  11.524  0.7514 -0.4874 -0.6508
 8579SOL     OW37372   1.476   4.176   3.512 -0.0874  0.1357  0.2603
 8579SOL    HW137373   1.381   4.180   3.521  0.1227  1.0166  1.9628
 8579SOL    HW237374   1.495   4.102   3.454 -2.7939 -0.6047  0.3534
 8580SOL     OW37375   3.397   0.693   4.959  0.0569  0.2961 -0.1271
 8580SOL    HW137376   3.439   0.661   4.879 -1.0208  0.2976 -0.6902
 8580SOL    HW237377   3.467   0.658   5.015  2.0088 -0.2948 -2.9180
 8581SOL     OW37378   2.619   4.430  11.365 -0.4679  0.3000  0.2146
 8581SOL    HW137379   2.705   4.462  11.338 -1.4148  1.3772 -1.5408
 8581SOL    HW237380   2.578   4.443  11.279  2.3806  0.8462 -1.0590
 8582SOL     OW37381   0.297   2.705   5.886 -0.0176  0.6453 -0.3289
 8582SOL    HW137382   0.314   2.787   5.839  0.1239  2.2029  2.4413
 8582SOL    HW237383   0.382   2.688   5.927 -0.0807  1.0000 -0.0439
 8583SOL     OW37384   0.875   2.321   5.643 -0.8660 -0.1960  0.0862
 8583SOL    HW137385   0.842   2.381   5.711 -1.5047 -1.1329  0.6160
 8583SOL    HW237386   0.867   2.240   5.693 -0.0311 -0.0902  0.3894
 8584SOL     OW37387   3.173   3.228   1.290 -0.0028  0.7033  0.1760
 8584SOL    HW137388   3.146   3.164   1.225  0.7953 -0.2746  0.8145
 8584SOL    HW237389   3.257   3.192   1.319 -0.5130 -0.1565  0.6065
 8585SOL     OW37390   0.197   2.125   5.668  0.5441 -0.0724 -0.4183
 8585SOL    HW137391   0.188   2.159   5.579 -1.9142 -0.7640 -0.4509
 8585SOL    HW237392   0.260   2.183   5.710  2.4159 -1.7715 -0.8875
 8586SOL     OW37393   4.670   1.357  11.528  0.0380 -0.1694  0.1620
 8586SOL    HW137394   4.649   1.270  11.495 -1.0788  0.8762 -1.8417
 8586SOL    HW237395   4.648   1.345  11.621  1.2564 -0.1563  0.4468
 8587SOL     OW37396   3.752   1.457   4.645 -0.1359 -0.4193 -0.5903
 8587SOL    HW137397   3.717   1.545   4.662 -1.1568 -0.7483 -0.9896
 8587SOL    HW237398   3.824   1.460   4.709 -1.1966  2.4696  0.4876
 8588SOL     OW37399   4.269   3.235   9.586  0.2238 -0.4391 -0.2305
 8588SOL    HW137400   4.289   3.142   9.583  0.1255 -0.4919  0.6430
 8588SOL    HW237401   4.249   3.261   9.496 -0.0161 -1.5563 -0.5042
 8589SOL     OW37402   1.385   0.042   1.529 -0.6183  0.1676  0.5365
 8589SOL    HW137403   1.476   0.018   1.550 -0.8699 -1.1221  0.1739
 8589SOL    HW237404   1.350   4.691   1.512  0.0974  0.2617 -1.4719
 8590SOL     OW37405   0.751   3.912   9.587  0.3271 -0.4995 -0.2691
 8590SOL    HW137406   0.700   3.862   9.650 -0.2418 -1.4596 -1.4826
 8590SOL    HW237407   0.834   3.911   9.634  0.7769 -3.0860 -1.1477
 8591SOL     OW37408   1.716   4.191   3.211 -0.0568 -0.3505 -0.4013
 8591SOL    HW137409   1.676   4.269   3.250  1.6470  0.8154 -1.0365
 8591SOL    HW237410   1.647   4.180   3.145 -2.2027 -1.1745  1.9354
 8592SOL     OW37411   3.286   1.639   9.300  0.0885 -0.1757  0.6484
 8592SOL    HW137412   3.340   1.593   9.236 -1.2015  1.3043 -1.5143
 8592SOL    HW237413   3.263   1.563   9.354  0.8160 -1.9346 -1.5232
 8593SOL     OW37414   1.426   1.678   7.964 -0.3517  0.5249 -0.3268
 8593SOL    HW137415   1.381   1.650   7.884 -1.7229  0.0062  0.6262
 8593SOL    HW237416   1.480   1.748   7.927  1.5762  0.2476  1.9631
 8594SOL     OW37417   3.248   0.506   7.620 -0.3783 -0.0823 -0.4950
 8594SOL    HW137418   3.267   0.546   7.535 -1.6271 -0.4647 -0.9513
 8594SOL    HW237419   3.178   0.447   7.590  0.1002 -0.8895 -0.0316
 8595SOL     OW37420   2.676   1.348  16.531  0.4167 -0.7163  0.0394
 8595SOL    HW137421   2.761   1.305  16.543  0.9906  0.6718  1.0463
 8595SOL    HW237422   2.630   1.324  16.612 -2.3776  1.1723 -0.9793
 8596SOL     OW37423   3.210   1.052   5.663  0.6889 -0.0012 -0.5222
 8596SOL    HW137424   3.278   1.014   5.608  1.5921 -0.5861  1.0017
 8596SOL    HW237425   3.241   1.142   5.668 -1.4170  0.7255 -0.2404
 8597SOL     OW37426   0.443   4.338  13.295  0.0865 -0.1090  0.0896
 8597SOL    HW137427   0.363   4.379  13.327  1.8442  1.6540  2.2393
 8597SOL    HW237428   0.444   4.371  13.205 -0.5955 -0.4780 -0.0514
 8598SOL     OW37429   4.228   1.832   2.527  0.0418 -0.1201  0.1148
 8598SOL    HW137430   4.262   1.915   2.496 -0.0030  0.2682  1.1100
 8598SOL    HW237431   4.172   1.803   2.454 -0.0036  0.7840 -0.2030
 8599SOL     OW37432   2.768   0.122   8.644 -0.4098  0.4763 -0.5217
 8599SOL    HW137433   2.826   0.168   8.705 -1.1328 -2.1065  2.1197
 8599SOL    HW237434   2.766   0.176   8.565  1.6338  0.8402 -0.3340
 8600SOL     OW37435   4.051   2.140  15.107 -0.0487 -0.1231  0.0800
 8600SOL    HW137436   4.118   2.183  15.161  1.0041 -0.0057 -1.3381
 8600SOL    HW237437   4.047   2.200  15.033 -0.5495  0.0945  0.2811
 8601SOL     OW37438   4.284   4.675   5.234 -0.0146  0.0189  0.3779
 8601SOL    HW137439   4.228   4.668   5.157 -1.5039  0.9111  1.3876
 8601SOL    HW237440   4.365   4.630   5.209  0.2144 -0.2568  1.6302
 8602SOL     OW37441   0.382   2.145  15.609 -0.1684 -0.2494  0.0224
 8602SOL    HW137442   0.445   2.111  15.672  0.3143 -0.6237 -0.6679
 8602SOL    HW237443   0.412   2.091  15.536  3.3885  0.4397  0.9849
 8603SOL     OW37444   0.788   2.153  13.278 -0.0984 -0.5035  0.0945
 8603SOL    HW137445   0.804   2.061  13.302 -1.0484 -0.2786  1.5457
 8603SOL    HW237446   0.842   2.159  13.199  1.9179 -0.4152  1.4889
 8604SOL     OW37447   3.118   0.789   1.596 -0.2063 -0.6643 -0.0998
 8604SOL    HW137448   3.170   0.855   1.551  0.4551 -1.4773 -0.5200
 8604SOL    HW237449   3.117   0.711   1.540  1.7190 -1.6351  1.2018
 8605SOL     OW37450   0.295   2.831   8.004  0.1050 -0.7520  0.2725
 8605SOL    HW137451   0.371   2.888   7.993 -2.4384  2.6820  0.5149
 8605SOL    HW237452   0.309   2.779   7.925  0.4851 -0.0256 -0.1303
 8606SOL     OW37453   2.820   3.176  10.749 -0.1985  0.2266  0.4473
 8606SOL    HW137454   2.784   3.189  10.837 -0.3152  2.7058  0.0378
 8606SOL    HW237455   2.737   3.187  10.702 -1.7595 -2.0966  2.6338
 8607SOL     OW37456   4.713   2.213   4.521  0.5643  0.3378  0.4284
 8607SOL    HW137457   0.045   2.267   4.559 -1.2587  1.8931  1.5299
 8607SOL    HW237458   4.671   2.278   4.465 -2.4972 -1.2507  0.8966
 8608SOL     OW37459   3.121   2.382   3.347 -0.1243 -0.2075 -0.5432
 8608SOL    HW137460   3.073   2.337   3.417 -2.5329  0.7250 -1.6108
 8608SOL    HW237461   3.178   2.311   3.318  0.1553 -0.1114 -0.2368
 8609SOL     OW37462   3.129   0.653  11.540 -0.1087  0.1278  0.0625
 8609SOL    HW137463   3.128   0.716  11.612  2.4947 -1.0921  1.2096
 8609SOL    HW237464   3.203   0.598  11.569 -0.7873 -0.5537  0.4979
 8610SOL     OW37465   2.850   4.048   8.875 -0.1207 -0.0668 -0.4456
 8610SOL    HW137466   2.916   3.985   8.847  0.0668 -0.0266 -0.0894
 8610SOL    HW237467   2.901   4.127   8.889  1.0384 -0.8872 -0.1129
 8611SOL     OW37468   1.073   4.265   1.868 -0.2943 -0.3596  0.7246
 8611SOL    HW137469   1.157   4.240   1.906 -0.0124 -1.4268 -0.5831
 8611SOL    HW237470   1.026   4.303   1.942 -2.2495  0.4451 -0.9465
 8612SOL     OW37471   0.563   1.310   3.225  0.2319 -0.0158 -0.1307
 8612SOL    HW137472   0.500   1.240   3.243  0.1478 -0.0352 -0.4906
 8612SOL    HW237473   0.504   1.384   3.213 -2.2822 -1.9931 -0.0378
 8613SOL     OW37474   2.012   0.989   8.016  0.4103  0.5212 -0.8386
 8613SOL    HW137475   1.963   0.907   8.018 -0.0376  0.8739  3.6363
 8613SOL    HW237476   2.098   0.958   7.988 -0.1024 -1.2310 -0.4706
 8614SOL     OW37477   1.969   0.126   3.342 -0.1916  0.0509 -0.0842
 8614SOL    HW137478   1.996   0.201   3.288 -2.0267  1.4493  0.9631
 8614SOL    HW237479   1.886   0.094   3.307 -0.7282  0.0731  1.1737
 8615SOL     OW37480   1.767   2.766   0.420 -0.3852  0.6410  0.1231
 8615SOL    HW137481   1.749   2.835   0.356 -1.2963 -0.8506 -1.2370
 8615SOL    HW237482   1.808   2.817   0.489 -1.2639 -0.8563  1.7539
 8616SOL     OW37483   2.811   2.445   5.277 -0.3077 -0.7033 -0.3320
 8616SOL    HW137484   2.890   2.409   5.239  0.0538  1.7534 -1.8949
 8616SOL    HW237485   2.830   2.429   5.369 -1.2687 -1.2523 -0.2201
 8617SOL     OW37486   1.139   4.353   5.950 -0.7166 -0.4710 -0.0731
 8617SOL    HW137487   1.122   4.442   5.982  1.2391  0.6468 -2.1548
 8617SOL    HW237488   1.222   4.342   5.995 -0.0936 -2.0005 -1.5906
 8618SOL     OW37489   4.450   3.746   4.495  0.5841  0.3596 -0.0065
 8618SOL    HW137490   4.515   3.686   4.532 -0.0200  0.2405  0.8653
 8618SOL    HW237491   4.416   3.700   4.418  0.7587  1.5953 -0.8142
 8619SOL     OW37492   3.018   1.511   7.554 -0.0701 -0.1945 -0.0646
 8619SOL    HW137493   3.007   1.470   7.640 -1.4372 -0.8633 -0.5520
 8619SOL    HW237494   2.992   1.602   7.567 -1.1302 -0.4445 -0.4132
 8620SOL     OW37495   2.017   0.524   2.291 -0.3784 -0.4410  0.6545
 8620SOL    HW137496   1.943   0.542   2.349 -1.3560 -0.6246 -0.5298
 8620SOL    HW237497   2.039   0.610   2.256 -1.6962 -1.0185 -1.5793
 8621SOL     OW37498   4.217   4.241   7.769  0.3480 -0.1647  0.0156
 8621SOL    HW137499   4.166   4.252   7.689 -0.5011 -1.0817  0.4324
 8621SOL    HW237500   4.229   4.334   7.788  2.1765 -0.0624 -1.6637
 8622SOL     OW37501   0.943   2.382   4.211  0.4474  0.0149  0.8772
 8622SOL    HW137502   0.925   2.292   4.181 -0.2867  0.8082 -1.0990
 8622SOL    HW237503   0.931   2.436   4.133  2.7836 -0.5502  0.1222
 8623SOL     OW37504   0.125   1.782  17.044  0.2189 -0.7569 -0.1129
 8623SOL    HW137505   0.046   1.741  17.009 -0.2062 -1.1558  1.3249
 8623SOL    HW237506   0.177   1.705  17.068 -0.8006 -1.7065 -0.9592
 8624SOL     OW37507   3.500   1.990   4.910 -0.4196  0.2267 -0.0290
 8624SOL    HW137508   3.527   1.934   4.984 -0.7275  0.9040  0.5921
 8624SOL    HW237509   3.510   2.078   4.945 -2.1006  0.2684  0.3128
 8625SOL     OW37510   1.199   0.658   3.919 -0.9103 -0.2431 -0.2490
 8625SOL    HW137511   1.158   0.602   3.853 -2.0590  0.7964 -0.4132
 8625SOL    HW237512   1.127   0.688   3.974 -1.2663 -0.8259 -0.3946
 8626SOL     OW37513   1.682   4.306   7.394  0.7434 -0.0518  0.0523
 8626SOL    HW137514   1.759   4.276   7.346  1.7451  0.1616  1.5374
 8626SOL    HW237515   1.626   4.320   7.317 -2.2992 -1.7918  1.9045
 8627SOL     OW37516   0.716   0.543   6.397 -0.1926  0.3082  0.9208
 8627SOL    HW137517   0.715   0.517   6.489  2.6253  0.0105  0.8813
 8627SOL    HW237518   0.705   0.459   6.353 -0.9865  0.5674  0.6167
 8628SOL     OW37519   1.222   2.508   5.003  0.0059  0.1803 -0.0696
 8628SOL    HW137520   1.263   2.474   5.083  0.1814 -1.2288 -0.7511
 8628SOL    HW237521   1.238   2.602   5.013  0.0904 -0.1172  2.6278
 8629SOL     OW37522   3.960   1.874   1.555 -0.0623  0.4118  0.1762
 8629SOL    HW137523   4.049   1.882   1.588  0.0278  1.6305 -0.3487
 8629SOL    HW237524   3.903   1.919   1.618 -0.5915  1.4687 -1.0535
 8630SOL     OW37525   1.610   2.373   6.632  0.5027  0.1755 -0.1925
 8630SOL    HW137526   1.680   2.367   6.696  0.6250  2.0652 -0.1695
 8630SOL    HW237527   1.638   2.449   6.580 -1.1500  0.3180 -0.8842
 8631SOL     OW37528   0.247   0.011  10.823  0.1046  0.1894  0.2506
 8631SOL    HW137529   0.209   0.088  10.866  0.4045  0.0906  0.6971
 8631SOL    HW237530   0.334   0.051  10.815  1.1996 -2.1680  0.5129
 8632SOL     OW37531   1.584   1.974  17.713  0.2057  0.5535  0.2726
 8632SOL    HW137532   1.660   1.995   0.021 -0.1419 -0.9138  1.3159
 8632SOL    HW237533   1.537   1.906   0.014 -1.8451  0.7585 -1.4868
 8633SOL     OW37534   0.805   3.569   3.134 -0.0687 -0.2269 -0.1139
 8633SOL    HW137535   0.865   3.503   3.170  1.1843  0.5815 -0.7163
 8633SOL    HW237536   0.755   3.593   3.212 -1.2339  0.4336 -1.0712
 8634SOL     OW37537   0.503   0.817  10.936  0.4200 -0.3017  0.0731
 8634SOL    HW137538   0.489   0.905  10.901 -1.2183 -0.7136 -0.3312
 8634SOL    HW237539   0.598   0.818  10.939  0.3894 -1.8149  1.3969
 8635SOL     OW37540   1.755   3.729   2.773 -0.7342 -0.3266  0.5456
 8635SOL    HW137541   1.709   3.661   2.823 -2.9748  1.1609  0.4730
 8635SOL    HW237542   1.746   3.681   2.690  2.4626  0.0515 -0.0025
 8636SOL     OW37543   2.365   0.626   2.662  0.8500 -0.1468 -0.5009
 8636SOL    HW137544   2.290   0.572   2.638  0.2376  0.6282 -0.3081
 8636SOL    HW237545   2.418   0.570   2.719  0.9683  0.7229  0.2461
 8637SOL     OW37546   1.453   2.268  14.093 -0.2473 -0.4404  0.2660
 8637SOL    HW137547   1.524   2.205  14.108  0.8654  0.6902 -0.2352
 8637SOL    HW237548   1.482   2.356  14.117  2.8626 -1.6440  0.8885
 8638SOL     OW37549   2.197   0.031   5.996 -0.0764  0.2556  0.6255
 8638SOL    HW137550   2.228   0.040   6.086  1.2509 -1.4574  0.3457
 8638SOL    HW237551   2.261   4.704   5.964  1.9171  2.8297 -0.5753
 8639SOL     OW37552   1.989   3.636   6.652 -0.4850 -0.3454 -0.3101
 8639SOL    HW137553   1.957   3.655   6.564 -0.9854  1.1699  0.1947
 8639SOL    HW237554   1.990   3.713   6.709 -3.2339 -0.3565 -0.2629
 8640SOL     OW37555   3.296   4.262   1.145 -0.3343  0.2316  0.3384
 8640SOL    HW137556   3.304   4.328   1.214  0.2693  2.6674 -2.0930
 8640SOL    HW237557   3.243   4.313   1.083 -1.0675  0.9545  1.5392
 8641SOL     OW37558   3.259   2.056  16.205  0.3317  0.0917 -0.0262
 8641SOL    HW137559   3.185   2.084  16.151  1.5415  0.3399 -1.5459
 8641SOL    HW237560   3.212   2.026  16.283 -0.6921  0.4321 -0.5099
 8642SOL     OW37561   3.662   2.782   8.780  0.1556 -0.1609  0.2075
 8642SOL    HW137562   3.705   2.861   8.812  0.8363  0.7502 -2.9669
 8642SOL    HW237563   3.652   2.724   8.856  0.7866  0.9848  1.1528
 8643SOL     OW37564   3.531   2.675   1.263 -0.5628  0.2691  0.6146
 8643SOL    HW137565   3.566   2.738   1.201 -0.7803 -1.3587 -1.1492
 8643SOL    HW237566   3.447   2.721   1.276 -0.6568 -0.2455  1.8720
 8644SOL     OW37567   4.482   1.857  10.904  0.1745  0.3901  0.2282
 8644SOL    HW137568   4.404   1.809  10.879 -0.0206 -0.0252  1.6488
 8644SOL    HW237569   4.531   1.801  10.964 -0.4417 -1.0322 -0.6281
 8645SOL     OW37570   1.131   1.041   3.425 -0.1722 -1.2839  0.3679
 8645SOL    HW137571   1.219   1.062   3.455 -1.2541  2.2198  1.0295
 8645SOL    HW237572   1.156   0.969   3.366 -2.4266 -1.0527 -0.8920
 8646SOL     OW37573   0.859   1.747   8.964  0.8037 -0.1764  0.1333
 8646SOL    HW137574   0.920   1.818   8.987  1.0931 -0.1046 -0.8723
 8646SOL    HW237575   0.881   1.745   8.871  1.6366 -1.7703  0.3553
 8647SOL     OW37576   2.264   1.047   2.768  0.1742  0.5517 -0.6766
 8647SOL    HW137577   2.356   1.039   2.793 -0.5830  0.7515  2.1577
 8647SOL    HW237578   2.226   0.960   2.781  0.8621  0.3629  0.0788
 8648SOL     OW37579   4.442   4.021  17.736  0.0547 -0.0527 -0.3029
 8648SOL    HW137580   4.470   4.101  17.691  0.7219 -1.5402 -2.5264
 8648SOL    HW237581   4.475   3.954  17.677  0.0400 -2.5837  2.5301
 8649SOL     OW37582   2.539   3.717   4.748  0.3436  0.0415  0.7485
 8649SOL    HW137583   2.625   3.678   4.727  0.4875  1.2568 -0.8822
 8649SOL    HW237584   2.501   3.725   4.661  0.7287  0.0586  0.5805
 8650SOL     OW37585   0.614   0.987   9.675 -0.2782 -0.3753 -0.5932
 8650SOL    HW137586   0.632   0.899   9.643  0.8094 -0.8647  1.3785
 8650SOL    HW237587   0.522   0.982   9.651 -0.6109  1.6960  0.2630
 8651SOL     OW37588   3.180   3.011   9.196 -0.0056  0.1573  0.1558
 8651SOL    HW137589   3.086   3.026   9.193  0.0948  0.3146 -2.2418
 8651SOL    HW237590   3.224   3.039   9.115  0.3764 -0.7197  0.0520
 8652SOL     OW37591   3.770   2.586  10.751 -0.4451  0.1603  0.3778
 8652SOL    HW137592   3.843   2.642  10.774 -0.2379 -0.7524  1.9185
 8652SOL    HW237593   3.720   2.641  10.691 -0.3486 -1.2798 -1.0272
 8653SOL     OW37594   3.856   1.939   4.869  0.5033 -0.0935 -0.0051
 8653SOL    HW137595   3.832   2.005   4.804 -0.5923 -0.0549  0.4421
 8653SOL    HW237596   3.782   1.878   4.870 -0.0570  0.6344  2.1637
 8654SOL     OW37597   2.550   3.877   5.937  0.1536  0.4557 -0.0196
 8654SOL    HW137598   2.628   3.852   5.887  1.0717  0.7191  1.2745
 8654SOL    HW237599   2.531   3.800   5.991 -0.3125  0.7808  0.2723
 8655SOL     OW37600   1.273   0.481   7.783 -0.0880 -0.2967 -0.1890
 8655SOL    HW137601   1.184   0.447   7.796  0.0138 -0.7296 -0.6631
 8655SOL    HW237602   1.292   0.513   7.872  1.6249 -1.6448 -0.0682
 8656SOL     OW37603   2.720   2.887   6.052  0.0406  0.0136  0.4450
 8656SOL    HW137604   2.656   2.853   6.114 -1.5411  1.0347 -0.5913
 8656SOL    HW237605   2.665   2.944   5.997  1.2072  0.4094 -0.3291
 8657SOL     OW37606   2.705   2.641   3.541 -0.2266 -0.2061  0.3703
 8657SOL    HW137607   2.794   2.608   3.551  0.0092  0.2741 -0.1301
 8657SOL    HW237608   2.703   2.649   3.445 -1.3214  1.2840  0.5154
 8658SOL     OW37609   1.687   2.096   6.836 -0.4563  0.3568  0.5243
 8658SOL    HW137610   1.715   2.055   6.754  0.9891 -1.3046  1.8416
 8658SOL    HW237611   1.594   2.075   6.825 -1.0754  1.5822  3.5882
 8659SOL     OW37612   1.491   0.066   0.104 -0.9354  0.7158 -0.5314
 8659SOL    HW137613   1.468   0.047   0.195  0.4307  2.8790  0.2655
 8659SOL    HW237614   1.581   0.098   0.117 -0.9548  0.8867 -0.8212
 8660SOL     OW37615   1.414   4.380   2.646  0.4414  0.3402 -0.1301
 8660SOL    HW137616   1.324   4.349   2.655  0.6500 -0.3970 -0.5853
 8660SOL    HW237617   1.426   4.438   2.721 -0.4949  2.7829 -1.8861
 8661SOL     OW37618   3.264   3.896   0.118 -0.4686 -0.2750  0.2823
 8661SOL    HW137619   3.264   3.991   0.130  0.0706 -0.4219  1.4103
 8661SOL    HW237620   3.306   3.884   0.033 -1.5365 -0.2308 -0.2538
 8662SOL     OW37621   1.850   2.640   4.402 -0.2736  0.3740 -0.5386
 8662SOL    HW137622   1.796   2.714   4.375  0.0448  0.7818 -0.0442
 8662SOL    HW237623   1.818   2.571   4.344 -3.6441  0.6745  0.9242
 8663SOL     OW37624   3.339   1.565   5.386 -0.6144  0.2662  0.2235
 8663SOL    HW137625   3.376   1.653   5.384 -1.3733  0.5473 -1.5301
 8663SOL    HW237626   3.399   1.510   5.336 -3.4653 -1.7322 -1.0274
 8664SOL     OW37627   0.944   0.892   4.799 -0.3122  0.4363  0.1213
 8664SOL    HW137628   1.002   0.962   4.767 -1.4553  1.3272  0.0137
 8664SOL    HW237629   0.918   0.843   4.720  1.5137  2.5553 -1.7946
 8665SOL     OW37630   4.077   2.174   1.726  0.2403  0.0195  0.2442
 8665SOL    HW137631   4.091   2.245   1.787  0.3356 -0.9270  1.3203
 8665SOL    HW237632   4.123   2.207   1.649 -1.3614  0.7976 -0.3907
 8666SOL     OW37633   0.602   3.829   9.792 -0.5874 -0.0179 -0.3918
 8666SOL    HW137634   0.629   3.784   9.872  0.1034  0.0221 -0.6046
 8666SOL    HW237635   0.588   3.918   9.826  1.2117  0.1623 -0.1367
 8667SOL     OW37636   1.981   2.546   9.678  0.5526  0.5234 -0.3338
 8667SOL    HW137637   1.919   2.596   9.625  0.6013 -0.2946 -1.1612
 8667SOL    HW237638   1.924   2.512   9.747  2.9138  0.8018  1.7521
 8668SOL     OW37639   4.479   1.150  16.325 -0.5895  0.1478 -0.0429
 8668SOL    HW137640   4.555   1.127  16.273  0.1666  3.9262 -0.6431
 8668SOL    HW237641   4.508   1.121  16.412 -1.4926  0.1690  0.2701
 8669SOL     OW37642   3.920   0.065   4.587  0.0297 -0.5973  0.0697
 8669SOL    HW137643   3.985   0.000   4.560 -1.0789 -1.1506 -1.2782
 8669SOL    HW237644   3.860   0.058   4.513 -0.4426  0.5538  0.3419
 8670SOL     OW37645   4.425   1.848   7.398  0.0385 -0.5935 -0.2293
 8670SOL    HW137646   4.471   1.870   7.479 -0.7258  0.4048 -0.0672
 8670SOL    HW237647   4.446   1.755   7.392 -2.5261 -1.2852  1.0645
 8671SOL     OW37648   4.264   1.290   6.849 -0.3883  0.2598  0.2412
 8671SOL    HW137649   4.197   1.222   6.860 -0.3708  0.2417  0.2347
 8671SOL    HW237650   4.238   1.356   6.913 -3.4006  1.1983 -1.9501
 8672SOL     OW37651   1.220   3.020   8.880 -0.1047  0.0784 -0.2892
 8672SOL    HW137652   1.150   2.971   8.923  0.4261 -0.0830  0.3935
 8672SOL    HW237653   1.174   3.104   8.882 -0.2796 -0.0323  0.1143
 8673SOL     OW37654   3.256   2.577   4.864  0.1341 -0.1684 -0.1662
 8673SOL    HW137655   3.175   2.626   4.879 -0.3442 -0.6046 -1.3207
 8673SOL    HW237656   3.223   2.488   4.876  0.5676 -0.4703 -1.1781
 8674SOL     OW37657   2.697   0.698   9.198 -0.0671 -0.1809  0.1308
 8674SOL    HW137658   2.607   0.723   9.176 -0.1333  0.9039  1.6163
 8674SOL    HW237659   2.682   0.616   9.243  1.0564 -1.0381 -1.0533
 8675SOL     OW37660   2.888   0.148  16.920  0.4242  0.0535 -0.0847
 8675SOL    HW137661   2.851   0.092  16.852 -0.5416 -0.0106  0.4968
 8675SOL    HW237662   2.962   0.192  16.878  0.0036  1.0636  0.2549
 8676SOL     OW37663   0.740   1.118   4.111 -0.1657  0.0816 -0.1128
 8676SOL    HW137664   0.646   1.106   4.098 -0.5785  2.0953  0.9082
 8676SOL    HW237665   0.731   1.213   4.126  0.0979 -0.0024  0.5772
 8677SOL     OW37666   4.378   2.085   1.252  0.5164  0.6062 -0.2916
 8677SOL    HW137667   4.363   2.045   1.167  2.7678 -0.5052 -0.1602
 8677SOL    HW237668   4.291   2.090   1.291  0.0454  0.6563 -1.3510
 8678SOL     OW37669   2.873   1.205   7.586  0.0570 -0.2948 -0.3363
 8678SOL    HW137670   2.927   1.245   7.653 -1.4645  0.9198  0.1470
 8678SOL    HW237671   2.801   1.260   7.555  0.5778  1.6140  1.9440
 8679SOL     OW37672   1.880   4.511   4.902  0.2418  0.1762  0.6146
 8679SOL    HW137673   1.930   4.535   4.980  0.2561 -0.5907  0.8420
 8679SOL    HW237674   1.814   4.446   4.926  0.9370 -0.8117 -0.1117
 8680SOL     OW37675   4.676   2.898   3.437  0.4272  0.3313 -0.3247
 8680SOL    HW137676   4.672   2.848   3.518  0.5921 -1.6518 -1.5280
 8680SOL    HW237677   4.584   2.908   3.411 -0.0095 -0.4182  0.9408
 8681SOL     OW37678   3.412   0.927   7.998 -0.3643  0.1975  0.2779
 8681SOL    HW137679   3.460   0.878   7.932 -0.7239  2.2545 -1.5161
 8681SOL    HW237680   3.428   0.875   8.077  0.8676  0.1496 -0.0059
 8682SOL     OW37681   2.771   3.760   6.270 -0.0886 -0.0436  0.2888
 8682SOL    HW137682   2.791   3.806   6.189  0.2115 -0.3612  0.1820
 8682SOL    HW237683   2.858   3.720   6.278 -0.4965 -1.0221 -0.1804
 8683SOL     OW37684   4.707   4.317   9.717 -0.2275 -0.3226  0.3564
 8683SOL    HW137685   4.664   4.239   9.753  2.0950 -1.2682  1.1509
 8683SOL    HW237686   4.653   4.393   9.735  1.6372  0.3490  3.0869
 8684SOL     OW37687   3.892   2.821  12.492  0.0886 -0.4090  0.1139
 8684SOL    HW137688   3.937   2.856  12.569 -1.0071 -0.8890  0.9688
 8684SOL    HW237689   3.895   2.901  12.438  1.2650  0.2608  1.1842
 8685SOL     OW37690   0.757   1.991  10.403 -0.9974 -0.0216  0.2829
 8685SOL    HW137691   0.727   2.060  10.462 -3.4560  0.5067 -1.5642
 8685SOL    HW237692   0.681   1.961  10.354 -1.7483 -0.6512  1.8788
 8686SOL     OW37693   0.306   1.162  13.635 -0.2077  0.1683 -0.2660
 8686SOL    HW137694   0.301   1.104  13.559 -3.5864 -1.1931  0.9681
 8686SOL    HW237695   0.225   1.211  13.620 -0.1037  0.9456  1.6882
 8687SOL     OW37696   2.507   4.125   5.729  0.0965 -0.1239 -0.1694
 8687SOL    HW137697   2.512   4.220   5.734  1.4540 -0.1840 -0.4069
 8687SOL    HW237698   2.425   4.116   5.776  0.0693 -0.5150 -0.2912
 8688SOL     OW37699   2.840   3.531   1.328  0.1554  0.6310 -0.6399
 8688SOL    HW137700   2.868   3.620   1.305  1.7815 -0.1634 -1.7563
 8688SOL    HW237701   2.900   3.512   1.400 -0.7317  2.5066  0.5639
 8689SOL     OW37702   3.253   4.355   1.735 -0.2543  0.0648 -0.6933
 8689SOL    HW137703   3.242   4.450   1.737 -0.1851  0.0348  0.8403
 8689SOL    HW237704   3.259   4.325   1.825  0.8024 -0.9798 -1.1152
 8690SOL     OW37705   4.070   2.717   0.519  0.0412  0.2636 -0.1776
 8690SOL    HW137706   3.991   2.679   0.557 -0.4633 -0.0848 -1.5719
 8690SOL    HW237707   4.053   2.731   0.426  1.9887  1.4043 -0.3407
 8691SOL     OW37708   4.123   3.053   9.005 -0.0916 -0.2643  0.2625
 8691SOL    HW137709   4.148   2.962   8.987  1.2054  0.0347  0.5532
 8691SOL    HW237710   4.176   3.104   8.944 -0.3863 -0.8067 -0.4464
 8692SOL     OW37711   2.145   0.157  13.683  0.6038  0.3665 -0.1038
 8692SOL    HW137712   2.132   0.063  13.693 -1.1073  0.5413 -0.6413
 8692SOL    HW237713   2.184   0.189  13.764  1.5783  0.3375 -0.5629
 8693SOL     OW37714   1.801   2.310   6.185 -0.1356  0.0296 -0.2318
 8693SOL    HW137715   1.720   2.343   6.147 -0.1729  0.5178  0.2626
 8693SOL    HW237716   1.819   2.232   6.133  3.1629  0.6515 -0.0229
 8694SOL     OW37717   1.664   1.127   0.058  0.5095 -0.8634  0.1757
 8694SOL    HW137718   1.706   1.183  17.740  2.0032 -2.9463 -0.6708
 8694SOL    HW237719   1.708   1.042   0.054  2.7169  0.2031  2.0443
 8695SOL     OW37720   4.577   1.774   2.817  0.3205 -0.1227 -0.4828
 8695SOL    HW137721   4.502   1.745   2.765 -0.7351  0.1391  0.9018
 8695SOL    HW237722   4.623   1.690   2.818 -0.2495 -0.4253  0.0964
 8696SOL     OW37723   1.782   1.504   3.805  0.1054  0.1072  0.3083
 8696SOL    HW137724   1.703   1.452   3.785 -1.0370  1.2925  1.7528
 8696SOL    HW237725   1.773   1.577   3.744 -0.8675 -1.1791 -1.1158
 8697SOL     OW37726   0.719   3.059   3.265  0.2159 -0.0456  0.4458
 8697SOL    HW137727   0.676   3.118   3.204 -0.9460  0.2318  1.5536
 8697SOL    HW237728   0.787   3.122   3.289  0.6883  0.6974 -2.8557
 8698SOL     OW37729   2.968   1.360   5.314  0.1950 -0.4377 -0.0128
 8698SOL    HW137730   2.929   1.273   5.315 -1.1825  0.1484 -1.3058
 8698SOL    HW237731   2.996   1.387   5.401  0.5092 -0.2915 -0.1585
 8699SOL     OW37732   3.081   3.674   2.770 -0.2987  0.6243 -0.7952
 8699SOL    HW137733   3.108   3.607   2.833 -1.6963  2.0725  1.3458
 8699SOL    HW237734   3.022   3.622   2.716 -0.5905  0.0716  0.0610
 8700SOL     OW37735   2.957   1.949   7.307 -0.1183 -0.4966  0.1430
 8700SOL    HW137736   3.037   1.963   7.257  0.2705 -1.7222  0.4203
 8700SOL    HW237737   2.911   2.015   7.256  0.6396  1.3261  1.8438
 8701SOL     OW37738   1.373   1.051  15.673 -0.2439  0.2492 -0.3259
 8701SOL    HW137739   1.294   1.105  15.668 -0.7394 -0.3013  1.6493
 8701SOL    HW237740   1.414   1.087  15.752 -0.1979 -0.9529  0.1945
 8702SOL     OW37741   2.872   2.891  13.369  0.1338  0.1431  0.1221
 8702SOL    HW137742   2.933   2.950  13.325 -1.1519  0.0878 -1.6959
 8702SOL    HW237743   2.924   2.836  13.429 -0.4946 -3.1954 -2.3976
 8703SOL     OW37744   3.236   3.066   3.258 -0.2539  0.0066  0.5813
 8703SOL    HW137745   3.283   3.062   3.174 -0.1426  1.1597  0.5886
 8703SOL    HW237746   3.306   3.048   3.321  0.6956 -2.2949 -1.0900
 8704SOL     OW37747   3.658   3.007   1.452  0.4335 -0.4570  0.1241
 8704SOL    HW137748   3.581   2.969   1.494 -0.2259 -2.0205 -2.5417
 8704SOL    HW237749   3.650   2.987   1.359  0.2260 -1.6956  0.4145
 8705SOL     OW37750   1.765   2.783   3.692  0.5591  0.7162 -0.1556
 8705SOL    HW137751   1.826   2.727   3.643 -2.1914 -0.2214 -2.5018
 8705SOL    HW237752   1.778   2.868   3.650  0.8270 -0.0178 -1.5637
 8706SOL     OW37753   0.312   4.417   6.236 -0.1894  0.0406  0.1125
 8706SOL    HW137754   0.320   4.491   6.175  1.8654  0.1416  0.4927
 8706SOL    HW237755   0.397   4.373   6.235  0.6001  1.5324  2.3351
 8707SOL     OW37756   2.751   1.979   8.994 -0.4429  0.1270  0.0305
 8707SOL    HW137757   2.809   1.966   8.919 -1.9021 -0.0267 -1.0750
 8707SOL    HW237758   2.782   1.908   9.050 -0.0223  0.5823  0.3773
 8708SOL     OW37759   0.180   1.692   9.481 -0.7514 -0.1929 -0.0589
 8708SOL    HW137760   0.203   1.599   9.481 -3.3267 -0.8239  1.9475
 8708SOL    HW237761   0.094   1.692   9.440 -2.2055 -0.9664  2.9788
 8709SOL     OW37762   4.315   1.495   6.653  0.4610 -0.9551 -0.6155
 8709SOL    HW137763   4.334   1.461   6.740  0.8982  1.5504  0.2606
 8709SOL    HW237764   4.349   1.423   6.599  1.3114  0.5458 -2.0991
 8710SOL     OW37765   0.934   2.604   7.057  0.1404  0.2250  0.3369
 8710SOL    HW137766   0.993   2.538   7.020 -0.5732 -0.3643  0.2463
 8710SOL    HW237767   0.851   2.557   7.058  0.9126 -1.1932 -1.6553
 8711SOL     OW37768   0.792   2.387  10.324  0.0164 -0.1897 -0.9755
 8711SOL    HW137769   0.741   2.459  10.287 -0.1800 -0.3004 -0.9204
 8711SOL    HW237770   0.723   2.338  10.369  1.4844 -1.9455 -0.6235
 8712SOL     OW37771   3.426   2.242  14.794 -0.0159 -0.4965  0.1019
 8712SOL    HW137772   3.336   2.231  14.825  0.1786  0.0043  0.8557
 8712SOL    HW237773   3.474   2.203  14.867  0.0305 -1.5863 -0.5100
 8713SOL     OW37774   4.600   4.021   8.147  0.8469  0.0059  0.0429
 8713SOL    HW137775   4.626   4.084   8.080  0.7156  0.1538  0.1316
 8713SOL    HW237776   4.512   4.054   8.162  1.4029  1.6084 -0.2211
 8714SOL     OW37777   3.448   0.362   8.615  0.6093  0.9785 -0.4607
 8714SOL    HW137778   3.373   0.378   8.672 -0.6597 -0.0891 -1.8059
 8714SOL    HW237779   3.523   0.384   8.669  1.2711  0.8086 -1.2993
 8715SOL     OW37780   0.467   3.392  11.066  0.6401  0.2135  0.0450
 8715SOL    HW137781   0.460   3.459  11.134 -1.4731  0.6010 -0.5389
 8715SOL    HW237782   0.553   3.414  11.030  1.1239 -1.7922 -0.0007
 8716SOL     OW37783   3.412   0.432  11.863 -0.9696 -0.0708 -0.2277
 8716SOL    HW137784   3.390   0.515  11.905 -0.5500  0.3618 -0.8648
 8716SOL    HW237785   3.460   0.461  11.785 -1.4701 -0.9629 -0.8649
 8717SOL     OW37786   0.741   0.369   2.105 -0.5453 -0.2993  0.0396
 8717SOL    HW137787   0.786   0.291   2.073  1.4175  0.0798  1.8237
 8717SOL    HW237788   0.808   0.406   2.162  0.8642 -0.7433 -1.3394
 8718SOL     OW37789   0.284   4.008   5.308 -0.3709  0.6284  0.4022
 8718SOL    HW137790   0.368   4.020   5.263 -0.6731  1.2405  0.0009
 8718SOL    HW237791   0.309   4.052   5.389  2.4498  1.4822 -0.9391
 8719SOL     OW37792   1.267   3.472   6.948  0.0727  0.2568 -0.2355
 8719SOL    HW137793   1.186   3.460   6.998  0.3575 -1.3090 -0.1496
 8719SOL    HW237794   1.236   3.498   6.862 -2.2918  2.5397  1.3036
 8720SOL     OW37795   4.676   1.394  17.455  0.5477  0.3589  0.8390
 8720SOL    HW137796   4.650   1.302  17.448 -0.3411  0.5671  1.5365
 8720SOL    HW237797   4.619   1.434  17.389  0.5622  0.1050  0.6716
 8721SOL     OW37798   3.322   0.380  12.903 -0.2228 -0.2063 -0.5013
 8721SOL    HW137799   3.391   0.395  12.968 -0.9110 -1.7511  0.5902
 8721SOL    HW237800   3.246   0.421  12.946 -0.2503 -0.5535 -0.2155
 8722SOL     OW37801   2.028   4.167   4.139 -0.2652 -0.1409 -0.0468
 8722SOL    HW137802   2.078   4.089   4.163  3.7884  2.4944  0.1622
 8722SOL    HW237803   2.016   4.212   4.222  1.6960  3.6777 -1.8240
 8723SOL     OW37804   3.201   0.079   8.782  0.3423 -0.3134  0.5088
 8723SOL    HW137805   3.229   0.166   8.754 -0.5251 -0.0877  0.3611
 8723SOL    HW237806   3.190   0.096   8.875  0.2420  0.1473  0.4117
 8724SOL     OW37807   1.845   3.668  12.081  0.6204  0.3924 -0.5486
 8724SOL    HW137808   1.795   3.693  12.004 -1.6640 -0.8365  0.5191
 8724SOL    HW237809   1.821   3.737  12.143 -0.4037 -0.2342 -0.2446
 8725SOL     OW37810   0.376   1.109   8.943  0.4544 -0.2107 -0.2059
 8725SOL    HW137811   0.376   1.087   9.036 -0.5194 -1.2952 -0.4705
 8725SOL    HW237812   0.397   1.203   8.940  0.7753 -0.3059 -0.9273
 8726SOL     OW37813   3.623   4.726   2.012  0.2052 -0.0279 -0.1215
 8726SOL    HW137814   3.619   0.069   2.065 -0.9674 -1.0531  1.3464
 8726SOL    HW237815   3.572   0.014   1.934 -1.2344 -0.9702  0.5008
 8727SOL     OW37816   3.178   3.334   7.537 -0.1155 -0.9221  0.0126
 8727SOL    HW137817   3.098   3.359   7.492 -0.2679 -4.2400 -1.4888
 8727SOL    HW237818   3.247   3.366   7.479  1.9903 -2.1343  1.8410
 8728SOL     OW37819   3.660   2.577   6.001 -0.1513  0.4683  0.1872
 8728SOL    HW137820   3.629   2.496   5.960  1.0040  0.1919 -0.1460
 8728SOL    HW237821   3.592   2.633   5.965 -0.8802 -0.5300  0.0141
 8729SOL     OW37822   1.744   4.735   3.243  0.9840 -0.4299  0.5570
 8729SOL    HW137823   1.755   4.643   3.218 -2.2916 -0.6140 -0.1917
 8729SOL    HW237824   1.771   0.036   3.159 -2.5374  0.7564 -0.0323
 8730SOL     OW37825   3.564   4.438   4.639  0.4616  0.1309 -0.0079
 8730SOL    HW137826   3.643   4.414   4.688 -0.0595  1.2795  1.4029
 8730SOL    HW237827   3.501   4.409   4.705  0.5532 -0.8327 -0.3373
 8731SOL     OW37828   4.027   4.705  16.027 -0.1809  0.2146  0.0244
 8731SOL    HW137829   3.934   4.701  16.052 -0.6863 -0.9419 -2.0332
 8731SOL    HW237830   4.047   0.061  16.029  2.8305 -0.4467  0.3490
 8732SOL     OW37831   1.046   3.879   7.164  0.2456 -0.3646 -0.9908
 8732SOL    HW137832   0.977   3.815   7.149 -0.2098 -0.1826  0.2840
 8732SOL    HW237833   1.112   3.823   7.124 -0.1360  0.0112 -2.1371
 8733SOL     OW37834   0.469   4.510   4.892  0.3475  0.4939  0.5797
 8733SOL    HW137835   0.549   4.460   4.876 -1.6341 -2.6789  0.4286
 8733SOL    HW237836   0.411   4.438   4.919 -0.6040  1.0504 -0.0073
 8734SOL     OW37837   1.122   0.897  15.878  0.5167  0.5716 -0.4637
 8734SOL    HW137838   1.042   0.906  15.929  0.3848  2.4133 -0.9935
 8734SOL    HW237839   1.158   0.985  15.884  0.2416  0.6779 -0.3877
 8735SOL     OW37840   1.584   0.173   3.828 -0.3803  0.2137 -0.3304
 8735SOL    HW137841   1.528   0.243   3.795 -0.7707 -0.5265 -1.2466
 8735SOL    HW237842   1.666   0.222   3.835 -0.3061 -0.4865  3.6528
 8736SOL     OW37843   2.299   1.903   2.879  0.5268  0.1086 -0.0525
 8736SOL    HW137844   2.366   1.944   2.826  1.0132 -1.7219 -0.8348
 8736SOL    HW237845   2.233   1.969   2.856 -0.2405 -0.4100  0.6404
 8737SOL     OW37846   0.759   0.817   5.470 -0.6183  0.3440  0.0760
 8737SOL    HW137847   0.723   0.774   5.392 -0.1346 -1.4016  0.8046
 8737SOL    HW237848   0.740   0.757   5.542 -0.3160 -0.3511 -0.4251
 8738SOL     OW37849   0.953   4.214  13.584  0.1868 -0.5076  0.4971
 8738SOL    HW137850   0.936   4.176  13.498  2.1850 -0.7636  0.2216
 8738SOL    HW237851   0.900   4.294  13.584  0.7065 -0.1671 -1.7219
 8739SOL     OW37852   3.222   0.212   8.075 -0.3733 -0.6327 -0.1177
 8739SOL    HW137853   3.263   0.290   8.037  0.3607 -1.4086 -0.9336
 8739SOL    HW237854   3.302   0.161   8.076  0.0274  0.0440  3.3740
 8740SOL     OW37855   3.933   2.609   6.331  0.8035 -0.1443  0.4092
 8740SOL    HW137856   4.027   2.598   6.345  0.8788 -0.1413 -0.0975
 8740SOL    HW237857   3.904   2.616   6.422 -0.7183  0.1000 -0.0954
 8741SOL     OW37858   0.604   0.797   1.527  0.1710 -0.2078  0.0074
 8741SOL    HW137859   0.631   0.766   1.440 -0.1960 -0.8156  0.1183
 8741SOL    HW237860   0.661   0.753   1.590  0.5729 -1.9355 -1.5766
 8742SOL     OW37861   3.150   4.114   4.815 -0.3442  0.8437 -0.1359
 8742SOL    HW137862   3.078   4.177   4.809 -1.0569 -0.0521 -1.1649
 8742SOL    HW237863   3.198   4.126   4.733  0.0824  0.3361  0.0431
 8743SOL     OW37864   1.745   0.348   3.584  0.5637 -0.0446  0.3250
 8743SOL    HW137865   1.759   0.417   3.519 -2.2695 -0.3188 -0.5752
 8743SOL    HW237866   1.690   0.286   3.535  0.9494 -0.9234  0.9968
 8744SOL     OW37867   1.939   4.355   6.427 -1.1720 -0.0480 -0.0287
 8744SOL    HW137868   1.951   4.270   6.471 -2.5512 -1.2799 -1.9993
 8744SOL    HW237869   1.902   4.403   6.501 -1.8500  1.6591 -1.4863
 8745SOL     OW37870   3.737   2.698   2.865 -0.5479  0.1169  0.3439
 8745SOL    HW137871   3.777   2.611   2.855 -0.5375  0.3151 -1.3243
 8745SOL    HW237872   3.774   2.729   2.948  1.1470 -0.2938 -0.2426
 8746SOL     OW37873   0.742   4.138   6.501 -0.6648  0.4654  0.4850
 8746SOL    HW137874   0.736   4.141   6.596  1.5205 -4.2322  0.7617
 8746SOL    HW237875   0.653   4.145   6.465 -0.6925 -1.3451  0.1972
 8747SOL     OW37876   3.598   4.370   1.061  0.6787  0.2282 -0.4358
 8747SOL    HW137877   3.636   4.455   1.038  0.0069  0.1950 -1.6802
 8747SOL    HW237878   3.544   4.347   0.985  0.9429  2.9158 -1.4405
 8748SOL     OW37879   3.731   3.195   5.443 -0.0061 -0.6288  0.2473
 8748SOL    HW137880   3.656   3.255   5.443  1.4388  1.1509 -1.3804
 8748SOL    HW237881   3.789   3.230   5.376  0.1902 -0.0299  0.7296
 8749SOL     OW37882   0.692   3.395   6.101  0.5543 -0.5562 -0.0372
 8749SOL    HW137883   0.705   3.426   6.012  2.7279 -1.5063 -0.0329
 8749SOL    HW237884   0.597   3.389   6.112  0.6813  1.1442  2.2026
 8750SOL     OW37885   1.607   0.078   1.789  0.3610 -0.1617  0.1315
 8750SOL    HW137886   1.557   0.158   1.773 -2.5140 -1.6851  1.5485
 8750SOL    HW237887   1.544   0.044   1.852  2.0263 -0.2596  1.7645
 8751SOL     OW37888   3.172   4.062   9.718 -0.1543  0.0435  0.3345
 8751SOL    HW137889   3.157   3.969   9.732 -0.3498 -0.0385 -0.4759
 8751SOL    HW237890   3.136   4.084   9.805 -0.2952 -1.7058  0.7171
 8752SOL     OW37891   4.344   4.465   9.730  0.1156 -0.5334  1.1215
 8752SOL    HW137892   4.427   4.489   9.772 -1.3181  1.3359  2.8598
 8752SOL    HW237893   4.351   4.494   9.639  0.7849 -1.2924  0.9297
 8753SOL     OW37894   4.212   4.078   5.778 -0.8666  0.1093  0.2812
 8753SOL    HW137895   4.193   4.048   5.867  1.2243 -2.0375  0.0037
 8753SOL    HW237896   4.232   4.170   5.792  0.6990 -0.0078 -1.1356
 8754SOL     OW37897   2.725   0.319  12.116  0.1705  0.1107  0.6190
 8754SOL    HW137898   2.776   0.293  12.193  0.3514 -0.5408  0.2821
 8754SOL    HW237899   2.777   0.390  12.080 -0.0342  1.2520  2.5569
 8755SOL     OW37900   0.847   0.369   2.638 -0.5643  0.1441 -0.2186
 8755SOL    HW137901   0.790   0.367   2.715 -0.3916 -1.4386 -0.1482
 8755SOL    HW237902   0.813   0.448   2.595 -1.3683  0.8352  1.6832
 8756SOL     OW37903   3.816   1.314   2.791 -0.1874  0.1831  0.2123
 8756SOL    HW137904   3.812   1.389   2.850  0.6124  0.5833 -0.2426
 8756SOL    HW237905   3.770   1.347   2.714 -0.7140  0.3478  0.5969
 8757SOL     OW37906   1.792   1.622  17.560 -0.0948 -0.3495  0.2349
 8757SOL    HW137907   1.788   1.673  17.641 -0.4240  0.5762 -0.3673
 8757SOL    HW237908   1.858   1.559  17.587  0.7113  0.6166  0.5435
 8758SOL     OW37909   1.131   1.175   6.389  0.0848  0.3568  0.8303
 8758SOL    HW137910   1.042   1.142   6.373  0.9755 -0.2124 -3.0570
 8758SOL    HW237911   1.122   1.187   6.483 -2.1835  0.6560  0.5871
 8759SOL     OW37912   1.884   3.390   2.495  0.1914  0.1116  0.0984
 8759SOL    HW137913   1.865   3.367   2.586  2.0081 -0.2356  0.3791
 8759SOL    HW237914   1.945   3.321   2.470 -0.2393  0.0269 -0.7389
 8760SOL     OW37915   1.223   0.225  11.949 -0.5972 -0.8303 -0.1475
 8760SOL    HW137916   1.164   0.300  11.956  2.1847  1.1612  2.1296
 8760SOL    HW237917   1.305   0.267  11.922 -1.7153  1.5811  0.2596
 8761SOL     OW37918   3.184   4.574   6.887  0.2745 -0.1689 -0.3936
 8761SOL    HW137919   3.146   4.660   6.905  0.7595 -0.1701  0.5989
 8761SOL    HW237920   3.201   4.563   6.980 -2.5622 -0.4610  0.1112
 8762SOL     OW37921   4.509   4.524  11.068  0.0787 -0.0073 -0.0437
 8762SOL    HW137922   4.501   4.524  11.164  2.1525  1.1023  0.1237
 8762SOL    HW237923   4.565   4.600  11.057 -1.0048  0.9204  0.8318
 8763SOL     OW37924   2.759   1.510   5.272 -0.5677 -0.4376  0.1913
 8763SOL    HW137925   2.699   1.454   5.322 -2.1587 -1.4983 -2.8737
 8763SOL    HW237926   2.833   1.452   5.251 -0.7102 -0.6273  0.2082
 8764SOL     OW37927   3.010   1.960   3.460 -0.4816  0.0487 -0.3733
 8764SOL    HW137928   3.005   2.051   3.434 -0.3156  0.5362  1.2774
 8764SOL    HW237929   3.091   1.929   3.418 -0.4783  0.4335 -0.6441
 8765SOL     OW37930   4.410   0.544   5.794  0.2364  0.0206 -0.0819
 8765SOL    HW137931   4.391   0.500   5.877 -0.5130  0.1550 -0.1837
 8765SOL    HW237932   4.364   0.626   5.812  2.6906  0.8997  2.3191
 8766SOL     OW37933   1.410   3.878   7.690 -0.0774  0.1939  0.0208
 8766SOL    HW137934   1.328   3.832   7.673 -0.6600  0.9395  0.8544
 8766SOL    HW237935   1.453   3.854   7.608  0.1035 -1.6053  0.6638
 8767SOL     OW37936   3.924   4.682   2.458  0.3311 -0.1280  0.3592
 8767SOL    HW137937   3.832   4.691   2.483 -0.1690  0.8917 -1.8414
 8767SOL    HW237938   3.938   4.587   2.456  0.0800 -0.1120 -1.8964
 8768SOL     OW37939   2.006   2.778   7.249  0.1513 -0.7580  0.2546
 8768SOL    HW137940   1.933   2.820   7.294  1.0952 -0.0614  1.1314
 8768SOL    HW237941   2.028   2.710   7.312  0.3962 -1.0783 -0.1822
 8769SOL     OW37942   3.014   1.356  16.180 -0.1560  0.2745 -0.4082
 8769SOL    HW137943   3.082   1.362  16.247 -2.7958 -1.9749  2.4407
 8769SOL    HW237944   2.953   1.422  16.211  0.8343  0.4768  1.1373
 8770SOL     OW37945   1.487   2.686   2.608  0.3512 -0.0315 -0.3186
 8770SOL    HW137946   1.421   2.685   2.539 -1.9115 -1.6965  1.8635
 8770SOL    HW237947   1.562   2.731   2.568  1.8708 -0.3443  2.1615
 8771SOL     OW37948   0.561   1.939   7.764  0.3154 -0.7506  0.0572
 8771SOL    HW137949   0.614   2.004   7.811 -2.0259  0.4455  1.0158
 8771SOL    HW237950   0.523   1.874   7.823  0.0580 -1.6912 -1.1643
 8772SOL     OW37951   1.422   0.995   5.642 -0.1657  0.0133 -0.3154
 8772SOL    HW137952   1.361   1.057   5.683 -0.7976 -1.6423  1.2076
 8772SOL    HW237953   1.459   0.941   5.712  0.0576  1.1589  0.4572
 8773SOL     OW37954   1.001   1.793   6.846  0.6223  0.1495  0.6357
 8773SOL    HW137955   1.045   1.877   6.829  1.4796 -0.3242  0.5016
 8773SOL    HW237956   1.020   1.780   6.939  0.3163 -0.8930  0.5513
 8774SOL     OW37957   0.913   0.726   3.711  0.3881  0.1983 -0.6384
 8774SOL    HW137958   0.883   0.640   3.741  2.4434 -0.2894 -0.0074
 8774SOL    HW237959   0.834   0.778   3.726 -0.4779 -1.4172  0.4214
 8775SOL     OW37960   0.004   0.621   4.896 -0.8040  0.4476  0.2437
 8775SOL    HW137961   0.013   0.716   4.907  1.2552  0.4999 -1.9232
 8775SOL    HW237962   0.094   0.602   4.920 -0.6116 -0.2133 -0.9921
 8776SOL     OW37963   4.001   2.311   5.416  0.1677 -0.0456 -0.4732
 8776SOL    HW137964   4.082   2.361   5.425 -1.6537  2.5890  1.3958
 8776SOL    HW237965   3.943   2.377   5.379 -0.0509 -0.7144 -1.3280
 8777SOL     OW37966   4.327   3.597   1.191  0.0529 -0.4217 -1.2167
 8777SOL    HW137967   4.407   3.595   1.244  0.3473  1.2611 -1.5761
 8777SOL    HW237968   4.367   3.577   1.107  0.9208 -0.2989 -0.8350
 8778SOL     OW37969   4.642   3.314   3.757 -0.1702  0.4642  0.5644
 8778SOL    HW137970   4.681   3.227   3.755  0.0894  0.6416 -1.6290
 8778SOL    HW237971   4.560   3.305   3.805 -0.1487  2.0775  0.8940
 8779SOL     OW37972   3.445   0.672  13.215 -0.0552  0.2770 -0.1424
 8779SOL    HW137973   3.463   0.584  13.183  1.1350 -0.4820  2.6234
 8779SOL    HW237974   3.362   0.704  13.179  1.7121  2.3019 -2.4620
 8780SOL     OW37975   0.477   3.559  11.782 -0.1552  1.3077  0.6215
 8780SOL    HW137976   0.445   3.471  11.805  4.5355 -0.5851 -0.0531
 8780SOL    HW237977   0.563   3.568  11.822  0.6581  0.1293 -0.8348
 8781SOL     OW37978   0.562   3.666   4.550  0.0418 -0.8441 -0.3120
 8781SOL    HW137979   0.524   3.711   4.626  0.1722 -0.3604 -0.5315
 8781SOL    HW237980   0.645   3.628   4.579  0.3874 -1.6046 -2.3503
 8782SOL     OW37981   2.045   0.097   5.415  0.3414  0.2426  0.1167
 8782SOL    HW137982   2.005   0.181   5.393 -1.1293 -0.3089  0.6643
 8782SOL    HW237983   1.991   0.069   5.489  0.8831  1.2743  0.9044
 8783SOL     OW37984   4.396   2.588  13.422  0.0724  0.1272  0.8317
 8783SOL    HW137985   4.435   2.672  13.446 -0.4080  1.2723 -2.2935
 8783SOL    HW237986   4.313   2.616  13.383 -1.3757 -1.3085  2.8433
 8784SOL     OW37987   0.178   0.298   4.675  0.5896 -0.3393  0.3912
 8784SOL    HW137988   0.256   0.345   4.648  0.8512 -0.2639  1.2786
 8784SOL    HW237989   0.178   0.225   4.614  0.1423 -0.2874  0.3236
 8785SOL     OW37990   2.564   0.215   2.620  0.2238 -0.2458 -0.2860
 8785SOL    HW137991   2.622   0.140   2.631 -1.3458 -1.4981 -0.5156
 8785SOL    HW237992   2.526   0.220   2.707  0.8967  1.0235 -0.0755
 8786SOL     OW37993   4.109   0.054  14.961  0.0654  0.1861  0.2708
 8786SOL    HW137994   4.098   0.017  14.874 -0.3531  0.3419  0.2536
 8786SOL    HW237995   4.073   0.143  14.954 -1.6707 -0.5813 -0.6519
 8787SOL     OW37996   2.106   1.182  13.667 -0.2245  0.4913 -0.0015
 8787SOL    HW137997   2.095   1.097  13.712 -0.5659 -0.4866 -1.9508
 8787SOL    HW237998   2.161   1.151  13.595  1.6593 -0.2688  1.7385
 8788SOL     OW37999   1.194   1.866   4.300  0.0614  0.0621  0.2820
 8788SOL    HW138000   1.248   1.945   4.296 -2.4275  1.7794  0.6004
 8788SOL    HW238001   1.111   1.913   4.308 -0.6698 -0.9420 -1.4589
 8789SOL     OW38002   3.140   1.868   9.584 -0.7953  0.5578 -0.6394
 8789SOL    HW138003   3.116   1.841   9.672  1.7217 -0.3227 -0.2349
 8789SOL    HW238004   3.232   1.842   9.589 -1.3319 -1.0940  0.6563
 8790SOL     OW38005   1.352   0.263   1.972 -0.2444  0.2893  0.3273
 8790SOL    HW138006   1.287   0.248   2.040 -0.4737 -0.2923 -0.0201
 8790SOL    HW238007   1.394   0.177   1.972 -0.2161  0.3033  0.2222
 8791SOL     OW38008   4.163   3.284   4.636 -0.0163 -0.1563  0.1165
 8791SOL    HW138009   4.251   3.251   4.623 -0.9396 -2.1512 -1.1148
 8791SOL    HW238010   4.118   3.213   4.591 -1.7633  2.2378 -1.9513
 8792SOL     OW38011   0.510   3.815   1.955  0.1144  0.1575 -0.0237
 8792SOL    HW138012   0.575   3.777   1.895 -1.6144 -0.9044 -1.2314
 8792SOL    HW238013   0.567   3.850   2.023  1.4450  0.0173 -1.0491
 8793SOL     OW38014   2.539   3.040   8.146 -0.0148  0.6508 -0.1111
 8793SOL    HW138015   2.526   2.979   8.073 -0.1606  0.4604  0.0744
 8793SOL    HW238016   2.626   3.073   8.125  0.5717  0.1005  1.4592
 8794SOL     OW38017   3.947   1.136   5.969  0.0429 -0.4807  0.1997
 8794SOL    HW138018   3.918   1.223   5.998  1.1836 -0.1746  0.4175
 8794SOL    HW238019   3.863   1.091   5.973  0.0102 -0.4454 -0.0907
 8795SOL     OW38020   2.325   2.021   2.045 -0.4133 -0.1120  0.2771
 8795SOL    HW138021   2.246   2.062   2.008 -0.5778 -0.1260  0.6172
 8795SOL    HW238022   2.385   2.089   2.015 -0.4324 -0.1158  0.2301
 8796SOL     OW38023   0.289   2.254   8.963  0.5321  0.3092  0.2530
 8796SOL    HW138024   0.351   2.236   8.891  0.2911 -0.7867  0.3106
 8796SOL    HW238025   0.218   2.282   8.905  0.4287 -0.7128 -0.1163
 8797SOL     OW38026   1.829   3.996  15.098  0.3702  0.1571  0.2401
 8797SOL    HW138027   1.763   3.928  15.090 -1.2667  1.9223 -1.0251
 8797SOL    HW238028   1.802   4.043  15.177  0.1892 -1.7432  1.3000
 8798SOL     OW38029   0.484   4.391   7.774  0.6208 -0.5723  0.1946
 8798SOL    HW138030   0.503   4.364   7.684  1.5809  2.8457 -0.6468
 8798SOL    HW238031   0.515   4.315   7.822  1.1648  1.2447  2.6864
 8799SOL     OW38032   4.030   3.777   0.664 -0.0676  0.0938  0.0385
 8799SOL    HW138033   3.984   3.784   0.580 -0.7759  2.2044  0.5882
 8799SOL    HW238034   3.972   3.726   0.722  1.0860 -1.6196 -0.3316
 8800SOL     OW38035   1.909   1.499   9.093 -0.0147 -0.0806 -0.2108
 8800SOL    HW138036   1.986   1.546   9.060 -0.6279 -0.9366 -2.8245
 8800SOL    HW238037   1.892   1.433   9.026  2.2273  0.2981 -1.1530
 8801SOL     OW38038   2.664   4.053   5.504  0.1397  0.6587  0.2992
 8801SOL    HW138039   2.593   4.096   5.552 -0.9125 -1.5213  0.7096
 8801SOL    HW238040   2.658   3.969   5.550  0.7826 -0.2341 -1.2180
 8802SOL     OW38041   3.875   1.638   6.826 -0.1910 -0.3357 -0.2551
 8802SOL    HW138042   3.894   1.652   6.734 -1.1361  2.6276 -0.0112
 8802SOL    HW238043   3.918   1.716   6.861 -0.6598 -0.5725  0.8552
 8803SOL     OW38044   3.284   2.953   7.198  0.2075 -0.2865 -0.2709
 8803SOL    HW138045   3.256   3.001   7.276  0.6252 -0.1823 -0.1876
 8803SOL    HW238046   3.209   2.898   7.173 -0.9540  1.0584  0.2684
 8804SOL     OW38047   2.597   0.305   4.323 -0.4099 -0.7049 -0.2199
 8804SOL    HW138048   2.554   0.377   4.370  1.1053  1.1458 -1.7021
 8804SOL    HW238049   2.538   0.233   4.347 -0.8417  0.3469  1.8556
 8805SOL     OW38050   4.446   3.885   0.499 -0.2868 -0.4547  0.3732
 8805SOL    HW138051   4.526   3.898   0.550  0.0659 -0.5741 -0.1461
 8805SOL    HW238052   4.447   3.930   0.415 -1.0037 -0.0460  0.5826
 8806SOL     OW38053   4.192   2.572   5.541 -0.2042  0.5380 -0.4533
 8806SOL    HW138054   4.275   2.526   5.534 -1.2569 -1.5798  1.4013
 8806SOL    HW238055   4.197   2.587   5.635 -0.8414  0.4043 -0.3952
 8807SOL     OW38056   1.623   1.982  11.711 -0.2902 -0.7688  0.1201
 8807SOL    HW138057   1.680   1.923  11.759  1.1495 -0.0252 -0.6833
 8807SOL    HW238058   1.576   2.021  11.784 -0.2912  2.5752 -1.6610
 8808SOL     OW38059   3.264   3.743  16.318  0.4954 -0.1667 -0.2740
 8808SOL    HW138060   3.262   3.666  16.261 -1.0285 -0.5899  0.3521
 8808SOL    HW238061   3.304   3.798  16.251  3.1271 -0.1230  1.3496
 8809SOL     OW38062   1.177   1.228   7.002  0.6780  0.7431 -0.4489
 8809SOL    HW138063   1.155   1.225   7.095  1.6018  0.8701 -0.2229
 8809SOL    HW238064   1.116   1.164   6.965 -0.1560  0.2210  1.8337
 8810SOL     OW38065   1.702   1.903   8.294 -0.2685 -0.1686  0.4133
 8810SOL    HW138066   1.611   1.872   8.300 -0.0336 -1.2724 -1.6211
 8810SOL    HW238067   1.725   1.922   8.384  1.0586 -0.6928  0.1867
 8811SOL     OW38068   2.805   2.640   4.638  1.0095 -0.1416  0.4382
 8811SOL    HW138069   2.899   2.626   4.627  0.6361  0.2612 -3.5830
 8811SOL    HW238070   2.768   2.554   4.656  0.5459 -0.1472 -0.5078
 8812SOL     OW38071   3.720   3.395  10.776  0.4407  0.0716  0.3709
 8812SOL    HW138072   3.729   3.425  10.867  0.3431  2.1080 -0.2832
 8812SOL    HW238073   3.804   3.350  10.764 -0.1527 -0.9043 -0.0649
 8813SOL     OW38074   3.805   3.201   2.321  0.3082 -0.3109  0.1111
 8813SOL    HW138075   3.814   3.168   2.232  0.1833 -0.6359  0.2193
 8813SOL    HW238076   3.726   3.149   2.336  0.7400 -1.5426 -1.8970
 8814SOL     OW38077   0.870   1.048   8.651 -0.2924 -0.6208 -0.0385
 8814SOL    HW138078   0.814   1.107   8.600 -0.3758 -0.6410  0.0309
 8814SOL    HW238079   0.803   1.017   8.712 -0.7695 -1.0741 -0.7908
 8815SOL     OW38080   2.156   1.995   6.535 -0.0436  0.7688 -0.0915
 8815SOL    HW138081   2.094   1.953   6.475  0.8997 -0.8339  0.0747
 8815SOL    HW238082   2.098   2.053   6.585 -1.4492  0.9701 -1.9530
 8816SOL     OW38083   2.725   4.429   2.244  0.1080  0.0975 -0.1826
 8816SOL    HW138084   2.767   4.458   2.163  2.9920 -2.6158  0.3595
 8816SOL    HW238085   2.736   4.335   2.237  0.8184  0.1771 -0.0816
 8817SOL     OW38086   3.477   0.983   2.007 -0.2120 -0.0597 -0.1681
 8817SOL    HW138087   3.445   0.980   2.097 -0.5338  0.2069 -0.2779
 8817SOL    HW238088   3.452   1.072   1.983  0.8319  0.5854  1.0893
 8818SOL     OW38089   3.384   4.093   6.591  0.1027 -0.0436  0.5027
 8818SOL    HW138090   3.291   4.083   6.610  0.1536 -0.2399  0.6424
 8818SOL    HW238091   3.408   4.001   6.580 -0.8418 -0.1202 -0.9322
 8819SOL     OW38092   0.411   4.276  10.847  0.2999 -0.7039 -0.3383
 8819SOL    HW138093   0.409   4.181  10.840  0.7356 -0.7011 -0.5029
 8819SOL    HW238094   0.371   4.296  10.762 -0.1582 -1.2312 -0.2456
 8820SOL     OW38095   1.040   0.042   6.949  0.7572  0.5399  0.0275
 8820SOL    HW138096   0.985   0.073   7.021  2.6177  0.9040  1.2773
 8820SOL    HW238097   1.113   0.012   7.003  0.9011 -1.1669 -1.1394
 8821SOL     OW38098   1.994   2.307  12.857  0.2015 -0.5165  0.2638
 8821SOL    HW138099   1.915   2.305  12.802  1.5190  0.1319 -1.6496
 8821SOL    HW238100   2.055   2.343  12.793 -0.4409 -1.4964 -0.9019
 8822SOL     OW38101   0.491   2.246   2.450  0.0559 -0.4426 -0.1867
 8822SOL    HW138102   0.559   2.297   2.405 -0.7626  1.5277  0.8386
 8822SOL    HW238103   0.546   2.173   2.478  0.3718  0.4462  1.4904
 8823SOL     OW38104   1.460   0.525   0.485  0.4950  0.1959 -0.3149
 8823SOL    HW138105   1.409   0.478   0.551 -0.1825  1.5350  0.1300
 8823SOL    HW238106   1.480   0.607   0.530 -1.9697  0.8787 -0.4353
 8824SOL     OW38107   3.181   0.600   6.510 -0.0068  0.1095  0.1876
 8824SOL    HW138108   3.099   0.578   6.554 -0.4198  1.0318 -0.1160
 8824SOL    HW238109   3.149   0.683   6.474  1.9694  1.1514  0.8093
 8825SOL     OW38110   4.128   4.661  15.730  0.6873 -0.8377 -0.3592
 8825SOL    HW138111   4.123   0.019  15.731 -0.3535 -0.9161  4.1221
 8825SOL    HW238112   4.078   4.648  15.811  0.1726  0.7958 -0.4174
 8826SOL     OW38113   2.500   3.275  11.131  0.3564 -0.5259 -0.2280
 8826SOL    HW138114   2.585   3.251  11.169  0.0723 -0.0070  0.7637
 8826SOL    HW238115   2.441   3.204  11.155  3.1230 -3.1732 -1.4144
 8827SOL     OW38116   1.804   0.462   8.807  0.0192  0.0534 -0.3921
 8827SOL    HW138117   1.738   0.499   8.866  0.0760 -0.8135  0.2037
 8827SOL    HW238118   1.875   0.527   8.804  0.8823 -0.8393  0.7262
 8828SOL     OW38119   3.660   1.186   7.518  0.1512 -0.0534  0.4670
 8828SOL    HW138120   3.687   1.259   7.463 -0.0568  0.3048  0.8389
 8828SOL    HW238121   3.603   1.228   7.583 -0.0627  0.0407  0.2157
 8829SOL     OW38122   1.119   0.984   0.968 -0.1229 -0.0462 -0.3798
 8829SOL    HW138123   1.206   0.999   0.932  0.0636  0.7079  0.3676
 8829SOL    HW238124   1.094   1.074   0.988 -2.0782 -1.1040  2.0324
 8830SOL     OW38125   3.216   4.461  12.654  0.0763 -0.4622  0.4001
 8830SOL    HW138126   3.250   4.507  12.577 -1.1639 -0.0017  0.1343
 8830SOL    HW238127   3.289   4.417  12.698 -0.7017 -2.1438  0.0224
 8831SOL     OW38128   0.104   1.811  17.694 -0.0704  0.3082 -0.8446
 8831SOL    HW138129   0.050   1.765   0.012 -1.2948  0.9393 -1.4276
 8831SOL    HW238130   0.173   1.845   0.005 -2.4521 -0.6990  2.5315
 8832SOL     OW38131   2.633   4.713   0.779  0.0044 -0.7612  0.3096
 8832SOL    HW138132   2.558   0.029   0.806  1.0709  0.8618  0.0757
 8832SOL    HW238133   2.687   0.039   0.734 -2.7520 -0.2392 -2.2693
 8833SOL     OW38134   4.736   4.617  14.101  0.3993 -0.6314  0.0448
 8833SOL    HW138135   4.644   4.611  14.077  0.0613  0.5543  1.0144
 8833SOL    HW238136   0.053   4.594  14.026  0.5870  0.5185 -0.1701
 8834SOL     OW38137   0.491   2.856  10.075 -0.2514  0.2492 -0.4072
 8834SOL    HW138138   0.523   2.785  10.019  0.3390 -0.0362  0.3019
 8834SOL    HW238139   0.556   2.926  10.080 -1.2893  1.1133  1.2601
 8835SOL     OW38140   4.128   1.643  15.844 -0.0547  0.8690 -0.2492
 8835SOL    HW138141   4.191   1.571  15.844 -1.4251 -0.3422 -1.6499
 8835SOL    HW238142   4.083   1.650  15.928  2.3357 -0.4099  1.1211
 8836SOL     OW38143   3.083   1.626   6.027 -0.2465 -0.3363  0.1976
 8836SOL    HW138144   3.057   1.556   6.087  1.0714 -0.9560  0.0556
 8836SOL    HW238145   3.031   1.697   6.065  1.6594  0.2402  1.7094
 8837SOL     OW38146   4.233   1.848  13.350 -0.1164  0.2114 -0.4845
 8837SOL    HW138147   4.309   1.888  13.306 -0.0594  1.3925  0.6650
 8837SOL    HW238148   4.159   1.878  13.298  0.9771  2.3907 -0.8025
 8838SOL     OW38149   1.910   3.321   6.372  0.0976  0.4382 -0.4952
 8838SOL    HW138150   1.852   3.397   6.366 -0.8877 -0.3658 -1.2324
 8838SOL    HW238151   1.880   3.272   6.295 -0.8359  2.9068 -1.6968
 8839SOL     OW38152   0.073   3.459   7.182  0.3236  0.4189  0.5155
 8839SOL    HW138153   0.120   3.513   7.119 -1.8700  1.1899 -0.4378
 8839SOL    HW238154   0.008   3.411   7.132  1.5484 -0.9973  0.2621
 8840SOL     OW38155   1.328   2.880   7.445 -0.1937 -0.2322 -0.1250
 8840SOL    HW138156   1.403   2.836   7.485 -1.0647 -0.3788  1.3468
 8840SOL    HW238157   1.278   2.892   7.526  0.9777  0.2650  0.5312
 8841SOL     OW38158   4.231   2.444  15.759  0.3456  0.4881  0.2168
 8841SOL    HW138159   4.203   2.480  15.674 -0.9730 -0.4987  0.2378
 8841SOL    HW238160   4.201   2.354  15.756  0.7362  0.3752 -0.2851
 8842SOL     OW38161   2.083   2.799  12.625 -0.4863  0.4850  0.3667
 8842SOL    HW138162   2.047   2.888  12.623 -1.1098  0.2649  1.9102
 8842SOL    HW238163   2.055   2.770  12.711 -0.3241 -3.7800 -1.0220
 8843SOL     OW38164   0.150   1.844  17.424 -0.0665  0.8895 -0.4977
 8843SOL    HW138165   0.086   1.794  17.374  0.2115  0.3835 -0.3470
 8843SOL    HW238166   0.129   1.824  17.516  0.2279 -0.9828 -0.8284
 8844SOL     OW38167   2.702   2.150   4.334 -0.1572 -0.4594  0.7205
 8844SOL    HW138168   2.734   2.062   4.314 -1.7822 -0.6709 -0.9352
 8844SOL    HW238169   2.617   2.120   4.367  0.0848  1.0400  2.7451
 8845SOL     OW38170   1.240   2.825   4.262 -0.1334 -0.2721  0.7378
 8845SOL    HW138171   1.287   2.799   4.341 -0.4448  0.4962  1.1722
 8845SOL    HW238172   1.207   2.736   4.254  0.8060 -0.5873  0.3514
 8846SOL     OW38173   2.399   3.514   4.931  0.0028  0.2350 -0.0696
 8846SOL    HW138174   2.327   3.572   4.907 -1.1509 -1.1314  0.1116
 8846SOL    HW238175   2.447   3.535   4.851 -2.5124  0.1208 -1.5855
 8847SOL     OW38176   3.534   2.603   3.151  0.2362 -0.0405 -0.3085
 8847SOL    HW138177   3.522   2.563   3.237 -0.4155  0.1339 -0.3174
 8847SOL    HW238178   3.601   2.541   3.123 -0.7613 -1.3460  0.2008
 8848SOL     OW38179   0.156   3.756   3.593 -0.1493 -0.1156  0.1098
 8848SOL    HW138180   0.180   3.818   3.524  0.2540  0.5494  0.8456
 8848SOL    HW238181   0.232   3.703   3.567 -0.6624 -1.2740  0.9685
 8849SOL     OW38182   3.080   1.497   3.497 -0.4193  0.0191  0.2544
 8849SOL    HW138183   3.097   1.555   3.422 -0.0015 -0.7562 -0.2591
 8849SOL    HW238184   3.160   1.444   3.493 -0.3945  0.1807 -1.3845
 8850SOL     OW38185   0.796   2.843   2.621  0.2112  0.2338  0.1575
 8850SOL    HW138186   0.800   2.938   2.608  0.4947 -0.0842 -1.9985
 8850SOL    HW238187   0.716   2.821   2.572 -0.5708  1.2961  0.9254
 8851SOL     OW38188   4.134   0.848  16.732  0.5761 -0.2047  0.2167
 8851SOL    HW138189   4.052   0.884  16.699  1.9326  2.5605 -0.1869
 8851SOL    HW238190   4.172   0.926  16.773  4.3082 -1.7499 -0.2760
 8852SOL     OW38191   3.131   1.279   8.681  0.3548 -0.3364  0.0141
 8852SOL    HW138192   3.198   1.342   8.707  0.0129  0.9805 -2.3242
 8852SOL    HW238193   3.194   1.207   8.669  0.0572 -0.5097 -0.5084
 8853SOL     OW38194   3.137   0.719   6.249  0.0553 -0.3403  0.7842
 8853SOL    HW138195   3.196   0.669   6.305  2.6543  0.5384 -1.1675
 8853SOL    HW238196   3.192   0.769   6.189  1.3755 -0.6469  1.7564
 8854SOL     OW38197   0.254   3.949   4.616 -0.1989  0.0927  0.4544
 8854SOL    HW138198   0.325   3.919   4.672 -0.0612 -0.5925 -0.0914
 8854SOL    HW238199   0.252   4.043   4.636 -0.2724 -0.0042  0.9099
 8855SOL     OW38200   3.648   2.944  11.400 -0.1393 -0.5478  0.5647
 8855SOL    HW138201   3.726   2.998  11.385  0.1574 -0.9773  0.5438
 8855SOL    HW238202   3.690   2.882  11.459  1.9099 -0.0166 -0.3194
 8856SOL     OW38203   3.050   4.101   1.548 -0.7446  0.6407  0.0637
 8856SOL    HW138204   2.999   4.129   1.472 -0.1400 -0.4005 -0.7231
 8856SOL    HW238205   2.973   4.077   1.600 -1.3632  3.8146  0.5963
 8857SOL     OW38206   2.484   4.212  10.071 -0.1959 -0.1970 -0.2280
 8857SOL    HW138207   2.447   4.150  10.008 -0.0307  0.5283 -1.0415
 8857SOL    HW238208   2.576   4.202  10.047 -0.8061 -0.5674 -2.4392
 8858SOL     OW38209   3.466   0.324  14.427 -0.7806  0.2247 -0.4317
 8858SOL    HW138210   3.398   0.339  14.361 -2.5385 -2.1342  0.8478
 8858SOL    HW238211   3.521   0.401  14.413 -0.9657  0.2547 -0.9938
 8859SOL     OW38212   1.044   2.938  12.507 -0.1161 -0.4787 -0.0342
 8859SOL    HW138213   0.954   2.947  12.476  0.3860  1.3402 -0.9483
 8859SOL    HW238214   1.087   3.019  12.481 -0.4409 -0.7988 -1.5472
 8860SOL     OW38215   0.153   2.272  16.555 -0.8447  0.9683  0.2206
 8860SOL    HW138216   0.170   2.182  16.582 -0.0964  1.5559  1.6872
 8860SOL    HW238217   0.064   2.266  16.521 -0.4800  0.3965 -0.6199
 8861SOL     OW38218   2.151   2.446   2.578 -0.3641  0.1514  0.0788
 8861SOL    HW138219   2.084   2.385   2.548  0.3381  0.1809 -1.5608
 8861SOL    HW238220   2.138   2.441   2.673  0.9369  0.8522  0.2999
 8862SOL     OW38221   4.198   0.023   7.021  0.6976 -0.3601 -0.2664
 8862SOL    HW138222   4.116   4.714   7.002  0.3408 -1.2186  3.2926
 8862SOL    HW238223   4.241   4.733   6.940  0.8180 -1.5098  0.1828
 8863SOL     OW38224   0.232   3.649  11.228 -0.0288 -0.0100 -0.0352
 8863SOL    HW138225   0.272   3.614  11.308 -2.7169 -0.9263  0.9042
 8863SOL    HW238226   0.150   3.599  11.232  0.8286 -1.2268  2.5130
 8864SOL     OW38227   1.131   2.185   7.617  0.8645  0.0350 -0.2554
 8864SOL    HW138228   1.094   2.248   7.555 -0.8615 -1.0604 -0.3483
 8864SOL    HW238229   1.226   2.186   7.610  0.9104  0.8748  0.5042
 8865SOL     OW38230   4.439   4.288  13.159  0.0123 -0.3371  0.2908
 8865SOL    HW138231   4.413   4.364  13.108 -0.7235  0.3232  1.6262
 8865SOL    HW238232   4.368   4.280  13.224 -1.2745  2.6069 -0.7731
 8866SOL     OW38233   2.847   4.510   6.696 -0.0813 -0.1880  0.1900
 8866SOL    HW138234   2.796   4.432   6.671  1.7508 -1.4304  0.2882
 8866SOL    HW238235   2.898   4.478   6.771 -0.7923 -2.3541 -0.2427
 8867SOL     OW38236   0.956   1.512   7.743 -0.1220 -0.1686  0.1494
 8867SOL    HW138237   0.951   1.501   7.648  0.4954 -0.9227  0.2045
 8867SOL    HW238238   1.043   1.477   7.762 -0.6411 -0.0719  2.6778
 8868SOL     OW38239   2.544   3.049   0.313  0.0888  0.1260  0.1137
 8868SOL    HW138240   2.560   2.957   0.295 -0.3689 -0.1750  1.2158
 8868SOL    HW238241   2.489   3.063   0.236  0.8309  0.1032 -0.4196
 8869SOL     OW38242   0.732   3.003   5.151  0.6404 -0.1528 -0.3802
 8869SOL    HW138243   0.640   3.023   5.168  0.7136  1.3561 -1.8188
 8869SOL    HW238244   0.763   3.086   5.114 -1.0904  0.7284  0.1812
 8870SOL     OW38245   3.329   2.495  14.699 -0.2399 -0.5080  0.5013
 8870SOL    HW138246   3.416   2.528  14.675  0.1932 -1.9901  0.0172
 8870SOL    HW238247   3.356   2.403  14.699 -1.9623 -1.0171  0.7684
 8871SOL     OW38248   0.326   4.598   2.881  0.1541 -0.6186 -0.1106
 8871SOL    HW138249   0.418   4.572   2.882  0.7124  1.3557 -0.2310
 8871SOL    HW238250   0.300   4.571   2.792  1.6784 -1.4711 -0.3026
 8872SOL     OW38251   0.468   2.532   2.303 -0.2503 -0.7068 -0.0513
 8872SOL    HW138252   0.408   2.602   2.330  1.7205  0.3625  1.6007
 8872SOL    HW238253   0.451   2.530   2.209  1.8027 -2.3476 -0.3789
 8873SOL     OW38254   1.564   3.597   3.856 -0.3494 -0.1516  0.2791
 8873SOL    HW138255   1.595   3.513   3.822 -0.7737  0.1803 -0.9280
 8873SOL    HW238256   1.543   3.656   3.784 -1.2359  0.6386  1.1840
 8874SOL     OW38257   4.195   0.128   0.755 -0.2232 -0.0367 -0.2750
 8874SOL    HW138258   4.156   0.180   0.685 -0.0899 -1.7976 -1.6426
 8874SOL    HW238259   4.124   0.121   0.818 -1.4110 -1.8214 -1.8092
 8875SOL     OW38260   4.057   2.892   2.120 -0.4020  0.8961  0.5660
 8875SOL    HW138261   4.080   2.888   2.213 -1.1277 -1.2304  0.6481
 8875SOL    HW238262   4.053   2.986   2.105 -0.5743  1.1609  2.2544
 8876SOL     OW38263   4.415   2.706   6.604 -0.1862 -0.0904 -0.0003
 8876SOL    HW138264   4.484   2.673   6.547  0.2287 -1.5629  1.3492
 8876SOL    HW238265   4.359   2.629   6.613 -0.4035 -0.0940 -1.2979
 8877SOL     OW38266   0.580   3.705   5.520 -0.6905 -0.0472 -0.6739
 8877SOL    HW138267   0.642   3.772   5.551 -2.0649  1.1468 -0.5433
 8877SOL    HW238268   0.642   3.637   5.492 -0.6065  0.2083 -1.1033
 8878SOL     OW38269   3.937   3.515  17.182 -0.0013  0.4705 -0.2488
 8878SOL    HW138270   3.916   3.485  17.270  0.2618 -0.3767 -0.4710
 8878SOL    HW238271   3.864   3.474  17.135  0.3503  1.3784 -1.5838
 8879SOL     OW38272   0.507   0.229  16.992 -0.1174  0.0719  0.2144
 8879SOL    HW138273   0.451   0.273  16.929 -2.0335 -2.3796  0.1787
 8879SOL    HW238274   0.457   0.152  17.019  0.2361 -0.0767  0.4625
 8880SOL     OW38275   1.328   1.354   4.301  0.2263  0.0415 -0.0042
 8880SOL    HW138276   1.328   1.449   4.309 -2.0438  0.0507 -0.0810
 8880SOL    HW238277   1.377   1.337   4.221  1.6112 -1.0817  1.0902
 8881SOL     OW38278   4.083   1.725   2.971 -0.4055  0.5535 -0.7103
 8881SOL    HW138279   4.102   1.767   2.887 -1.0245 -0.0949 -1.1781
 8881SOL    HW238280   4.123   1.638   2.963  0.3575  0.7221  1.3057
 8882SOL     OW38281   3.784   0.916  10.833  0.1495 -0.6461  0.3064
 8882SOL    HW138282   3.782   0.821  10.821 -0.6097 -0.4698 -0.9614
 8882SOL    HW238283   3.771   0.942  10.741 -1.3217 -0.2862  0.6164
 8883SOL     OW38284   4.506   0.773   4.633  0.1543 -0.0453 -0.2010
 8883SOL    HW138285   4.460   0.700   4.674 -0.4743 -0.0105 -0.8408
 8883SOL    HW238286   4.461   0.853   4.661 -2.1615 -1.8450  1.2248
 8884SOL     OW38287   1.423   1.821  17.432 -0.0103  0.4569 -0.7046
 8884SOL    HW138288   1.405   1.905  17.475 -1.1666  0.6033 -1.4900
 8884SOL    HW238289   1.515   1.836  17.407  0.0736 -0.3484 -0.8745
 8885SOL     OW38290   2.665   0.155   8.189 -0.0850 -0.1893 -0.4556
 8885SOL    HW138291   2.658   0.249   8.176  0.6268 -0.1058 -0.2595
 8885SOL    HW238292   2.759   0.141   8.202 -0.0831 -0.5747 -0.8746
 8886SOL     OW38293   0.469   1.598   9.682 -0.1125  0.2136 -0.2035
 8886SOL    HW138294   0.505   1.607   9.594  1.1053 -1.3816  0.1294
 8886SOL    HW238295   0.413   1.521   9.678 -0.3730  0.2824  2.2523
 8887SOL     OW38296   1.794   4.297   4.320 -0.2735 -0.3947  0.0189
 8887SOL    HW138297   1.774   4.386   4.349 -1.9069 -0.0879 -2.0559
 8887SOL    HW238298   1.829   4.257   4.399  2.1783  0.8040 -0.4619
 8888SOL     OW38299   4.665   4.402  11.274  0.1311 -0.0728 -0.0973
 8888SOL    HW138300   4.590   4.390  11.333 -2.1674  0.5438 -2.9043
 8888SOL    HW238301   4.630   4.367  11.192  1.8128  1.7352 -1.5798
 8889SOL     OW38302   1.792   3.056  15.297  0.2343 -0.1611 -0.5128
 8889SOL    HW138303   1.858   3.017  15.240 -1.7801 -1.3903 -2.0154
 8889SOL    HW238304   1.844   3.131  15.326 -0.0041  0.1568 -0.8947
 8890SOL     OW38305   1.607   1.022   0.645  0.9456 -0.1400  0.0638
 8890SOL    HW138306   1.558   1.091   0.600  2.4627  0.0603 -1.2675
 8890SOL    HW238307   1.670   1.076   0.693  1.1344 -2.9670  3.0147
 8891SOL     OW38308   3.497   0.167   6.402 -0.0979 -0.1019  0.1935
 8891SOL    HW138309   3.471   0.097   6.462  0.0582  0.5748  1.0579
 8891SOL    HW238310   3.453   0.242   6.443 -1.0218  0.9187 -2.6880
 8892SOL     OW38311   0.927   4.318   2.722  0.2557 -0.0600 -0.7117
 8892SOL    HW138312   0.867   4.308   2.796 -0.6389 -0.9686 -1.5836
 8892SOL    HW238313   0.910   4.412   2.710  1.6794  0.5466  1.9635
 8893SOL     OW38314   1.818   2.403  11.951  0.1223 -0.0535 -1.1016
 8893SOL    HW138315   1.872   2.345  11.897  0.2351 -1.3244  0.3959
 8893SOL    HW238316   1.885   2.461  11.985  0.9378 -1.8032  0.2507
 8894SOL     OW38317   0.084   2.925   7.094 -0.5358 -0.4178 -0.5943
 8894SOL    HW138318   0.089   3.016   7.063 -0.6972  0.2712  1.4496
 8894SOL    HW238319   0.128   2.877   7.023  1.1799  0.3435 -0.0592
 8895SOL     OW38320   4.556   2.836  11.531  0.0074 -0.3706  0.1360
 8895SOL    HW138321   4.573   2.779  11.606 -0.4958 -1.8156 -0.8413
 8895SOL    HW238322   4.647   2.864  11.524  0.4239 -1.7062  0.2695
 8896SOL     OW38323   0.140   0.427  15.192  0.3070  0.1820 -0.4760
 8896SOL    HW138324   0.168   0.495  15.130  0.5022  1.3401  0.8632
 8896SOL    HW238325   0.063   0.388  15.153 -0.1405  0.4636  0.1255
 8897SOL     OW38326   0.785   1.249   3.060 -0.2452  0.1592 -0.1400
 8897SOL    HW138327   0.822   1.179   3.113  1.0882 -0.0524 -1.3235
 8897SOL    HW238328   0.699   1.257   3.100 -0.6144 -0.1788 -0.8717
 8898SOL     OW38329   4.302   0.407   2.815  0.2231  0.1927 -0.3956
 8898SOL    HW138330   4.234   0.447   2.870 -0.8602  0.5725 -2.0216
 8898SOL    HW238331   4.255   0.411   2.732  1.9655  1.7480 -1.3083
 8899SOL     OW38332   2.700   0.275   9.906 -0.3999  0.2893  0.4047
 8899SOL    HW138333   2.644   0.286   9.829 -0.9905  0.9402  0.9269
 8899SOL    HW238334   2.738   0.187   9.901  0.2148  0.5854 -0.0785
 8900SOL     OW38335   0.327   1.433   8.287 -0.9289 -0.0663  0.3609
 8900SOL    HW138336   0.281   1.437   8.370 -0.9361 -0.5483  0.3823
 8900SOL    HW238337   0.264   1.443   8.216 -2.8804  1.0614  2.2525
 8901SOL     OW38338   3.724   4.567   6.565  0.0665  0.3292  0.8955
 8901SOL    HW138339   3.677   4.527   6.638 -1.8082  0.3614 -0.2789
 8901SOL    HW238340   3.708   4.658   6.588  0.0068  1.0499 -1.9373
 8902SOL     OW38341   2.088   2.720   8.235 -0.5349  0.0482  0.3306
 8902SOL    HW138342   2.142   2.688   8.163  0.1386  1.6847  0.1018
 8902SOL    HW238343   2.164   2.751   8.285 -1.1906  0.2523  1.2133
 8903SOL     OW38344   3.193   1.387   9.472 -0.1488  0.2505 -0.4132
 8903SOL    HW138345   3.175   1.396   9.566 -0.2559 -1.3331 -0.2674
 8903SOL    HW238346   3.264   1.322   9.479  0.3324  1.0828  2.3857
 8904SOL     OW38347   0.521   3.085   2.615 -0.2023  0.3566  0.0457
 8904SOL    HW138348   0.487   3.168   2.649 -1.4050  0.4716 -1.4050
 8904SOL    HW238349   0.612   3.098   2.590 -0.4261  0.2120 -0.8262
 8905SOL     OW38350   0.961   4.259   1.202  0.1300  0.0593 -0.0361
 8905SOL    HW138351   1.000   4.194   1.144  2.3159  2.8578 -1.6813
 8905SOL    HW238352   0.941   4.191   1.266  0.9198  0.7805  0.9780
 8906SOL     OW38353   1.475   1.172   8.818  0.2587  0.8167  0.3721
 8906SOL    HW138354   1.415   1.175   8.743  2.4947  0.6212 -1.4165
 8906SOL    HW238355   1.552   1.203   8.771  2.1854 -2.1244  1.6054
 8907SOL     OW38356   2.481   2.388  12.294 -0.2373 -0.2838  0.6085
 8907SOL    HW138357   2.573   2.380  12.268 -0.0853  0.5927  0.8966
 8907SOL    HW238358   2.447   2.316  12.240 -0.1650 -0.0442  0.2405
 8908SOL     OW38359   1.553   0.992   5.960 -0.2849  0.0588  0.0536
 8908SOL    HW138360   1.552   0.927   6.030 -1.2348 -0.3516 -0.3386
 8908SOL    HW238361   1.601   0.939   5.897 -1.8368 -0.1463 -0.9633
 8909SOL     OW38362   2.988   4.446  10.933  0.0906  0.2375  0.1457
 8909SOL    HW138363   2.938   4.365  10.944  0.8162 -0.5125 -2.0720
 8909SOL    HW238364   3.074   4.412  10.908 -1.1889 -2.0860 -1.1187
 8910SOL     OW38365   0.084   3.212   6.710  0.8675  0.4140 -0.0421
 8910SOL    HW138366   0.119   3.155   6.641  0.5343  0.2258 -0.0551
 8910SOL    HW238367   0.083   3.297   6.667 -1.4649 -0.1103 -1.0349
 8911SOL     OW38368   3.848   1.308   1.907 -0.2629 -0.1460 -0.1426
 8911SOL    HW138369   3.783   1.378   1.911  1.3607  1.3347  0.1765
 8911SOL    HW238370   3.925   1.348   1.867 -2.0560  3.1951 -0.2374
 8912SOL     OW38371   1.914   4.584   8.598 -0.0401  0.1286  0.2129
 8912SOL    HW138372   1.999   4.541   8.605  0.1413  0.1029 -2.2834
 8912SOL    HW238373   1.890   4.587   8.691  2.3567 -0.6475  0.8491
 8913SOL     OW38374   4.532   2.410   1.529 -0.3736  0.1818  0.3175
 8913SOL    HW138375   4.556   2.396   1.621  0.8144  0.6098  0.0739
 8913SOL    HW238376   4.611   2.460   1.507 -0.5313  0.2067 -0.1890
 8914SOL     OW38377   0.178   0.584   2.700 -0.3547  0.1430  0.0286
 8914SOL    HW138378   0.212   0.541   2.778 -2.2907  0.7037  1.1812
 8914SOL    HW238379   0.160   0.675   2.725  1.4212 -0.3024  2.9328
 8915SOL     OW38380   3.865   3.732   9.625 -0.1645 -0.5185  0.0828
 8915SOL    HW138381   3.850   3.763   9.715 -1.3490  2.4302 -1.1488
 8915SOL    HW238382   3.832   3.642   9.624 -0.6037 -0.3847  2.2269
 8916SOL     OW38383   2.672   3.939  14.683  0.2211  0.2506  0.0126
 8916SOL    HW138384   2.700   3.861  14.636  4.8432  0.5206  2.3678
 8916SOL    HW238385   2.755   3.986  14.691 -0.8820  1.5617  4.0848
 8917SOL     OW38386   0.224   2.492  13.359 -0.1357  0.7438 -0.9002
 8917SOL    HW138387   0.303   2.450  13.394 -0.1801 -0.5625 -2.3596
 8917SOL    HW238388   0.243   2.535  13.276 -1.3018  0.1582 -1.4804
 8918SOL     OW38389   2.261   3.990   6.914  0.1548 -0.1494 -0.6197
 8918SOL    HW138390   2.341   4.039   6.934  0.4059 -0.8598  0.0993
 8918SOL    HW238391   2.291   3.910   6.872 -1.0932 -0.8812 -0.1086
 8919SOL     OW38392   0.528   3.167  16.439  0.6116 -0.0913 -0.0349
 8919SOL    HW138393   0.440   3.190  16.410 -0.3664 -1.1584  2.0872
 8919SOL    HW238394   0.558   3.120  16.361  1.1732  0.8827 -0.4020
 8920SOL     OW38395   4.436   3.472  17.461 -0.2464 -0.2865 -0.1200
 8920SOL    HW138396   4.342   3.485  17.470 -0.4711 -2.3437  0.6304
 8920SOL    HW238397   4.452   3.463  17.555 -0.9458  2.1010  0.2191
 8921SOL     OW38398   1.391   1.949   7.140 -0.2923 -0.1703  0.0102
 8921SOL    HW138399   1.441   2.026   7.115 -2.3465  1.5819  1.3347
 8921SOL    HW238400   1.357   1.916   7.056  0.3288  1.6811 -0.9673
 8922SOL     OW38401   2.079   3.788   3.708  0.7509 -0.1069  0.0863
 8922SOL    HW138402   2.136   3.757   3.637 -0.4329  0.7188 -1.2186
 8922SOL    HW238403   2.091   3.734   3.786 -3.0810  1.0616  1.4560
 8923SOL     OW38404   1.946   0.031  12.699 -0.0020  0.0849 -0.1715
 8923SOL    HW138405   1.885   0.086  12.649  0.8499  0.2985 -0.9777
 8923SOL    HW238406   1.970   0.082  12.776 -0.3548  0.3432 -0.2304
 8924SOL     OW38407   1.088   2.601   7.278  0.3589  0.5822 -0.3246
 8924SOL    HW138408   1.040   2.581   7.198 -1.1766  1.1956  0.4466
 8924SOL    HW238409   1.025   2.637   7.341  0.1906 -1.5597  0.7080
 8925SOL     OW38410   3.074   1.525   6.397 -0.3071  0.6584  0.3709
 8925SOL    HW138411   3.054   1.503   6.306  1.4005 -0.9810  0.3976
 8925SOL    HW238412   3.070   1.437   6.436 -0.3347  2.2165  3.8733
 8926SOL     OW38413   4.343   3.613   6.413  0.5290 -0.8114  0.1015
 8926SOL    HW138414   4.429   3.648   6.390 -0.0861  0.6208 -0.0141
 8926SOL    HW238415   4.370   3.536   6.462 -1.1545 -0.7700  1.0970
 8927SOL     OW38416   2.724   3.664  14.600  0.1632 -0.3795 -0.1519
 8927SOL    HW138417   2.675   3.629  14.675 -1.3736  0.0234 -0.9507
 8927SOL    HW238418   2.812   3.638  14.627 -0.3003 -0.2164  1.4830
 8928SOL     OW38419   2.862   1.771   5.558  0.2383  0.0216  0.0385
 8928SOL    HW138420   2.886   1.862   5.538 -3.1238  0.0784 -3.7286
 8928SOL    HW238421   2.940   1.725   5.528  0.5482  0.5931 -0.0448
 8929SOL     OW38422   3.138   2.566   6.739  0.0232  0.5724  0.3951
 8929SOL    HW138423   3.052   2.530   6.761  0.7551 -2.8103 -2.2319
 8929SOL    HW238424   3.171   2.495   6.684 -3.6951 -1.3930  0.7378
 8930SOL     OW38425   3.534   4.581   0.477 -0.1797 -1.1757 -0.1463
 8930SOL    HW138426   3.506   4.635   0.403  2.3353  0.0519 -0.2054
 8930SOL    HW238427   3.540   4.491   0.444 -0.3578 -0.9917 -0.6699
 8931SOL     OW38428   0.830   4.532   4.014 -0.7949  0.1743 -0.5218
 8931SOL    HW138429   0.905   4.572   4.057 -0.5049 -0.0094 -0.8562
 8931SOL    HW238430   0.849   4.440   4.034  0.0622  0.3599 -0.4857
 8932SOL     OW38431   0.227   2.018  16.693 -0.0494  0.1206  0.0269
 8932SOL    HW138432   0.286   1.950  16.659  1.5138  0.9403  1.1154
 8932SOL    HW238433   0.259   2.041  16.780 -0.4855 -2.4616  0.8862
 8933SOL     OW38434   4.021   0.295   6.924 -0.3476  0.1759 -0.1963
 8933SOL    HW138435   4.110   0.268   6.949 -0.4473 -1.3150 -1.4989
 8933SOL    HW238436   4.050   0.381   6.893 -0.7971  0.3880 -0.0294
 8934SOL     OW38437   2.425   0.951  10.007 -0.0296  0.2774 -0.5553
 8934SOL    HW138438   2.445   1.014   9.938  2.6105  0.1305  0.0673
 8934SOL    HW238439   2.504   0.898  10.019  0.2979  0.8037 -0.3884
 8935SOL     OW38440   3.128   1.785  12.122  0.6056  0.8133 -0.1665
 8935SOL    HW138441   3.207   1.802  12.071  2.5536  0.3980  2.7029
 8935SOL    HW238442   3.098   1.876  12.125 -0.3985  0.5141 -1.1267
 8936SOL     OW38443   4.569   2.571   9.055 -0.0002  0.0139  0.4041
 8936SOL    HW138444   4.545   2.522   9.134  0.2220 -0.2530  0.3047
 8936SOL    HW238445   4.556   2.658   9.093  1.1031  0.6890 -0.7976
 8937SOL     OW38446   1.040   3.872   8.104  0.1461 -0.4051 -0.2042
 8937SOL    HW138447   1.034   3.797   8.163  0.4095 -1.3267 -1.3463
 8937SOL    HW238448   1.082   3.941   8.156  2.0218  1.6034 -4.4042
 8938SOL     OW38449   4.363   3.463   7.962  0.2412  0.1163  0.4898
 8938SOL    HW138450   4.300   3.517   8.010  2.4615  2.8541  0.3408
 8938SOL    HW238451   4.350   3.378   8.003 -2.5304 -1.0740 -2.8906
 8939SOL     OW38452   1.968   1.808   6.119  0.6707  0.6467 -0.3523
 8939SOL    HW138453   1.956   1.754   6.041 -0.8054 -0.6752  0.7961
 8939SOL    HW238454   1.918   1.887   6.097 -0.1598  0.0431 -0.6126
 8940SOL     OW38455   0.820   1.090   3.677 -0.0425 -0.1158 -0.0630
 8940SOL    HW138456   0.911   1.107   3.654  0.2424  0.1698  1.2878
 8940SOL    HW238457   0.800   1.005   3.638 -0.1313 -0.8527  1.6154
 8941SOL     OW38458   0.802   1.616   7.110 -0.4907 -0.1482 -0.3915
 8941SOL    HW138459   0.792   1.527   7.144 -0.3140  0.5843  1.6138
 8941SOL    HW238460   0.841   1.596   7.025 -0.8238  2.3872 -1.1207
 8942SOL     OW38461   2.975   3.250   5.058  1.1935 -0.0318  0.6361
 8942SOL    HW138462   3.028   3.170   5.062  1.0356 -0.0693  1.9079
 8942SOL    HW238463   2.927   3.251   5.141  2.7217 -0.7437  1.5296
 8943SOL     OW38464   1.913   0.614   4.975  0.0145  0.3534  0.2832
 8943SOL    HW138465   1.939   0.706   4.975 -2.6500  1.0937 -1.4408
 8943SOL    HW238466   1.819   0.621   4.960 -0.4920 -2.3617  2.2529
 8944SOL     OW38467   3.291   0.834   1.870 -0.4378 -0.0682 -0.5843
 8944SOL    HW138468   3.361   0.811   1.930  1.3950  0.3160 -2.5797
 8944SOL    HW238469   3.256   0.915   1.907 -1.6035 -1.6222  1.7953
 8945SOL     OW38470   2.588   0.844   8.543  0.5103  0.2677  0.6521
 8945SOL    HW138471   2.550   0.908   8.603 -1.9625  0.0627 -0.6967
 8945SOL    HW238472   2.622   0.899   8.472 -0.1529 -0.7445 -0.4447
 8946SOL     OW38473   1.042   2.866   3.456 -0.4384  0.4394 -0.3221
 8946SOL    HW138474   1.021   2.860   3.363 -1.3468  0.0940 -0.0924
 8946SOL    HW238475   0.962   2.900   3.496 -0.0425  1.7739 -0.6611
 8947SOL     OW38476   4.560   2.664   4.444 -0.3675 -0.1898  0.3040
 8947SOL    HW138477   4.565   2.702   4.356 -0.9641 -1.3391 -0.2159
 8947SOL    HW238478   4.465   2.658   4.450 -0.4952  0.9599 -0.4327
 8948SOL     OW38479   0.907   3.011   4.784 -0.1278 -0.4100 -0.0263
 8948SOL    HW138480   0.919   3.024   4.690  1.6145  0.4689  0.3136
 8948SOL    HW238481   0.975   3.070   4.817 -0.0870 -0.4277 -0.0788
 8949SOL     OW38482   2.276   1.118   7.723  0.1679  0.2261  0.1920
 8949SOL    HW138483   2.227   1.042   7.693 -0.6878  0.9445 -0.2328
 8949SOL    HW238484   2.210   1.187   7.722  1.1979  1.2037 -1.8152
 8950SOL     OW38485   4.074   3.635  15.836  0.3745  0.1112  0.3255
 8950SOL    HW138486   4.151   3.626  15.892  0.2871  1.3259  0.6402
 8950SOL    HW238487   4.101   3.595  15.753 -1.7324  0.8383 -0.7232
 8951SOL     OW38488   4.082   4.730   2.838 -0.2042 -0.2693  0.1165
 8951SOL    HW138489   4.089   0.073   2.786 -0.0543 -0.4819 -0.1910
 8951SOL    HW238490   4.000   4.697   2.802  0.8014 -1.9496 -0.5985
 8952SOL     OW38491   1.297   1.434   7.398  0.2388 -0.4603 -0.5800
 8952SOL    HW138492   1.259   1.513   7.359 -0.9298 -0.7473 -0.0471
 8952SOL    HW238493   1.279   1.450   7.491  2.6025 -2.2833  0.1958
 8953SOL     OW38494   2.511   4.437   5.752 -0.6553 -0.0245 -0.4700
 8953SOL    HW138495   2.555   4.423   5.835 -1.3657 -0.4288 -0.1584
 8953SOL    HW238496   2.583   4.476   5.703 -0.3531 -0.0207 -0.0165
 8954SOL     OW38497   0.308   0.799   1.574  0.1469  0.5394 -0.6307
 8954SOL    HW138498   0.282   0.711   1.601  0.6966  0.5485 -0.0760
 8954SOL    HW238499   0.401   0.786   1.554  0.0337 -1.6659  0.2905
 8955SOL     OW38500   1.459   0.968  12.007 -0.0258 -0.2138 -0.0709
 8955SOL    HW138501   1.431   0.938  12.093 -2.0781 -1.9680 -1.3598
 8955SOL    HW238502   1.494   1.056  12.021  2.9904 -1.5811  0.9252
 8956SOL     OW38503   1.797   1.917   7.327 -0.6454 -0.6500  0.1841
 8956SOL    HW138504   1.864   1.976   7.362  0.7413 -1.7497 -0.6015
 8956SOL    HW238505   1.777   1.970   7.250  0.4279 -1.1312 -0.4281
 8957SOL     OW38506   0.396   2.134  13.378 -0.0482  0.5117  0.4948
 8957SOL    HW138507   0.321   2.110  13.434 -1.8120 -1.1265 -2.5586
 8957SOL    HW238508   0.448   2.185  13.440  0.0735  0.2972  0.5670
 8958SOL     OW38509   0.121   1.776  12.710 -0.2131 -0.1312 -0.7099
 8958SOL    HW138510   0.117   1.786  12.615  0.8748  0.7353 -0.6608
 8958SOL    HW238511   0.103   1.682  12.718  0.1771 -0.2304 -1.0170
 8959SOL     OW38512   0.034   0.071   5.107 -0.5204  0.2109 -0.7958
 8959SOL    HW138513   4.715   0.110   5.174 -1.6857  0.0013 -1.6596
 8959SOL    HW238514   0.071   0.148   5.064  1.9139  0.2475  1.3031
 8960SOL     OW38515   3.533   2.837   5.655 -0.2347  0.0108  0.2724
 8960SOL    HW138516   3.548   2.877   5.570 -1.6863  0.6223  0.3050
 8960SOL    HW238517   3.608   2.878   5.698  0.7495 -2.1950  0.6406
 8961SOL     OW38518   3.463   4.702   5.265 -0.3232  0.1746 -0.3302
 8961SOL    HW138519   3.473   4.608   5.254  1.9362  0.4413 -0.4857
 8961SOL    HW238520   3.549   0.005   5.275 -0.0517 -0.2826 -0.8600
 8962SOL     OW38521   4.447   4.255  12.808 -0.3605  0.2152  0.6150
 8962SOL    HW138522   4.522   4.199  12.787 -0.0491  0.7097  0.4136
 8962SOL    HW238523   4.479   4.337  12.770 -2.1726 -0.0869 -1.5453
 8963SOL     OW38524   4.086   3.345   2.762 -0.4617  0.2592  0.5103
 8963SOL    HW138525   4.140   3.420   2.736 -0.6064  0.3715  0.5323
 8963SOL    HW238526   4.049   3.316   2.679 -1.5495  1.0031  0.7343
 8964SOL     OW38527   0.228   4.108   4.175  0.0535 -0.0214 -0.3697
 8964SOL    HW138528   0.219   4.013   4.168 -1.5214  0.1203 -0.1142
 8964SOL    HW238529   0.296   4.114   4.243  0.5557 -1.2733 -0.7519
 8965SOL     OW38530   2.675   4.305   6.628 -0.4667  0.2224 -0.1531
 8965SOL    HW138531   2.616   4.341   6.695 -0.0589 -0.0201  0.3310
 8965SOL    HW238532   2.664   4.211   6.646  4.6057 -0.0988  1.0129
 8966SOL     OW38533   1.885   3.328   0.939  0.1960  0.1301  0.1718
 8966SOL    HW138534   1.883   3.416   0.902 -2.1731  0.4751  1.1666
 8966SOL    HW238535   1.912   3.340   1.030 -1.5934 -1.4766  0.9309
 8967SOL     OW38536   1.257   3.866   9.156 -0.4886  0.2219 -0.2549
 8967SOL    HW138537   1.236   3.782   9.199 -0.0579  0.7821  1.0572
 8967SOL    HW238538   1.278   3.927   9.226 -1.2669 -0.1368  0.3000
 8968SOL     OW38539   0.273   2.355  10.563 -0.5070 -0.8301  0.9371
 8968SOL    HW138540   0.189   2.379  10.603 -0.2173  2.4905 -0.4836
 8968SOL    HW238541   0.271   2.259  10.558 -2.6855 -0.7472  0.2710
 8969SOL     OW38542   1.241   3.093   9.987  0.1396 -0.4088  0.7522
 8969SOL    HW138543   1.218   3.001   9.999 -0.0888 -0.4794 -0.2341
 8969SOL    HW238544   1.178   3.108   9.918  1.7990  1.3336 -0.3755
 8970SOL     OW38545   2.492   0.651  12.157 -0.0982  0.2900  0.1498
 8970SOL    HW138546   2.548   0.587  12.199 -0.7206 -0.2600  0.1320
 8970SOL    HW238547   2.545   0.727  12.181 -0.5128  1.2361 -1.8302
 8971SOL     OW38548   2.895   1.075   3.707  0.4103 -0.2698  0.1382
 8971SOL    HW138549   2.823   1.012   3.703 -0.6025  0.9592 -0.9112
 8971SOL    HW238550   2.909   1.085   3.612  2.2745 -2.7607  0.1316
 8972SOL     OW38551   2.268   1.152   9.550 -0.6364  0.0020 -0.1491
 8972SOL    HW138552   2.285   1.167   9.643 -2.1579  2.3649 -0.2309
 8972SOL    HW238553   2.262   1.240   9.514 -3.9488 -0.0589  0.2445
 8973SOL     OW38554   2.989   0.604   4.802  0.4448 -0.2579  0.6313
 8973SOL    HW138555   2.955   0.515   4.795  2.7675 -1.2801  2.4306
 8973SOL    HW238556   2.969   0.625   4.893  0.6938  2.8297 -0.0088
 8974SOL     OW38557   3.134   4.506   2.407 -0.3471 -0.9635 -0.4043
 8974SOL    HW138558   3.113   4.465   2.491 -0.2910 -3.8749 -1.8036
 8974SOL    HW238559   3.213   4.549   2.441 -0.1564 -0.1876 -1.8480
 8975SOL     OW38560   1.490   4.681   9.155  0.0973  0.7958 -0.3703
 8975SOL    HW138561   1.472   0.030   9.116  0.1469  1.8092  1.8663
 8975SOL    HW238562   1.410   4.634   9.132  0.4572 -0.1607  0.3398
 8976SOL     OW38563   3.460   3.991   1.424  0.0515  1.1203  0.1121
 8976SOL    HW138564   3.445   3.948   1.340  1.6574 -0.0156  0.4201
 8976SOL    HW238565   3.411   4.072   1.411 -2.4099 -0.4355 -0.3913
 8977SOL     OW38566   2.443   3.030  14.603 -0.3210  0.1810 -0.6332
 8977SOL    HW138567   2.433   3.099  14.539 -2.8974  0.6649  0.3051
 8977SOL    HW238568   2.399   3.065  14.680  1.8355 -0.6202  0.9824
 8978SOL     OW38569   1.479   0.689   9.451 -0.0340  0.6520 -0.1873
 8978SOL    HW138570   1.491   0.782   9.433 -1.0989  1.0520  1.1165
 8978SOL    HW238571   1.386   0.697   9.474 -0.0031 -0.5855  0.3701
 8979SOL     OW38572   2.435   0.616   9.086  0.1180 -0.0700  0.1013
 8979SOL    HW138573   2.424   0.625   8.991  2.4441 -1.8959 -0.3429
 8979SOL    HW238574   2.349   0.581   9.108  0.7484 -1.2275  0.6989
 8980SOL     OW38575   1.419   4.156   6.994  0.5591  0.6556  0.8384
 8980SOL    HW138576   1.400   4.121   7.082 -1.2187 -0.7328 -0.0784
 8980SOL    HW238577   1.331   4.170   6.959 -0.3054  0.5681  2.9174
 8981SOL     OW38578   1.670   4.365   8.698  0.3413  0.4016 -0.2034
 8981SOL    HW138579   1.723   4.441   8.722  0.4890 -0.9249  3.7311
 8981SOL    HW238580   1.718   4.306   8.640 -0.5576  0.2920 -0.8342
 8982SOL     OW38581   1.302   2.537   6.839 -0.0898 -0.1824  0.0941
 8982SOL    HW138582   1.309   2.560   6.746 -1.7841 -0.5222 -0.1151
 8982SOL    HW238583   1.392   2.538   6.872 -0.0213 -0.7761 -0.0653
 8983SOL     OW38584   2.859   4.343   7.780 -0.5238  0.0675 -0.1940
 8983SOL    HW138585   2.905   4.416   7.738 -1.1612  1.5219  1.6393
 8983SOL    HW238586   2.881   4.277   7.715 -0.8394 -0.4023  0.1782
 8984SOL     OW38587   3.657   3.807   3.215  0.0462 -0.3572  0.4485
 8984SOL    HW138588   3.640   3.806   3.309 -1.1604  0.2737  0.2420
 8984SOL    HW238589   3.573   3.828   3.173 -0.7554 -1.4541  1.4977
 8985SOL     OW38590   1.374   0.479   6.691  0.2409  0.6494  0.2767
 8985SOL    HW138591   1.329   0.402   6.657 -2.0098  1.4515  1.3963
 8985SOL    HW238592   1.379   0.527   6.609 -1.4803  0.2759 -0.0537
 8986SOL     OW38593   0.770   2.412   8.503  0.6872 -0.0182 -0.2046
 8986SOL    HW138594   0.691   2.396   8.452 -0.7223  1.6455  1.4817
 8986SOL    HW238595   0.823   2.458   8.437  2.1325 -0.2115  0.8077
 8987SOL     OW38596   4.079   4.702  12.150  0.5206  0.6173 -0.3184
 8987SOL    HW138597   4.067   0.055  12.120 -0.0812  1.4545  2.3783
 8987SOL    HW238598   4.006   4.653  12.112  2.8684 -2.2524 -1.0832
 8988SOL     OW38599   3.886   3.379   9.427  0.3084  0.1945 -0.1667
 8988SOL    HW138600   3.928   3.446   9.373  1.1362 -0.6818 -0.5897
 8988SOL    HW238601   3.798   3.386   9.390  0.0961  0.1647  0.3309
 8989SOL     OW38602   3.487   2.885   9.394 -0.4103  0.0697  0.1981
 8989SOL    HW138603   3.406   2.846   9.427 -0.5863  0.2497 -0.0221
 8989SOL    HW238604   3.518   2.809   9.345  5.1698  2.2589  0.3948
 8990SOL     OW38605   0.645   0.559  16.622  0.0497 -0.4106  0.1414
 8990SOL    HW138606   0.691   0.638  16.649 -0.5544  0.2526 -0.7788
 8990SOL    HW238607   0.667   0.542  16.530 -0.9901 -0.0207 -0.1778
 8991SOL     OW38608   1.289   1.079   0.401 -0.2092  0.5958  0.0319
 8991SOL    HW138609   1.277   1.005   0.461 -2.0872  1.3697  0.5901
 8991SOL    HW238610   1.373   1.059   0.360 -0.3795 -0.5141  0.2057
 8992SOL     OW38611   0.054   1.302   8.323 -0.4101 -0.4074  0.5858
 8992SOL    HW138612   0.009   1.227   8.362 -0.9533 -0.7297 -0.6331
 8992SOL    HW238613   0.088   1.352   8.397 -0.8272  2.7593 -1.3366
 8993SOL     OW38614   2.892   1.387   8.551 -0.3322  0.1106 -0.2420
 8993SOL    HW138615   2.856   1.445   8.618 -0.0204 -1.4638  1.3191
 8993SOL    HW238616   2.945   1.332   8.609  0.4512  0.0814 -1.0018
 8994SOL     OW38617   1.236   2.387   8.669 -0.4432 -0.0408  0.2922
 8994SOL    HW138618   1.269   2.477   8.672 -0.6729  0.0378  0.4568
 8994SOL    HW238619   1.270   2.361   8.755  1.4283 -1.1474 -0.7692
 8995SOL     OW38620   3.202   1.707   0.627 -0.5732 -0.1299 -0.0902
 8995SOL    HW138621   3.123   1.665   0.659 -1.2086  0.0730 -1.3746
 8995SOL    HW238622   3.259   1.637   0.595 -0.0382 -0.3326  1.3184
 8996SOL     OW38623   4.505   1.072  13.529 -0.4193 -0.3458  0.0926
 8996SOL    HW138624   4.477   1.163  13.530 -0.1976 -0.2709 -0.4169
 8996SOL    HW238625   4.457   1.043  13.607 -0.9672 -1.8871 -0.8170
 8997SOL     OW38626   2.179   1.494   9.758 -0.6936 -0.1968 -0.1738
 8997SOL    HW138627   2.098   1.443   9.765  0.0935 -1.4218  0.0384
 8997SOL    HW238628   2.167   1.525   9.668 -0.1458 -0.2343 -0.2597
 8998SOL     OW38629   3.562   0.654   0.481  0.0467 -0.0551 -0.2930
 8998SOL    HW138630   3.499   0.726   0.479  0.7251  0.5076 -2.1784
 8998SOL    HW238631   3.578   0.636   0.388 -2.7125 -0.1408 -0.7409
 8999SOL     OW38632   1.018   1.380  17.028  0.0734  0.1016  0.0989
 8999SOL    HW138633   1.071   1.429  17.091  1.1172 -2.5764  1.2927
 8999SOL    HW238634   0.931   1.414  17.048 -0.7422 -1.4118 -0.8768
 9000SOL     OW38635   3.288   4.365   7.821 -0.6330  0.0602 -0.2950
 9000SOL    HW138636   3.264   4.278   7.852  0.2303  0.1723  0.7244
 9000SOL    HW238637   3.203   4.408   7.818 -0.0416  1.2116 -0.4540
 9001SOL     OW38638   4.444   0.657   2.861 -0.0146 -0.3196  0.1928
 9001SOL    HW138639   4.364   0.634   2.909 -0.4403  0.3277 -0.2158
 9001SOL    HW238640   4.506   0.589   2.889  0.6881  2.0678  4.4071
 9002SOL     OW38641   2.215   2.892   9.706 -0.2843  0.0321  0.1777
 9002SOL    HW138642   2.266   2.826   9.660  0.1316 -0.4143  1.2774
 9002SOL    HW238643   2.141   2.913   9.648  0.5476 -1.4924 -1.4315
 9003SOL     OW38644   3.474   3.689   9.422 -0.8991 -0.5981 -0.0964
 9003SOL    HW138645   3.480   3.650   9.335 -4.6317 -0.7200 -0.3000
 9003SOL    HW238646   3.531   3.631   9.473  1.2548  0.6011 -1.1550
 9004SOL     OW38647   0.643   4.164   9.547  0.6555  0.3348  0.1671
 9004SOL    HW138648   0.693   4.082   9.550 -2.3847 -1.4971  1.7538
 9004SOL    HW238649   0.580   4.158   9.620  2.3440 -1.4473  1.4904
 9005SOL     OW38650   1.981   0.796   2.013 -0.2940  0.4709 -0.1298
 9005SOL    HW138651   2.062   0.786   2.062 -0.1251  2.4085 -0.0475
 9005SOL    HW238652   1.951   0.705   2.005 -3.8959  1.7058 -0.8852
 9006SOL     OW38653   1.225   3.222   9.199 -0.2479  0.0173 -0.6571
 9006SOL    HW138654   1.306   3.269   9.221 -0.7176  1.2296 -1.5578
 9006SOL    HW238655   1.161   3.254   9.262 -0.5718  0.3818 -1.1750
 9007SOL     OW38656   1.552   0.552   8.295 -0.3107  0.4998  0.3529
 9007SOL    HW138657   1.622   0.493   8.324 -0.9255 -0.5414 -0.2645
 9007SOL    HW238658   1.474   0.497   8.302 -0.2488  0.3366 -0.3347
 9008SOL     OW38659   0.050   3.040   9.159  0.2016 -0.1140  0.7322
 9008SOL    HW138660   4.735   3.001   9.089  1.5082 -0.6406  0.0626
 9008SOL    HW238661   0.122   3.082   9.112 -0.0469 -1.4813 -0.8838
 9009SOL     OW38662   1.347   0.802   9.132 -0.0161 -0.3268  0.5007
 9009SOL    HW138663   1.388   0.853   9.202 -1.0233  0.7166  0.3188
 9009SOL    HW238664   1.413   0.734   9.116  0.3554 -0.3882  2.2979
 9010SOL     OW38665   2.487   0.827  17.110  0.3632 -0.5990 -0.0847
 9010SOL    HW138666   2.539   0.763  17.158 -2.0022  1.0150  4.5224
 9010SOL    HW238667   2.557   0.863  17.054 -0.6209  0.8156 -0.4043
 9011SOL     OW38668   1.597   0.931   5.416  0.9518  0.0611  0.1236
 9011SOL    HW138669   1.558   0.981   5.487  1.9054  1.3081 -0.2262
 9011SOL    HW238670   1.625   0.847   5.451 -1.6747 -0.7731  0.2319
 9012SOL     OW38671   2.946   0.577   5.070  0.3620 -0.6403  0.2334
 9012SOL    HW138672   2.866   0.579   5.122 -0.7928  0.9786 -1.5824
 9012SOL    HW238673   2.997   0.507   5.110 -2.8725 -1.8468  2.2383
 9013SOL     OW38674   3.645   3.049  17.187  0.0395  0.2200 -0.3334
 9013SOL    HW138675   3.631   3.027  17.094 -3.0542  0.9508 -0.0471
 9013SOL    HW238676   3.557   3.079  17.209  0.6179  0.2503  1.8559
 9014SOL     OW38677   0.143   4.072   3.805 -0.2943  0.5155 -0.1582
 9014SOL    HW138678   0.197   4.116   3.871  0.0195 -0.1161  0.0100
 9014SOL    HW238679   0.205   4.033   3.743  0.2745  1.6074 -0.2790
 9015SOL     OW38680   1.823   3.249   7.730 -0.1240 -0.3309 -0.1091
 9015SOL    HW138681   1.906   3.207   7.710  0.7411  2.2111 -1.8487
 9015SOL    HW238682   1.781   3.262   7.645  0.9401  0.1110 -0.5750
 9016SOL     OW38683   1.883   3.862   1.639 -0.0580 -0.8506 -0.6540
 9016SOL    HW138684   1.791   3.878   1.618 -0.2772 -0.3504  0.6633
 9016SOL    HW238685   1.927   3.946   1.639 -1.2795 -0.2135 -0.3351
 9017SOL     OW38686   3.684   3.105   4.169  0.1936  0.3749  0.3082
 9017SOL    HW138687   3.608   3.135   4.119 -0.1918 -0.5279  0.3537
 9017SOL    HW238688   3.658   3.120   4.260 -0.1479  2.5794 -0.1708
 9018SOL     OW38689   2.260   1.456   5.909  0.1897 -0.2040  0.5890
 9018SOL    HW138690   2.208   1.481   5.986  0.7157  0.9050  0.5757
 9018SOL    HW238691   2.263   1.361   5.908 -0.9679 -0.2494  0.8218
 9019SOL     OW38692   0.749   2.929  14.722  0.1353  0.0352  0.2082
 9019SOL    HW138693   0.721   2.893  14.638  2.1815 -0.0570 -0.4199
 9019SOL    HW238694   0.835   2.890  14.738 -0.7805 -1.3483  1.7977
 9020SOL     OW38695   1.381   4.121  16.288 -0.1748  0.3566  0.5290
 9020SOL    HW138696   1.317   4.074  16.341 -0.7081  0.0280 -0.4068
 9020SOL    HW238697   1.326   4.191  16.254 -1.9236 -1.5505 -0.5138
 9021SOL     OW38698   1.763   1.116   4.050 -0.2137  0.0277 -0.3682
 9021SOL    HW138699   1.796   1.115   3.960  1.1237  1.4338  0.1008
 9021SOL    HW238700   1.710   1.036   4.053 -2.0246  1.1641 -2.2454
 9022SOL     OW38701   2.018   0.676  11.271 -0.0524 -0.0520  0.3146
 9022SOL    HW138702   1.975   0.680  11.186 -1.1195 -3.6845  0.7067
 9022SOL    HW238703   2.107   0.704  11.249  0.5488 -0.6718  1.9681
 9023SOL     OW38704   2.232   2.916   7.496  0.7257 -0.0260 -0.0688
 9023SOL    HW138705   2.220   2.843   7.556  1.3236 -0.5657 -0.6080
 9023SOL    HW238706   2.323   2.933   7.521  0.9375 -1.2464  0.0074
 9024SOL     OW38707   4.126   0.654   6.432  0.7559 -0.3896 -0.7473
 9024SOL    HW138708   4.107   0.563   6.411 -0.5370  0.0608 -1.5072
 9024SOL    HW238709   4.044   0.680   6.473  2.4774  0.2057  2.3460
 9025SOL     OW38710   0.104   4.611   9.287  1.1888 -0.0424  0.8339
 9025SOL    HW138711   0.032   4.573   9.337  0.1027  0.0887 -0.6118
 9025SOL    HW238712   0.121   4.545   9.220 -0.7683  2.6261 -2.3281
 9026SOL     OW38713   1.656   4.337  17.018  0.1220 -0.3198 -0.6143
 9026SOL    HW138714   1.674   4.353  17.111  1.7473 -1.8286 -0.6589
 9026SOL    HW238715   1.629   4.427  17.001  0.0895 -0.5481 -1.7660
 9027SOL     OW38716   1.872   2.273   5.830  0.4481  0.0114  0.9598
 9027SOL    HW138717   1.846   2.251   5.741  0.7309  0.1986  0.8353
 9027SOL    HW238718   1.966   2.268   5.816  0.6631  1.6466  1.8162
 9028SOL     OW38719   4.220   1.266   7.747 -0.5616 -0.0609  0.1673
 9028SOL    HW138720   4.181   1.234   7.828 -0.9555 -1.1903 -0.4720
 9028SOL    HW238721   4.286   1.332   7.771  0.1957 -1.8010  2.7668
 9029SOL     OW38722   2.726   4.358   9.661  0.5576  0.0033 -0.3202
 9029SOL    HW138723   2.670   4.435   9.650 -1.2653 -0.9507  2.3011
 9029SOL    HW238724   2.722   4.318   9.574  0.4001 -3.5169  1.3051
 9030SOL     OW38725   0.372   3.959   8.762 -0.1480  0.0732  0.0419
 9030SOL    HW138726   0.425   3.915   8.828 -1.0001 -2.1367 -0.7376
 9030SOL    HW238727   0.399   3.904   8.688 -1.2378  0.0136 -0.3005
 9031SOL     OW38728   4.415   1.862   3.028  0.0322  0.2674  0.6160
 9031SOL    HW138729   4.468   1.852   2.949  0.3569  3.2447  0.4283
 9031SOL    HW238730   4.405   1.770   3.050  2.3339 -0.1173  0.0014
 9032SOL     OW38731   2.915   1.047  11.657  0.9526  0.3343 -0.0508
 9032SOL    HW138732   2.826   1.070  11.633  0.5549 -0.7283  0.4233
 9032SOL    HW238733   2.908   0.952  11.659  0.9886  0.3377  0.1822
 9033SOL     OW38734   2.546   0.284   6.939  0.2467 -0.0482  0.2570
 9033SOL    HW138735   2.554   0.363   6.886 -1.2940  0.2892  0.5399
 9033SOL    HW238736   2.456   0.258   6.919  0.4658  0.3859 -1.2910
 9034SOL     OW38737   4.195   1.160  12.720  0.0067 -0.4531  0.5207
 9034SOL    HW138738   4.167   1.204  12.800  0.3161  1.9076 -0.6722
 9034SOL    HW238739   4.277   1.114  12.737  0.0187 -0.3242  0.8171
 9035SOL     OW38740   2.512   1.583   4.892  0.1468 -0.3196  0.2198
 9035SOL    HW138741   2.565   1.551   4.819  0.7554  0.1876  0.4324
 9035SOL    HW238742   2.429   1.537   4.895 -0.2891  0.5801  2.0073
 9036SOL     OW38743   4.003   3.204  10.067 -0.1658  0.3690  0.1299
 9036SOL    HW138744   3.988   3.287  10.022 -0.9909  0.6774  0.9746
 9036SOL    HW238745   3.948   3.214  10.144 -0.4075 -0.2256  0.0319
 9037SOL     OW38746   0.306   4.456   2.261  0.3795 -0.0173  0.0189
 9037SOL    HW138747   0.373   4.425   2.201 -0.8023  1.0403 -1.8312
 9037SOL    HW238748   0.229   4.459   2.205  0.0196  0.3434  0.5278
 9038SOL     OW38749   4.204   3.474   5.351  0.2366 -0.1741  0.5460
 9038SOL    HW138750   4.175   3.418   5.423 -4.0353  0.3696 -0.7375
 9038SOL    HW238751   4.299   3.483   5.357  0.4178 -0.2723 -2.3705
 9039SOL     OW38752   1.665   1.985   2.078  0.2578  0.2653  0.2416
 9039SOL    HW138753   1.642   1.978   2.170  2.9201  0.1108  0.8948
 9039SOL    HW238754   1.584   1.963   2.033 -0.3606  1.7524  0.6121
 9040SOL     OW38755   2.880   3.147  10.098  0.2839 -0.5073  0.3435
 9040SOL    HW138756   2.807   3.087  10.111 -0.6455  1.0087  2.0850
 9040SOL    HW238757   2.857   3.186  10.013  1.7006 -2.0013 -0.7342
 9041SOL     OW38758   0.345   0.893  13.212 -0.3414 -0.0109 -0.1927
 9041SOL    HW138759   0.440   0.888  13.223 -0.2377  2.1108 -0.1222
 9041SOL    HW238760   0.352   0.891  13.116  3.9682  1.4747  0.1030
 9042SOL     OW38761   2.327   2.756  14.436  0.4516  0.3105  0.1686
 9042SOL    HW138762   2.382   2.747  14.358 -0.2923  1.9289 -0.5295
 9042SOL    HW238763   2.360   2.840  14.467  0.6417  0.3562 -0.1551
 9043SOL     OW38764   1.925   0.257   8.993 -0.4005  0.5115  0.0744
 9043SOL    HW138765   1.844   0.306   9.007 -1.1413 -0.7943  0.4366
 9043SOL    HW238766   1.948   0.237   9.083  0.3676  1.7981  0.1590
 9044SOL     OW38767   2.575   1.614  16.435 -0.4055  0.5936  0.2424
 9044SOL    HW138768   2.640   1.616  16.506  2.0639 -1.0798 -1.9628
 9044SOL    HW238769   2.598   1.695  16.389  0.3673  2.3079  3.6331
 9045SOL     OW38770   0.501   3.555   4.906  0.5242 -0.1123  0.0955
 9045SOL    HW138771   0.448   3.509   4.970  1.9422  1.2545  2.2272
 9045SOL    HW238772   0.429   3.565   4.843  2.8663  0.6604 -2.4681
 9046SOL     OW38773   4.229   1.070  13.306 -0.0155 -0.1844  0.3389
 9046SOL    HW138774   4.187   1.042  13.224  0.5569 -0.9173  0.2983
 9046SOL    HW238775   4.309   1.106  13.268 -1.0571  0.9671 -0.7954
 9047SOL     OW38776   2.114   1.975   1.883 -0.5662 -0.4067 -0.0023
 9047SOL    HW138777   2.050   1.972   1.954  0.3413  1.3564  0.8763
 9047SOL    HW238778   2.164   1.894   1.895  0.5825 -0.0948 -2.5361
 9048SOL     OW38779   0.105   4.546  10.771 -0.6270 -0.1340 -0.0318
 9048SOL    HW138780   0.161   4.620  10.794 -2.0240  1.7021 -2.5387
 9048SOL    HW238781   0.013   4.573  10.778 -0.3041  0.4205  2.3280
 9049SOL     OW38782   1.589   2.319   7.278 -0.1896 -0.4352  0.0697
 9049SOL    HW138783   1.657   2.308   7.211 -1.9691  2.2392 -2.1228
 9049SOL    HW238784   1.532   2.385   7.240 -0.5973 -0.4578  0.6367
 9050SOL     OW38785   4.097   2.701  15.250  0.3504  1.2433  0.3032
 9050SOL    HW138786   4.174   2.643  15.246 -0.8402 -0.3938  1.4130
 9050SOL    HW238787   4.026   2.647  15.216  0.9623  1.6830 -1.6965
 9051SOL     OW38788   0.739   1.816  15.018  0.0841 -0.4899  0.1175
 9051SOL    HW138789   0.753   1.749  14.951  1.6225  1.6091 -1.6569
 9051SOL    HW238790   0.824   1.860  15.018 -0.1550 -0.0318  0.6258
 9052SOL     OW38791   3.179   1.663   3.276  0.9900 -0.1867  0.0018
 9052SOL    HW138792   3.117   1.681   3.206 -0.3733 -0.0245  1.2594
 9052SOL    HW238793   3.248   1.616   3.228  0.5785  1.3710 -2.1236
 9053SOL     OW38794   0.935   0.896   5.794  0.4639  0.5038  0.3735
 9053SOL    HW138795   1.006   0.856   5.745 -1.3022 -1.5921 -0.5034
 9053SOL    HW238796   0.949   0.986   5.764 -0.0823  1.1781  2.1083
 9054SOL     OW38797   2.670   3.582   6.890 -0.0844  0.3486  0.0004
 9054SOL    HW138798   2.647   3.494   6.919  2.6640 -0.9115 -1.6610
 9054SOL    HW238799   2.762   3.574   6.864 -0.5128 -1.2380 -1.0280
 9055SOL     OW38800   3.654   0.189   3.110 -0.1221 -0.2152 -0.2792
 9055SOL    HW138801   3.563   0.179   3.081 -0.1934  1.6733 -0.6981
 9055SOL    HW238802   3.703   0.144   3.041 -0.8814  0.2692 -1.1340
 9056SOL     OW38803   3.580   4.694   2.437  0.2081 -0.7808 -0.3469
 9056SOL    HW138804   3.500   0.004   2.415 -0.5997 -0.9665  2.1563
 9056SOL    HW238805   3.588   4.734   2.524 -0.1984  0.1820 -0.7514
 9057SOL     OW38806   1.454   1.875   8.831  0.0608  0.1328  0.3247
 9057SOL    HW138807   1.460   1.788   8.872 -1.0941 -0.7378 -1.3600
 9057SOL    HW238808   1.362   1.879   8.803  0.3784 -1.0319 -0.8872
 9058SOL     OW38809   4.708   3.151  10.462  0.8357  0.4670 -0.1260
 9058SOL    HW138810   4.692   3.244  10.447  0.4056  0.2238 -1.2001
 9058SOL    HW238811   4.737   3.159  10.553  0.8510 -1.2109  0.0138
 9059SOL     OW38812   1.577   3.595  10.012  0.7014  0.2197 -0.1304
 9059SOL    HW138813   1.663   3.637  10.011  0.7325  0.1618  0.1153
 9059SOL    HW238814   1.541   3.631   9.931 -0.2797 -2.1488 -0.7649
 9060SOL     OW38815   4.298   1.278   3.304 -0.5023 -0.1626 -0.0911
 9060SOL    HW138816   4.249   1.360   3.310 -0.5036 -0.1214 -0.7189
 9060SOL    HW238817   4.240   1.222   3.252  0.0050  1.5777 -2.5263
 9061SOL     OW38818   2.642   0.617   7.990  0.0330 -1.2050  0.1941
 9061SOL    HW138819   2.625   0.693   8.045  0.5994 -1.4575  0.7155
 9061SOL    HW238820   2.718   0.579   8.035  0.0579 -0.1907  1.0115
 9062SOL     OW38821   2.952   3.788  14.436 -0.0539  0.1912 -0.4061
 9062SOL    HW138822   2.891   3.860  14.451 -0.6971 -0.5430  0.4719
 9062SOL    HW238823   2.942   3.738  14.517 -0.5689 -0.4333 -0.8623
 9063SOL     OW38824   0.414   3.180   6.921  0.1222 -0.5631 -0.0852
 9063SOL    HW138825   0.326   3.182   6.956  0.0269  3.0787 -0.5275
 9063SOL    HW238826   0.435   3.270   6.895 -0.6327 -0.4756 -0.4019
 9064SOL     OW38827   2.095   1.309   6.546  0.1563 -0.6553  0.5735
 9064SOL    HW138828   2.128   1.284   6.460 -0.2893 -2.3973  0.9095
 9064SOL    HW238829   2.158   1.375   6.576  0.1831  0.0681 -1.0754
 9065SOL     OW38830   3.080   0.445  16.895  0.2364  0.1697  0.2413
 9065SOL    HW138831   3.076   0.353  16.868  0.5900  0.1903  0.1275
 9065SOL    HW238832   3.114   0.435  16.984 -1.0703 -1.4885  0.5602
 9066SOL     OW38833   2.861   4.184   4.479 -0.2796  0.5841  0.1108
 9066SOL    HW138834   2.827   4.099   4.449  0.9718  1.0693 -2.6934
 9066SOL    HW238835   2.951   4.169   4.451 -0.2655  0.7047  0.0939
 9067SOL     OW38836   3.994   2.873   6.499  0.1410 -0.0560 -0.4219
 9067SOL    HW138837   4.060   2.894   6.565  1.1574 -0.1307 -1.3985
 9067SOL    HW238838   3.942   2.810   6.549  0.6855 -0.8774 -0.8836
 9068SOL     OW38839   2.337   1.024   8.437  0.1195 -0.3584 -0.4389
 9068SOL    HW138840   2.424   0.997   8.468 -0.2744 -0.1470  0.8501
 9068SOL    HW238841   2.340   1.120   8.440  1.1826 -0.4237  0.7100
 9069SOL     OW38842   3.794   2.767   3.938 -0.0537 -0.2037 -0.1284
 9069SOL    HW138843   3.707   2.806   3.945  0.6409  1.4474 -0.6586
 9069SOL    HW238844   3.782   2.712   3.861  0.6547 -1.0698  0.3871
 9070SOL     OW38845   1.499   1.627   7.495 -0.1273  0.1020 -0.1842
 9070SOL    HW138846   1.594   1.614   7.495 -0.1192  0.1725 -1.8417
 9070SOL    HW238847   1.490   1.654   7.404  3.9531 -0.3857 -0.7357
 9071SOL     OW38848   2.614   2.741   8.918  0.5671 -0.6989 -0.4004
 9071SOL    HW138849   2.545   2.761   8.980  2.0599 -2.1568  1.7329
 9071SOL    HW238850   2.613   2.645   8.922 -0.4601 -0.7852 -2.4702
 9072SOL     OW38851   1.763   2.078   6.582  0.0695  0.3484 -0.1062
 9072SOL    HW138852   1.785   2.077   6.489  0.4207 -2.1595  0.0285
 9072SOL    HW238853   1.703   2.004   6.589  1.8840 -1.1609 -0.6043
 9073SOL     OW38854   4.699   3.539   5.257 -0.1704  0.6864  0.5713
 9073SOL    HW138855   0.009   3.608   5.304 -1.0424  2.7331 -1.5857
 9073SOL    HW238856   4.676   3.583   5.176  2.0872  0.0940 -0.4100
 9074SOL     OW38857   3.622   2.116   0.543 -0.2893  0.1390 -0.2306
 9074SOL    HW138858   3.626   2.027   0.578 -2.2911  0.1144 -0.0253
 9074SOL    HW238859   3.592   2.166   0.619 -0.1008 -0.4069  0.1987
 9075SOL     OW38860   3.021   0.339  11.954  0.1571 -0.8297 -0.1047
 9075SOL    HW138861   2.985   0.297  11.876  1.1848 -0.3532 -0.8389
 9075SOL    HW238862   3.086   0.276  11.983 -1.0867 -2.6683 -1.3251
 9076SOL     OW38863   4.653   3.214   6.206 -0.3058  0.0845 -0.1480
 9076SOL    HW138864   4.663   3.172   6.120 -0.5046 -0.6279  0.1796
 9076SOL    HW238865   4.596   3.152   6.252  3.4237 -1.2434  2.6723
 9077SOL     OW38866   2.194   0.135   3.563 -0.2832 -0.2543 -0.2475
 9077SOL    HW138867   2.206   0.080   3.640  1.2853 -1.2565 -1.2154
 9077SOL    HW238868   2.103   0.120   3.536 -1.1061 -0.1727  2.5298
 9078SOL     OW38869   1.636   2.568   9.260 -0.4180 -0.0683  0.1248
 9078SOL    HW138870   1.613   2.653   9.297  1.0817 -1.0199  3.2051
 9078SOL    HW238871   1.572   2.550   9.191 -0.8813  1.4956  0.1585
 9079SOL     OW38872   4.351   3.304  15.951 -0.2576 -0.0108 -0.4699
 9079SOL    HW138873   4.407   3.271  15.880  1.7470 -0.6548  1.4018
 9079SOL    HW238874   4.299   3.224  15.964  0.6721 -0.0952  2.6147
 9080SOL     OW38875   1.110   3.262  16.091 -0.1650 -0.5679 -0.4090
 9080SOL    HW138876   1.043   3.330  16.080  1.2939  1.1995  1.8923
 9080SOL    HW238877   1.088   3.225  16.176 -1.8407  0.4453 -0.3960
 9081SOL     OW38878   1.949   0.679  11.000 -0.0582 -0.3294 -0.3785
 9081SOL    HW138879   2.014   0.637  10.943  0.8979  1.8802 -0.9174
 9081SOL    HW238880   1.910   0.743  10.941  0.2546  1.6245  1.5681
 9082SOL     OW38881   3.628   3.388   8.653 -0.0005  0.3466 -0.4493
 9082SOL    HW138882   3.695   3.449   8.680  0.7299  0.0902 -1.6565
 9082SOL    HW238883   3.667   3.310   8.692  0.5853  0.5475 -0.6408
 9083SOL     OW38884   0.750   1.216  15.836 -0.1959 -0.8200 -0.1774
 9083SOL    HW138885   0.658   1.222  15.860 -0.5915  0.1358 -1.9355
 9083SOL    HW238886   0.783   1.216  15.926 -2.9081 -3.3064  0.8143
 9084SOL     OW38887   0.800   3.838   3.428  0.1475 -0.4325  0.0339
 9084SOL    HW138888   0.867   3.799   3.484 -0.0309  0.4089  0.8173
 9084SOL    HW238889   0.843   3.911   3.384 -2.9066  1.0624 -0.4606
 9085SOL     OW38890   1.012   0.777   2.949  0.0497  0.3256  0.9682
 9085SOL    HW138891   1.071   0.841   2.988  1.0527 -1.4632  2.3949
 9085SOL    HW238892   1.029   0.786   2.855 -0.8180 -2.5184  0.5330
 9086SOL     OW38893   3.197   0.024  17.181 -0.0184  0.5271 -0.2981
 9086SOL    HW138894   3.270   4.703  17.163 -1.7072 -1.8645  0.4766
 9086SOL    HW238895   3.125   4.721  17.133  0.4128  1.1636 -1.4735
 9087SOL     OW38896   1.381   4.664   2.802  0.5086 -0.6827 -0.3019
 9087SOL    HW138897   1.425   4.677   2.886  0.5414  2.5894 -0.8319
 9087SOL    HW238898   1.311   4.606   2.830  1.1962 -1.4951 -0.2623
 9088SOL     OW38899   2.464   1.526   0.395  0.0440 -0.1560  0.0745
 9088SOL    HW138900   2.505   1.597   0.443 -0.0646  0.0934 -0.2021
 9088SOL    HW238901   2.436   1.469   0.467 -1.9764  0.7012 -0.0390
 9089SOL     OW38902   0.146   2.787   2.271  0.3651 -0.0000 -0.1981
 9089SOL    HW138903   0.203   2.817   2.199  0.4378  1.8201  0.6024
 9089SOL    HW238904   0.203   2.776   2.347  1.0988  2.2751 -0.4038
 9090SOL     OW38905   2.279   2.645   2.125  0.0221 -0.3023 -0.3705
 9090SOL    HW138906   2.217   2.719   2.131  0.7909  0.2668  0.6964
 9090SOL    HW238907   2.344   2.685   2.183 -0.0848  0.5183 -0.8091
 9091SOL     OW38908   0.146   3.775   9.364  0.1718  0.3705  0.0025
 9091SOL    HW138909   0.185   3.795   9.449  0.7232  1.2671 -0.4680
 9091SOL    HW238910   0.100   3.692   9.377  1.7993 -0.7692 -1.4627
 9092SOL     OW38911   3.316   3.399  15.529 -0.0493 -0.0129 -0.5533
 9092SOL    HW138912   3.225   3.370  15.534 -0.4342  0.8997 -2.4800
 9092SOL    HW238913   3.318   3.412  15.435  1.6236  3.6989 -0.0244
 9093SOL     OW38914   2.954   2.206   1.468 -0.0693  0.2249 -0.3796
 9093SOL    HW138915   2.919   2.262   1.538  1.2670  1.2222 -0.5079
 9093SOL    HW238916   3.036   2.171   1.503  0.0467  3.3559  2.5308
 9094SOL     OW38917   1.086   1.652   6.210 -0.2435 -0.1039 -0.2623
 9094SOL    HW138918   1.087   1.671   6.303  1.8410  3.0258 -0.9001
 9094SOL    HW238919   1.007   1.599   6.198  1.1807 -2.2708 -0.0769
 9095SOL     OW38920   1.447   4.392  10.902 -0.7681  0.1816  0.7257
 9095SOL    HW138921   1.365   4.342  10.900 -0.0621 -0.9101 -1.8153
 9095SOL    HW238922   1.433   4.425  10.990 -1.1908  0.2505  0.6321
 9096SOL     OW38923   1.944   2.412  14.876 -0.2118  0.2934 -0.2003
 9096SOL    HW138924   2.026   2.414  14.925 -1.5351 -0.7222  2.0743
 9096SOL    HW238925   1.956   2.500  14.839 -0.6390  0.3674 -0.1636
 9097SOL     OW38926   4.508   3.807   0.899 -0.0373 -0.3688  0.9192
 9097SOL    HW138927   4.537   3.752   0.826  0.4349  0.4836  0.4758
 9097SOL    HW238928   4.422   3.830   0.864 -0.1856 -0.5716  1.1473
 9098SOL     OW38929   2.642   1.605   7.066  0.2234 -0.3052 -0.2121
 9098SOL    HW138930   2.718   1.583   7.120  0.0646 -2.4645 -0.8776
 9098SOL    HW238931   2.645   1.693   7.029 -0.2247 -0.3129 -0.2698
 9099SOL     OW38932   3.856   4.627   3.366 -0.1285 -0.0776 -0.3413
 9099SOL    HW138933   3.782   4.609   3.425 -0.4620 -1.3433 -1.1299
 9099SOL    HW238934   3.840   4.718   3.340 -1.1238  0.2580  1.4716
 9100SOL     OW38935   1.976   1.650   5.342  0.1631 -0.2629  0.5078
 9100SOL    HW138936   1.981   1.557   5.320  2.0378  0.2226 -1.1739
 9100SOL    HW238937   2.067   1.674   5.327  0.3080 -0.3520  1.2383
 9101SOL     OW38938   2.732   4.645   9.531  0.0510 -1.1394 -0.1750
 9101SOL    HW138939   2.805   4.659   9.592 -0.6484 -0.0999  0.4087
 9101SOL    HW238940   2.723   4.733   9.495  0.1874 -0.0174  2.5663
 9102SOL     OW38941   2.586   3.627   5.388 -0.1284 -0.2341 -0.4611
 9102SOL    HW138942   2.666   3.669   5.355  1.2172 -3.2221 -1.0146
 9102SOL    HW238943   2.526   3.700   5.371 -0.1144 -0.3086 -0.8177
 9103SOL     OW38944   0.088   4.487   7.629  0.3597 -0.2946 -0.0237
 9103SOL    HW138945   0.016   4.471   7.690 -1.1413  1.1254 -1.4198
 9103SOL    HW238946   0.113   4.577   7.649 -0.0793 -0.0242 -0.6764
 9104SOL     OW38947   3.169   0.500   3.877  0.4277 -0.0273 -0.1527
 9104SOL    HW138948   3.260   0.527   3.872  0.7422 -1.3192 -1.1794
 9104SOL    HW238949   3.161   0.505   3.972 -0.6265 -1.0161 -0.1900
 9105SOL     OW38950   3.070   3.779   3.849 -0.0745 -0.0241 -0.1230
 9105SOL    HW138951   3.165   3.790   3.845  0.0018 -0.2916  0.9580
 9105SOL    HW238952   3.071   3.690   3.814 -2.2072  0.1160 -0.5354
 9106SOL     OW38953   4.733   2.655   6.838  0.5473 -0.6169  0.4151
 9106SOL    HW138954   4.727   2.614   6.751  1.5156  1.1029 -0.4591
 9106SOL    HW238955   4.641   2.652   6.864  0.6860  0.3757  0.9882
 9107SOL     OW38956   2.037   2.503   7.139 -0.2536 -0.2667 -0.2726
 9107SOL    HW138957   2.031   2.597   7.152 -1.1664 -0.2140 -1.0830
 9107SOL    HW238958   2.083   2.500   7.055  0.4611 -1.5587  0.1652
 9108SOL     OW38959   4.563   1.307   7.991 -0.4859  0.4173 -0.2334
 9108SOL    HW138960   4.523   1.220   7.995 -0.2814  0.3950  1.3672
 9108SOL    HW238961   4.656   1.296   7.972 -0.9609 -2.4165 -1.0303
 9109SOL     OW38962   2.393   0.724   9.338  0.2102 -0.0021 -0.0784
 9109SOL    HW138963   2.420   0.731   9.246 -0.7505  0.3554 -0.3378
 9109SOL    HW238964   2.370   0.813   9.363 -0.2325  0.2053 -1.2158
 9110SOL     OW38965   0.886   2.595   4.516  0.0668 -0.6753  0.2159
 9110SOL    HW138966   0.811   2.637   4.557 -1.1160  0.0811 -2.7923
 9110SOL    HW238967   0.840   2.546   4.449 -0.6928  0.3314  0.0013
 9111SOL     OW38968   2.580   0.418   8.205 -0.0832  0.0794 -0.6605
 9111SOL    HW138969   2.656   0.459   8.245 -0.5860  0.6926 -0.3378
 9111SOL    HW238970   2.507   0.465   8.245  0.2293  0.7088 -0.8406
 9112SOL     OW38971   4.722   1.140  14.700  0.0692 -0.0317 -0.1423
 9112SOL    HW138972   0.053   1.076  14.682 -2.2235 -2.1445 -1.4088
 9112SOL    HW238973   0.014   1.214  14.648  2.5115  0.3453  1.7705
 9113SOL     OW38974   4.237   4.583   3.406  0.2070  0.5456  0.3742
 9113SOL    HW138975   4.309   4.558   3.348  0.0966 -1.1359  0.9565
 9113SOL    HW238976   4.166   4.561   3.344  0.9650  2.8122 -1.3202
 9114SOL     OW38977   3.693   2.443   8.733  0.1264  0.0725  0.7022
 9114SOL    HW138978   3.733   2.492   8.804  1.2175  0.1818  0.0006
 9114SOL    HW238979   3.664   2.361   8.773 -0.2857 -0.3094 -0.3815
 9115SOL     OW38980   0.840   3.114   7.125  0.0861  0.0651 -0.6397
 9115SOL    HW138981   0.887   3.030   7.120  1.2298  0.6901 -0.2705
 9115SOL    HW238982   0.763   3.096   7.071 -1.4853  0.3494  1.5232
 9116SOL     OW38983   2.629   3.294  15.257 -0.2400  0.1878  0.8659
 9116SOL    HW138984   2.589   3.219  15.215  0.2153  1.4027 -1.7333
 9116SOL    HW238985   2.595   3.285  15.346 -0.1224 -2.9374  0.5855
 9117SOL     OW38986   1.374   2.102  11.332  0.7640  0.6217 -0.3275
 9117SOL    HW138987   1.411   2.164  11.269 -1.2348  0.8525 -1.2951
 9117SOL    HW238988   1.359   2.021  11.284 -0.1751  1.8504 -2.1436
 9118SOL     OW38989   1.065   4.247  10.601 -0.2714 -0.0133 -0.0482
 9118SOL    HW138990   1.121   4.230  10.525  0.9411  0.1469  0.8202
 9118SOL    HW238991   1.014   4.321  10.568 -0.4150 -0.0742  0.0370
 9119SOL     OW38992   0.815   2.749   9.166  0.0566 -0.4412  0.2093
 9119SOL    HW138993   0.799   2.659   9.136  2.2824 -1.1268  1.1109
 9119SOL    HW238994   0.728   2.785   9.183 -0.3722  0.1287 -3.0831
 9120SOL     OW38995   0.684   2.020  16.564 -0.1725  0.2291  0.1857
 9120SOL    HW138996   0.650   2.103  16.531 -0.6991  0.4820  1.3721
 9120SOL    HW238997   0.685   2.038  16.658  0.5404 -0.3541  0.2877
 9121SOL     OW38998   0.559   3.931  17.720  0.6252  0.5480 -0.6527
 9121SOL    HW138999   0.573   4.018   0.012 -0.5692  0.3886  0.1351
 9121SOL    HW239000   0.467   3.924  17.745  1.2648  1.5293  2.0552
 9122SOL     OW39001   2.183   2.369  12.663 -0.8320  0.0467 -0.0309
 9122SOL    HW139002   2.128   2.401  12.591  0.1758  1.7080 -0.0394
 9122SOL    HW239003   2.270   2.356  12.626 -1.1504  2.0929 -1.4455
 9123SOL     OW39004   2.761   0.796   6.456  0.0047  0.2406 -0.0212
 9123SOL    HW139005   2.693   0.847   6.412 -2.4228 -1.4987  1.7232
 9123SOL    HW239006   2.712   0.797   6.538 -1.8517 -1.2598 -1.0871
 9124SOL     OW39007   0.347   2.946   2.124 -0.3076 -0.2533  0.3909
 9124SOL    HW139008   0.441   2.943   2.140 -0.0790  0.1447 -0.8928
 9124SOL    HW239009   0.328   3.040   2.128 -3.5200 -0.9516  1.8513
 9125SOL     OW39010   1.630   4.034   9.314 -0.5651  0.2649  0.0618
 9125SOL    HW139011   1.694   4.105   9.305 -0.6314  0.1229 -1.4498
 9125SOL    HW239012   1.621   4.005   9.224 -0.6608 -1.2178  0.5588
 9126SOL     OW39013   2.723   3.227   0.577  0.3296 -0.1484 -0.2796
 9126SOL    HW139014   2.778   3.262   0.507 -0.2958 -0.8690 -1.1274
 9126SOL    HW239015   2.636   3.238   0.537  0.7175  0.5674 -0.9244
 9127SOL     OW39016   2.741   0.613   6.828  0.5492 -0.4543 -0.3462
 9127SOL    HW139017   2.749   0.694   6.778 -0.2896  0.1305  0.4964
 9127SOL    HW239018   2.747   0.640   6.919  2.5152  3.7120 -1.6965
 9128SOL     OW39019   3.111   0.642   1.939 -0.0190 -0.4065  0.3847
 9128SOL    HW139020   3.171   0.703   1.894  0.6930 -1.8993 -0.6761
 9128SOL    HW239021   3.163   0.621   2.016 -0.5229  1.4217  1.2189
 9129SOL     OW39022   3.629   4.054   0.156  0.1264  0.2986  0.1609
 9129SOL    HW139023   3.564   4.031   0.222 -0.9163  0.9875 -0.6370
 9129SOL    HW239024   3.581   4.124   0.114 -0.0090  0.6550  0.9107
 9130SOL     OW39025   3.409   3.468   0.402 -0.2068 -0.7542  0.0893
 9130SOL    HW139026   3.385   3.550   0.360  1.0025 -0.4811 -0.0755
 9130SOL    HW239027   3.345   3.471   0.473 -1.0100  0.3039 -0.6708
 9131SOL     OW39028   1.848   2.897   4.876  0.2741 -0.3208 -0.3935
 9131SOL    HW139029   1.761   2.901   4.836  0.5158  0.3253 -0.8728
 9131SOL    HW239030   1.905   2.921   4.803  0.0745  0.7069 -0.2183
 9132SOL     OW39031   3.165   0.296   5.449 -0.3793 -0.3833 -0.5355
 9132SOL    HW139032   3.135   0.208   5.469  1.6958 -1.4628 -2.2348
 9132SOL    HW239033   3.252   0.288   5.410  0.1983  1.2252  0.4352
 9133SOL     OW39034   4.174   1.922   3.890 -0.3903 -0.6314 -0.1603
 9133SOL    HW139035   4.125   1.848   3.925 -2.2573  0.4757 -0.4306
 9133SOL    HW239036   4.094   1.970   3.868 -0.2509  0.2513  1.2427
 9134SOL     OW39037   4.387   1.633  14.429 -0.2323  0.4262 -0.6037
 9134SOL    HW139038   4.314   1.609  14.487  0.6305  1.7070  1.0047
 9134SOL    HW239039   4.461   1.577  14.453 -1.5871 -0.2713  1.9696
 9135SOL     OW39040   4.192   1.881   7.653 -0.1820  1.0996  0.1168
 9135SOL    HW139041   4.267   1.822   7.662 -0.7928  0.2358 -0.4488
 9135SOL    HW239042   4.134   1.829   7.598  0.5516 -1.4974  1.7457
 9136SOL     OW39043   2.763   1.480   3.894  0.0870 -0.5854  0.5422
 9136SOL    HW139044   2.741   1.389   3.878  0.9551 -0.4563 -1.3900
 9136SOL    HW239045   2.816   1.485   3.973 -1.3937  1.6935  1.4199
 9137SOL     OW39046   2.253   3.352   7.625 -0.1156 -0.2005 -0.1710
 9137SOL    HW139047   2.184   3.306   7.578 -1.3230 -0.6111  1.9974
 9137SOL    HW239048   2.268   3.296   7.702 -0.9159  0.7538  0.6685
 9138SOL     OW39049   0.182   2.846   0.173  0.2715 -0.1754  0.0900
 9138SOL    HW139050   0.235   2.894   0.109  0.3552 -0.3770  0.0097
 9138SOL    HW239051   0.113   2.812   0.116  0.3497  0.8433 -0.6019
 9139SOL     OW39052   2.240   3.444   8.696  0.2625  0.0825 -0.4107
 9139SOL    HW139053   2.247   3.361   8.650 -0.0466 -0.0569 -0.2061
 9139SOL    HW239054   2.318   3.483   8.656 -0.5150  0.6998 -1.3473
 9140SOL     OW39055   0.948   3.811   8.876 -0.1849 -0.2569  0.2950
 9140SOL    HW139056   0.999   3.788   8.953 -0.2880 -0.7592  0.2113
 9140SOL    HW239057   0.870   3.756   8.888 -0.6676  0.1494 -0.9193
 9141SOL     OW39058   3.997   3.367   8.919  0.0066 -0.0751 -0.0071
 9141SOL    HW139059   4.025   3.437   8.860  0.3355 -2.2244 -2.3969
 9141SOL    HW239060   4.004   3.291   8.861 -1.2218 -1.0775  1.1345
 9142SOL     OW39061   1.814   3.681   5.563 -0.5288  0.7048 -0.6569
 9142SOL    HW139062   1.822   3.622   5.638 -0.7484  0.2367 -1.0050
 9142SOL    HW239063   1.899   3.725   5.567  0.0409 -0.3301 -1.6217
 9143SOL     OW39064   2.480   3.511  13.419  0.0124 -0.3376  0.1845
 9143SOL    HW139065   2.428   3.436  13.389  0.9933 -0.2007 -1.8650
 9143SOL    HW239066   2.537   3.526  13.343 -0.1817 -1.1843 -0.1230
 9144SOL     OW39067   4.583   2.982  10.727 -0.2552  0.2872  0.4968
 9144SOL    HW139068   4.624   2.900  10.699 -2.2244 -0.8249  0.8622
 9144SOL    HW239069   4.659   3.038  10.710 -2.1718  2.3074 -1.5494
 9145SOL     OW39070   0.803   3.717   2.904 -0.1656  0.0572  0.1927
 9145SOL    HW139071   0.808   3.658   2.980 -0.3539 -2.6089 -1.8544
 9145SOL    HW239072   0.759   3.791   2.945 -3.2386 -0.7606 -1.6139
 9146SOL     OW39073   2.001   2.628   3.183  0.0539  0.1590  0.6026
 9146SOL    HW139074   2.089   2.605   3.211 -0.1948 -0.7704  0.6030
 9146SOL    HW239075   2.028   2.689   3.114  0.6685 -1.5485 -0.6850
 9147SOL     OW39076   4.073   0.615   2.114 -0.7625 -0.1271  0.0837
 9147SOL    HW139077   4.097   0.673   2.042 -0.2182 -1.8254 -1.1115
 9147SOL    HW239078   4.161   0.582   2.132 -0.1546  1.3125 -0.2551
 9148SOL     OW39079   4.664   0.230   6.405  0.0335 -0.2117 -0.0909
 9148SOL    HW139080   4.580   0.241   6.360 -0.1596 -0.1895  0.2713
 9148SOL    HW239081   4.655   0.142   6.442  1.1376  1.3262  3.8746
 9149SOL     OW39082   2.794   4.717  16.711  0.1795  0.6375  0.3628
 9149SOL    HW139083   2.819   4.625  16.705  0.7371  0.9104 -1.5706
 9149SOL    HW239084   2.708   4.708  16.752  0.5073 -0.8415  0.7108
 9150SOL     OW39085   2.589   4.566   7.979  0.1876 -0.4985  0.0568
 9150SOL    HW139086   2.515   4.620   7.953 -2.7076 -4.0143  0.9958
 9150SOL    HW239087   2.646   4.618   8.036  0.0940  1.6833 -1.8501
 9151SOL     OW39088   4.587   3.388   0.264 -0.0582 -0.1131  0.4517
 9151SOL    HW139089   4.547   3.415   0.347  1.8668  3.1645  0.3056
 9151SOL    HW239090   4.508   3.362   0.217 -1.2289  0.6999  1.9706
 9152SOL     OW39091   0.113   1.632   1.478  0.4433 -0.0835 -0.2419
 9152SOL    HW139092   0.128   1.703   1.416 -0.2428 -0.2715 -0.6339
 9152SOL    HW239093   0.029   1.602   1.442  1.0360 -0.1823 -1.5317
 9153SOL     OW39094   0.016   1.400   9.304  0.2439  0.2373  0.0473
 9153SOL    HW139095   0.008   1.468   9.237 -2.2272 -1.6458 -1.5971
 9153SOL    HW239096   0.111   1.388   9.296  0.2407  2.1267 -2.8280
 9154SOL     OW39097   4.582   2.705   8.306  0.6284  0.4530 -0.4031
 9154SOL    HW139098   4.656   2.676   8.360 -0.4172 -0.1462  0.7202
 9154SOL    HW239099   4.502   2.704   8.359  0.0467 -2.9559 -1.4070
 9155SOL     OW39100   0.167   4.558   8.376  0.0046  0.3333 -0.0206
 9155SOL    HW139101   0.184   4.466   8.394 -3.8592  0.2247  3.1715
 9155SOL    HW239102   0.092   4.570   8.434  0.5193 -1.2845  0.9819
 9156SOL     OW39103   2.866   2.862   3.640  0.3594 -0.0059  0.1822
 9156SOL    HW139104   2.823   2.790   3.686  0.0196 -0.2979 -0.6054
 9156SOL    HW239105   2.946   2.820   3.609  1.4077  1.3342  1.0394
 9157SOL     OW39106   0.035   0.182  10.145  0.1517 -0.6830  0.3405
 9157SOL    HW139107   0.024   0.157  10.053 -0.8126 -2.2947  0.8970
 9157SOL    HW239108   0.130   0.189  10.148  0.0285  1.1492  0.0929
 9158SOL     OW39109   0.686   2.340   3.208 -0.4210  0.1004 -0.2709
 9158SOL    HW139110   0.694   2.345   3.303 -1.0272 -0.0884 -0.2085
 9158SOL    HW239111   0.723   2.419   3.169 -0.7362 -0.3280 -1.4626
 9159SOL     OW39112   2.428   3.319   5.894 -0.1290  0.2128  0.0857
 9159SOL    HW139113   2.421   3.380   5.820  1.0731  1.0037  0.6212
 9159SOL    HW239114   2.517   3.340   5.923  0.7086 -1.0463 -1.6294
 9160SOL     OW39115   0.024   2.198   7.707  0.0599  0.0798 -0.5019
 9160SOL    HW139116   0.048   2.287   7.682  1.2671 -0.5420 -1.5864
 9160SOL    HW239117   0.056   2.208   7.797 -0.5877 -1.2106 -0.1278
 9161SOL     OW39118   0.478   3.976   6.958  0.6120 -0.4381 -0.1303
 9161SOL    HW139119   0.432   3.981   6.874 -1.2817 -0.5418  0.8983
 9161SOL    HW239120   0.569   3.991   6.933  1.3139 -0.5481  2.3141
 9162SOL     OW39121   1.195   3.228   4.431  0.5362  0.1194  0.1963
 9162SOL    HW139122   1.288   3.244   4.415  0.5474 -1.0935 -0.9865
 9162SOL    HW239123   1.151   3.243   4.347  1.8044  1.3385 -0.2443
 9163SOL     OW39124   3.448   2.858  13.418 -0.0471 -0.2317  0.5745
 9163SOL    HW139125   3.518   2.838  13.480  0.1451 -1.0042  0.1149
 9163SOL    HW239126   3.436   2.779  13.365 -2.5555  0.3324  0.3071
 9164SOL     OW39127   1.273   3.857  16.601  0.0042 -0.0046  0.4853
 9164SOL    HW139128   1.336   3.916  16.642  0.2909 -1.5331  2.2386
 9164SOL    HW239129   1.320   3.807  16.534  1.5213  1.2764  0.6007
 9165SOL     OW39130   4.083   1.800  11.864 -0.1428 -0.1967 -0.0404
 9165SOL    HW139131   4.117   1.728  11.812 -0.9235  0.8539 -2.0100
 9165SOL    HW239132   4.119   1.879  11.823  2.9095 -1.2360  0.6592
 9166SOL     OW39133   2.057   3.349  11.739 -0.4948  0.1941  0.3278
 9166SOL    HW139134   2.035   3.396  11.820  1.2461 -2.3408  2.3044
 9166SOL    HW239135   1.995   3.381  11.674  1.5493 -0.6751 -2.0754
 9167SOL     OW39136   3.140   3.791  13.347 -0.0368  0.5271 -0.4442
 9167SOL    HW139137   3.197   3.727  13.391 -0.4664  0.3633 -0.1247
 9167SOL    HW239138   3.053   3.771  13.383 -0.0094 -2.1299 -1.8720
 9168SOL     OW39139   4.311   1.200   8.544  0.2643  0.1377 -0.4558
 9168SOL    HW139140   4.314   1.290   8.574 -0.2135  0.1893 -0.5575
 9168SOL    HW239141   4.402   1.173   8.556  0.5589  1.7994  0.9170
 9169SOL     OW39142   4.528   0.044   6.679  0.0144 -0.1590  0.3373
 9169SOL    HW139143   4.541   4.693   6.644  0.2329  0.2839 -0.6694
 9169SOL    HW239144   4.434   0.056   6.666 -0.1655  0.5538  2.3138
 9170SOL     OW39145   0.408   0.140   1.960  0.2231  0.6919  0.5513
 9170SOL    HW139146   0.369   0.199   1.896 -1.3104  2.8276  3.4637
 9170SOL    HW239147   0.446   0.083   1.894 -0.5137  1.6873 -0.7447
 9171SOL     OW39148   2.756   1.850   3.068  0.0584 -0.0596  0.0618
 9171SOL    HW139149   2.726   1.850   2.978  0.2496  3.4599 -0.0057
 9171SOL    HW239150   2.741   1.941   3.094 -1.6260 -0.1412 -0.6381
 9172SOL     OW39151   2.987   3.786   4.453 -0.2193 -0.1516  0.8176
 9172SOL    HW139152   3.037   3.727   4.396 -2.0074  1.5259 -2.4789
 9172SOL    HW239153   2.908   3.799   4.401  1.6464 -1.4661 -2.3760
 9173SOL     OW39154   4.683   3.452   2.863 -0.3796 -0.3886  0.4286
 9173SOL    HW139155   0.040   3.449   2.883 -0.0709 -1.3531 -1.1846
 9173SOL    HW239156   4.655   3.363   2.886 -0.0269 -1.0059 -1.4849
 9174SOL     OW39157   4.284   1.682   2.077  0.1759  0.0811 -0.4426
 9174SOL    HW139158   4.326   1.767   2.087 -1.1895  0.8522 -1.1701
 9174SOL    HW239159   4.250   1.683   1.987 -1.7045  0.4325  0.2557
 9175SOL     OW39160   4.162   0.313  13.368 -0.2024 -0.0987 -0.3258
 9175SOL    HW139161   4.206   0.239  13.411  0.6402  0.3747 -0.3715
 9175SOL    HW239162   4.081   0.275  13.335  1.2242 -1.6332 -2.0930
 9176SOL     OW39163   2.434   3.954   4.419  0.5435  0.3563 -0.3780
 9176SOL    HW139164   2.339   3.949   4.427  0.7786 -1.5180  1.3203
 9176SOL    HW239165   2.464   3.870   4.455  1.2589  0.3422 -1.0011
 9177SOL     OW39166   2.499   3.635   6.046 -0.2958 -0.5821  0.6895
 9177SOL    HW139167   2.464   3.636   6.135  2.3235 -3.1143  1.7527
 9177SOL    HW239168   2.577   3.583   6.065 -1.7683 -2.1626  2.3460
 9178SOL     OW39169   3.380   3.895  11.272  0.1025 -0.3104 -0.2603
 9178SOL    HW139170   3.461   3.854  11.303 -0.5608 -1.2162  0.2962
 9178SOL    HW239171   3.330   3.814  11.270 -0.0812 -0.2341  0.8301
 9179SOL     OW39172   2.188   0.889   3.114  0.6892  0.5404 -0.5516
 9179SOL    HW139173   2.204   0.863   3.024  2.4108 -0.0124 -0.1022
 9179SOL    HW239174   2.261   0.951   3.121  2.6132 -1.7216 -0.6507
 9180SOL     OW39175   1.581   2.642   5.456 -0.2221 -0.3966  0.2602
 9180SOL    HW139176   1.636   2.641   5.378 -0.6280 -0.8147 -0.0206
 9180SOL    HW239177   1.647   2.622   5.523  1.2184 -1.8357 -1.5607
 9181SOL     OW39178   2.521   4.117  12.211 -0.0846 -0.1016  0.0727
 9181SOL    HW139179   2.599   4.144  12.258 -0.3212 -1.9001  1.4899
 9181SOL    HW239180   2.555   4.050  12.153 -2.6368  0.7720 -2.4581
 9182SOL     OW39181   0.445   0.515  10.123  0.4649  0.0481  0.3293
 9182SOL    HW139182   0.516   0.546  10.179  2.4890 -0.2816 -2.1082
 9182SOL    HW239183   0.406   0.603  10.122  1.2200  0.3637 -0.9566
 9183SOL     OW39184   2.646   2.795   0.253 -0.5480  0.1634  0.2564
 9183SOL    HW139185   2.626   2.750   0.171 -1.6492 -0.8034  1.0555
 9183SOL    HW239186   2.638   2.731   0.324  1.4651  0.8111  1.0677
 9184SOL     OW39187   3.559   3.239   4.375  0.2572 -0.2260  0.1410
 9184SOL    HW139188   3.464   3.237   4.389  0.4039 -1.4285  1.0246
 9184SOL    HW239189   3.587   3.317   4.423  1.5243 -0.7628  0.2888
 9185SOL     OW39190   1.790   1.231  13.663  0.3769  0.3268  0.0246
 9185SOL    HW139191   1.872   1.214  13.615 -0.4203  1.6782 -1.8134
 9185SOL    HW239192   1.770   1.143  13.697  1.9327 -0.0039  0.1138
 9186SOL     OW39193   2.424   2.121   3.255  0.9570 -0.7910 -0.0091
 9186SOL    HW139194   2.401   2.046   3.201  0.2638  1.2762 -2.5886
 9186SOL    HW239195   2.518   2.115   3.238  1.3445  1.9423  1.1232
 9187SOL     OW39196   0.641   0.282  16.648 -0.2297  0.4485 -0.0847
 9187SOL    HW139197   0.658   0.364  16.695  0.0792 -1.1389  2.5306
 9187SOL    HW239198   0.546   0.288  16.653 -0.2277  0.9697 -0.6351
 9188SOL     OW39199   2.201   3.528   0.924  0.3112  0.2757 -0.5454
 9188SOL    HW139200   2.264   3.487   0.983 -1.2421  1.7631  2.1341
 9188SOL    HW239201   2.123   3.472   0.928  0.0571  0.6347 -0.5115
 9189SOL     OW39202   3.730   3.465   2.444  0.3161  0.9874  0.4354
 9189SOL    HW139203   3.680   3.411   2.383 -0.3049 -1.5229  3.2131
 9189SOL    HW239204   3.721   3.415   2.525  1.0103 -1.0005 -0.7077
 9190SOL     OW39205   2.884   0.385  13.112 -0.2779  0.1138 -0.1193
 9190SOL    HW139206   2.798   0.370  13.072 -0.3207  1.1732 -0.4410
 9190SOL    HW239207   2.886   0.481  13.105 -0.6165  0.0861 -0.5797
 9191SOL     OW39208   0.891   2.596  12.635  0.1441  0.4448 -0.0642
 9191SOL    HW139209   0.976   2.618  12.596  0.8241 -0.8971  0.6673
 9191SOL    HW239210   0.867   2.672  12.688 -2.0461 -0.0948 -0.2795
 9192SOL     OW39211   0.575   3.049   7.318 -0.4272  0.1699 -0.4404
 9192SOL    HW139212   0.573   3.114   7.388  1.8855 -0.0879 -0.1427
 9192SOL    HW239213   0.635   3.098   7.261  0.4694 -1.9478 -1.3163
 9193SOL     OW39214   3.569   3.966   3.887  0.1740 -0.9548 -0.6011
 9193SOL    HW139215   3.606   3.883   3.857 -0.7078 -2.1371  1.6235
 9193SOL    HW239216   3.596   4.031   3.822 -0.8662 -1.0889 -1.1551
 9194SOL     OW39217   3.825   2.372   6.234  0.0158 -0.1080  0.0412
 9194SOL    HW139218   3.885   2.426   6.285  0.1749  2.0602 -2.4332
 9194SOL    HW239219   3.754   2.436   6.232 -2.0341 -2.3681  0.5327
 9195SOL     OW39220   2.470   4.136   5.017 -0.2861 -0.2355  0.0727
 9195SOL    HW139221   2.462   4.041   5.015 -1.6385 -0.1530  1.8833
 9195SOL    HW239222   2.533   4.145   5.089 -1.5603 -0.5665  1.2291
 9196SOL     OW39223   2.989   4.427  12.969  0.1321  0.7688 -0.0735
 9196SOL    HW139224   3.027   4.380  13.044 -2.6669  1.4409  1.7448
 9196SOL    HW239225   2.901   4.439  13.004  0.1149  1.0536 -0.2160
 9197SOL     OW39226   3.356   1.202   1.955 -0.9885  0.0037  0.0701
 9197SOL    HW139227   3.296   1.181   1.883 -1.2446  1.0704 -0.0325
 9197SOL    HW239228   3.370   1.296   1.944 -2.1906  0.0156 -1.4527
 9198SOL     OW39229   2.258   4.138   5.802  0.3129 -0.0146  0.4397
 9198SOL    HW139230   2.220   4.135   5.715  1.2626  1.8543 -0.0359
 9198SOL    HW239231   2.245   4.046   5.825 -0.4627 -0.6205 -2.4319
 9199SOL     OW39232   1.506   2.687  15.459  0.1148  0.2277  0.1987
 9199SOL    HW139233   1.487   2.756  15.523  3.4669  1.3139 -0.0053
 9199SOL    HW239234   1.472   2.725  15.378 -1.3383  2.8787  2.0489
 9200SOL     OW39235   1.762   3.697   5.155  0.1157  0.1577  0.2933
 9200SOL    HW139236   1.707   3.681   5.231  0.4226  0.9268  0.6788
 9200SOL    HW239237   1.830   3.751   5.196 -1.2484 -0.1598  2.9725
 9201SOL     OW39238   3.280   0.603   5.744  0.3379  0.1481 -0.4638
 9201SOL    HW139239   3.362   0.653   5.750 -0.6975  1.6182  1.5721
 9201SOL    HW239240   3.247   0.647   5.666 -0.5917 -0.3007 -0.3217
 9202SOL     OW39241   3.222   4.645   1.766  0.1428  0.1510 -0.0342
 9202SOL    HW139242   3.256   4.727   1.802  0.2123  0.2487 -0.3228
 9202SOL    HW239243   3.132   4.653   1.799  0.7187  1.9344  1.1035
 9203SOL     OW39244   4.497   2.152   3.512 -0.7504  0.3495 -0.0153
 9203SOL    HW139245   4.569   2.189   3.563  0.0596  0.1974 -1.0438
 9203SOL    HW239246   4.543   2.127   3.432 -0.6122  0.3714  0.0585
 9204SOL     OW39247   0.181   0.605   2.437  0.4121  0.3659 -0.0375
 9204SOL    HW139248   0.127   0.526   2.434  0.0618  0.5807  0.5333
 9204SOL    HW239249   0.213   0.587   2.526 -1.2684 -0.7758  0.3447
 9205SOL     OW39250   3.247   0.245  11.724  0.5830  0.8081  0.3402
 9205SOL    HW139251   3.187   0.288  11.663 -0.4442  0.7571  1.3088
 9205SOL    HW239252   3.287   0.314  11.778  1.5788 -0.1790  0.8676
 9206SOL     OW39253   2.276   4.579   4.932  0.1748  0.2192  0.1435
 9206SOL    HW139254   2.272   4.634   5.010  0.7630 -0.9055  0.9791
 9206SOL    HW239255   2.361   4.606   4.897  1.1135  0.0894  2.3188
 9207SOL     OW39256   1.204   0.316   0.540 -0.0945 -0.8885  0.1317
 9207SOL    HW139257   1.269   0.321   0.610 -0.4290  0.5723  0.3388
 9207SOL    HW239258   1.156   0.397   0.555 -0.3246 -1.2508  1.3785
 9208SOL     OW39259   0.607   1.388  17.461 -0.4406 -0.4212 -0.2203
 9208SOL    HW139260   0.643   1.339  17.534  2.6064  1.2185 -0.6148
 9208SOL    HW239261   0.559   1.320  17.414  1.1775 -1.2636 -0.6525
 9209SOL     OW39262   1.295   3.138   2.552 -0.5083 -0.2762  0.4096
 9209SOL    HW139263   1.315   3.087   2.474  0.8726  1.2122 -0.1990
 9209SOL    HW239264   1.235   3.084   2.604  2.6287 -0.1688  4.1581
 9210SOL     OW39265   1.165   3.897  11.885  0.4058 -0.4741  0.3804
 9210SOL    HW139266   1.127   3.814  11.913 -0.0441 -1.2530 -2.4543
 9210SOL    HW239267   1.100   3.955  11.923  0.9407  2.2763 -2.9023
 9211SOL     OW39268   0.182   3.126   3.444 -0.3240  0.3366  0.1429
 9211SOL    HW139269   0.143   3.183   3.378  0.4754  0.2583 -0.4012
 9211SOL    HW239270   0.101   3.091   3.482 -0.5918 -0.2681 -0.9933
 9212SOL     OW39271   4.687   2.946   8.918  0.0642  0.5274 -0.3236
 9212SOL    HW139272   0.006   2.871   8.937 -2.6294 -1.0096  1.6200
 9212SOL    HW239273   4.693   2.951   8.823  2.0604  2.9731 -0.0498
 9213SOL     OW39274   0.960   4.566   6.075 -0.0160 -0.2000 -0.5881
 9213SOL    HW139275   0.987   4.650   6.112 -2.8135 -0.4236  1.9442
 9213SOL    HW239276   0.902   4.592   6.004 -0.9017 -1.0955 -0.1974
 9214SOL     OW39277   2.274   4.505   4.009  0.0629 -0.0880 -0.1055
 9214SOL    HW139278   2.326   4.466   4.080  1.3696  1.9684  0.0506
 9214SOL    HW239279   2.271   4.426   3.955 -1.3467  0.7542 -1.2472
 9215SOL     OW39280   2.086   1.671   8.482 -0.1038  0.1815  0.0386
 9215SOL    HW139281   2.095   1.748   8.538  2.9588  0.4088 -0.7860
 9215SOL    HW239282   2.099   1.709   8.395 -0.1059 -0.1439 -0.1020
 9216SOL     OW39283   0.224   0.028  17.225 -0.2803  0.0288 -0.4096
 9216SOL    HW139284   0.209   0.004  17.316 -0.9919 -4.4458 -1.6722
 9216SOL    HW239285   0.306   0.076  17.231 -0.5489  0.2662  1.2267
 9217SOL     OW39286   1.726   4.706   4.112 -0.3223 -0.2281 -0.0383
 9217SOL    HW139287   1.680   4.622   4.113  1.0763 -1.0618 -3.1053
 9217SOL    HW239288   1.794   4.686   4.047  0.2573  2.1319 -0.1474
 9218SOL     OW39289   3.839   3.130  14.547 -0.1228  0.3287 -0.3119
 9218SOL    HW139290   3.898   3.164  14.614  1.8404 -2.1050 -0.8268
 9218SOL    HW239291   3.813   3.208  14.498  0.2456  0.3356 -0.4915
 9219SOL     OW39292   1.027   2.159   0.854 -0.8736  0.1862  0.5374
 9219SOL    HW139293   1.044   2.068   0.881 -3.2675 -0.4916 -0.2741
 9219SOL    HW239294   0.959   2.188   0.914  0.5390  0.8961  1.7921
 9220SOL     OW39295   4.389   0.115   3.067  0.2899  0.5773  0.2094
 9220SOL    HW139296   4.412   0.023   3.079  1.1364  0.8162  0.3894
 9220SOL    HW239297   4.355   0.109   2.977  0.2986 -2.2631  0.4013
 9221SOL     OW39298   0.948   1.551   8.401  0.8750  0.6253 -0.0920
 9221SOL    HW139299   0.859   1.575   8.425  0.8583  2.8252 -2.3999
 9221SOL    HW239300   0.951   1.455   8.405 -0.9794  0.6426  1.3806
 9222SOL     OW39301   4.462   0.690   1.687 -0.4757 -0.3898  0.0237
 9222SOL    HW139302   4.539   0.659   1.640 -0.6094  0.3750 -0.7141
 9222SOL    HW239303   4.424   0.606   1.711  1.3945 -0.9594  0.9617
 9223SOL     OW39304   3.221   3.701   4.167 -0.4984  0.0598  0.1403
 9223SOL    HW139305   3.150   3.641   4.142  1.1047 -0.0518 -3.9972
 9223SOL    HW239306   3.265   3.649   4.235  1.6516  0.5259 -0.9126
 9224SOL     OW39307   2.508   4.647  16.802  0.3774  0.1945  0.0814
 9224SOL    HW139308   2.469   4.690  16.726 -1.5854 -0.3646  0.7642
 9224SOL    HW239309   2.466   4.561  16.794 -1.9928  1.4856 -1.4312
 9225SOL     OW39310   0.026   2.887   7.981 -0.1927  0.4317 -0.1477
 9225SOL    HW139311   0.120   2.868   7.974  0.0749  1.9877 -0.9423
 9225SOL    HW239312   0.020   2.947   7.906  2.5775  2.6655  1.3867
 9226SOL     OW39313   2.424   2.325   7.852  0.2945 -0.0230  0.0371
 9226SOL    HW139314   2.394   2.399   7.800 -2.7558 -2.4095 -1.6328
 9226SOL    HW239315   2.519   2.338   7.849  0.5030 -1.4694  0.2455
 9227SOL     OW39316   4.112   1.458  16.213 -0.3492  0.0118  0.3614
 9227SOL    HW139317   4.204   1.433  16.206 -0.2944  0.5662 -1.0787
 9227SOL    HW239318   4.074   1.370  16.215  1.1653 -0.6326  0.6566
 9228SOL     OW39319   2.427   4.156   3.424  0.1940  1.0023  0.1948
 9228SOL    HW139320   2.363   4.228   3.426  1.2415  1.9374 -0.0826
 9228SOL    HW239321   2.420   4.123   3.514 -1.2858  1.1182  0.1323
 9229SOL     OW39322   2.343   2.526   1.904 -0.0718 -0.3178  0.0789
 9229SOL    HW139323   2.311   2.558   1.988  0.6512 -0.2390  0.3282
 9229SOL    HW239324   2.266   2.530   1.847  0.5846  0.3726 -0.7644
 9230SOL     OW39325   0.262   2.428   9.293  0.1479  0.5825 -0.0637
 9230SOL    HW139326   0.352   2.409   9.318  0.0011  1.8070  1.3945
 9230SOL    HW239327   0.218   2.344   9.280 -2.1083  1.2227  3.3027
 9231SOL     OW39328   2.575   1.422   3.374  0.3480 -0.0112  0.1213
 9231SOL    HW139329   2.562   1.331   3.401  1.1326  0.2053  1.1778
 9231SOL    HW239330   2.652   1.403   3.321  0.6264  0.3685  0.3956
 9232SOL     OW39331   3.188   1.380   8.971  0.2616 -0.0564 -0.7728
 9232SOL    HW139332   3.115   1.329   8.939 -1.4540 -1.0791  4.6867
 9232SOL    HW239333   3.147   1.399   9.056 -0.8528  0.7422 -1.4916
 9233SOL     OW39334   1.464   0.751   7.742 -0.1449  0.6442  0.3162
 9233SOL    HW139335   1.381   0.704   7.732  0.2617 -0.2620  1.2179
 9233SOL    HW239336   1.518   0.679   7.774 -1.9927 -1.0391 -0.3289
 9234SOL     OW39337   3.589   0.660   3.367  0.2950 -0.4100  0.0868
 9234SOL    HW139338   3.597   0.574   3.326  0.3163 -1.3215  2.0005
 9234SOL    HW239339   3.530   0.641   3.439  0.7148  0.7088  0.7340
 9235SOL     OW39340   3.986   0.695   0.898  0.1199 -0.9162 -0.1509
 9235SOL    HW139341   4.076   0.711   0.926 -0.7783  0.4538  1.9986
 9235SOL    HW239342   3.948   0.660   0.979  3.7831 -1.1221  1.4634
 9236SOL     OW39343   1.246   1.948   5.589  0.3642  0.6151  0.0179
 9236SOL    HW139344   1.313   1.978   5.528 -1.8932  1.0138 -2.2375
 9236SOL    HW239345   1.188   2.024   5.585  0.0049  0.3234 -0.1799
 9237SOL     OW39346   3.850   4.503   5.774 -0.0645 -0.0597 -0.3421
 9237SOL    HW139347   3.876   4.457   5.694 -2.8030  0.8556 -1.7608
 9237SOL    HW239348   3.862   4.594   5.745  1.0916 -0.7242 -1.9574
 9238SOL     OW39349   4.655   4.176  16.222  0.3046  0.2429 -0.1523
 9238SOL    HW139350   4.736   4.149  16.180  0.8522 -0.0908  1.1006
 9238SOL    HW239351   4.621   4.223  16.146 -1.3826  0.0604  0.4834
 9239SOL     OW39352   1.580   2.275   4.378 -0.2882 -0.0119 -0.0406
 9239SOL    HW139353   1.674   2.262   4.391 -0.4221  0.0313  0.9903
 9239SOL    HW239354   1.575   2.214   4.304  0.5911  2.3912 -2.0716
 9240SOL     OW39355   0.107   2.354  12.653  0.7746  0.2501  0.0103
 9240SOL    HW139356   0.157   2.396  12.583 -0.2753  0.4242 -0.6375
 9240SOL    HW239357   0.174   2.321  12.712  1.4645 -1.9398 -2.0172
 9241SOL     OW39358   3.268   0.022   1.102 -0.3797 -0.3884  0.1424
 9241SOL    HW139359   3.175   0.022   1.125 -0.4006 -1.4681  0.0796
 9241SOL    HW239360   3.265   0.007   1.007 -0.0998 -0.2057  0.1064
 9242SOL     OW39361   0.373   2.442  11.099 -0.3789 -0.4016  0.3266
 9242SOL    HW139362   0.278   2.439  11.107 -0.5297  0.0878 -1.4939
 9242SOL    HW239363   0.385   2.443  11.004 -3.1134  0.2637  0.0114
 9243SOL     OW39364   0.139   1.511  10.312 -0.2500 -0.3978  0.0058
 9243SOL    HW139365   0.226   1.541  10.339 -0.4041  1.6965 -1.8866
 9243SOL    HW239366   0.081   1.566  10.365  0.7794  2.3257 -1.6897
 9244SOL     OW39367   4.664   1.383  16.997 -0.1338  0.3300  0.1708
 9244SOL    HW139368   4.676   1.475  16.972  0.0200  0.4625  0.7267
 9244SOL    HW239369   4.735   1.347  16.944 -1.2410  1.6666 -2.2002
 9245SOL     OW39370   3.597   1.862   2.893  0.4948 -0.6999 -0.0423
 9245SOL    HW139371   3.606   1.955   2.872  0.7016 -0.9041 -0.8554
 9245SOL    HW239372   3.621   1.861   2.985 -0.8443 -0.6824  0.3151
 9246SOL     OW39373   0.965   1.408   5.299 -0.6860  0.3206 -0.5112
 9246SOL    HW139374   0.979   1.342   5.367 -0.5357 -0.2240 -1.0716
 9246SOL    HW239375   1.029   1.384   5.233  2.3463  0.1301  2.4952
 9247SOL     OW39376   2.068   4.444  11.706  0.2211 -0.0479  0.3377
 9247SOL    HW139377   2.134   4.430  11.638  0.8330  1.1686  0.6763
 9247SOL    HW239378   2.097   4.383  11.773 -0.4198 -1.8268 -0.9982
 9248SOL     OW39379   3.474   1.869  10.442  0.1862 -0.0917 -0.4752
 9248SOL    HW139380   3.451   1.961  10.455  1.4522  0.0264  0.9703
 9248SOL    HW239381   3.393   1.840  10.401 -0.1692 -1.3522  1.1081
 9249SOL     OW39382   3.094   1.354  10.187 -0.1813  0.1322  0.0183
 9249SOL    HW139383   3.035   1.404  10.131  0.3692 -0.1141 -0.7750
 9249SOL    HW239384   3.152   1.318  10.119  2.4637  0.1395  2.2869
 9250SOL     OW39385   4.512   1.353   3.546  0.1248 -0.3605  0.2555
 9250SOL    HW139386   4.482   1.273   3.504  0.9158 -0.3860 -0.2530
 9250SOL    HW239387   4.496   1.423   3.483 -2.4902 -0.4294  0.8451
 9251SOL     OW39388   1.665   2.622   5.194 -0.5650 -0.2543 -0.0819
 9251SOL    HW139389   1.752   2.660   5.186 -1.0408  1.0483  0.9685
 9251SOL    HW239390   1.680   2.537   5.152 -0.6166 -0.1207 -0.3689
 9252SOL     OW39391   4.646   1.632   3.871 -0.3045 -0.1393  0.4352
 9252SOL    HW139392   4.570   1.624   3.928 -1.7672  0.2036 -1.4549
 9252SOL    HW239393   4.682   1.544   3.879 -1.2836 -0.5060  0.8556
 9253SOL     OW39394   4.670   2.022   1.127 -0.0077  0.1259 -0.2668
 9253SOL    HW139395   4.703   2.101   1.083 -3.5384  0.6389 -1.9637
 9253SOL    HW239396   4.587   2.057   1.158  0.4412  1.7840 -0.9167
 9254SOL     OW39397   3.618   1.348   8.173  0.0766 -0.8694  0.1711
 9254SOL    HW139398   3.614   1.331   8.268  1.4979 -0.0209  0.3837
 9254SOL    HW239399   3.581   1.435   8.161  1.2403 -0.1320  1.8494
 9255SOL     OW39400   2.218   2.762   5.845  0.0305  0.4998  0.0351
 9255SOL    HW139401   2.232   2.816   5.767 -1.2440  1.5843  0.5525
 9255SOL    HW239402   2.128   2.732   5.831 -0.4475  2.0038 -0.0652
 9256SOL     OW39403   1.458   2.643   4.699  0.2811  0.1984  0.6293
 9256SOL    HW139404   1.523   2.651   4.769  0.1085 -0.0849  0.8240
 9256SOL    HW239405   1.390   2.594   4.745 -0.0912 -0.5339 -0.6975
 9257SOL     OW39406   0.653   2.712   4.145  0.6364  0.5052 -0.3536
 9257SOL    HW139407   0.644   2.724   4.051  2.2625  0.8467 -0.4590
 9257SOL    HW239408   0.567   2.737   4.179  1.6273  2.2576  0.8661
 9258SOL     OW39409   4.118   2.856   7.499  0.4720 -0.1413  0.6620
 9258SOL    HW139410   4.144   2.765   7.509  3.9753  0.7391 -0.4183
 9258SOL    HW239411   4.195   2.899   7.463 -0.1870 -0.6873 -1.3599
 9259SOL     OW39412   4.341   1.001   2.198  0.5222  0.3040 -0.4640
 9259SOL    HW139413   4.389   1.079   2.226  0.9163 -0.6182  1.4645
 9259SOL    HW239414   4.306   1.013   2.110 -3.8352  5.0475  1.9828
 9260SOL     OW39415   0.061   3.427  12.317 -0.3131  0.3393  0.0133
 9260SOL    HW139416   0.136   3.379  12.281  2.0316  2.2233  2.3757
 9260SOL    HW239417   0.111   3.469  12.386  1.0541 -0.6421 -0.3781
 9261SOL     OW39418   1.015   3.287   6.685 -0.1229 -0.4092 -0.0941
 9261SOL    HW139419   0.964   3.234   6.624  1.8894 -0.9589 -1.3050
 9261SOL    HW239420   1.096   3.237   6.693 -0.8161 -1.6113 -0.6261
 9262SOL     OW39421   1.924   2.589   2.300  0.4805  0.1994 -0.4412
 9262SOL    HW139422   1.983   2.661   2.276  1.1926 -0.4217 -0.5531
 9262SOL    HW239423   1.943   2.525   2.231  1.2580  2.5918 -2.4737
 9263SOL     OW39424   3.413   2.671   8.659 -0.2287 -0.4298 -0.2922
 9263SOL    HW139425   3.485   2.707   8.711 -1.0244  1.8787 -0.7743
 9263SOL    HW239426   3.457   2.669   8.574  2.3302  0.2070  1.0061
 9264SOL     OW39427   2.937   0.388   4.077 -0.0194 -0.2051  0.5703
 9264SOL    HW139428   2.978   0.311   4.118 -0.4091 -1.3011 -1.0806
 9264SOL    HW239429   2.849   0.351   4.071  0.0963 -0.1936 -1.2334
 9265SOL     OW39430   4.194   4.251  16.624 -0.4728 -0.2573  0.5583
 9265SOL    HW139431   4.132   4.200  16.572  0.3969 -2.3836  1.5936
 9265SOL    HW239432   4.244   4.291  16.552 -1.4545  0.6189  0.3680
 9266SOL     OW39433   4.228   2.374   6.090 -0.8049 -0.1406  0.3242
 9266SOL    HW139434   4.191   2.378   6.178 -1.8685  1.5007 -0.1815
 9266SOL    HW239435   4.308   2.324   6.104 -0.2442  0.6777  0.0245
 9267SOL     OW39436   3.606   3.294   5.144  0.0025 -0.4269  0.3935
 9267SOL    HW139437   3.701   3.278   5.140  0.1677  0.6882 -0.4506
 9267SOL    HW239438   3.614   3.381   5.184  0.6340 -0.6210  0.6860
 9268SOL     OW39439   2.524   1.055   9.431 -0.0125 -0.4592  0.5467
 9268SOL    HW139440   2.434   1.071   9.460 -0.3504 -0.9815 -0.2300
 9268SOL    HW239441   2.551   1.146   9.416 -0.7692 -0.1861  0.8414
 9269SOL     OW39442   4.727   4.275   8.634  0.4910  0.6145  0.0630
 9269SOL    HW139443   0.080   4.246   8.647  0.2909  0.3361  0.8658
 9269SOL    HW239444   4.709   4.300   8.725  0.9741  1.2444 -0.0209
 9270SOL     OW39445   4.476   0.581   6.288  0.3094  0.2855  0.1860
 9270SOL    HW139446   4.467   0.529   6.368 -4.8404  3.1148  1.3655
 9270SOL    HW239447   4.510   0.662   6.325 -0.5165  0.7595 -0.1092
 9271SOL     OW39448   4.558   1.423   5.125 -0.3529 -0.4104  0.2004
 9271SOL    HW139449   4.630   1.360   5.118  0.0807  0.3735 -2.1091
 9271SOL    HW239450   4.566   1.451   5.217 -0.8203  4.1733 -1.1581
 9272SOL     OW39451   4.525   4.378  13.483 -1.0756  0.3811 -0.5568
 9272SOL    HW139452   4.452   4.382  13.421 -1.0484 -1.0959 -0.6810
 9272SOL    HW239453   4.594   4.379  13.417  0.1698 -2.7304  0.7079
 9273SOL     OW39454   3.231   2.571  13.604  0.0248  0.0847  0.2182
 9273SOL    HW139455   3.275   2.488  13.621  1.5881  1.4449  2.8405
 9273SOL    HW239456   3.142   2.536  13.611 -0.3741  1.2741  1.2139
 9274SOL     OW39457   3.419   1.623   3.595 -0.5062 -0.1829  0.2887
 9274SOL    HW139458   3.353   1.674   3.642 -0.6270 -2.1620  2.2599
 9274SOL    HW239459   3.382   1.535   3.588  0.9981 -0.8239  0.2167
 9275SOL     OW39460   0.505   0.885   4.356  0.0028 -0.0107  0.2946
 9275SOL    HW139461   0.568   0.877   4.284 -0.9670 -1.8708 -0.3166
 9275SOL    HW239462   0.519   0.808   4.411 -2.2242 -1.4973 -1.2390
 9276SOL     OW39463   3.974   2.132  11.597  0.2618 -0.4597  0.4633
 9276SOL    HW139464   3.977   2.162  11.688 -0.0416 -1.3154  0.7465
 9276SOL    HW239465   3.956   2.213  11.549  1.8411 -0.5815 -0.3521
 9277SOL     OW39466   2.531   0.452  13.298  0.4921  0.1828  0.1914
 9277SOL    HW139467   2.479   0.401  13.360  3.1151 -3.3359 -0.4913
 9277SOL    HW239468   2.459   0.455  13.235  0.2284 -0.8307  0.4450
 9278SOL     OW39469   3.991   4.003   7.508  1.0467 -0.8538  0.2136
 9278SOL    HW139470   4.023   3.915   7.485 -1.3313 -1.6682 -0.0153
 9278SOL    HW239471   3.899   3.981   7.521  1.8065 -2.7563  2.3967
 9279SOL     OW39472   0.859   0.782   7.869 -0.2176  0.1828 -0.0149
 9279SOL    HW139473   0.870   0.823   7.955 -0.1734 -5.5537  2.7171
 9279SOL    HW239474   0.926   0.819   7.812  0.0579 -0.2959 -0.0071
 9280SOL     OW39475   2.395   2.680   3.878 -0.3742  0.1549 -0.1889
 9280SOL    HW139476   2.309   2.703   3.842 -1.3310 -2.5279  0.3809
 9280SOL    HW239477   2.406   2.593   3.840 -0.3931 -0.4665  1.1975
 9281SOL     OW39478   3.551   1.020  15.495  0.3962  0.1641 -0.6840
 9281SOL    HW139479   3.550   1.096  15.553 -0.2765 -2.2387  2.4413
 9281SOL    HW239480   3.607   1.061  15.428 -0.9554  1.4111 -1.0453
 9282SOL     OW39481   1.671   0.258   8.701 -0.1010  0.4540  0.1517
 9282SOL    HW139482   1.722   0.333   8.731  0.6651 -0.6281  1.6043
 9282SOL    HW239483   1.584   0.298   8.709 -0.2913 -0.0383  0.5630
 9283SOL     OW39484   0.612   3.632  16.271 -0.0214  0.0690  0.5030
 9283SOL    HW139485   0.596   3.693  16.198  2.6252 -0.5784 -0.5905
 9283SOL    HW239486   0.518   3.617  16.286 -0.2290  0.9573  0.1086
 9284SOL     OW39487   1.682   3.809   3.630 -0.1343  0.8845 -0.6452
 9284SOL    HW139488   1.718   3.897   3.636  0.3984  0.6572 -0.4829
 9284SOL    HW239489   1.589   3.827   3.618 -0.3584 -0.9939 -1.7451
 9285SOL     OW39490   4.555   2.504   2.526 -0.3345  0.1547  0.0917
 9285SOL    HW139491   4.509   2.583   2.555  0.6215 -0.0828  2.2354
 9285SOL    HW239492   4.637   2.535   2.489 -0.0874  0.7946  1.1675
 9286SOL     OW39493   1.704   0.091   4.523 -0.0749 -0.1264  0.5284
 9286SOL    HW139494   1.653   0.141   4.459 -1.8889 -1.4446  0.9511
 9286SOL    HW239495   1.797   0.103   4.503  0.3896 -3.1182  0.9071
 9287SOL     OW39496   3.410   3.279   5.980  0.6928 -0.5548 -0.0437
 9287SOL    HW139497   3.371   3.330   6.052  0.9282  1.5578 -1.4054
 9287SOL    HW239498   3.363   3.198   5.997  1.3353 -0.7030  1.0535
 9288SOL     OW39499   4.118   2.857   2.509 -0.0926  0.0943  0.3658
 9288SOL    HW139500   4.136   2.925   2.444  0.9586 -0.0682  0.4867
 9288SOL    HW239501   4.092   2.779   2.461  1.0763 -0.4908  0.6664
 9289SOL     OW39502   3.502   0.134   4.244 -0.0184 -0.3646  0.2745
 9289SOL    HW139503   3.512   0.224   4.275  2.2589  0.2369 -2.2391
 9289SOL    HW239504   3.503   0.151   4.150 -0.0114  1.2811  0.5709
 9290SOL     OW39505   1.695   4.199   1.858 -0.5594  0.3830  0.0373
 9290SOL    HW139506   1.652   4.175   1.940 -1.3238 -0.5660 -0.6532
 9290SOL    HW239507   1.779   4.157   1.874 -0.3820  1.1597  1.1819
 9291SOL     OW39508   1.849   1.149   4.932 -0.1939 -0.3860  0.2494
 9291SOL    HW139509   1.783   1.196   4.882  0.1483 -0.7939 -0.5820
 9291SOL    HW239510   1.931   1.190   4.904  0.5796 -2.1984 -0.1353
 9292SOL     OW39511   0.813   3.482   2.489 -0.5061 -0.3025 -0.0698
 9292SOL    HW139512   0.756   3.513   2.559  1.1560  0.2546  1.0438
 9292SOL    HW239513   0.837   3.564   2.446 -1.5083 -0.9732 -1.9144
 9293SOL     OW39514   2.365   0.422  12.869 -0.7253  0.5504  0.0363
 9293SOL    HW139515   2.319   0.415  12.786  0.5172  1.4908 -0.7252
 9293SOL    HW239516   2.384   0.328  12.875  0.1825  0.7931  1.0095
 9294SOL     OW39517   3.260   4.316  13.460 -0.3279 -0.3258 -0.1991
 9294SOL    HW139518   3.347   4.331  13.422 -1.0179  1.1305 -1.2024
 9294SOL    HW239519   3.276   4.232  13.502  1.8396  0.4531  0.5388
 9295SOL     OW39520   1.443   1.687  12.389  0.0782 -0.2390  0.5111
 9295SOL    HW139521   1.425   1.593  12.382  1.5086 -0.4787  0.0320
 9295SOL    HW239522   1.359   1.717  12.354 -0.3055 -0.0654  1.5869
 9296SOL     OW39523   2.133   2.839  14.055 -0.1720  0.3702 -0.1336
 9296SOL    HW139524   2.197   2.773  14.082 -0.5854 -0.3357 -0.8664
 9296SOL    HW239525   2.104   2.795  13.975  0.8165  0.8320 -0.7385
 9297SOL     OW39526   3.932   3.857   5.120 -0.2223 -0.7279 -0.2906
 9297SOL    HW139527   3.969   3.840   5.033  0.7215 -2.4076  0.4553
 9297SOL    HW239528   4.014   3.849   5.169  0.3757  0.0864 -1.1506
 9298SOL     OW39529   0.171   2.648   3.031  0.6138 -0.5891  0.2632
 9298SOL    HW139530   0.261   2.642   3.062  0.9277  1.8489 -0.1709
 9298SOL    HW239531   0.137   2.694   3.108  1.0589 -0.5240  0.4205
 9299SOL     OW39532   4.148   2.356   1.921  0.1425  0.1682 -0.5851
 9299SOL    HW139533   4.115   2.445   1.912 -2.8798 -0.6387  2.6038
 9299SOL    HW239534   4.139   2.344   2.015  1.1477 -4.3891 -1.0510
 9300SOL     OW39535   1.006   0.621   7.098  0.2093  0.1378 -0.8521
 9300SOL    HW139536   1.081   0.665   7.136  0.0319 -1.2951  1.1437
 9300SOL    HW239537   1.045   0.534   7.091  2.0504  0.8911  0.0947
 9301SOL     OW39538   0.242   0.545  11.866  0.0804  0.2544  0.2908
 9301SOL    HW139539   0.196   0.485  11.807  0.2828 -0.3346  0.7316
 9301SOL    HW239540   0.182   0.616  11.888  0.7683  1.1980 -0.9309
 9302SOL     OW39541   4.412   3.198   4.612  0.0971 -0.1868 -0.0298
 9302SOL    HW139542   4.472   3.227   4.680  0.1236 -1.9204  0.6811
 9302SOL    HW239543   4.437   3.106   4.605  1.5820  0.4917 -4.0492
 9303SOL     OW39544   3.300   3.131   2.834  0.5836 -0.1389 -0.3893
 9303SOL    HW139545   3.219   3.180   2.844  0.9966  0.4690  0.0422
 9303SOL    HW239546   3.364   3.198   2.810  1.4912 -0.3935  1.2589
 9304SOL     OW39547   2.580   0.204  11.355  0.4971  0.2135 -0.0958
 9304SOL    HW139548   2.608   0.133  11.297 -2.5604  0.4495 -1.8833
 9304SOL    HW239549   2.545   0.155  11.429 -0.4575 -0.3555 -0.9249
 9305SOL     OW39550   0.712   2.477   3.452 -0.1809  0.3571 -1.0964
 9305SOL    HW139551   0.778   2.528   3.498 -0.0300  0.8124 -1.8076
 9305SOL    HW239552   0.677   2.548   3.397 -0.5769  1.7162  0.9212
 9306SOL     OW39553   3.527   3.100   2.518 -0.4871  0.0513 -0.4730
 9306SOL    HW139554   3.551   3.015   2.556 -0.4487 -0.1828 -1.0240
 9306SOL    HW239555   3.434   3.088   2.537 -0.1852 -0.6476  0.6018
 9307SOL     OW39556   0.658   0.194   6.312 -0.2911  0.4034  0.1894
 9307SOL    HW139557   0.656   0.192   6.408  0.2941 -0.9764  0.1727
 9307SOL    HW239558   0.567   0.172   6.290 -0.0394 -1.8291  1.3185
 9308SOL     OW39559   0.813   1.238   0.498 -0.6630  0.5299  0.3069
 9308SOL    HW139560   0.861   1.166   0.457  0.3764  0.4102  1.7422
 9308SOL    HW239561   0.843   1.307   0.438 -0.6891  1.5344  1.4492
 9309SOL     OW39562   1.670   2.454  16.763 -0.6052  0.4328 -0.3906
 9309SOL    HW139563   1.613   2.496  16.827  1.7911  1.0965  1.2891
 9309SOL    HW239564   1.626   2.485  16.683  0.8995  3.3307 -0.0790
 9310SOL     OW39565   2.625   2.463   8.175  0.1720 -0.7542 -0.0619
 9310SOL    HW139566   2.686   2.468   8.249  2.1835  1.4320 -1.8693
 9310SOL    HW239567   2.639   2.376   8.137 -2.5535 -0.2819 -2.2196
 9311SOL     OW39568   1.925   0.661   7.257 -0.0134  0.5777  0.0380
 9311SOL    HW139569   1.962   0.746   7.280 -2.4994  1.2349  1.6360
 9311SOL    HW239570   1.963   0.612   7.330 -0.1237 -0.7677 -0.8199
 9312SOL     OW39571   3.428   1.837   1.922 -0.4793  0.0215 -0.1466
 9312SOL    HW139572   3.376   1.853   1.843 -0.4437  2.0846  0.2587
 9312SOL    HW239573   3.493   1.772   1.896  1.0238  2.1517 -1.7220
 9313SOL     OW39574   1.927   1.356  15.804 -0.0210 -0.0780 -0.5767
 9313SOL    HW139575   1.879   1.281  15.769 -2.8928  2.8367 -2.9455
 9313SOL    HW239576   2.008   1.352  15.752 -1.9793  0.8807 -3.6840
 9314SOL     OW39577   4.432   2.695   3.578 -0.1673  0.0086 -0.2468
 9314SOL    HW139578   4.433   2.699   3.674 -0.9030 -2.4677 -0.1285
 9314SOL    HW239579   4.429   2.787   3.553 -0.6761  0.3343  1.0122
 9315SOL     OW39580   0.254   4.671   4.741  0.0460 -0.1155  0.4982
 9315SOL    HW139581   0.295   4.693   4.825  1.9583  0.8033 -0.6727
 9315SOL    HW239582   0.174   4.642   4.785 -0.2364 -0.5828 -0.3279
 9316SOL     OW39583   3.323   0.807   6.923 -0.2369  0.3537  0.5438
 9316SOL    HW139584   3.333   0.734   6.861 -0.3771 -0.6788  1.7284
 9316SOL    HW239585   3.273   0.873   6.876  0.3143  0.2538 -0.1799
 9317SOL     OW39586   3.254   3.486  16.707 -0.0931  0.1141 -0.1446
 9317SOL    HW139587   3.256   3.570  16.662 -0.1224 -0.1261 -0.5951
 9317SOL    HW239588   3.203   3.435  16.644  0.1837  2.1322 -1.9874
 9318SOL     OW39589   0.744   3.584   8.328 -0.4223  0.2447 -0.2645
 9318SOL    HW139590   0.683   3.658   8.326  0.1269  0.6030 -3.3156
 9318SOL    HW239591   0.723   3.553   8.416  0.1937 -2.3574 -1.0637
 9319SOL     OW39592   2.150   4.648  14.589 -0.5545  0.0531  0.0142
 9319SOL    HW139593   2.138   0.006  14.591 -0.0164  0.1158  0.4026
 9319SOL    HW239594   2.180   4.640  14.499 -0.4868  0.0755  0.0347
 9320SOL     OW39595   3.374   3.576   2.658  0.0816 -0.2718 -0.5670
 9320SOL    HW139596   3.338   3.499   2.615 -0.8197  0.3691 -0.9460
 9320SOL    HW239597   3.425   3.524   2.720  0.5225  0.4278 -0.3332
 9321SOL     OW39598   1.924   1.349   8.357  0.0136  0.0732 -0.2976
 9321SOL    HW139599   1.862   1.324   8.289  0.1815 -0.1022 -0.3876
 9321SOL    HW239600   1.952   1.260   8.379  2.2957  0.4180 -1.7376
 9322SOL     OW39601   2.639   4.043   3.269 -0.3373 -0.0653 -0.1202
 9322SOL    HW139602   2.590   4.095   3.333 -1.1266 -0.2593 -0.5653
 9322SOL    HW239603   2.649   3.962   3.319 -0.3241  1.5029  2.3551
 9323SOL     OW39604   1.393   1.925   6.441 -0.2258  0.2440  0.3177
 9323SOL    HW139605   1.420   2.015   6.425  1.2719 -0.4214 -0.8554
 9323SOL    HW239606   1.299   1.929   6.423 -0.5096  0.3613  1.8617
 9324SOL     OW39607   0.651   0.781   1.878  0.0458  0.0724  0.5413
 9324SOL    HW139608   0.636   0.723   1.953  1.0223 -0.5954  0.2302
 9324SOL    HW239609   0.559   0.799   1.858  0.5956  0.7844 -1.3666
 9325SOL     OW39610   0.070   2.343  14.999 -0.2552 -0.2746  0.0523
 9325SOL    HW139611   0.051   2.297  14.917 -0.6941 -0.5525  0.3112
 9325SOL    HW239612   0.163   2.358  14.984 -0.7597  1.8635 -0.8868
 9326SOL     OW39613   0.764   0.222   6.947 -0.0795 -0.6616 -0.1735
 9326SOL    HW139614   0.754   0.280   7.022 -0.7249  0.4557 -1.1186
 9326SOL    HW239615   0.796   0.143   6.991 -0.0751 -0.2966  0.4715
 9327SOL     OW39616   2.117   2.324   8.733 -0.2516 -0.0393  0.4876
 9327SOL    HW139617   2.022   2.315   8.737 -0.2995 -0.0531 -0.9415
 9327SOL    HW239618   2.141   2.237   8.767  0.3938  0.0937  0.3809
 9328SOL     OW39619   1.524   4.428   6.700  0.0242  0.3271 -0.4809
 9328SOL    HW139620   1.528   4.362   6.630 -1.2277 -0.6029  0.3196
 9328SOL    HW239621   1.609   4.405   6.739  0.1056  2.0642  0.3710
 9329SOL     OW39622   2.147   3.052   7.268  0.1884  0.3299  0.4383
 9329SOL    HW139623   2.170   3.002   7.347 -2.0269  1.1181  1.5760
 9329SOL    HW239624   2.073   3.005   7.231  0.1687  0.5209  0.2343
 9330SOL     OW39625   3.446   3.805   5.130 -0.4419  0.0124  0.3404
 9330SOL    HW139626   3.523   3.849   5.166  0.6669 -0.7182 -1.1082
 9330SOL    HW239627   3.382   3.874   5.145  0.2567 -0.0101  3.3752
 9331SOL     OW39628   4.123   0.155   4.826 -0.3669  0.2618 -0.6611
 9331SOL    HW139629   4.096   0.111   4.746 -0.6559  1.9769 -1.5137
 9331SOL    HW239630   4.080   0.240   4.818 -2.1457 -0.6356 -0.5569
 9332SOL     OW39631   2.799   4.417   5.042 -0.0997  0.8181 -0.1334
 9332SOL    HW139632   2.766   4.380   4.961  2.9636 -0.1490 -0.9611
 9332SOL    HW239633   2.822   4.508   5.022  0.0763  0.5100 -1.3227
 9333SOL     OW39634   2.153   4.265   3.918  0.0533  0.0561 -0.3474
 9333SOL    HW139635   2.219   4.197   3.926 -0.3006 -0.0592  1.5542
 9333SOL    HW239636   2.093   4.238   3.988 -1.1160  1.1730 -0.9106
 9334SOL     OW39637   4.407   1.055   2.758  0.1337 -0.0034  0.2141
 9334SOL    HW139638   4.315   1.064   2.733 -0.8075 -2.6733  2.7422
 9334SOL    HW239639   4.431   1.004   2.680 -3.4519 -1.2802 -0.0516
 9335SOL     OW39640   4.542   0.547   3.320  0.4882  0.0186 -0.5814
 9335SOL    HW139641   4.538   0.630   3.273  2.6461  0.6931  0.4055
 9335SOL    HW239642   4.549   0.488   3.245 -0.4542 -2.5048  1.3172
 9336SOL     OW39643   2.341   3.500   7.426  1.2396 -0.4885 -0.4548
 9336SOL    HW139644   2.249   3.493   7.400  1.3390  0.8730 -1.1851
 9336SOL    HW239645   2.346   3.427   7.487 -0.1117 -0.5372 -0.4028
 9337SOL     OW39646   2.343   1.360   4.932  0.2196  0.2260 -0.2103
 9337SOL    HW139647   2.353   1.387   5.024 -2.2477  0.3185  0.0459
 9337SOL    HW239648   2.427   1.315   4.928  0.5581  0.7801  0.7354
 9338SOL     OW39649   2.457   0.595   2.262  0.5126  0.3480  0.4401
 9338SOL    HW139650   2.465   0.690   2.265 -0.2589  0.4653 -1.5089
 9338SOL    HW239651   2.503   0.575   2.344  0.4369 -1.8137 -0.0386
 9339SOL     OW39652   3.533   0.249  12.666  0.2124  0.3618  0.2009
 9339SOL    HW139653   3.477   0.204  12.603  0.9658  0.3197 -0.4435
 9339SOL    HW239654   3.499   0.204  12.743  1.4185 -0.1656  0.4242
 9340SOL     OW39655   2.387   3.980   6.386  0.3242 -0.2702  0.7662
 9340SOL    HW139656   2.470   3.996   6.341 -0.3484 -0.6584 -0.5850
 9340SOL    HW239657   2.340   3.977   6.303  1.9441 -2.0908 -0.0645
 9341SOL     OW39658   2.016   2.475   0.733  0.1326 -0.2065  0.1995
 9341SOL    HW139659   2.012   2.515   0.820  5.9183 -1.0834  0.8664
 9341SOL    HW239660   2.109   2.488   0.712  0.1516  0.6032  0.7985
 9342SOL     OW39661   3.677   0.338   2.723  0.3321  0.0734 -0.5364
 9342SOL    HW139662   3.747   0.362   2.663  0.5120  0.0250 -0.3435
 9342SOL    HW239663   3.696   0.380   2.807 -0.0922 -1.0126  0.1057
 9343SOL     OW39664   3.922   0.802   8.626 -0.3863 -0.4767  0.2312
 9343SOL    HW139665   3.977   0.763   8.558  1.7248 -1.9483  2.7755
 9343SOL    HW239666   3.876   0.720   8.646 -1.8758  0.0303 -1.1211
 9344SOL     OW39667   4.635   0.759   3.587  0.1846  0.5114  0.0460
 9344SOL    HW139668   4.540   0.765   3.580  0.0814 -1.1357  0.0018
 9344SOL    HW239669   4.640   0.718   3.673 -1.3131 -1.3012 -0.7461
 9345SOL     OW39670   0.235   1.983   3.006  0.6074  0.2353 -0.1433
 9345SOL    HW139671   0.172   2.029   3.061 -0.4982 -1.9093  0.3673
 9345SOL    HW239672   0.183   1.967   2.927  0.4776  0.7256 -0.1579
 9346SOL     OW39673   3.800   1.214   4.895 -0.5150  0.3315  0.4439
 9346SOL    HW139674   3.729   1.235   4.834 -0.1590 -2.8552 -1.0532
 9346SOL    HW239675   3.760   1.226   4.981  0.3124 -0.4692  0.9321
 9347SOL     OW39676   1.124   2.030   6.812 -0.0655 -0.1725 -0.3804
 9347SOL    HW139677   1.112   2.102   6.750 -0.1144  0.1757  0.0334
 9347SOL    HW239678   1.126   2.082   6.892  0.9565 -1.3315  0.3539
 9348SOL     OW39679   2.625   2.321   4.123  0.3293  0.3028 -0.7609
 9348SOL    HW139680   2.665   2.256   4.181 -2.1062 -0.8425 -0.3722
 9348SOL    HW239681   2.585   2.272   4.051 -0.5842 -0.9538  0.6029
 9349SOL     OW39682   3.953   1.661   7.871 -0.1155 -0.2861 -0.3696
 9349SOL    HW139683   4.032   1.696   7.829  1.8045 -2.7727  1.1979
 9349SOL    HW239684   3.907   1.620   7.798  1.7866 -0.0797 -1.6823
 9350SOL     OW39685   3.758   2.363  10.918 -0.2829  0.5394  0.1936
 9350SOL    HW139686   3.784   2.430  10.855  1.6017 -1.4732 -1.1267
 9350SOL    HW239687   3.693   2.413  10.969 -0.8741  0.1035 -0.1254
 9351SOL     OW39688   4.521   3.913   1.389 -1.1122  0.0618 -0.6071
 9351SOL    HW139689   4.456   3.939   1.454 -0.2463  0.4637  0.0838
 9351SOL    HW239690   4.507   3.819   1.378  2.3974 -0.2779 -2.0495
 9352SOL     OW39691   4.595   0.326   7.059  1.2561 -0.7434  0.0552
 9352SOL    HW139692   4.555   0.335   6.972  3.3872  1.0032 -0.7401
 9352SOL    HW239693   4.518   0.298   7.108  0.0728  1.2131 -0.6929
 9353SOL     OW39694   0.857   0.650  10.181 -0.0090 -0.2966 -0.0200
 9353SOL    HW139695   0.832   0.682  10.094  1.0915 -0.5924 -0.4469
 9353SOL    HW239696   0.792   0.689  10.240 -0.4643  2.1443 -2.1333
 9354SOL     OW39697   0.412   4.144  14.367 -0.1072 -0.2435  0.2045
 9354SOL    HW139698   0.386   4.090  14.293  0.4181 -3.7283  2.5497
 9354SOL    HW239699   0.465   4.081  14.415  0.5589  0.4796  0.4229
 9355SOL     OW39700   0.162   3.044   9.792 -0.1556  0.0950 -0.1836
 9355SOL    HW139701   0.201   3.026   9.878  2.1870 -0.6203 -1.4031
 9355SOL    HW239702   0.155   3.139   9.800  0.7973  0.0688  1.0028
 9356SOL     OW39703   2.828   1.074   4.359 -0.2250  0.0297  0.8594
 9356SOL    HW139704   2.862   1.033   4.280 -2.2969 -1.1981  0.6243
 9356SOL    HW239705   2.812   1.164   4.329 -1.4903 -0.5396 -0.1301
 9357SOL     OW39706   0.755   2.106   2.300 -0.1729 -0.1021  0.2813
 9357SOL    HW139707   0.721   2.130   2.387  0.5257 -1.7538  1.0190
 9357SOL    HW239708   0.719   2.179   2.250 -0.3382  0.4018  1.1347
 9358SOL     OW39709   1.038   3.867   0.592  0.2917 -0.1844  0.1020
 9358SOL    HW139710   1.132   3.864   0.612 -0.0475  0.7772  1.7662
 9358SOL    HW239711   1.043   3.903   0.503 -0.5842 -0.2964  0.0059
 9359SOL     OW39712   1.457   0.710   3.964  0.2732  0.2737  0.3985
 9359SOL    HW139713   1.500   0.678   3.884  0.3964  0.7733  0.2659
 9359SOL    HW239714   1.368   0.676   3.950  1.1241 -1.9644  0.3540
 9360SOL     OW39715   1.663   0.540   7.793 -0.1882  0.5962  0.4484
 9360SOL    HW139716   1.641   0.468   7.734 -0.5040 -0.5264  1.9457
 9360SOL    HW239717   1.758   0.531   7.797  0.0093  1.9138 -1.0872
 9361SOL     OW39718   4.441   4.080   9.589 -0.2068 -0.3357 -0.4434
 9361SOL    HW139719   4.528   4.074   9.550  1.3667  2.4680  2.6275
 9361SOL    HW239720   4.398   4.129   9.519  2.7613  1.4284 -1.0393
 9362SOL     OW39721   3.359   1.737   8.529 -0.4219 -0.1652 -0.1019
 9362SOL    HW139722   3.369   1.642   8.524  0.8112 -0.0179 -0.4706
 9362SOL    HW239723   3.377   1.758   8.437 -0.8568  1.2075  0.1172
 9363SOL     OW39724   2.794   3.613  12.140  0.3785 -0.5871 -0.3465
 9363SOL    HW139725   2.710   3.573  12.160 -0.3301  0.5125 -1.1151
 9363SOL    HW239726   2.780   3.596  12.046  0.9647  0.0520 -0.5535
 9364SOL     OW39727   2.933   2.275   3.108 -0.5329 -0.1647 -0.1701
 9364SOL    HW139728   2.973   2.193   3.080 -0.1211  0.0951 -0.3327
 9364SOL    HW239729   3.006   2.331   3.082 -0.3465 -0.2207  0.2383
 9365SOL     OW39730   4.032   1.219  17.607  0.6617  0.3014 -0.6574
 9365SOL    HW139731   4.069   1.231  17.694 -0.1738 -0.9473 -0.1391
 9365SOL    HW239732   3.967   1.155  17.635 -0.1249  1.8682  1.1005
 9366SOL     OW39733   4.401   2.653   6.166  0.5665  0.1023 -0.1535
 9366SOL    HW139734   4.368   2.571   6.129 -0.8858 -0.3039  2.0332
 9366SOL    HW239735   4.323   2.685   6.212  1.4006 -0.5605  1.7105
 9367SOL     OW39736   2.220   0.095  12.471  0.0538 -0.5283 -0.4540
 9367SOL    HW139737   2.141   0.137  12.436 -0.0845  0.6859  1.2833
 9367SOL    HW239738   2.291   0.142  12.426 -0.5399 -0.0560 -0.9072
 9368SOL     OW39739   1.809   2.320   4.747 -0.1130 -0.0623 -0.6260
 9368SOL    HW139740   1.832   2.332   4.839 -4.1558 -3.5098  0.8390
 9368SOL    HW239741   1.829   2.406   4.710  0.5208  0.3879  0.7434
 9369SOL     OW39742   4.438   0.027   0.841  0.1203  0.1409  0.0429
 9369SOL    HW139743   4.353   0.072   0.847 -0.5262 -0.5636 -3.8581
 9369SOL    HW239744   4.426   4.685   0.788  1.4607  1.3996 -2.1453
 9370SOL     OW39745   2.294   2.777   3.140  0.8727  0.4472  0.6806
 9370SOL    HW139746   2.293   2.844   3.071 -0.1406 -0.5000 -0.2360
 9370SOL    HW239747   2.342   2.820   3.211 -0.0398  1.6703  0.5781
 9371SOL     OW39748   0.525   2.320   9.399  0.9000  0.7020 -0.8958
 9371SOL    HW139749   0.602   2.280   9.359  0.1361 -1.5052 -0.1504
 9371SOL    HW239750   0.549   2.324   9.491 -1.5346 -3.3088 -0.0702
 9372SOL     OW39751   3.104   0.474   9.717 -0.5576  0.3532  0.1440
 9372SOL    HW139752   3.109   0.564   9.749 -1.3675  0.7631 -0.8929
 9372SOL    HW239753   3.183   0.428   9.746 -0.9289  0.6350  1.5904
 9373SOL     OW39754   0.625   1.768   3.683  0.3513  0.1168  0.5763
 9373SOL    HW139755   0.671   1.806   3.758  1.9008  0.1778 -0.3966
 9373SOL    HW239756   0.568   1.842   3.661  1.0261  0.9885  1.7854
 9374SOL     OW39757   1.403   3.690   2.546 -0.2703 -0.4565  0.5276
 9374SOL    HW139758   1.451   3.612   2.575  1.9029  0.4207 -0.6530
 9374SOL    HW239759   1.356   3.712   2.626 -0.0033 -2.5144  1.2606
 9375SOL     OW39760   2.853   2.652  16.010  0.6022  0.3308  0.2237
 9375SOL    HW139761   2.939   2.610  16.012  0.0696 -0.8415 -2.1353
 9375SOL    HW239762   2.832   2.644  16.104  4.0222  0.1092  0.9652
 9376SOL     OW39763   1.214   0.935   3.762  0.1817  0.5753  0.1942
 9376SOL    HW139764   1.126   0.942   3.726  1.3867 -0.1424 -2.8546
 9376SOL    HW239765   1.205   0.857   3.817 -0.2624  0.5200  0.0466
 9377SOL     OW39766   0.042   3.296   3.276  0.2210  0.6385  0.0310
 9377SOL    HW139767   4.687   3.309   3.255  0.0961 -0.3087  0.0127
 9377SOL    HW239768   0.089   3.377   3.255 -1.3107  0.9523 -2.2203
 9378SOL     OW39769   1.288   4.399   8.893  0.4181  0.2467 -0.5053
 9378SOL    HW139770   1.261   4.476   8.944  0.7044  0.8917 -1.3273
 9378SOL    HW239771   1.382   4.395   8.912  0.7035 -1.7572 -2.4048
 9379SOL     OW39772   1.698   4.067   1.605  0.5416 -0.0601 -0.0051
 9379SOL    HW139773   1.712   4.124   1.530 -2.8546  1.8228  0.8011
 9379SOL    HW239774   1.675   4.121   1.680 -0.9852  0.1610 -0.6468
 9380SOL     OW39775   1.011   0.614   3.467 -0.1925 -0.1484  0.3575
 9380SOL    HW139776   1.028   0.647   3.555  0.5133  0.8246 -0.1441
 9380SOL    HW239777   1.095   0.574   3.444 -1.3429 -1.9118 -0.8032
 9381SOL     OW39778   3.500   2.015   3.513 -0.2148 -0.0719  0.3138
 9381SOL    HW139779   3.540   2.094   3.549  2.2238 -0.3412 -1.8220
 9381SOL    HW239780   3.552   1.949   3.560  2.9258 -0.4880 -3.7205
 9382SOL     OW39781   0.352   2.573  12.592  0.3357 -0.4449  0.1539
 9382SOL    HW139782   0.333   2.580  12.686  0.1945 -1.0307  0.1642
 9382SOL    HW239783   0.446   2.560  12.601  0.4169  0.2444  0.3188
 9383SOL     OW39784   4.378   0.051  17.045 -0.1036 -0.0320 -0.6549
 9383SOL    HW139785   4.386   0.039  16.950  0.2918  0.6321 -0.7087
 9383SOL    HW239786   4.305   4.730  17.065 -1.8725  3.6665  3.7301
 9384SOL     OW39787   3.142   1.475  12.148 -0.5125  0.1024 -0.2996
 9384SOL    HW139788   3.154   1.566  12.122  2.7505 -0.3616 -0.4565
 9384SOL    HW239789   3.158   1.424  12.069 -2.6634 -0.4854 -0.3579
 9385SOL     OW39790   3.108   0.403  12.666  0.3297  0.4394 -0.0532
 9385SOL    HW139791   3.176   0.397  12.734  0.7961  0.1494 -0.5415
 9385SOL    HW239792   3.042   0.451  12.715  1.0903  0.9373  0.5010
 9386SOL     OW39793   0.316   4.594   7.815  0.1954  0.9274 -0.1420
 9386SOL    HW139794   0.364   4.674   7.832  1.0969  0.7880 -2.1269
 9386SOL    HW239795   0.393   4.539   7.800 -1.8500 -1.9135 -0.3130
 9387SOL     OW39796   2.971   2.247   8.258  0.3858 -0.2946 -0.1375
 9387SOL    HW139797   3.027   2.321   8.277 -0.0970 -0.0986  0.5060
 9387SOL    HW239798   2.939   2.265   8.169 -2.4148 -0.8339  0.7572
 9388SOL     OW39799   4.263   2.015   7.118 -0.1395  0.1475  0.4975
 9388SOL    HW139800   4.295   2.099   7.151 -2.7506  0.7134  1.5885
 9388SOL    HW239801   4.172   2.025   7.144  0.5265 -0.6746  3.1057
 9389SOL     OW39802   2.282   3.597  10.501 -0.0793 -0.7522  0.2657
 9389SOL    HW139803   2.316   3.607  10.412  0.2335 -0.7289  0.3899
 9389SOL    HW239804   2.262   3.687  10.526 -1.4099 -0.9378 -0.1248
 9390SOL     OW39805   2.860   3.925   5.081  0.5346 -0.0490  0.2957
 9390SOL    HW139806   2.824   4.003   5.123  2.2617 -0.4095  2.4591
 9390SOL    HW239807   2.783   3.869   5.094  0.6125 -0.1498  0.3146
 9391SOL     OW39808   0.175   2.647  16.049  0.1935 -0.2145  0.4554
 9391SOL    HW139809   0.080   2.653  16.040  0.1968 -1.0438 -0.1010
 9391SOL    HW239810   0.201   2.738  16.036  1.3620 -0.1239  3.2520
 9392SOL     OW39811   1.720   3.814   6.949  0.6690  0.1864 -0.2886
 9392SOL    HW139812   1.678   3.872   6.885 -1.1537 -0.6862  0.0879
 9392SOL    HW239813   1.672   3.734   6.928 -2.1847  1.6840  0.4324
 9393SOL     OW39814   1.750   3.062   6.256 -0.2887  0.4367  0.1562
 9393SOL    HW139815   1.683   3.019   6.202 -1.2434  1.4871  0.5105
 9393SOL    HW239816   1.700   3.081   6.336  1.0620 -0.4709  1.2200
 9394SOL     OW39817   1.513   3.019   5.142  0.1953 -0.1657 -0.2674
 9394SOL    HW139818   1.478   3.093   5.190  0.9672  0.0131  0.0153
 9394SOL    HW239819   1.466   2.943   5.176 -1.5725  2.4360  3.0078
 9395SOL     OW39820   0.864   2.577   5.791 -0.0634 -0.2289 -0.1615
 9395SOL    HW139821   0.812   2.607   5.716  0.1447 -0.2344 -0.3104
 9395SOL    HW239822   0.943   2.629   5.774  0.7470 -0.7581  2.0699
 9396SOL     OW39823   2.136   2.502   7.896  0.5632  0.4241  0.1989
 9396SOL    HW139824   2.051   2.470   7.865  0.0520  0.8083  1.2021
 9396SOL    HW239825   2.143   2.467   7.985  1.0178  0.1552  0.0598
 9397SOL     OW39826   0.819   1.276   6.887 -0.6429 -0.0899 -0.0083
 9397SOL    HW139827   0.788   1.309   6.971 -0.8021  0.7541 -0.3987
 9397SOL    HW239828   0.826   1.355   6.834  0.5113  0.8156  1.5147
 9398SOL     OW39829   4.535   3.094   1.229  0.4416 -0.6066  0.4249
 9398SOL    HW139830   4.458   3.043   1.251  0.5803 -0.8984  0.2354
 9398SOL    HW239831   4.516   3.117   1.138 -2.2068 -0.2670  1.0717
 9399SOL     OW39832   1.512   2.490   3.766  0.0141 -0.0544 -0.1888
 9399SOL    HW139833   1.553   2.534   3.840 -0.0598 -2.7308  1.4152
 9399SOL    HW239834   1.497   2.406   3.809 -0.6564  0.2210  0.1050
 9400SOL     OW39835   0.678   4.570   2.227  0.1431  0.1064  0.1069
 9400SOL    HW139836   0.650   4.660   2.243 -0.1806  0.2130 -1.0426
 9400SOL    HW239837   0.601   4.518   2.205  0.9590 -1.8548  1.8664
 9401SOL     OW39838   2.141   4.139   6.170 -0.0147 -0.5557  0.8548
 9401SOL    HW139839   2.219   4.091   6.141 -0.3659 -0.4424 -0.2621
 9401SOL    HW239840   2.095   4.064   6.207 -0.5494 -0.3071  0.6968
 9402SOL     OW39841   0.920   4.431   5.478 -0.4587 -0.0478  0.1563
 9402SOL    HW139842   1.011   4.408   5.456 -0.0482  0.5472  1.2147
 9402SOL    HW239843   0.891   4.486   5.406  0.0573 -0.3246 -0.2627
 9403SOL     OW39844   4.361   1.215  17.332 -0.5867 -0.5334  0.9102
 9403SOL    HW139845   4.287   1.232  17.273 -0.8070 -1.9441  0.7956
 9403SOL    HW239846   4.418   1.285  17.299  0.6240 -0.6573  2.7491
 9404SOL     OW39847   3.866   1.296   2.447  0.8112 -0.0865 -0.4651
 9404SOL    HW139848   3.872   1.352   2.370 -1.0596 -0.2464 -0.7451
 9404SOL    HW239849   3.805   1.347   2.501 -0.7689 -0.5633 -1.7851
 9405SOL     OW39850   4.666   4.461  13.006  0.4400 -0.3385 -0.0660
 9405SOL    HW139851   4.574   4.479  13.024  0.3796  0.3511 -1.0594
 9405SOL    HW239852   4.692   4.456  13.098 -0.2897 -0.5195  0.1321
 9406SOL     OW39853   4.701   1.856   0.900  0.2016 -0.8810 -0.3673
 9406SOL    HW139854   4.652   1.790   0.950 -0.5317  0.9924  1.3771
 9406SOL    HW239855   4.682   1.924   0.965  0.4295  0.3254 -1.5706
 9407SOL     OW39856   3.840   4.256   3.304 -0.1919  0.0374  0.2364
 9407SOL    HW139857   3.779   4.280   3.374  0.7822  2.6885  0.1723
 9407SOL    HW239858   3.922   4.262   3.353 -0.1205  2.3578 -0.1571
 9408SOL     OW39859   3.454   1.904   4.266  0.2958 -0.0387  0.1646
 9408SOL    HW139860   3.528   1.861   4.309  0.0615 -1.0923 -0.4660
 9408SOL    HW239861   3.498   1.984   4.237 -0.6525  0.6712  0.7169
 9409SOL     OW39862   0.058   1.007   7.946 -0.1017 -0.0862 -0.1881
 9409SOL    HW139863   0.052   1.048   7.860  2.0736 -3.8989 -2.1516
 9409SOL    HW239864   4.714   1.036   7.988  0.7235  1.0683  0.6064
 9410SOL     OW39865   3.941   1.998   9.549 -0.1677  0.0496  0.3348
 9410SOL    HW139866   3.986   2.026   9.629  0.1977  1.7631 -0.4846
 9410SOL    HW239867   3.854   1.975   9.583 -0.7177 -0.2492 -1.3000
 9411SOL     OW39868   4.193   1.771   8.832 -0.8468 -0.1889 -0.3427
 9411SOL    HW139869   4.129   1.719   8.783  1.0391 -2.4337 -0.4118
 9411SOL    HW239870   4.167   1.739   8.918 -0.2471  1.1006  0.3221
 9412SOL     OW39871   3.567   2.392   8.028 -0.1354 -0.0042  0.3778
 9412SOL    HW139872   3.628   2.357   8.094 -1.1482 -0.4872  1.0478
 9412SOL    HW239873   3.597   2.483   8.030  0.8260 -0.2789 -0.9210
 9413SOL     OW39874   2.958   2.952  14.592  0.2162  0.0017 -0.2756
 9413SOL    HW139875   2.888   2.955  14.526 -0.6914 -1.1985  0.6169
 9413SOL    HW239876   2.910   2.895  14.653 -0.4899  2.2855  1.2755
 9414SOL     OW39877   1.093   3.528  16.707 -1.0348 -0.3748 -0.2038
 9414SOL    HW139878   1.019   3.509  16.765 -1.5363  0.1078 -0.6886
 9414SOL    HW239879   1.044   3.533  16.626 -0.1766 -0.6977 -0.7484
 9415SOL     OW39880   1.659   2.593   4.876 -0.0243  0.2606 -0.2875
 9415SOL    HW139881   1.722   2.570   4.807  2.1381 -0.1831  1.8255
 9415SOL    HW239882   1.701   2.663   4.926 -2.2275  0.3440  1.4049
 9416SOL     OW39883   1.571   1.934   2.318  0.5561  0.4459 -0.0646
 9416SOL    HW139884   1.544   1.952   2.408  2.0056 -0.7680  0.6251
 9416SOL    HW239885   1.580   1.839   2.318  0.3312  0.4232 -0.0032
 9417SOL     OW39886   2.188   0.190   4.626 -0.2998 -0.2413 -0.1315
 9417SOL    HW139887   2.242   0.121   4.587  0.2925  0.7790 -1.1058
 9417SOL    HW239888   2.119   0.137   4.667  0.8275  0.5092  2.7765
 9418SOL     OW39889   2.279   2.051   8.708  0.1885 -0.0842  0.3393
 9418SOL    HW139890   2.358   2.010   8.743  2.5417  1.6110 -3.0259
 9418SOL    HW239891   2.323   2.099   8.638  1.4092 -0.7226  0.6719
 9419SOL     OW39892   3.584   2.123  14.988  0.1111 -0.1683  0.4339
 9419SOL    HW139893   3.606   2.031  15.000  2.9321  0.3885 -0.5091
 9419SOL    HW239894   3.671   2.162  14.985  0.3132 -0.7515 -1.2320
 9420SOL     OW39895   1.144   4.527   2.524 -0.2455  0.7733 -0.3262
 9420SOL    HW139896   1.055   4.552   2.551 -0.9137 -0.5937 -1.2661
 9420SOL    HW239897   1.140   4.529   2.428  1.5325  3.1991 -0.3273
 9421SOL     OW39898   2.584   1.393   1.803 -0.6527  0.1979  0.1657
 9421SOL    HW139899   2.661   1.336   1.806 -0.0707  0.9325 -1.3246
 9421SOL    HW239900   2.574   1.399   1.898  1.5193 -1.0023  0.4659
 9422SOL     OW39901   2.256   3.336   2.788 -0.3155 -0.0104  0.4762
 9422SOL    HW139902   2.332   3.386   2.819 -0.5909  0.9417 -0.3856
 9422SOL    HW239903   2.208   3.410   2.751 -0.9142  0.7103  2.6706
 9423SOL     OW39904   2.595   1.286   8.728  0.0568 -0.1912 -0.1540
 9423SOL    HW139905   2.657   1.313   8.661  0.1893 -0.8376 -0.2930
 9423SOL    HW239906   2.613   1.343   8.803 -0.0080  1.7828 -1.6275
 9424SOL     OW39907   3.266   1.701  13.629 -0.5298 -0.3792 -0.1495
 9424SOL    HW139908   3.242   1.609  13.632 -2.2073  0.1049  1.3091
 9424SOL    HW239909   3.256   1.724  13.721  2.6525 -0.7805  0.2819
 9425SOL     OW39910   0.989   3.181   9.864 -0.1726 -0.0801 -0.2732
 9425SOL    HW139911   0.954   3.230   9.790 -0.8985  0.3880  0.3720
 9425SOL    HW239912   0.916   3.195   9.925 -0.5351  3.2015 -1.4847
 9426SOL     OW39913   4.384   1.634   4.021 -0.4510  0.0482  0.3765
 9426SOL    HW139914   4.400   1.588   4.103  0.5992  0.3701  0.3545
 9426SOL    HW239915   4.293   1.611   4.004 -0.2995  0.7816 -1.4025
 9427SOL     OW39916   3.359   0.921   5.184  1.0028  0.2241  0.2000
 9427SOL    HW139917   3.285   0.887   5.133 -0.1274 -2.5736  3.7122
 9427SOL    HW239918   3.428   0.938   5.120  0.8852 -0.7555 -0.1837
 9428SOL     OW39919   1.693   2.878   4.377  0.1914  0.4496 -0.2709
 9428SOL    HW139920   1.660   2.874   4.287  1.0984 -0.6940 -0.5601
 9428SOL    HW239921   1.618   2.902   4.431 -0.9532 -0.5557 -1.4242
 9429SOL     OW39922   3.110   1.396  13.167 -0.1995  0.0212  0.2848
 9429SOL    HW139923   3.170   1.375  13.239  2.1470  2.0520 -1.0746
 9429SOL    HW239924   3.156   1.476  13.142  0.8845  0.4188  3.4658
 9430SOL     OW39925   4.086   2.804   8.732 -0.2128  0.0501 -0.3940
 9430SOL    HW139926   4.036   2.730   8.767 -0.1457 -0.5248 -1.5323
 9430SOL    HW239927   4.163   2.807   8.790  0.1475  0.5276 -0.9011
 9431SOL     OW39928   0.515   0.067  14.235 -0.4529  0.2259  0.4068
 9431SOL    HW139929   0.480   4.717  14.217  0.4782 -0.3564  1.4502
 9431SOL    HW239930   0.565   0.082  14.154  1.3830 -0.5122  1.4079
 9432SOL     OW39931   1.232   3.220  15.732  0.0061 -0.1518  1.0057
 9432SOL    HW139932   1.137   3.232  15.739  0.0181  0.6509 -0.2162
 9432SOL    HW239933   1.237   3.180  15.646  1.5732  1.3516  0.4061
 9433SOL     OW39934   3.603   2.418   1.188 -0.5092 -0.6632 -0.3472
 9433SOL    HW139935   3.629   2.432   1.097  1.2317  2.4363  0.6260
 9433SOL    HW239936   3.559   2.500   1.211  2.1045  0.4209  0.7240
 9434SOL     OW39937   2.380   0.468   6.421 -0.0551  0.4141 -0.0456
 9434SOL    HW139938   2.327   0.424   6.487 -0.2561 -1.1808 -1.2830
 9434SOL    HW239939   2.470   0.440   6.439 -0.7803 -2.9733 -1.7642
 9435SOL     OW39940   1.398   1.707   9.096 -0.4571  0.3905  0.5790
 9435SOL    HW139941   1.405   1.716   9.191 -1.6523  0.0753  0.6986
 9435SOL    HW239942   1.474   1.660   9.061  0.1164  0.6068  1.5101
 9436SOL     OW39943   3.334   1.466   3.129  0.2253  0.3823  0.0537
 9436SOL    HW139944   3.248   1.424   3.130 -0.0329  0.9322  1.1773
 9436SOL    HW239945   3.392   1.401   3.169  0.5706 -0.3313 -1.5995
 9437SOL     OW39946   2.951   4.707   1.867 -0.1330 -0.1833 -0.1514
 9437SOL    HW139947   2.921   4.631   1.916  0.7781 -0.5458 -0.1420
 9437SOL    HW239948   2.871   0.006   1.829  0.8830  0.7813 -1.4080
 9438SOL     OW39949   1.584   3.823   9.476 -0.1905  0.8129 -0.2200
 9438SOL    HW139950   1.600   3.898   9.418  2.9056  0.6534  0.3939
 9438SOL    HW239951   1.513   3.855   9.530 -0.5277  0.8321 -0.6750
 9439SOL     OW39952   4.280   1.565   4.823 -0.6739 -0.2103  0.4697
 9439SOL    HW139953   4.370   1.595   4.834 -0.7543 -0.0280  0.6302
 9439SOL    HW239954   4.286   1.531   4.734  3.7243 -1.2676  1.1989
 9440SOL     OW39955   3.042   4.392   3.772 -0.1780  0.5498 -0.1463
 9440SOL    HW139956   3.024   4.370   3.864 -0.9701  0.7711 -0.2546
 9440SOL    HW239957   2.969   4.342   3.734 -0.0742  1.5388 -1.6276
 9441SOL     OW39958   4.252   4.074   2.670 -0.0065  0.1473 -0.0888
 9441SOL    HW139959   4.220   4.164   2.656  0.6765  0.4515  0.3580
 9441SOL    HW239960   4.189   4.021   2.621 -0.0393  0.6746 -0.6181
 9442SOL     OW39961   1.756   1.508   7.755 -0.4142  0.1071 -0.1872
 9442SOL    HW139962   1.715   1.484   7.838  1.2055 -4.0073 -0.5928
 9442SOL    HW239963   1.701   1.479   7.682  3.4582 -4.8550 -1.1406
 9443SOL     OW39964   2.040   2.427   8.490  0.6226 -0.0189  0.0131
 9443SOL    HW139965   2.107   2.377   8.536  0.7037  1.9681  2.0802
 9443SOL    HW239966   1.967   2.413   8.551  0.3796 -1.1262 -0.5419
 9444SOL     OW39967   3.736   3.214   8.857 -0.4335 -0.1892  0.4088
 9444SOL    HW139968   3.779   3.245   8.936  2.8105 -1.1375 -0.9769
 9444SOL    HW239969   3.800   3.146   8.836  1.6482  1.6254  0.8905
 9445SOL     OW39970   0.933   4.166   8.822  0.6014  0.0629  0.3525
 9445SOL    HW139971   0.987   4.111   8.765  1.0707 -0.7412  1.5691
 9445SOL    HW239972   0.998   4.190   8.888 -0.3145 -1.8171  1.9656
 9446SOL     OW39973   2.908   0.340   9.573 -0.0477 -0.0266 -0.0423
 9446SOL    HW139974   2.834   0.328   9.633 -0.2404  0.5481 -0.1594
 9446SOL    HW239975   2.974   0.372   9.635  0.8974  0.3925 -1.2550
 9447SOL     OW39976   1.142   1.075   4.736  0.1313  0.1759 -0.5487
 9447SOL    HW139977   1.161   1.157   4.781  0.8803  0.1716 -0.8620
 9447SOL    HW239978   1.226   1.033   4.753 -0.1747 -0.0462  0.4109
 9448SOL     OW39979   1.970   4.023   1.345  0.2386  0.0393  0.1741
 9448SOL    HW139980   1.973   3.927   1.345 -0.4196  0.0089  3.3543
 9448SOL    HW239981   1.880   4.038   1.317 -0.1107  0.0211  1.2962
 9449SOL     OW39982   4.414   2.436   1.852 -0.6672 -0.0759 -0.1796
 9449SOL    HW139983   4.431   2.526   1.825  1.0740  0.2534  1.9878
 9449SOL    HW239984   4.320   2.423   1.852 -0.8849  1.4907  0.4817
 9450SOL     OW39985   4.636   0.711   7.837 -0.5328 -0.3934 -0.1522
 9450SOL    HW139986   4.665   0.621   7.827  2.4501  0.5374  0.1673
 9450SOL    HW239987   4.608   0.731   7.747 -0.7132 -0.1407 -0.0409
 9451SOL     OW39988   1.003   3.238   9.397 -0.7124 -0.6603  0.1720
 9451SOL    HW139989   1.024   3.147   9.375  2.9786  0.0664  0.6775
 9451SOL    HW239990   0.926   3.229   9.454  0.2416 -1.2285  1.3782
 9452SOL     OW39991   2.640   2.760  10.381 -0.0395 -0.1861 -0.2882
 9452SOL    HW139992   2.595   2.759  10.297  0.5175 -0.0604 -0.5902
 9452SOL    HW239993   2.580   2.705  10.431  0.5679 -0.4934  0.0989
 9453SOL     OW39994   4.264   4.031   2.305  0.4635 -0.0917  0.1359
 9453SOL    HW139995   4.248   4.123   2.283 -1.6299 -0.9709 -2.0061
 9453SOL    HW239996   4.203   4.018   2.377 -0.8581  0.6217 -0.8577
 9454SOL     OW39997   0.531   2.023   3.584 -0.1696  0.2407 -0.4098
 9454SOL    HW139998   0.577   2.107   3.585 -1.4020  0.9440 -1.5010
 9454SOL    HW239999   0.444   2.053   3.609  0.0776  0.1344  0.5734
 9455SOL     OW40000   1.845   0.774   9.092  0.0695 -0.2820 -0.2283
 9455SOL    HW140001   1.806   0.845   9.041 -0.1347  0.4853  0.9922
 9455SOL    HW240002   1.924   0.808   9.133  1.3200 -1.7249 -1.4335
 9456SOL     OW40003   2.954   4.624   2.209  0.0507  0.0893 -0.1486
 9456SOL    HW140004   2.980   4.566   2.280 -0.1602  0.1318 -0.0351
 9456SOL    HW240005   2.858   4.633   2.211 -0.2006 -1.7063 -3.2754
 9457SOL     OW40006   3.373   1.566   4.590  0.5601 -0.0843 -0.8411
 9457SOL    HW140007   3.436   1.610   4.648 -0.7518  0.5761  0.0970
 9457SOL    HW240008   3.294   1.611   4.621  0.5260  0.8333 -2.2361
 9458SOL     OW40009   4.166   4.265   6.734  0.8321 -0.2250  0.4278
 9458SOL    HW140010   4.152   4.284   6.827 -2.8536  2.3324 -0.6446
 9458SOL    HW240011   4.080   4.291   6.701  1.4654  1.0781 -0.1635
 9459SOL     OW40012   4.136   1.863   4.805 -0.5207  0.2716 -0.5459
 9459SOL    HW140013   4.176   1.807   4.872 -1.2357  0.7631  0.2927
 9459SOL    HW240014   4.054   1.895   4.842  0.4028 -1.0726  2.7575
 9460SOL     OW40015   2.888   2.465   1.655 -0.0041 -0.2383 -0.2362
 9460SOL    HW140016   2.890   2.449   1.749  0.2666 -1.6307 -0.4890
 9460SOL    HW240017   2.793   2.471   1.644  0.0644  1.6111  0.1272
 9461SOL     OW40018   0.842   4.349   8.564  0.4086  0.4052  0.1392
 9461SOL    HW140019   0.896   4.295   8.507 -2.9752 -0.8991 -1.8573
 9461SOL    HW240020   0.763   4.345   8.510 -0.2920 -1.6886  1.3095
 9462SOL     OW40021   1.976   2.648  11.526 -0.4466 -0.4158 -0.0541
 9462SOL    HW140022   1.915   2.721  11.537  1.9722  1.5402  0.5115
 9462SOL    HW240023   1.927   2.576  11.565 -1.4047  0.8693  1.1220
 9463SOL     OW40024   2.121   2.545  11.325 -0.0532  0.3299 -0.1006
 9463SOL    HW140025   2.048   2.571  11.381 -0.6467 -1.5403  0.0071
 9463SOL    HW240026   2.148   2.463  11.368  1.2063  1.5777  1.5016
 9464SOL     OW40027   3.458   3.733   7.426 -0.0484 -0.5547 -0.1699
 9464SOL    HW140028   3.471   3.765   7.337  0.1256  1.2435  0.5001
 9464SOL    HW240029   3.377   3.685   7.410 -0.9530  0.5075  1.2168
 9465SOL     OW40030   1.342   3.230   6.001  0.5436  0.0817 -0.7341
 9465SOL    HW140031   1.246   3.226   5.993  0.4451 -0.3016  0.5979
 9465SOL    HW240032   1.361   3.137   5.999  0.1006  0.0233 -2.0321
 9466SOL     OW40033   3.750   2.212  11.244  0.3843  0.1933 -0.2064
 9466SOL    HW140034   3.741   2.280  11.177  1.6100  0.6762  0.1223
 9466SOL    HW240035   3.810   2.254  11.306 -1.5488 -0.9491  2.4672
 9467SOL     OW40036   0.209   1.364   8.541  0.0980  0.3087  0.2999
 9467SOL    HW140037   0.135   1.413   8.577 -1.1449 -0.9249 -0.5830
 9467SOL    HW240038   0.280   1.407   8.589  1.1654 -0.9308 -0.1714
 9468SOL     OW40039   1.485   3.463   7.112 -0.3364  0.5041  0.1911
 9468SOL    HW140040   1.396   3.452   7.078 -0.5828 -0.7725  1.2477
 9468SOL    HW240041   1.482   3.378   7.155 -1.2320 -0.8477 -2.5527
 9469SOL     OW40042   3.132   2.023   7.647  0.5420  0.1572 -0.0712
 9469SOL    HW140043   3.175   2.059   7.570  1.1025  0.2658  0.2922
 9469SOL    HW240044   3.045   2.062   7.637 -0.0408 -1.7142 -2.2529
 9470SOL     OW40045   2.736   0.105   1.765  0.3828  0.3663 -0.0999
 9470SOL    HW140046   2.679   0.100   1.689  2.0015  2.7460 -1.4515
 9470SOL    HW240047   2.677   0.103   1.840 -0.7419 -0.5546 -1.0171
 9471SOL     OW40048   4.367   2.733  15.976  0.1203  0.0576  0.0756
 9471SOL    HW140049   4.405   2.785  16.047 -3.6818  0.5372  1.7755
 9471SOL    HW240050   4.312   2.794  15.928  0.8684 -0.4195 -1.3758
 9472SOL     OW40051   0.560   4.039  16.886 -0.3510  0.0015  0.0875
 9472SOL    HW140052   0.513   3.957  16.902 -1.0153  0.2330 -0.6751
 9472SOL    HW240053   0.486   4.097  16.867 -0.8360 -1.1684 -1.6531
 9473SOL     OW40054   1.610   3.348   9.058 -0.4532 -0.1615 -0.0551
 9473SOL    HW140055   1.576   3.328   8.971  2.3524  0.4968 -1.2902
 9473SOL    HW240056   1.648   3.434   9.044  0.4211 -0.2697  1.6161
 9474SOL     OW40057   2.206   2.853   5.188 -0.1405 -0.1731 -0.1689
 9474SOL    HW140058   2.175   2.807   5.266  0.0117 -1.1825 -0.7075
 9474SOL    HW240059   2.120   2.872   5.151  0.6465  0.6659 -1.5607
 9475SOL     OW40060   3.963   4.576   0.385  0.7827  0.0791  0.8958
 9475SOL    HW140061   3.891   4.637   0.373  0.0545 -1.2335 -1.3143
 9475SOL    HW240062   3.995   4.611   0.469 -0.8791  0.8987  1.1921
 9476SOL     OW40063   2.785   1.112  11.976  0.2592  0.1776  0.0952
 9476SOL    HW140064   2.712   1.167  11.948  1.3141  1.3298 -0.4076
 9476SOL    HW240065   2.771   1.036  11.920 -2.4581 -0.6610  1.9217
 9477SOL     OW40066   2.593   0.789   2.035 -0.0900  0.7950  0.0604
 9477SOL    HW140067   2.570   0.802   1.943 -1.3810  1.2450  0.4433
 9477SOL    HW240068   2.668   0.736   2.011 -0.2620 -0.3429  2.0806
 9478SOL     OW40069   3.035   2.335   9.169 -0.5543  0.3222 -0.4220
 9478SOL    HW140070   3.109   2.373   9.216 -0.1897 -0.6544 -0.2014
 9478SOL    HW240071   3.072   2.256   9.129  1.7194  0.9326  0.4803
 9479SOL     OW40072   2.107   0.443  10.912 -0.1065 -0.4062 -0.3175
 9479SOL    HW140073   2.125   0.379  10.980  0.3663 -3.2742 -3.1563
 9479SOL    HW240074   2.177   0.508  10.914  0.3603 -0.9799  2.2438
 9480SOL     OW40075   1.088   3.351   7.733 -0.2947  0.3880 -0.2834
 9480SOL    HW140076   1.077   3.271   7.785 -1.1308 -0.4950 -1.8428
 9480SOL    HW240077   1.032   3.412   7.781 -2.3512 -0.3038 -1.7928
 9481SOL     OW40078   1.628   3.843   2.471 -0.3942 -0.1312 -0.1725
 9481SOL    HW140079   1.576   3.906   2.521 -1.3237  0.1674 -1.4865
 9481SOL    HW240080   1.582   3.759   2.475 -2.1687  0.8706  0.5320
 9482SOL     OW40081   2.415   3.416   0.223  0.2029  0.6697 -0.1947
 9482SOL    HW140082   2.340   3.403   0.281  2.7499  2.4374  3.4609
 9482SOL    HW240083   2.465   3.486   0.264 -0.5600 -0.0796  2.0230
 9483SOL     OW40084   4.698   3.358   7.824  0.2154  0.4520 -0.0618
 9483SOL    HW140085   0.051   3.329   7.811  0.4791  0.9410  0.6596
 9483SOL    HW240086   4.707   3.450   7.796 -1.7138 -0.3439 -3.3759
 9484SOL     OW40087   4.662   1.949  12.830  0.8614  0.4067 -0.6343
 9484SOL    HW140088   0.013   1.912  12.837 -0.4107 -2.5277  0.0073
 9484SOL    HW240089   4.606   1.873  12.848 -0.1956  0.9127 -1.7924
 9485SOL     OW40090   1.685   0.312   7.631 -0.0060  0.0378 -0.0115
 9485SOL    HW140091   1.629   0.236   7.615  0.1448  0.1789 -1.2277
 9485SOL    HW240092   1.771   0.289   7.596  0.5790  1.0430  0.7868
 9486SOL     OW40093   0.069   0.591   4.292  0.4358  0.8324 -0.4566
 9486SOL    HW140094   0.022   0.564   4.371 -0.4823  3.8942  0.0221
 9486SOL    HW240095   0.147   0.638   4.322 -0.2966  2.6469 -1.4322
 9487SOL     OW40096   2.876   3.469   5.830 -0.3169  0.1009  0.2948
 9487SOL    HW140097   2.924   3.424   5.899  0.1498  1.0337  0.5742
 9487SOL    HW240098   2.810   3.407   5.797 -0.1376  0.1830 -0.2142
 9488SOL     OW40099   3.384   3.997   2.095 -0.0067  0.2568 -0.9572
 9488SOL    HW140100   3.476   3.980   2.117 -0.7124  1.8995  3.1520
 9488SOL    HW240101   3.353   3.933   2.158 -1.2529  0.1683 -1.6558
 9489SOL     OW40102   3.663   1.376  16.588  0.5350  0.0771 -0.1589
 9489SOL    HW140103   3.715   1.370  16.508 -0.9408 -1.2806 -1.0214
 9489SOL    HW240104   3.726   1.416  16.649 -0.8698  1.2400  0.5483
 9490SOL     OW40105   2.054   3.817   2.988 -0.4953 -0.0530  0.1906
 9490SOL    HW140106   1.971   3.863   2.981 -2.4168 -4.0272 -3.2570
 9490SOL    HW240107   2.117   3.871   2.940  1.1287 -2.1328 -0.0353
 9491SOL     OW40108   2.880   3.828   8.139 -0.4387  0.4119 -0.0972
 9491SOL    HW140109   2.828   3.904   8.167 -2.0832 -0.0007 -1.9388
 9491SOL    HW240110   2.831   3.751   8.169  1.1240 -0.2938  0.6593
 9492SOL     OW40111   3.265   4.235   8.829 -0.2472 -0.2053 -0.6562
 9492SOL    HW140112   3.321   4.227   8.906  0.2343 -3.9112 -1.4049
 9492SOL    HW240113   3.201   4.302   8.854  0.3604  0.3756 -0.6561
 9493SOL     OW40114   2.946   0.412   0.503 -0.2950  0.1418 -0.7065
 9493SOL    HW140115   2.915   0.354   0.433 -2.6657 -1.8852  1.9958
 9493SOL    HW240116   2.880   0.481   0.507  0.6099  0.9990 -0.6205
 9494SOL     OW40117   1.423   1.195   4.494 -0.2395  0.0498 -0.2476
 9494SOL    HW140118   1.437   1.255   4.567 -1.3868 -0.4415  0.3736
 9494SOL    HW240119   1.380   1.264   4.444 -0.7835  0.4247  0.7484
 9495SOL     OW40120   2.650   1.137  12.645  0.4554  0.1249  0.1696
 9495SOL    HW140121   2.712   1.205  12.671  0.1078 -0.0311  1.3957
 9495SOL    HW240122   2.604   1.135  12.728  0.5642  1.4452  0.2527
 9496SOL     OW40123   1.086   1.671   5.347 -0.1840  0.1461  0.0056
 9496SOL    HW140124   1.063   1.686   5.438  1.6088  1.3791  0.2534
 9496SOL    HW240125   1.033   1.596   5.319  1.5391 -1.3004  0.5788
 9497SOL     OW40126   0.569   1.883   6.987 -0.7223 -0.3230 -0.3661
 9497SOL    HW140127   0.549   1.897   6.894 -1.8057 -0.9751 -0.2327
 9497SOL    HW240128   0.525   1.799   7.003 -1.4235  0.2904  0.8906
 9498SOL     OW40129   1.181   1.196   2.394  1.0379 -0.3355 -0.1270
 9498SOL    HW140130   1.161   1.280   2.354  0.0812 -0.6119 -0.2178
 9498SOL    HW240131   1.095   1.168   2.424 -0.5507  1.7869 -2.7014
 9499SOL     OW40132   4.521   2.980   3.701  0.0298 -0.1073 -0.2489
 9499SOL    HW140133   4.456   2.977   3.770  0.9713  0.1142  0.6470
 9499SOL    HW240134   4.472   3.038   3.643 -0.5806  0.0471  0.4245
 9500SOL     OW40135   3.065   1.008   1.414  0.9266  0.1642  0.1062
 9500SOL    HW140136   2.985   1.038   1.456  0.9710  2.8227 -1.6867
 9500SOL    HW240137   3.032   0.967   1.334 -2.1770  0.3108  1.3237
 9501SOL     OW40138   1.247   3.605   4.134  0.4976 -0.4174  0.2866
 9501SOL    HW140139   1.167   3.623   4.183  0.9792  0.8718  0.5918
 9501SOL    HW240140   1.313   3.655   4.183  1.9391 -0.4169 -1.6623
 9502SOL     OW40141   1.820   4.646  14.872 -0.0622 -0.3624  0.7223
 9502SOL    HW140142   1.831   4.656  14.778  0.4204  0.2784  0.8431
 9502SOL    HW240143   1.903   4.608  14.901 -0.6032 -0.9235  1.5173
 9503SOL     OW40144   2.539   2.827  14.818 -0.4221 -0.2877 -0.4237
 9503SOL    HW140145   2.603   2.766  14.782 -0.6695 -0.8841  0.1590
 9503SOL    HW240146   2.534   2.897  14.753 -1.5364  0.6762  0.6919
 9504SOL     OW40147   1.782   1.901  14.045  0.1294  0.0533 -0.7279
 9504SOL    HW140148   1.769   1.990  14.076  3.1831  0.0379  0.6230
 9504SOL    HW240149   1.698   1.860  14.064  0.0861  0.9003  0.9562
 9505SOL     OW40150   2.412   2.309  12.547  0.4469  0.4468  0.0273
 9505SOL    HW140151   2.462   2.379  12.590  2.0911 -0.3323 -0.6291
 9505SOL    HW240152   2.440   2.333  12.459 -0.0344 -0.6632 -0.4267
 9506SOL     OW40153   4.011   0.655   4.756 -0.8721 -0.1807 -0.3880
 9506SOL    HW140154   3.993   0.580   4.814  1.3776 -0.4723 -0.0437
 9506SOL    HW240155   4.042   0.724   4.814 -1.8763  1.1365 -1.4375
 9507SOL     OW40156   2.248   0.535  16.748  0.2996  0.7424  0.1395
 9507SOL    HW140157   2.287   0.448  16.739 -1.0150  0.3757 -2.1060
 9507SOL    HW240158   2.277   0.548  16.838 -1.8219  0.0946  0.8995
 9508SOL     OW40159   4.543   1.403   8.875 -0.2906  0.3030  0.0441
 9508SOL    HW140160   4.464   1.426   8.923  0.4346  0.8273  1.0019
 9508SOL    HW240161   4.564   1.319   8.914 -0.0766  0.5984  0.5608
 9509SOL     OW40162   1.112   0.105   7.453  0.6231 -0.4580  0.4028
 9509SOL    HW140163   1.124   0.119   7.547  0.2774 -5.7814  1.2700
 9509SOL    HW240164   1.188   0.154   7.423  1.7251 -1.2612  1.8864
 9510SOL     OW40165   2.983   1.140   3.423  0.2045 -0.0942 -0.1224
 9510SOL    HW140166   3.068   1.115   3.388  0.8086  0.4225  0.9594
 9510SOL    HW240167   2.963   1.226   3.386  1.0062  0.0302 -0.2627
 9511SOL     OW40168   3.091   2.012   6.821  0.4919 -0.2086 -0.5346
 9511SOL    HW140169   3.038   1.998   6.899 -0.0129 -1.5854 -1.1246
 9511SOL    HW240170   3.139   1.930   6.821  1.2189  0.2315  0.7121
 9512SOL     OW40171   1.728   1.933   3.320  0.2373  0.0855 -0.1934
 9512SOL    HW140172   1.759   2.023   3.313  1.1665 -0.2542 -0.5264
 9512SOL    HW240173   1.712   1.921   3.413 -0.5868  2.8351  0.0151
 9513SOL     OW40174   4.447   4.640   3.841 -0.1147  0.0685  0.1472
 9513SOL    HW140175   4.426   4.548   3.825  1.2232 -0.0942 -0.6815
 9513SOL    HW240176   4.506   4.619   3.913 -0.5648  0.5669  0.6623
 9514SOL     OW40177   1.942   2.325   1.353 -0.3220  0.4781  0.3862
 9514SOL    HW140178   1.965   2.253   1.294 -0.6304  1.2481 -0.6888
 9514SOL    HW240179   1.848   2.333   1.335 -0.0951 -0.2230 -1.0853
 9515SOL     OW40180   0.539   4.182   4.988 -0.3759 -0.3380 -0.0096
 9515SOL    HW140181   0.617   4.133   5.015 -1.0135 -1.1863  0.2795
 9515SOL    HW240182   0.574   4.236   4.917  1.2348 -0.0717  0.9843
 9516SOL     OW40183   2.696   2.830   8.320  0.1412  0.5738 -0.1072
 9516SOL    HW140184   2.738   2.905   8.362  0.6189 -0.9897  2.2079
 9516SOL    HW240185   2.657   2.786   8.396  2.3879 -1.0682  0.1060
 9517SOL     OW40186   0.588   4.582   1.867  0.0600 -0.3239  0.1187
 9517SOL    HW140187   0.681   4.576   1.846  0.1712 -1.4307  0.9557
 9517SOL    HW240188   0.558   4.644   1.800 -1.0292 -1.5339 -0.4911
 9518SOL     OW40189   4.186   0.419   2.571  0.4398  0.0882 -0.3623
 9518SOL    HW140190   4.186   0.487   2.504 -1.1060 -0.9377 -1.4122
 9518SOL    HW240191   4.253   0.362   2.535  0.6593 -0.7586  1.3952
 9519SOL     OW40192   0.470   4.493   8.551 -0.0748  0.2771 -0.9234
 9519SOL    HW140193   0.516   4.418   8.589  2.0251  1.4111 -1.1995
 9519SOL    HW240194   0.384   4.454   8.540 -0.5299  1.4825 -1.6313
 9520SOL     OW40195   4.171   2.448  13.851 -0.3136 -0.2650  0.1438
 9520SOL    HW140196   4.109   2.504  13.803  0.6722  1.1898  0.5674
 9520SOL    HW240197   4.243   2.445  13.788  1.0437  2.8143  1.5575
 9521SOL     OW40198   0.169   1.193   3.729 -0.7004 -0.7108  0.1069
 9521SOL    HW140199   0.161   1.166   3.637  0.2578  0.1746 -0.2334
 9521SOL    HW240200   0.252   1.239   3.739 -0.3869 -1.2681  0.0917
 9522SOL     OW40201   1.312   0.364   4.071 -0.5247  0.1878 -0.7636
 9522SOL    HW140202   1.332   0.273   4.052 -1.3034  0.4699 -2.9107
 9522SOL    HW240203   1.314   0.401   3.982 -0.8734  2.6386  0.2410
 9523SOL     OW40204   2.798   0.439   1.957  0.0063  0.6415  0.1153
 9523SOL    HW140205   2.705   0.442   1.981 -0.8205  3.6628 -3.4648
 9523SOL    HW240206   2.836   0.358   1.990  1.0558  1.4321  0.8131
 9524SOL     OW40207   4.042   1.061   7.168 -0.0971 -0.0177 -0.4077
 9524SOL    HW140208   3.982   1.001   7.124 -2.8423  1.7130  0.9649
 9524SOL    HW240209   3.976   1.116   7.212  0.0396 -0.6040  0.5314
 9525SOL     OW40210   1.413   1.078   2.129  0.1594 -0.0625  0.6960
 9525SOL    HW140211   1.365   1.030   2.063  0.3470  0.4434  0.1952
 9525SOL    HW240212   1.384   1.168   2.115  0.8595  0.5111  2.8356
 9526SOL     OW40213   0.335   2.406   7.017 -0.0478  0.4178 -0.3669
 9526SOL    HW140214   0.245   2.427   7.040  0.6554  0.8595  1.9918
 9526SOL    HW240215   0.357   2.450   6.935 -0.4636  0.9409 -0.1969
 9527SOL     OW40216   4.040   3.180   7.160  0.2564 -0.5980  0.4566
 9527SOL    HW140217   3.998   3.149   7.240  0.5619 -0.0170  0.8398
 9527SOL    HW240218   4.003   3.267   7.142 -0.5618 -1.2413 -0.9798
 9528SOL     OW40219   1.999   3.991   8.245 -0.4769  0.2149 -0.1046
 9528SOL    HW140220   1.942   3.964   8.173 -1.3125  1.6787  0.0111
 9528SOL    HW240221   2.078   3.937   8.235 -0.8805 -0.5338  0.7275
 9529SOL     OW40222   2.168   2.150   4.919 -0.3350  0.0927 -0.0052
 9529SOL    HW140223   2.124   2.216   4.867 -0.1774  0.7599  0.7101
 9529SOL    HW240224   2.146   2.068   4.874  0.7740  0.7672 -1.7608
 9530SOL     OW40225   3.994   3.779   7.855 -0.6009 -0.1358 -0.0350
 9530SOL    HW140226   4.013   3.869   7.829  1.9208 -0.8294 -0.5833
 9530SOL    HW240227   4.081   3.741   7.846 -0.2737  0.8781 -1.1544
 9531SOL     OW40228   3.124   0.715  16.879 -0.7422  0.2833  0.2403
 9531SOL    HW140229   3.102   0.622  16.870 -0.2219  0.2152 -0.2905
 9531SOL    HW240230   3.147   0.739  16.790  0.3069  0.1726  0.4860
 9532SOL     OW40231   2.238   1.442  11.837 -0.5801  0.1725 -0.3227
 9532SOL    HW140232   2.297   1.377  11.799  0.3248  1.3342 -0.8891
 9532SOL    HW240233   2.301   1.472  11.903 -1.3180  0.1349  0.4128
 9533SOL     OW40234   1.763   2.094   5.440  0.0048  0.2884  0.0382
 9533SOL    HW140235   1.787   2.008   5.405  1.3707  0.4655  0.5407
 9533SOL    HW240236   1.843   2.114   5.489  0.4953  1.5117 -1.2562
 9534SOL     OW40237   3.116   1.603  11.316  0.4693 -0.3048  0.5541
 9534SOL    HW140238   3.025   1.610  11.289  0.1332 -1.2018  1.4091
 9534SOL    HW240239   3.130   1.509  11.306  1.3020 -0.0449 -0.6387
 9535SOL     OW40240   3.546   1.271   3.670  0.3215  0.2584  0.4588
 9535SOL    HW140241   3.527   1.322   3.749  0.6134  1.9856 -0.5815
 9535SOL    HW240242   3.605   1.204   3.703 -0.6231  0.6299  2.9670
 9536SOL     OW40243   0.244   0.063   2.199  0.0172 -0.2344 -0.2662
 9536SOL    HW140244   0.247   4.715   2.241 -0.5029 -0.6877 -1.1485
 9536SOL    HW240245   0.288   0.061   2.114  0.9334  1.1449  0.1852
 9537SOL     OW40246   1.222   2.544   9.688 -0.3802  0.1851  0.3724
 9537SOL    HW140247   1.303   2.513   9.647 -2.1747 -1.8260 -1.6121
 9537SOL    HW240248   1.203   2.467   9.741 -3.7328  1.6029  1.2682
 9538SOL     OW40249   3.730   2.865   8.321 -0.6349  0.4694  0.5535
 9538SOL    HW140250   3.751   2.922   8.395 -0.9682  0.8941  0.3276
 9538SOL    HW240251   3.733   2.932   8.252 -0.2011 -0.9831 -0.8556
 9539SOL     OW40252   2.065   3.567   2.894 -0.4350  0.5529  0.2375
 9539SOL    HW140253   2.061   3.587   2.800 -0.2931  1.2331  0.3792
 9539SOL    HW240254   2.054   3.651   2.938 -1.2181  1.1290 -1.0598
 9540SOL     OW40255   1.501   4.633   1.181  0.0266 -0.6199  0.3063
 9540SOL    HW140256   1.427   4.678   1.140  1.7736  0.2048 -1.9443
 9540SOL    HW240257   1.541   4.711   1.219 -1.4764  0.6984 -0.8766
 9541SOL     OW40258   3.486   1.436   6.423 -0.6667 -0.0301  0.1286
 9541SOL    HW140259   3.521   1.389   6.499 -0.1580  1.1235  0.6190
 9541SOL    HW240260   3.422   1.488   6.471  2.1434  0.3284  3.5394
 9542SOL     OW40261   2.094   0.941   7.622  0.5128 -0.0036 -0.8336
 9542SOL    HW140262   2.096   0.933   7.526  2.2816  1.1122 -0.8820
 9542SOL    HW240263   2.008   0.906   7.645  1.2359 -1.0786  0.2538
 9543SOL     OW40264   0.919   4.128   2.523  0.1729  0.3393  0.1782
 9543SOL    HW140265   0.938   4.173   2.606  4.1845 -1.4102  0.2143
 9543SOL    HW240266   0.905   4.203   2.465  2.2112  0.8727  0.3718
 9544SOL     OW40267   0.959   3.221   5.503  0.1167 -0.0164  0.7248
 9544SOL    HW140268   0.925   3.171   5.429 -3.6072  1.6269  1.3257
 9544SOL    HW240269   0.898   3.294   5.510  0.7532  0.5657  0.1385
 9545SOL     OW40270   3.926   0.733   6.627 -0.2588 -0.0287 -0.9072
 9545SOL    HW140271   3.929   0.726   6.722 -0.7115 -1.2673 -0.9829
 9545SOL    HW240272   3.955   0.824   6.615 -1.0139  0.5415  1.5358
 9546SOL     OW40273   0.274   3.770  15.510  0.0879  0.1360  0.0705
 9546SOL    HW140274   0.198   3.711  15.517  0.3822 -0.1810  0.5433
 9546SOL    HW240275   0.238   3.856  15.489  1.5707  0.9486  0.8595
 9547SOL     OW40276   3.155   2.285  15.511 -0.2782 -0.7626  0.2786
 9547SOL    HW140277   3.098   2.283  15.434  0.3372 -0.4819 -0.1912
 9547SOL    HW240278   3.086   2.265  15.574 -2.8684  0.2224 -2.2221
 9548SOL     OW40279   1.366   0.115   6.823 -0.1295  0.2276 -0.2949
 9548SOL    HW140280   1.306   0.123   6.897 -0.3479 -0.7004 -0.3676
 9548SOL    HW240281   1.429   0.184   6.841 -0.0751 -0.0483  0.5692
 9549SOL     OW40282   0.209   2.697   9.895  0.1737  0.6141  0.0084
 9549SOL    HW140283   0.164   2.753   9.959 -1.0073 -1.0615  0.6559
 9549SOL    HW240284   0.163   2.616   9.918 -0.7838  0.6750 -1.6836
 9550SOL     OW40285   0.595   4.286   8.691  0.2229  0.0285  0.1398
 9550SOL    HW140286   0.652   4.211   8.710  1.8979  0.8731 -1.5615
 9550SOL    HW240287   0.608   4.334   8.773 -2.2900  1.3984 -0.2724
 9551SOL     OW40288   0.084   4.550   0.461 -0.3966 -0.3334  0.3896
 9551SOL    HW140289   0.009   4.494   0.478 -0.6101 -0.5549 -1.3177
 9551SOL    HW240290   0.053   4.594   0.382  0.7712  1.6239  1.0242
 9552SOL     OW40291   3.883   1.643   8.134  0.5851 -0.2761  0.0185
 9552SOL    HW140292   3.920   1.554   8.137  0.4173 -0.4146 -2.1065
 9552SOL    HW240293   3.928   1.659   8.051  0.5581  0.8002  0.2212
 9553SOL     OW40294   3.322   0.898  11.192 -0.0858 -0.5947 -0.6929
 9553SOL    HW140295   3.263   0.930  11.261  0.9034 -1.3879  0.5412
 9553SOL    HW240296   3.377   0.836  11.242  0.3025  0.6792  0.4711
 9554SOL     OW40297   4.181   3.604  14.682  0.1049  0.3671 -0.2756
 9554SOL    HW140298   4.119   3.603  14.755  0.4858 -0.7477  0.0407
 9554SOL    HW240299   4.205   3.696  14.687  1.3865  0.0019  0.4078
 9555SOL     OW40300   2.126   2.672   3.762  0.2366  0.2116  0.6708
 9555SOL    HW140301   2.124   2.715   3.848  0.6982  0.6578  0.4578
 9555SOL    HW240302   2.088   2.589   3.790  0.0198  0.0990  0.0458
 9556SOL     OW40303   0.252   2.106   4.798 -0.8893 -0.2039 -0.0067
 9556SOL    HW140304   0.346   2.098   4.782 -0.6328  1.4803  0.6260
 9556SOL    HW240305   0.230   2.196   4.774  1.5428  1.3505  3.5162
 9557SOL     OW40306   4.661   4.232   0.107 -0.7011  0.1940  0.0637
 9557SOL    HW140307   4.577   4.211   0.149 -1.6799  0.6546 -1.6897
 9557SOL    HW240308   4.721   4.199   0.175 -1.3900  0.5225  0.8374
 9558SOL     OW40309   3.404   2.420   6.105  0.0178 -0.4906 -0.1231
 9558SOL    HW140310   3.330   2.472   6.073  0.4018  0.6936  0.9022
 9558SOL    HW240311   3.439   2.378   6.027  0.3565  0.4419 -0.4765
 9559SOL     OW40312   4.313   3.589  15.964  0.0939 -0.4501 -0.2749
 9559SOL    HW140313   4.361   3.507  15.950  0.8881 -0.1549  0.6917
 9559SOL    HW240314   4.371   3.649  15.917  0.3725  1.2900  2.2557
 9560SOL     OW40315   0.323   0.798   3.041 -0.0814 -0.7572  0.2338
 9560SOL    HW140316   0.399   0.756   3.002 -0.0532 -1.1482  0.7123
 9560SOL    HW240317   0.322   0.879   2.990 -1.2829 -0.2607  1.0268
 9561SOL     OW40318   3.030   3.076   7.297 -0.5100  0.2090  0.2268
 9561SOL    HW140319   3.020   3.143   7.229  1.7397  1.4056  1.0874
 9561SOL    HW240320   2.943   3.037   7.302 -0.6447  0.4605 -0.1279
 9562SOL     OW40321   4.301   2.740   2.029 -0.5924 -0.1013 -0.4411
 9562SOL    HW140322   4.211   2.771   2.042 -0.7088 -1.8286  2.8982
 9562SOL    HW240323   4.331   2.732   2.119 -0.0538 -0.0700 -0.6202
 9563SOL     OW40324   4.168   3.925   6.095 -0.3751 -0.7309 -0.3627
 9563SOL    HW140325   4.127   3.921   6.181  0.5621  0.1855  0.1276
 9563SOL    HW240326   4.181   3.834   6.068  0.8348 -0.5363 -0.4139
 9564SOL     OW40327   3.015   3.076  11.325 -0.4181 -0.4980  0.1286
 9564SOL    HW140328   2.994   3.078  11.418 -0.3512  1.1946  0.0925
 9564SOL    HW240329   2.923   3.084  11.301 -0.3280  0.4120  0.1029
 9565SOL     OW40330   4.371   2.056   2.464 -0.1873 -0.5835  0.1182
 9565SOL    HW140331   4.439   2.014   2.411  1.9734  0.9799  1.6687
 9565SOL    HW240332   4.422   2.105   2.529 -1.3274 -0.3821  0.8504
 9566SOL     OW40333   1.246   0.384   0.283 -0.2497  0.4504 -0.3905
 9566SOL    HW140334   1.262   0.463   0.335 -0.6238  0.1601  0.1685
 9566SOL    HW240335   1.257   0.320   0.353 -1.7517 -0.8882 -1.3839
 9567SOL     OW40336   1.476   3.676   5.700  0.3145 -0.3332  0.4439
 9567SOL    HW140337   1.456   3.620   5.775  1.2796 -1.3083 -0.0334
 9567SOL    HW240338   1.559   3.711   5.733  0.4666  2.7015 -3.1804
 9568SOL     OW40339   3.911   3.646  15.151 -0.1012  0.1039  0.1622
 9568SOL    HW140340   3.952   3.560  15.140  0.4313  0.6006 -1.8472
 9568SOL    HW240341   3.878   3.644  15.241 -1.2656  0.0992 -0.2654
 9569SOL     OW40342   4.015   3.589  14.877  1.1351 -0.1743 -0.0441
 9569SOL    HW140343   4.045   3.564  14.965  2.6622  1.1573 -0.2085
 9569SOL    HW240344   3.983   3.672  14.912  1.9425  0.8179 -1.7184
   4.73718   4.73718  17.74702
